Membrane in water
40344
    1TMC1    C1    1   1.028   2.446  11.342 -0.0928 -0.4432 -0.3451
    1TMC1    C2    2   1.093   2.451  11.227  0.4354  0.0485 -0.2503
    1TMC1    C3    3   1.133   2.573  11.178 -0.0052  0.3531 -0.4560
    1TMC1    C4    4   1.004   2.553  11.415  0.0806 -0.0128 -0.3922
    1TMC1    C5    5   1.061   2.671  11.370 -0.2019 -0.2072 -0.0332
    1TMC1    C6    6   1.124   2.685  11.252  0.2530 -0.2196  0.4017
    1TMC1     C    7   0.987   2.315  11.397 -0.0654  0.0756 -0.4711
    1TMC1     O    8   0.916   2.325  11.496 -0.2228  0.3042 -0.2701
    1TMC1     H    9   1.101   2.364  11.162 -0.9347  0.9021 -1.5821
    1TMC1    H1   10   0.940   2.556  11.503 -1.3612 -0.9290 -1.4137
    1TMC1    H2   11   1.164   2.783  11.229 -1.2125 -0.2370 -2.1900
    1TMC1    C7   12   1.072   2.781  11.458 -0.0001 -0.5343 -0.2568
    1TMC1    C8   13   1.215   2.572  11.056  0.1933  0.6707  0.3386
    1TMC1    O1   14   1.033   2.893  11.432 -0.5325 -0.1526  0.0455
    1TMC1    O2   15   1.274   2.479  11.006  0.0566  0.0810  0.0613
    1TMC1    O3   16   1.161   2.751  11.555  0.1532  0.1401  0.0796
    1TMC1    H3   17   1.173   2.655  11.572 -1.1969  0.6796  4.1478
    1TMC1    O5   18   1.217   2.694  11.009 -0.1194 -0.7192 -0.3779
    1TMC1    H5   19   1.168   2.759  11.063  0.3685 -1.7253  1.2726
    2MPD2     C   20   1.049   1.815  11.510  0.0398  0.1167  0.1022
    2MPD2    C1   21   0.952   1.904  11.555 -0.0047 -0.9301 -0.3420
    2MPD2    C2   22   0.962   2.035  11.509 -1.1449 -0.0025  0.1300
    2MPD2    C3   23   1.064   2.072  11.420 -0.2079  0.4118  0.0576
    2MPD2    C4   24   1.158   1.982  11.382 -0.4098  0.4313 -0.6655
    2MPD2    C5   25   1.148   1.855  11.424  0.2196 -0.1478  0.3543
    2MPD2     H   26   0.885   2.108  11.530 -1.9065 -0.5426 -0.7480
    2MPD2    H1   27   1.233   1.997  11.305 -0.9323  1.1289 -1.0273
    2MPD2    H2   28   1.037   1.710  11.535 -1.4043  0.0170 -0.9894
    2MPD2    H3   29   1.216   1.784  11.377 -0.5534 -1.7295  1.6462
    2MPD2     N   30   1.065   2.203  11.358 -0.4558 -0.0059 -0.3892
    2MPD2    H5   31   1.150   2.232  11.312 -0.0372 -1.3868 -0.4903
    2MPD2    N1   32   0.859   1.877  11.658  0.3530 -0.1698 -0.6133
    2MPD2    H7   33   0.814   1.958  11.698  2.1177  0.2006  0.6434
    3TMC1    C1   34   0.265   4.240   9.539 -0.7756 -0.1968  0.2545
    3TMC1    C2   35   0.301   4.355   9.594 -0.5303  0.3328 -0.7806
    3TMC1    C3   36   0.334   4.458   9.506 -0.0455  0.4188 -0.4550
    3TMC1    C4   37   0.250   4.219   9.403  0.1300 -0.1566 -0.0160
    3TMC1    C5   38   0.297   4.322   9.327  0.0298  0.0805  0.0532
    3TMC1    C6   39   0.346   4.440   9.371 -0.2651 -0.2293 -0.0969
    3TMC1     C   40   0.189   4.146   9.617  0.0471  0.1258 -0.3395
    3TMC1     O   41   0.179   4.037   9.566 -0.4315  0.2763 -0.1492
    3TMC1     H   42   0.318   4.372   9.700  0.1246  0.8994 -0.9771
    3TMC1    H1   43   0.205   4.128   9.366  1.1909 -1.1707  1.1938
    3TMC1    H2   44   0.376   4.518   9.301  2.0234 -0.3055  0.7743
    3TMC1    C7   45   0.285   4.310   9.183  0.2951  0.4161 -0.0226
    3TMC1    C8   46   0.409   4.573   9.562  0.2593  0.0565 -0.5996
    3TMC1    O1   47   0.297   4.403   9.108 -0.5276 -0.2315  0.0236
    3TMC1    O2   48   0.487   4.641   9.496 -0.0015  0.3059  0.3339
    3TMC1    O3   49   0.328   4.191   9.158 -0.1552  0.3616 -0.0446
    3TMC1    H3   50   0.345   4.137   9.238  0.6316 -0.4890 -0.7789
    3TMC1    O5   51   0.372   4.613   9.687 -0.7867 -0.1657  0.1676
    3TMC1    H5   52   0.289   4.569   9.716 -1.8048 -0.1089 -2.6233
    4MPD2     C   53   4.741   4.001  10.073  0.2030  0.1794  0.6420
    4MPD2    C1   54   4.722   4.138  10.060 -0.5499  0.3468  0.2914
    4MPD2    C2   55   0.022   4.193   9.944  0.4349  0.0859 -0.1929
    4MPD2    C3   56   0.078   4.126   9.842  0.4252  0.2983 -0.8485
    4MPD2    C4   57   0.079   3.985   9.849 -0.7391 -0.1922 -0.8809
    4MPD2    C5   58   0.027   3.926   9.964  0.0402 -0.5818 -0.3491
    4MPD2     H   59   0.019   4.301   9.936 -1.0684  0.1852  1.8149
    4MPD2    H1   60   0.128   3.920   9.778  1.9715  1.3135 -0.3534
    4MPD2    H2   61   4.703   3.960  10.166  1.4549  2.4698  2.1739
    4MPD2    H3   62   0.039   3.819   9.977 -2.6098 -0.6304  1.7781
    4MPD2     N   63   0.134   4.197   9.733 -1.7713  0.6207  0.6765
    4MPD2    H5   64   0.140   4.298   9.746  1.2974  0.7517 -1.6383
    4MPD2    N1   65   4.685   4.213  10.166 -0.1983 -0.3590  0.2577
    4MPD2    H7   66   4.687   4.313  10.148 -0.4703 -0.0193  2.1916
    5TCq1    O1   67   1.541   0.057  11.758  0.0529  0.2568 -0.8523
    5TCq1    C1   68   1.442   0.025  11.675 -0.0456 -0.4198  0.1087
    5TCq1    O2   69   1.448   4.716  11.561  0.4741 -0.3889 -0.1712
    5TCq1    C2   70   1.313   0.086  11.712  0.3118  0.8429  0.5631
    5TCq1    C3   71   1.276   0.120  11.839 -0.0262 -0.0142  0.3090
    5TCq1    C4   72   1.163   0.193  11.867  0.2533 -0.1469  0.2063
    5TCq1    C5   73   1.071   0.222  11.767  0.2037  0.0026 -0.1399
    5TCq1    C6   74   1.119   0.204  11.639 -0.3410  0.0673  0.5489
    5TCq1    C7   75   1.239   0.136  11.612 -0.2138  0.5169  0.1307
    5TCq1    C8   76   1.056   0.278  11.525  0.2453 -0.1640  0.6199
    5TCq1    O4   77   1.117   0.254  11.419 -0.1142  0.3848 -0.1167
    5TCq1    C9   78   1.123   0.226  12.004  0.0409 -0.1810 -0.1129
    5TCq1    O5   79   1.005   0.264  12.027  0.5110  0.2335  0.0872
    5TCq1    O6   80   1.211   0.205  12.094  0.0892 -0.4030  0.1102
    5TCq1    H1   81   1.504   0.124  11.820 -1.4130  0.7124 -2.2203
    5TCq1    H2   82   1.330   0.087  11.927 -1.0608 -2.1289  0.1715
    5TCq1    H3   83   0.973   0.251  11.803 -0.2227  0.7812 -1.8970
    5TCq1    H4   84   1.278   0.128  11.511 -0.6089 -0.5806  0.0685
    6MPD2     C   85   0.771   0.518  11.506 -0.4308 -0.0015  0.4119
    6MPD2    C1   86   0.867   0.417  11.465 -0.0755  0.0831 -0.4357
    6MPD2    C2   87   0.849   0.353  11.350 -0.3606 -0.0493 -0.6164
    6MPD2    C3   88   0.747   0.389  11.263 -0.4681  0.1960  0.6937
    6MPD2    C4   89   0.667   0.500  11.295  0.6400  0.1096  0.4415
    6MPD2    C5   90   0.687   0.564  11.412  0.3532  0.2570 -0.9090
    6MPD2     H   91   0.916   0.276  11.313  1.1386  1.5300 -1.1528
    6MPD2    H1   92   0.600   0.541  11.221  1.8323 -0.9641 -1.2504
    6MPD2    H2   93   0.780   0.561  11.605  0.9679 -1.0911  0.7624
    6MPD2    H3   94   0.628   0.654  11.423 -1.5159 -1.2493  1.4513
    6MPD2     N   95   0.737   0.331  11.136  0.2968 -0.6146  0.6415
    6MPD2    H5   96   0.795   0.254  11.103 -0.9962 -0.6347 -1.5670
    6MPD2    N1   97   0.954   0.365  11.565  0.0325 -0.6544  0.2459
    6MPD2    H7   98   0.943   0.384  11.664 -1.2245  1.7296 -0.3666
    7TCq1    O1   99   2.818   4.738  12.646 -0.2840  0.9416 -0.6925
    7TCq1    C1  100   2.874   4.667  12.745 -0.9910 -0.5536 -0.3916
    7TCq1    O2  101   2.955   4.572  12.729  0.3337  0.1153  0.0541
    7TCq1    C2  102   2.869   0.015  12.860 -0.6634 -0.3011  0.1898
    7TCq1    C3  103   2.750   0.059  12.912  0.2399  0.7187  0.3705
    7TCq1    C4  104   2.752   0.100  13.035 -0.1357 -0.3546 -0.4789
    7TCq1    C5  105   2.865   0.096  13.111 -0.3854  0.7395 -0.5618
    7TCq1    C6  106   2.982   0.049  13.064 -0.2532  0.1568 -0.0602
    7TCq1    C7  107   2.983   0.007  12.937 -0.4895 -0.7422 -0.3534
    7TCq1    C8  108   3.039   4.688  13.145 -0.6196 -0.6708 -0.3645
    7TCq1    O4  109   3.026   4.577  13.090 -0.0079  0.1549  0.0004
    7TCq1    C9  110   2.631   0.140  13.100  0.5444 -1.2505  0.2487
    7TCq1    O5  111   2.521   0.133  13.035  0.5252 -0.0676 -0.2678
    7TCq1    O6  112   2.643   0.194  13.213 -0.6767 -0.5594  0.0830
    7TCq1    H1  113   2.774   0.080  12.671  0.4386  1.1827 -0.2315
    7TCq1    H2  114   2.657   0.050  12.856  0.6052  2.9844 -0.5941
    7TCq1    H3  115   2.865   0.116  13.217  1.0071 -0.8098 -0.2744
    7TCq1    H4  116   3.067   4.688  12.909  1.0857  0.4293  1.7767
    8MPD2     C  117   3.482   4.561  13.364 -0.3917 -0.4918 -0.1157
    8MPD2    C1  118   3.385   4.475  13.317 -0.2087  0.2161  0.3081
    8MPD2    C2  119   3.262   4.537  13.273 -0.1251 -0.2731 -0.0088
    8MPD2    C3  120   3.246   4.676  13.279  0.0732  0.6582  0.0018
    8MPD2    C4  121   3.345   0.012  13.337  0.2623  0.5531  0.1904
    8MPD2    C5  122   3.463   4.697  13.382 -0.0650  0.0342  0.1485
    8MPD2     H  123   3.191   4.474  13.219  0.1915  0.4903 -1.2982
    8MPD2    H1  124   3.336   0.119  13.353 -0.4436  0.6256 -0.6960
    8MPD2    H2  125   3.574   4.521  13.407 -1.0047 -3.3981 -1.4932
    8MPD2    H3  126   3.533   0.003  13.448  0.3741 -0.5708  0.1263
    8MPD2     N  127   3.139   4.742  13.224  0.1343 -0.2608  0.0035
    8MPD2    H5  128   3.149   0.101  13.226  0.1200 -0.2767  0.7514
    8MPD2    N1  129   3.410   4.340  13.315 -0.4295  0.5706 -0.1468
    8MPD2    H7  130   3.503   4.312  13.345 -0.4374 -0.1372 -0.7914
    9TMC1    C1  131   0.252   2.467  11.104  0.1188 -0.3367  0.7525
    9TMC1    C2  132   0.156   2.505  11.192 -0.0687  0.3127  0.3950
    9TMC1    C3  133   0.022   2.487  11.165 -0.3946 -0.1376  0.4754
    9TMC1    C4  134   0.218   2.432  10.970  0.8255 -0.2575  0.2201
    9TMC1    C5  135   0.084   2.432  10.941  0.1313  0.1242 -0.2733
    9TMC1    C6  136   4.731   2.464  11.034  0.1950  0.7132 -0.3135
    9TMC1     C  137   0.394   2.510  11.116 -0.0351 -0.2118  0.0615
    9TMC1     O  138   0.479   2.501  11.033 -0.1117  0.3365 -0.0375
    9TMC1     H  139   0.170   2.538  11.294  0.7064  0.7871  0.1364
    9TMC1    H1  140   0.297   2.420  10.897  1.3862 -1.1270  0.9749
    9TMC1    H2  141   4.628   2.450  11.003  0.2906 -1.7562  0.5023
    9TMC1    C7  142   0.035   2.370  10.826  0.7560  0.0405 -0.4315
    9TMC1    C8  143   4.681   2.415  11.264  0.5988  0.4039 -0.5620
    9TMC1    O1  144   0.087   2.279  10.767  0.2192 -0.3880 -0.5035
    9TMC1    O2  145   4.568   2.384  11.233 -0.3093  0.0436 -0.4788
    9TMC1    O3  146   4.706   2.472  10.770 -0.2610 -0.1726 -0.6056
    9TMC1    H3  147   4.675   2.547  10.825  2.1097  0.1641  0.2805
    9TMC1    O5  148   0.017   2.359  11.365 -0.8009  0.3389  0.0066
    9TMC1    H5  149   0.113   2.375  11.368 -0.2649 -2.5172 -1.6199
   10MPD2     C  150   0.640   2.661  11.233  0.5724  1.0118  0.0339
   10MPD2    C1  151   0.524   2.623  11.302 -0.1690 -0.4267 -0.1952
   10MPD2    C2  152   0.508   2.646  11.439  0.2615  0.2243 -0.3061
   10MPD2    C3  153   0.593   2.730  11.508 -0.1688 -0.0453 -0.3340
   10MPD2    C4  154   0.706   2.769  11.443  0.4689 -0.9807 -0.3879
   10MPD2    C5  155   0.726   2.736  11.307  0.0254 -0.3464  0.2780
   10MPD2     H  156   0.419   2.608  11.487 -0.0434  1.7235  0.3108
   10MPD2    H1  157   0.771   2.838  11.496  1.6204 -2.5747  0.2923
   10MPD2    H2  158   0.649   2.651  11.126 -0.7774  2.9387 -0.2641
   10MPD2    H3  159   0.811   2.779  11.254  0.0177  0.4136  0.8774
   10MPD2     N  160   0.578   2.764  11.643  0.2535  0.6830  0.0057
   10MPD2    H5  161   0.646   2.831  11.678 -1.3649  1.9485  0.7447
   10MPD2    N1  162   0.418   2.541  11.247 -0.6191  0.3945 -0.0683
   10MPD2    H7  163   0.335   2.535  11.305  1.9692  2.4764  3.9072
   11TCq1    O1  164   1.470   3.176  14.200  0.1526 -0.1850 -0.4039
   11TCq1    C1  165   1.388   3.186  14.095 -0.0222  0.5020  0.4510
   11TCq1    O2  166   1.400   3.139  13.982 -0.0826 -1.2586  0.5049
   11TCq1    C2  167   1.262   3.253  14.126 -0.2183 -0.2015  0.0646
   11TCq1    C3  168   1.223   3.268  14.259 -0.6493  0.0056  0.2361
   11TCq1    C4  169   1.088   3.291  14.287  0.1227 -0.2635 -0.1476
   11TCq1    C5  170   0.995   3.314  14.181 -0.0241  0.2301  0.6865
   11TCq1    C6  171   1.044   3.294  14.058 -0.2456 -0.0457 -0.3632
   11TCq1    C7  172   1.169   3.250  14.023 -0.1127 -0.6381  0.2615
   11TCq1    C8  173   0.941   3.301  13.957  0.3382  0.2970 -0.4515
   11TCq1    O4  174   0.850   3.383  13.971 -0.4698  0.4448 -0.3796
   11TCq1    C9  175   1.040   3.318  14.419 -0.2031  0.2864  0.1612
   11TCq1    O5  176   1.122   3.339  14.511 -0.1292 -0.3657 -0.0044
   11TCq1    O6  177   0.915   3.308  14.433  0.1528 -0.0761  0.7138
   11TCq1    H1  178   1.445   3.230  14.278  0.5272  0.9768 -1.0832
   11TCq1    H2  179   1.297   3.280  14.337  1.0296  0.4925 -1.4290
   11TCq1    H3  180   0.891   3.334  14.201  0.6230  2.4060  1.8081
   11TCq1    H4  181   1.214   3.249  13.925 -0.4089 -1.2212  0.1332
   12MPD2     C  182   0.766   3.251  13.713  0.4325 -0.6397  0.2765
   12MPD2    C1  183   0.875   3.178  13.751 -0.0897  0.1423 -0.4224
   12MPD2    C2  184   0.909   3.069  13.678 -0.3561 -0.4834 -0.6750
   12MPD2    C3  185   0.820   3.020  13.588  0.0800 -0.8367  0.2717
   12MPD2    C4  186   0.700   3.084  13.563 -0.0800  0.1856  0.1815
   12MPD2    C5  187   0.677   3.203  13.624  0.1140  0.6269 -0.5910
   12MPD2     H  188   1.000   3.019  13.709 -1.6145 -2.6314 -0.5122
   12MPD2    H1  189   0.624   3.031  13.508  1.2731 -2.4706  0.8545
   12MPD2    H2  190   0.748   3.346  13.763  0.6648 -1.7881  2.5637
   12MPD2    H3  191   0.580   3.250  13.609 -0.4613  0.4256  2.4373
   12MPD2     N  192   0.849   2.897  13.520  0.2433  0.3892  0.7212
   12MPD2    H5  193   0.772   2.867  13.461  0.8237  1.5641 -0.6433
   12MPD2    N1  194   0.966   3.214  13.853  0.5765 -0.4464 -0.1272
   12MPD2    H7  195   1.039   3.144  13.860  0.5592 -0.5721 -1.1837
   13TCq1    O1  196   0.563   3.834  10.692  0.4612 -0.5093  0.3636
   13TCq1    C1  197   0.692   3.843  10.748 -0.7121  0.4588 -0.6918
   13TCq1    O2  198   0.762   3.943  10.732  0.0464  0.1138  0.3906
   13TCq1    C2  199   0.732   3.707  10.754 -0.1135 -0.0394  0.3204
   13TCq1    C3  200   0.821   3.659  10.657  0.4929  0.2955 -0.2290
   13TCq1    C4  201   0.846   3.525  10.652  0.5695 -0.4995  0.3262
   13TCq1    C5  202   0.772   3.439  10.732  0.1323  0.3999 -0.2003
   13TCq1    C6  203   0.675   3.492  10.817 -0.4988 -0.4039 -0.0090
   13TCq1    C7  204   0.652   3.624  10.826  0.4232  0.0235 -0.6693
   13TCq1    C8  205   0.582   3.399  10.883  0.1091  0.1312  0.2907
   13TCq1    O4  206   0.463   3.417  10.893 -0.7892  0.0786 -0.4572
   13TCq1    C9  207   0.933   3.468  10.556  0.1545 -0.6875  0.0406
   13TCq1    O5  208   0.975   3.542  10.463 -0.4539 -0.8692 -0.0377
   13TCq1    O6  209   0.950   3.340  10.559 -0.1025  0.5769  0.1914
   13TCq1    H1  210   0.540   3.739  10.683 -0.8560 -0.2641  1.1408
   13TCq1    H2  211   0.872   3.729  10.592  0.5352  0.1975 -0.3015
   13TCq1    H3  212   0.787   3.332  10.727 -1.6878  0.0358  2.3487
   13TCq1    H4  213   0.574   3.660  10.892  0.6823  0.9000 -0.8445
   14MPD2     C  214   0.689   3.063  10.980 -0.5359 -0.4165 -0.8719
   14MPD2    C1  215   0.601   3.169  10.969  0.3501 -0.7980  0.6491
   14MPD2    C2  216   0.479   3.162  11.025 -0.4188 -0.1512  0.0247
   14MPD2    C3  217   0.434   3.042  11.070 -0.0690 -0.2088 -0.3474
   14MPD2    C4  218   0.516   2.929  11.062 -0.1422 -0.2219  0.5057
   14MPD2    C5  219   0.641   2.944  11.028  0.3167  0.0252 -0.4405
   14MPD2     H  220   0.407   3.242  11.038  0.2374  0.4919 -0.3048
   14MPD2    H1  221   0.492   2.836  11.111 -1.1043  0.4390  1.2893
   14MPD2    H2  222   0.791   3.054  10.945 -0.0782 -0.8219  0.5653
   14MPD2    H3  223   0.701   2.856  11.009  1.5732  1.1258 -1.5923
   14MPD2     N  224   0.310   3.047  11.131 -0.3132  0.3797 -0.3934
   14MPD2    H5  225   0.260   3.134  11.118  0.0010  0.4025 -1.4432
   14MPD2    N1  226   0.653   3.286  10.907  0.3565  0.1816 -0.0876
   14MPD2    H7  227   0.753   3.291  10.889  0.1812  0.0320 -1.1411
   15TCq1    O1  228   4.225   2.728   1.317 -0.0193  0.1134 -0.2229
   15TCq1    C1  229   4.099   2.673   1.293  0.3605  0.7822 -0.6082
   15TCq1    O2  230   4.013   2.716   1.216  0.2747  0.5946 -0.6151
   15TCq1    C2  231   4.070   2.565   1.386  0.0579  0.0451  0.1493
   15TCq1    C3  232   4.118   2.564   1.516 -0.1277  0.2179  0.4396
   15TCq1    C4  233   4.058   2.476   1.602  0.4089 -1.0365  0.4600
   15TCq1    C5  234   3.974   2.378   1.552 -0.6891  0.6096  0.2882
   15TCq1    C6  235   3.942   2.367   1.416 -0.0304  0.1942 -0.2052
   15TCq1    C7  236   3.991   2.471   1.342 -0.0998 -0.5172 -0.1568
   15TCq1    C8  237   3.854   2.268   1.367  0.1541 -0.2408  0.4007
   15TCq1    O4  238   3.843   2.255   1.246  0.1765 -0.3820 -0.0319
   15TCq1    C9  239   4.094   2.473   1.738 -0.0141  0.0822 -0.0563
   15TCq1    O5  240   4.164   2.570   1.771  0.4114 -0.7920  0.2831
   15TCq1    O6  241   4.073   2.366   1.801 -0.1023 -0.0314  0.5781
   15TCq1    H1  242   4.277   2.685   1.388 -1.9357 -1.8153  0.0233
   15TCq1    H2  243   4.196   2.633   1.549 -2.0576  2.9839 -0.8050
   15TCq1    H3  244   3.937   2.298   1.615  0.2632  0.1620  0.2833
   15TCq1    H4  245   3.972   2.478   1.236  1.2010 -0.5578 -0.3944
   16MPD2     C  246   3.564   2.099   1.507 -1.3340 -0.8810 -0.2414
   16MPD2    C1  247   3.685   2.111   1.440 -0.6941  0.2253 -0.5547
   16MPD2    C2  248   3.733   2.006   1.371  0.7128  0.4363 -1.1383
   16MPD2    C3  249   3.656   1.891   1.363  0.6564 -0.3955 -0.3740
   16MPD2    C4  250   3.530   1.884   1.428  0.3406 -0.6938  0.4875
   16MPD2    C5  251   3.484   1.990   1.497  0.3762 -0.9015  0.3489
   16MPD2     H  252   3.823   2.016   1.311  1.0123 -0.5883 -0.8664
   16MPD2    H1  253   3.462   1.799   1.420 -0.2663 -0.3140  1.6697
   16MPD2    H2  254   3.554   2.182   1.577 -1.0354 -1.0610  0.0131
   16MPD2    H3  255   3.394   1.985   1.558 -0.6013 -3.7667 -1.2941
   16MPD2     N  256   3.694   1.778   1.282  0.6172 -0.0764  0.3281
   16MPD2    H5  257   3.784   1.789   1.237 -0.8366  1.4937 -2.2552
   16MPD2    N1  258   3.770   2.221   1.464  0.2286  0.1199  0.3213
   16MPD2    H7  259   3.761   2.280   1.547  0.2787  2.6441 -1.4621
   17TMC1    C1  260   0.137   2.304  11.746 -0.1716  0.2929 -0.2015
   17TMC1    C2  261   0.146   2.428  11.809  0.0511 -0.5246 -0.3425
   17TMC1    C3  262   0.036   2.474  11.870  0.8455 -0.2584  0.4832
   17TMC1    C4  263   0.021   2.232  11.743 -0.1987  0.1916 -1.1483
   17TMC1    C5  264   4.656   2.281  11.808 -0.0564 -0.0035 -0.5333
   17TMC1    C6  265   4.663   2.402  11.871 -0.2434  0.3275 -0.5132
   17TMC1     C  266   0.263   2.244  11.703  0.2125  0.5173  0.1180
   17TMC1     O  267   0.350   2.323  11.660 -0.1029  0.4999 -0.2196
   17TMC1     H  268   0.235   2.489  11.804 -1.2121  1.4226  0.8539
   17TMC1    H1  269   0.014   2.135  11.696 -1.1257 -0.5329  0.4712
   17TMC1    H2  270   4.573   2.429  11.926 -0.4381 -0.9332 -0.2301
   17TMC1    C7  271   4.538   2.196  11.831  0.5087  0.1648 -0.3748
   17TMC1    C8  272   0.023   2.621  11.871  0.5285 -0.7728 -0.6087
   17TMC1    O1  273   4.434   2.252  11.847 -0.6204  0.2043 -0.6185
   17TMC1    O2  274   0.089   2.692  11.799  0.1372 -0.2661  0.3517
   17TMC1    O3  275   4.564   2.068  11.852 -0.1096 -0.2237  0.6348
   17TMC1    H3  276   4.658   2.041  11.845  0.4613  1.9039  0.0300
   17TMC1    O5  277   4.650   2.655  11.935 -0.3093 -0.1858 -0.4536
   17TMC1    H5  278   4.645   2.606  12.020 -1.8500 -0.2034 -0.5601
   18MPD2     C  279   0.366   1.881  11.677 -0.8048 -0.0566 -0.2056
   18MPD2    C1  280   0.355   2.019  11.649 -0.6097  0.3495 -0.1964
   18MPD2    C2  281   0.451   2.068  11.556  0.2247  0.6598  0.0197
   18MPD2    C3  282   0.549   1.989  11.498  0.0738  0.3990 -0.2372
   18MPD2    C4  283   0.557   1.853  11.528  0.3272  0.2218  0.0537
   18MPD2    C5  284   0.466   1.799  11.620  0.0907  0.5225  0.0669
   18MPD2     H  285   0.448   2.173  11.528  0.7135  0.2068 -1.7216
   18MPD2    H1  286   0.633   1.785  11.490 -0.7619 -0.7504 -0.3945
   18MPD2    H2  287   0.295   1.827  11.739  0.4007  0.3983  1.5624
   18MPD2    H3  288   0.477   1.696  11.650  1.4655  0.7072  0.2006
   18MPD2     N  289   0.640   2.036  11.397  0.2466  0.4585 -0.0091
   18MPD2    H5  290   0.700   1.963  11.362 -1.0249 -1.0510  0.9631
   18MPD2    N1  291   0.253   2.106  11.697 -0.2811  0.4664 -0.3170
   18MPD2    H7  292   0.193   2.065  11.768 -1.2983 -0.4429 -1.6964
   19TMC2    C1  293   2.670   2.934  13.581 -0.2998 -0.1000 -0.1556
   19TMC2    C2  294   2.649   3.054  13.641  0.0991 -0.1956  0.3588
   19TMC2    C3  295   2.528   3.087  13.690  0.4478  0.5859 -0.0393
   19TMC2    C4  296   2.566   2.854  13.558  0.1198 -0.2631 -0.0723
   19TMC2    C5  297   2.443   2.894  13.607  0.4669 -0.3131 -0.7156
   19TMC2    C6  298   2.419   3.008  13.672  0.4456 -0.1901  0.4585
   19TMC2     C  299   2.806   2.892  13.565 -0.3226 -0.4489  0.5952
   19TMC2     O  300   2.833   2.851  13.453  0.0476  0.1295 -0.0544
   19TMC2     H  301   2.736   3.118  13.651 -1.4730  1.7733  1.5399
   19TMC2    H1  302   2.569   2.760  13.504  0.0188 -0.5367  0.3923
   19TMC2    H2  303   2.325   3.041  13.713 -0.8204 -2.6271 -0.4895
   19TMC2    C7  304   2.333   2.802  13.573  0.0890 -1.0814 -0.5356
   19TMC2    C8  305   2.505   3.213  13.760 -0.1632  0.5832 -0.4626
   19TMC2    O1  306   2.359   2.687  13.541  0.5363 -0.1537 -0.1275
   19TMC2    O2  307   2.426   3.223  13.853 -0.1341  0.5120  0.3513
   19TMC2    O5  308   2.609   3.293  13.732 -0.0332 -0.1213 -0.3574
   19TMC2    H5  309   2.646   3.276  13.643 -2.4336  0.5444 -1.4566
   20MPD2     C  310   3.088   2.797  13.610  0.4989  0.7116  0.3584
   20MPD2    C1  311   3.008   2.858  13.709  0.6106 -0.2388 -0.1897
   20MPD2    C2  312   3.052   2.851  13.845 -0.4944 -0.7088  0.2219
   20MPD2    C3  313   3.169   2.775  13.883 -0.0918 -0.6991  0.3081
   20MPD2    C4  314   3.243   2.711  13.782 -0.4565  0.1393 -0.8779
   20MPD2    C5  315   3.196   2.726  13.654  0.2680  0.2572 -0.7079
   20MPD2     H  316   3.005   2.914  13.919 -0.0952  0.0209 -0.1468
   20MPD2    H1  317   3.330   2.650  13.807 -2.2467 -1.7539  0.7399
   20MPD2    H2  318   3.058   2.792  13.506 -1.3554  1.6037  0.8460
   20MPD2    H3  319   3.255   2.677  13.577 -0.6666 -0.3271 -1.0617
   20MPD2     N  320   3.224   2.773  14.013  0.6048 -0.5075  0.0233
   20MPD2    H5  321   3.320   2.744  14.022  0.8411  1.1978  3.1258
   20MPD2    N1  322   2.881   2.917  13.681  0.1848 -0.2404 -0.5823
   20MPD2    H7  323   2.839   2.965  13.760  0.1291  2.8923 -2.5049
   21TMC2    C1  324   0.163   2.999  14.376  0.6233 -0.7207  0.4882
   21TMC2    C2  325   0.216   2.939  14.488 -0.6090  0.4657 -0.6415
   21TMC2    C3  326   0.136   2.923  14.595 -0.2359  0.7245  0.2737
   21TMC2    C4  327   0.043   3.063  14.379  0.1866 -0.5132 -0.5951
   21TMC2    C5  328   4.710   3.042  14.493  0.5239  0.2232  1.0466
   21TMC2    C6  329   0.008   2.975  14.600  0.4183  0.4397 -0.3680
   21TMC2     C  330   0.245   2.984  14.259 -0.0306 -0.0642 -0.5188
   21TMC2     O  331   0.364   2.959  14.283 -0.0922  0.0814 -0.4195
   21TMC2     H  332   0.293   2.863  14.488 -1.2430 -0.1810  1.1039
   21TMC2    H1  333   4.733   3.096  14.290  0.7297  2.3797  0.1716
   21TMC2    H2  334   4.702   2.960  14.696  1.8486 -1.6460  0.0310
   21TMC2    C7  335   4.570   3.043  14.467 -0.3337  0.1445  0.4139
   21TMC2    C8  336   0.145   2.806  14.674  0.0259  0.1646  0.0514
   21TMC2    O1  337   4.512   2.950  14.521 -0.0520  0.4908  0.1807
   21TMC2    O2  338   0.047   2.759  14.732 -0.0809  0.2025 -0.5563
   21TMC2    O5  339   0.268   2.805  14.725  0.3150 -0.0664 -0.0093
   21TMC2    H5  340   0.344   2.826  14.666 -1.5868  1.0017 -2.1234
   22MPD2     C  341   0.325   2.892  13.762  0.8529  0.0821  0.5198
   22MPD2    C1  342   0.410   2.897  13.874 -0.4791  0.6631  0.5672
   22MPD2    C2  343   0.362   2.928  13.996  0.0349 -0.6769  0.0506
   22MPD2    C3  344   0.233   2.971  14.012  0.8096  0.0651 -0.4540
   22MPD2    C4  345   0.145   2.967  13.904 -0.0532 -0.5664 -0.5795
   22MPD2    C5  346   0.194   2.937  13.775 -0.2678 -0.6975  0.4559
   22MPD2     H  347   0.437   2.922  14.074 -1.1067  0.8411  1.2625
   22MPD2    H1  348   0.042   3.001  13.903  0.2578  0.4053  0.6436
   22MPD2    H2  349   0.367   2.869  13.665 -1.2360  2.5761 -0.9741
   22MPD2    H3  350   0.136   2.936  13.684  1.4777 -0.4408 -0.6603
   22MPD2     N  351   0.175   2.992  14.139  0.1311 -0.6639 -0.4990
   22MPD2    H5  352   0.073   2.996  14.146  0.0773 -0.6703 -1.3459
   22MPD2    N1  353   0.545   2.849  13.865  0.0237 -0.3476  0.0645
   22MPD2    H7  354   0.591   2.851  13.955 -2.0478 -1.8117  1.1453
   23TMC2    C1  355   1.267   4.555  14.721 -0.3594  0.2404 -0.6329
   23TMC2    C2  356   1.214   4.679  14.706 -0.1977  0.5488  0.3176
   23TMC2    C3  357   1.093   4.684  14.646 -0.0696  0.7959 -0.7734
   23TMC2    C4  358   1.204   4.437  14.687 -0.3658 -0.1052  0.4887
   23TMC2    C5  359   1.073   4.448  14.638 -0.6040 -0.4547  0.0844
   23TMC2    C6  360   1.019   4.577  14.617  0.3594  0.2462  0.1207
   23TMC2     C  361   1.400   4.541  14.777  0.7637  0.8056  0.0332
   23TMC2     O  362   1.439   4.427  14.804  0.7635 -0.0652  0.3454
   23TMC2     H  363   1.254   0.031  14.740 -2.2789  1.9087 -1.0668
   23TMC2    H1  364   1.250   4.339  14.685 -2.8767 -1.2408 -1.2139
   23TMC2    H2  365   0.922   4.589  14.569  0.1117 -0.7686  0.3557
   23TMC2    C7  366   1.024   4.334  14.558  0.3990 -0.2927 -0.2110
   23TMC2    C8  367   1.034   0.069  14.651 -0.3802  0.1983  0.0409
   23TMC2    O1  368   1.074   4.226  14.580 -0.4039 -0.0573  0.4627
   23TMC2    O2  369   1.060   0.162  14.726 -1.0109  0.7198  0.2379
   23TMC2    O5  370   0.928   0.080  14.566  0.1262 -0.3702 -0.3848
   23TMC2    H5  371   0.929   0.007  14.501 -0.8202 -0.4324 -0.3243
   24MPD2     C  372   1.872   4.662  14.865 -0.4678 -0.5133  0.2120
   24MPD2    C1  373   1.793   4.581  14.936 -0.1880 -0.3924 -0.0998
   24MPD2    C2  374   1.657   4.579  14.909  0.0381  0.1769  0.7860
   24MPD2    C3  375   1.604   4.666  14.818 -0.1494 -0.0821 -0.2855
   24MPD2    C4  376   1.683   0.021  14.765 -0.3812 -0.1108  0.6083
   24MPD2    C5  377   1.814   0.014  14.786 -0.2657  0.3901 -0.1953
   24MPD2     H  378   1.588   4.513  14.961  0.5323 -0.0776  1.1279
   24MPD2    H1  379   1.645   0.097  14.698  0.5722  1.6548  2.0455
   24MPD2    H2  380   1.980   4.670  14.877 -0.7326  0.5178  1.9814
   24MPD2    H3  381   1.882   0.084  14.739 -0.4888  0.2579 -0.7176
   24MPD2     N  382   1.470   4.665  14.780  0.6570  0.2567 -0.0361
   24MPD2    H5  383   1.424   0.003  14.738  1.7067  2.1468  2.4551
   24MPD2    N1  384   1.850   4.495  15.034  0.3117  0.4071  0.0490
   24MPD2    H7  385   1.950   4.512  15.043  0.4005 -0.7269  1.2939
   25TMC2    C1  386   0.632   0.917  11.726  0.1130  1.0499  0.3425
   25TMC2    C2  387   0.746   0.990  11.746 -0.1538  0.1970 -0.1116
   25TMC2    C3  388   0.739   1.127  11.764 -0.5894  0.2156 -0.0120
   25TMC2    C4  389   0.508   0.987  11.713 -0.0274 -0.9790  0.7420
   25TMC2    C5  390   0.511   1.131  11.735  1.0874  1.2954  1.2374
   25TMC2    C6  391   0.625   1.205  11.757  0.3295 -0.4477 -0.4919
   25TMC2     C  392   0.639   0.769  11.721  1.0072  0.0885  0.2046
   25TMC2     O  393   0.723   0.706  11.787  0.3674 -0.1804 -0.1834
   25TMC2     H  394   0.843   0.943  11.731 -1.3141 -2.2886  0.2084
   25TMC2    H1  395   0.413   0.935  11.706 -0.7180  0.4050 -0.2147
   25TMC2    H2  396   0.629   1.313  11.766 -0.2009 -0.2856 -2.2046
   25TMC2    C7  397   0.385   1.198  11.752  0.1305 -0.3659 -0.2434
   25TMC2    C8  398   0.866   1.192  11.757  0.1623 -0.3016  0.1655
   25TMC2    O1  399   0.393   1.310  11.808  0.0251  0.3304 -0.1423
   25TMC2    O2  400   0.888   1.287  11.680 -0.6325  0.6854  0.1612
   25TMC2    O5  401   0.917   1.177  11.880 -0.7846 -0.3981  0.4776
   25TMC2    H5  402   0.882   1.095  11.920  1.4473 -1.6985 -0.1936
   26MPD2     C  403   0.333   0.366  11.737 -0.3114  0.0186  0.0588
   26MPD2    C1  404   0.292   0.448  11.637 -0.0189 -0.0228 -0.3508
   26MPD2    C2  405   0.350   0.564  11.617 -0.4386  0.1784  0.5100
   26MPD2    C3  406   0.470   0.598  11.680  0.1237 -0.2330 -0.7053
   26MPD2    C4  407   0.525   0.500  11.761 -0.3082  0.2041 -0.3604
   26MPD2    C5  408   0.455   0.384  11.798  0.2828  0.3906  0.1841
   26MPD2     H  409   0.302   0.640  11.557 -0.7457  1.8490  2.9109
   26MPD2    H1  410   0.615   0.513  11.822 -0.1188  1.9549 -1.0245
   26MPD2    H2  411   0.279   0.274  11.760  0.5446 -1.0527 -2.1507
   26MPD2    H3  412   0.490   0.320  11.878 -1.1110  0.8736  1.1895
   26MPD2     N  413   0.522   0.729  11.660  0.3633 -0.1465 -0.3971
   26MPD2    H5  414   0.464   0.799  11.615 -0.5353 -0.4948  0.2230
   26MPD2    N1  415   0.164   0.406  11.589 -0.0511  0.3419  0.6273
   26MPD2    H7  416   0.126   0.320  11.627 -1.7629  0.1277 -1.5869
   27TMC2    C1  417   3.542   3.544  11.645  0.0465 -0.3208  0.0722
   27TMC2    C2  418   3.499   3.635  11.550 -0.4426  0.4366 -0.3697
   27TMC2    C3  419   3.564   3.754  11.542  0.6107 -0.5417  0.2632
   27TMC2    C4  420   3.662   3.564  11.708 -0.2694 -0.0520  0.0165
   27TMC2    C5  421   3.729   3.679  11.691 -0.0591 -0.3756 -0.1723
   27TMC2    C6  422   3.680   3.778  11.611 -0.0071  0.0129  0.2991
   27TMC2     C  423   3.454   3.436  11.691 -0.1861 -0.1546 -0.4729
   27TMC2     O  424   3.351   3.407  11.630  0.0020  0.2878 -0.3536
   27TMC2     H  425   3.394   3.630  11.522 -1.2506 -0.0207  2.7501
   27TMC2    H1  426   3.704   3.492  11.777  1.8224  0.6568 -0.5187
   27TMC2    H2  427   3.739   3.865  11.582 -0.9445  0.5255 -0.0627
   27TMC2    C7  428   3.811   3.715  11.801  0.1609 -0.0156  0.1038
   27TMC2    C8  429   3.490   3.873  11.502 -0.6867 -0.0874  0.1874
   27TMC2    O1  430   3.837   3.623  11.877 -0.2190 -0.2576 -0.0937
   27TMC2    O2  431   3.524   3.982  11.536 -0.0980  0.5175 -0.0688
   27TMC2    O5  432   3.396   3.854  11.407  0.0148  0.2007  0.0065
   27TMC2    H5  433   3.392   3.775  11.350  1.1876  0.1513 -0.0066
   28MPD2     C  434   3.272   3.119  12.060 -0.1038 -0.3791 -0.0181
   28MPD2    C1  435   3.364   3.209  12.113 -0.5462  0.6840  0.6822
   28MPD2    C2  436   3.440   3.288  12.025 -0.6748  0.1168 -0.2129
   28MPD2    C3  437   3.417   3.285  11.890  0.2303  0.2981 -0.8340
   28MPD2    C4  438   3.323   3.198  11.836  0.4347 -0.3405 -0.2033
   28MPD2    C5  439   3.251   3.116  11.925  0.4723  0.7897  0.1611
   28MPD2     H  440   3.510   3.354  12.074 -1.4956  1.5668 -1.0165
   28MPD2    H1  441   3.316   3.187  11.729  0.8798 -1.1464 -0.1504
   28MPD2    H2  442   3.204   3.067  12.126  0.4091  0.7810  1.4168
   28MPD2    H3  443   3.176   3.053  11.878  1.7577 -2.7110  2.8658
   28MPD2     N  444   3.492   3.385  11.814  0.4597  0.0735 -0.1596
   28MPD2    H5  445   3.570   3.438  11.852  1.9925 -1.8734 -0.5765
   28MPD2    N1  446   3.356   3.229  12.257  1.2646  0.3539  0.9692
   28MPD2    H7  447   3.306   3.160  12.312 -0.4373 -0.4641 -1.6159
   29TMC2    C1  448   4.109   1.546  14.054 -0.1078  0.2512  0.1315
   29TMC2    C2  449   4.239   1.518  14.050 -0.2659 -0.4329  0.4812
   29TMC2    C3  450   4.327   1.610  14.106  0.1841 -0.4974 -0.3464
   29TMC2    C4  451   4.063   1.666  14.105  0.4360  0.0011  0.2411
   29TMC2    C5  452   4.151   1.754  14.156  0.1208 -0.1433 -0.2034
   29TMC2    C6  453   4.288   1.724  14.164  0.0317 -0.0591 -0.4039
   29TMC2     C  454   4.020   1.431  14.015  0.1886  0.1823  0.5994
   29TMC2     O  455   4.066   1.320  14.029 -0.3579 -0.3919 -0.1112
   29TMC2     H  456   4.271   1.422  14.012 -1.8839 -1.5598  1.9565
   29TMC2    H1  457   3.956   1.682  14.117  0.3199 -1.0094  0.5917
   29TMC2    H2  458   4.364   1.781  14.217 -1.4977  1.1499  0.5037
   29TMC2    C7  459   4.095   1.866  14.222  0.1845  0.2785 -0.3278
   29TMC2    C8  460   4.463   1.613  14.068  0.2104 -0.0669  0.1217
   29TMC2    O1  461   3.985   1.839  14.265 -0.2611 -0.1360  0.3239
   29TMC2    O2  462   4.519   1.719  14.078  0.7585 -0.7522 -0.5325
   29TMC2    O5  463   4.513   1.490  14.103 -0.5212 -0.3125  0.3869
   29TMC2    H5  464   4.449   1.430  14.147 -0.6368 -0.9820 -0.7078
   30MPD2     C  465   3.576   1.217  13.856 -0.0841  0.4697 -0.2926
   30MPD2    C1  466   3.702   1.168  13.848 -0.8583 -0.0610 -0.1436
   30MPD2    C2  467   3.806   1.250  13.889  0.1433 -0.2099 -0.5502
   30MPD2    C3  468   3.783   1.374  13.939 -0.2507 -0.7799  0.2654
   30MPD2    C4  469   3.652   1.428  13.946 -0.9588  0.6815  0.1916
   30MPD2    C5  470   3.550   1.345  13.906  0.1542  0.0387 -0.3145
   30MPD2     H  471   3.902   1.198  13.897 -0.1786 -0.7918 -0.4297
   30MPD2    H1  472   3.622   1.522  13.991  1.9054  1.8090 -0.2640
   30MPD2    H2  473   3.490   1.157  13.827 -0.3673  1.1040 -0.7676
   30MPD2    H3  474   3.449   1.383  13.916  0.5419  0.9704  0.0730
   30MPD2     N  475   3.889   1.462  13.985 -0.3889 -0.1201  0.0925
   30MPD2    H5  476   3.857   1.557  14.003 -0.2428 -0.0728  0.1062
   30MPD2    N1  477   3.740   1.028  13.830  0.4040 -0.0644 -0.2312
   30MPD2    H7  478   3.838   1.006  13.820  1.3975  3.1372  2.6889
   31TMC2    C1  479   1.588   0.189  15.701 -0.3169  0.5517  0.7627
   31TMC2    C2  480   1.485   0.275  15.714 -0.1086  0.1354 -0.5840
   31TMC2    C3  481   1.451   0.334  15.834 -0.1429 -0.2477 -0.3295
   31TMC2    C4  482   1.660   0.163  15.813 -0.3406  0.0166  0.2478
   31TMC2    C5  483   1.635   0.237  15.929 -0.7137 -0.0672 -0.5659
   31TMC2    C6  484   1.522   0.316  15.953  0.4256  0.0534 -0.0389
   31TMC2     C  485   1.638   0.147  15.571 -0.6200 -0.3133 -0.4833
   31TMC2     O  486   1.580   0.206  15.482  0.2917  0.1656  0.0629
   31TMC2     H  487   1.438   0.315  15.625  0.1626 -0.2201 -0.8816
   31TMC2    H1  488   1.755   0.110  15.815  0.0066  0.6102 -0.4890
   31TMC2    H2  489   1.495   0.373  16.042 -2.5836 -0.0877 -0.8631
   31TMC2    C7  490   1.740   0.216  16.028 -0.0295  0.0744 -0.7794
   31TMC2    C8  491   1.310   0.377  15.851 -0.3889  0.4751 -0.1268
   31TMC2    O1  492   1.806   0.112  16.023  0.0891  0.4671 -0.4582
   31TMC2    O2  493   1.225   0.316  15.918  0.2970  0.2961  0.2611
   31TMC2    O5  494   1.298   0.485  15.779  0.0503 -0.7734 -0.4607
   31TMC2    H5  495   1.383   0.525  15.749  0.9039 -2.1613  0.0948
   32MPD2     C  496   2.023   0.031  15.263  0.2774  0.0235  0.7843
   32MPD2    C1  497   1.911   0.110  15.236  0.1163  0.1008  0.5499
   32MPD2    C2  498   1.823   0.123  15.343  0.1462 -0.1639 -0.1316
   32MPD2    C3  499   1.841   0.057  15.463  0.2146 -0.3808  0.1334
   32MPD2    C4  500   1.955   4.724  15.480  0.1642  0.6513  0.1570
   32MPD2    C5  501   2.039   4.709  15.381 -1.0169 -0.1999  0.8494
   32MPD2     H  502   1.726   0.168  15.327  0.6552  1.3298  0.9745
   32MPD2    H1  503   1.977   4.659  15.564  2.1068 -0.1454 -0.9728
   32MPD2    H2  504   2.099   0.002  15.192  0.0883 -2.0249  1.4166
   32MPD2    H3  505   2.122   4.642  15.395  0.8052  1.6789 -1.0512
   32MPD2     N  506   1.752   0.067  15.571  0.1370 -0.0728 -0.3282
   32MPD2    H5  507   1.785   0.025  15.657 -0.2600  2.0796  0.8795
   32MPD2    N1  508   1.900   0.169  15.113  0.1142  0.1418 -0.1050
   32MPD2    H7  509   1.976   0.165  15.045  1.8421 -0.6378  1.8882
   33TMC2    C1  510   0.458   3.011  10.660 -0.4486  0.2512 -0.2577
   33TMC2    C2  511   0.336   3.035  10.726 -0.7591 -0.2462  0.4821
   33TMC2    C3  512   0.283   3.159  10.721 -0.6474  0.1752  0.1660
   33TMC2    C4  513   0.524   3.114  10.595  0.5400  0.1104  0.5477
   33TMC2    C5  514   0.460   3.235  10.590 -1.0835 -0.0861  0.2783
   33TMC2    C6  515   0.343   3.261  10.657 -0.0108 -0.5631  0.4155
   33TMC2     C  516   0.524   2.882  10.695 -0.0469  0.2929  0.2334
   33TMC2     O  517   0.451   2.788  10.724 -0.3601 -0.0471  0.3647
   33TMC2     H  518   0.293   2.963  10.795 -0.1610 -0.4298  0.6618
   33TMC2    H1  519   0.605   3.091  10.526  0.8845  3.8840 -0.2815
   33TMC2    H2  520   0.297   3.359  10.654 -0.2908 -0.5913  3.6036
   33TMC2    C7  521   0.532   3.328  10.516 -0.6225 -0.4449 -0.7403
   33TMC2    C8  522   0.173   3.190  10.800  0.1163 -0.0750 -0.2938
   33TMC2    O1  523   0.635   3.292  10.464 -0.5018  0.0339 -0.0633
   33TMC2    O2  524   0.090   3.106  10.820 -0.1499 -0.6352  0.5518
   33TMC2    O5  525   0.222   3.287  10.884  0.6121 -0.1306  0.5096
   33TMC2    H5  526   0.304   3.330  10.853  0.1891  1.0219  1.0044
   34MPD2     C  527   0.925   2.609  10.849  0.5180 -0.6607  0.6043
   34MPD2    C1  528   0.791   2.585  10.865  0.0203 -0.3153 -0.6947
   34MPD2    C2  529   0.694   2.674  10.812 -0.6495 -0.7808  0.2831
   34MPD2    C3  530   0.743   2.787  10.750 -0.3496  0.4469 -0.3483
   34MPD2    C4  531   0.875   2.809  10.736 -0.4973  0.2363  0.1566
   34MPD2    C5  532   0.966   2.717  10.780  0.2565 -0.0292 -0.4128
   34MPD2     H  533   0.589   2.656  10.834 -0.3556 -1.6773  0.9452
   34MPD2    H1  534   0.929   2.889  10.686 -0.0909 -0.1563 -0.0391
   34MPD2    H2  535   1.012   2.561  10.893  1.4997  0.7658  0.2028
   34MPD2    H3  536   1.072   2.736  10.783  0.4101 -0.9983  0.2437
   34MPD2     N  537   0.660   2.888  10.696  0.0099  0.1360 -0.7286
   34MPD2    H5  538   0.706   2.972  10.662 -0.0008 -0.0794 -1.2736
   34MPD2    N1  539   0.740   2.479  10.936  0.0625  0.1391  0.1115
   34MPD2    H7  540   0.640   2.466  10.947 -0.1250  0.7942 -0.8141
   35TMC2    C1  541   2.479   3.902  11.502  0.0099  0.3137  0.0919
   35TMC2    C2  542   2.407   4.017  11.482  0.2935  0.2265 -0.3571
   35TMC2    C3  543   2.283   4.012  11.544  0.2451 -0.3775 -0.2616
   35TMC2    C4  544   2.423   3.799  11.571 -0.5837  0.5255 -0.0012
   35TMC2    C5  545   2.293   3.801  11.627  0.0329  0.5118 -0.8246
   35TMC2    C6  546   2.218   3.914  11.613 -0.2489  0.1088  0.1539
   35TMC2     C  547   2.608   3.891  11.445  0.4818 -0.2727 -0.2303
   35TMC2     O  548   2.623   3.945  11.337  0.0855  0.7369 -0.3392
   35TMC2     H  549   2.434   4.109  11.432 -0.5343  0.1628 -0.9230
   35TMC2    H1  550   2.469   3.701  11.578 -3.9548 -1.0298  0.7007
   35TMC2    H2  551   2.118   3.922  11.655  0.1670 -1.3931  1.4670
   35TMC2    C7  552   2.229   3.676  11.679  0.2237 -0.2726  0.0912
   35TMC2    C8  553   2.201   4.129  11.514  0.0724 -0.3383  0.0570
   35TMC2    O1  554   2.109   3.659  11.666 -0.3658 -0.1540  0.5617
   35TMC2    O2  555   2.234   4.198  11.419  0.1518 -0.2012  0.2638
   35TMC2    O5  556   2.135   4.160  11.629 -0.5153  0.6071  0.0258
   35TMC2    H5  557   2.184   4.137  11.710 -2.0256  0.4387  0.8841
   36MPD2     C  558   3.071   3.668  11.460 -0.0015  0.0903  0.0118
   36MPD2    C1  559   2.995   3.636  11.575 -0.0419 -0.3952  0.6822
   36MPD2    C2  560   2.873   3.697  11.597  0.2203  0.2105 -0.4734
   36MPD2    C3  561   2.822   3.774  11.503  0.5177 -0.3987  0.1352
   36MPD2    C4  562   2.898   3.816  11.390 -0.1963 -0.1829  0.0984
   36MPD2    C5  563   3.022   3.763  11.375 -0.2910 -0.3855  0.0359
   36MPD2     H  564   2.808   3.671  11.680  0.5782  1.6350  0.2674
   36MPD2    H1  565   2.865   3.893  11.320 -0.5039  0.0585  0.5105
   36MPD2    H2  566   3.174   3.633  11.461 -0.1389 -0.3071  1.6281
   36MPD2    H3  567   3.083   3.808  11.298  0.5781  0.3255  1.1448
   36MPD2     N  568   2.690   3.817  11.526  0.0061  0.3261  0.2561
   36MPD2    H5  569   2.656   3.773  11.611  0.3375  1.3152  0.8889
   36MPD2    N1  570   3.057   3.554  11.671  0.3150  0.1658 -0.3476
   36MPD2    H7  571   3.149   3.519  11.646 -0.7644 -1.8349 -1.5473
   37TMC2    C1  572   0.419   4.476  11.373 -1.3438  0.3676  0.4303
   37TMC2    C2  573   0.436   4.589  11.298  0.5648 -0.1124 -0.6474
   37TMC2    C3  574   0.562   4.619  11.257 -0.4395  0.0230  0.0950
   37TMC2    C4  575   0.527   4.404  11.412  0.1340 -0.8814 -0.1780
   37TMC2    C5  576   0.650   4.431  11.365  0.2705  0.0505  0.9180
   37TMC2    C6  577   0.676   4.545  11.288  0.0031  0.1504  0.5015
   37TMC2     C  578   0.303   4.468  11.452  0.0027  0.1422  0.4307
   37TMC2     O  579   0.204   4.531  11.423 -0.0574 -0.0258  0.1198
   37TMC2     H  580   0.349   4.643  11.264 -0.9267 -1.7623  0.5645
   37TMC2    H1  581   0.520   4.309  11.463 -1.1643 -0.3213  0.6742
   37TMC2    H2  582   0.776   4.578  11.263 -0.4278  1.4493  0.4918
   37TMC2    C7  583   0.756   4.327  11.381  0.1890 -0.3250  0.7551
   37TMC2    C8  584   0.575   0.004  11.201 -0.4711 -0.0802  0.2555
   37TMC2    O1  585   0.739   4.239  11.464  0.2937 -0.5759  0.3776
   37TMC2    O2  586   0.528   0.107  11.254  0.5785  0.3009  0.3467
   37TMC2    O5  587   0.680   4.735  11.120 -0.0191  0.0989  0.6237
   37TMC2    H5  588   0.682   4.641  11.090 -0.5839  0.4573 -0.5489
   38MPD2     C  589   0.085   4.355  11.896  0.4998  0.3054  0.4915
   38MPD2    C1  590   0.212   4.305  11.896  0.0644  0.0878  0.0600
   38MPD2    C2  591   0.297   4.330  11.789 -0.2969  1.0047  0.0264
   38MPD2    C3  592   0.253   4.393  11.675 -0.8070 -0.3073  0.7873
   38MPD2    C4  593   0.115   4.436  11.680 -0.0302  0.0537 -0.3285
   38MPD2    C5  594   0.033   4.416  11.792  0.1232  0.6334  0.1048
   38MPD2     H  595   0.398   4.291  11.790 -1.1628 -1.2418 -0.8090
   38MPD2    H1  596   0.068   4.493  11.601  0.0103  1.7027  0.8392
   38MPD2    H2  597   0.021   4.336  11.982 -1.0480 -0.4917 -0.8365
   38MPD2    H3  598   4.672   4.447  11.783 -0.4090 -1.4092 -0.5969
   38MPD2     N  599   0.336   4.402  11.566  0.0450 -0.1835 -0.3581
   38MPD2    H5  600   0.431   4.377  11.589 -0.0919  0.3679  0.7900
   38MPD2    N1  601   0.264   4.225  12.001  0.0257  0.2163 -0.0197
   38MPD2    H7  602   0.359   4.191  11.988  0.0479  0.0190  0.6695
   39TMC2    C1  603   3.947   0.994   1.222 -0.4492  0.4406  0.5607
   39TMC2    C2  604   4.032   0.941   1.128 -0.0311 -0.7178  0.2912
   39TMC2    C3  605   4.163   0.939   1.163  0.0384  0.4728  0.2249
   39TMC2    C4  606   3.980   1.077   1.319  0.1629  0.2369  0.6236
   39TMC2    C5  607   4.115   1.084   1.339  0.9194 -0.4739 -0.2399
   39TMC2    C6  608   4.209   1.018   1.264  0.0724 -0.1006 -0.4692
   39TMC2     C  609   3.810   0.948   1.220 -0.0189 -0.1432 -0.0181
   39TMC2     O  610   3.730   1.027   1.260 -0.3835  0.5747  0.6232
   39TMC2     H  611   3.998   0.898   1.034  2.7286 -2.5112  0.1369
   39TMC2    H1  612   3.914   1.125   1.391 -0.8904 -2.5095  1.4827
   39TMC2    H2  613   4.316   1.030   1.281  0.4383 -0.2712 -2.7378
   39TMC2    C7  614   4.168   1.109   1.468  0.8271 -0.9245  0.7799
   39TMC2    C8  615   4.251   0.871   1.083 -0.3174  0.6826 -0.0785
   39TMC2    O1  616   4.268   1.053   1.506  0.4258 -0.0912  0.0718
   39TMC2    O2  617   4.342   0.795   1.123  0.6262 -0.8174 -0.1558
   39TMC2    O5  618   4.244   0.918   0.962  0.1372 -0.7594 -0.4165
   39TMC2    H5  619   4.184   0.996   0.964  4.3729  2.4842 -0.7314
   40MPD2     C  620   3.669   0.642   1.067  0.0248  0.2064  0.2209
   40MPD2    C1  621   3.674   0.770   1.110 -1.1055  0.4825 -0.0638
   40MPD2    C2  622   3.549   0.834   1.124  0.5624 -0.5076  0.2344
   40MPD2    C3  623   3.426   0.764   1.095  0.5612 -0.0732 -0.1881
   40MPD2    C4  624   3.437   0.636   1.047 -0.3034  0.1325  0.0337
   40MPD2    C5  625   3.557   0.570   1.034  0.1426  0.0708  0.6262
   40MPD2     H  626   3.544   0.935   1.162  1.3362 -0.4717  0.2443
   40MPD2    H1  627   3.353   0.568   1.036  0.6484 -1.4974  3.0558
   40MPD2    H2  628   3.765   0.591   1.059 -0.4192  0.0672 -3.9950
   40MPD2    H3  629   3.566   0.467   1.001  1.0350 -0.2043  1.7300
   40MPD2     N  630   3.293   0.817   1.101  0.1435  0.5438  0.0598
   40MPD2    H5  631   3.218   0.771   1.051  1.5175 -1.3609 -0.2431
   40MPD2    N1  632   3.796   0.826   1.160 -0.3907  0.9491  0.0277
   40MPD2    H7  633   3.879   0.770   1.148 -0.5639  0.4619  1.1657
   41TMC2    C1  634   2.034   4.386  13.519  0.0582  0.4998 -0.4179
   41TMC2    C2  635   1.923   4.398  13.436 -0.0554 -0.5704  0.2455
   41TMC2    C3  636   1.939   4.426  13.307  0.3313 -0.0636 -0.6835
   41TMC2    C4  637   2.156   4.421  13.472  0.9497 -0.6836 -0.2539
   41TMC2    C5  638   2.168   4.468  13.342 -0.4849  0.1643  0.2585
   41TMC2    C6  639   2.060   4.471  13.260 -0.3371  0.0900  0.4403
   41TMC2     C  640   2.014   4.329  13.649 -0.4388  0.2916  0.4323
   41TMC2     O  641   1.898   4.299  13.671 -0.4080 -0.2687 -0.1947
   41TMC2     H  642   1.829   4.373  13.485  0.5733 -1.1333  1.1733
   41TMC2    H1  643   2.245   4.383  13.521  0.9201 -0.6610 -0.1821
   41TMC2    H2  644   2.069   4.486  13.153  0.0343 -1.5335  0.2355
   41TMC2    C7  645   2.302   4.467  13.287  0.2632 -0.3459  0.1133
   41TMC2    C8  646   1.832   4.418  13.216  0.1729  0.5838  0.5986
   41TMC2    O1  647   2.387   4.495  13.371 -0.2581 -0.4031 -0.0662
   41TMC2    O2  648   1.837   4.495  13.119  0.4529 -0.0392 -0.2813
   41TMC2    O5  649   1.722   4.357  13.274  0.2532 -0.6386 -0.1331
   41TMC2    H5  650   1.733   4.306  13.357  0.7221  0.8796  0.7508
   42MPD2     C  651   2.040   4.246  13.944 -0.8881  0.5053  0.1383
   42MPD2    C1  652   2.145   4.303  13.870  0.9667 -0.7702  0.0776
   42MPD2    C2  653   2.271   4.321  13.928  0.3325  0.1344  0.4167
   42MPD2    C3  654   2.291   4.281  14.054 -0.5223  0.8487  0.0735
   42MPD2    C4  655   2.194   4.217  14.123  0.4566 -0.6373  0.0934
   42MPD2    C5  656   2.064   4.199  14.073  0.3595 -0.2666  0.2999
   42MPD2     H  657   2.343   4.384  13.877  1.0270 -0.1168  1.0837
   42MPD2    H1  658   2.200   4.175  14.223  1.8557 -0.7345 -0.0390
   42MPD2    H2  659   1.942   4.227  13.901 -0.0820 -1.6310 -0.7481
   42MPD2    H3  660   1.981   4.163  14.133  0.9009 -1.0320  0.5900
   42MPD2     N  661   2.408   4.312  14.127 -0.2558  0.4681 -0.2523
   42MPD2    H5  662   2.416   4.260  14.214 -3.0064  0.5026  0.0257
   42MPD2    N1  663   2.126   4.341  13.732  0.5663 -0.1998  0.1397
   42MPD2    H7  664   2.203   4.389  13.687 -0.6484  1.2488 -0.3649
   43TMC2    C1  665   3.652   2.138   0.593  0.6441  0.9076 -0.6975
   43TMC2    C2  666   3.539   2.200   0.635 -0.3915 -0.3600 -0.2576
   43TMC2    C3  667   3.570   2.297   0.721 -0.1826 -0.0565 -0.3495
   43TMC2    C4  668   3.772   2.201   0.595  0.2317 -0.0964  0.3318
   43TMC2    C5  669   3.787   2.307   0.671  0.1928  0.1476 -1.0757
   43TMC2    C6  670   3.687   2.360   0.749  0.5353  0.2749 -0.8547
   43TMC2     C  671   3.634   2.025   0.507  0.3108 -0.4130  0.1577
   43TMC2     O  672   3.702   2.026   0.405  0.5273  0.3045 -0.3234
   43TMC2     H  673   3.438   2.163   0.624  1.0847 -4.0464 -1.4758
   43TMC2    H1  674   3.863   2.152   0.560 -0.7996 -1.8074  0.0380
   43TMC2    H2  675   3.688   2.442   0.820  0.1458  0.4354 -1.0366
   43TMC2    C7  676   3.891   2.398   0.643 -0.0910  0.1800 -0.4506
   43TMC2    C8  677   3.453   2.351   0.791  0.7033 -0.8012  0.9106
   43TMC2    O1  678   3.946   2.391   0.536  0.5535 -0.2186  0.4379
   43TMC2    O2  679   3.473   2.407   0.896 -0.0266  0.2410 -0.5278
   43TMC2    O5  680   3.356   2.372   0.701  0.3701  0.2418  0.1645
   43TMC2    H5  681   3.349   2.296   0.639 -1.7106 -0.1488  0.8812
   44MPD2     C  682   3.448   1.570   0.348  0.4386  0.2235  0.3108
   44MPD2    C1  683   3.571   1.622   0.329  0.7562  0.5238  0.1321
   44MPD2    C2  684   3.598   1.742   0.392 -0.9182 -0.4053  0.4521
   44MPD2    C3  685   3.518   1.811   0.479  0.6364  0.0691  0.4200
   44MPD2    C4  686   3.394   1.753   0.495 -0.3961  0.3602 -0.5453
   44MPD2    C5  687   3.357   1.644   0.417 -0.1575  0.4366 -0.2357
   44MPD2     H  688   3.695   1.786   0.370 -0.6229 -1.6608 -0.7829
   44MPD2    H1  689   3.320   1.800   0.559 -0.9362 -1.3720  0.0997
   44MPD2    H2  690   3.412   1.480   0.300  0.2512  1.1226 -1.2452
   44MPD2    H3  691   3.259   1.599   0.432  0.4202 -0.8771 -0.4075
   44MPD2     N  692   3.548   1.932   0.552  0.1900  0.4944  0.5682
   44MPD2    H5  693   3.491   1.965   0.630  1.3734 -1.0761  2.0922
   44MPD2    N1  694   3.671   1.558   0.259  0.6391  0.2175 -0.3464
   44MPD2    H7  695   3.757   1.611   0.251  0.5440  0.3367 -0.5644
   45TMC2    C1  696   4.602   0.052   9.246 -0.1153  0.2546  0.3903
   45TMC2    C2  697   4.686   0.111   9.156 -0.3725 -0.0543 -0.3331
   45TMC2    C3  698   4.729   0.237   9.176 -0.1905 -0.1961 -0.2953
   45TMC2    C4  699   4.562   0.117   9.358  0.3976  0.4249  0.3456
   45TMC2    C5  700   4.608   0.248   9.372  0.6130 -0.0993 -0.7720
   45TMC2    C6  701   4.696   0.307   9.287  0.0798 -1.0056 -0.0253
   45TMC2     C  702   4.547   4.664   9.203  0.1960 -1.0511 -0.1027
   45TMC2     O  703   4.621   4.600   9.133  0.1727 -0.1756  0.1121
   45TMC2     H  704   4.713   0.071   9.059 -1.0965 -1.6091  0.0961
   45TMC2    H1  705   4.492   0.080   9.431  0.2038 -0.8818 -0.5012
   45TMC2    H2  706   4.739   0.405   9.304  1.5005 -1.6342 -0.0642
   45TMC2    C7  707   4.588   0.314   9.496 -0.3433  0.0999 -0.1666
   45TMC2    C8  708   0.047   0.306   9.059  0.2714  0.4014 -0.5034
   45TMC2    O1  709   4.550   0.248   9.590 -0.4273  0.1839  0.1236
   45TMC2    O2  710   0.107   0.244   8.976  0.7675  0.6717  0.8475
   45TMC2    O5  711   0.038   0.437   9.085 -0.3460 -0.4831 -0.2428
   45TMC2    H5  712   4.710   0.464   9.147  0.7533 -0.2500  0.9118
   46MPD2     C  713   4.377   4.420   9.157  0.0905  0.2679 -0.4965
   46MPD2    C1  714   4.328   4.541   9.196  0.2354 -0.3796 -0.7673
   46MPD2    C2  715   4.189   4.565   9.191  0.2455 -0.3383 -0.0558
   46MPD2    C3  716   4.101   4.456   9.158 -0.3490 -0.1619  0.5065
   46MPD2    C4  717   4.157   4.333   9.126 -0.0476 -0.6155  0.4654
   46MPD2    C5  718   4.294   4.314   9.126  0.7272  0.6280  0.7840
   46MPD2     H  719   4.135   4.656   9.212  0.3784 -0.0060 -1.1315
   46MPD2    H1  720   4.101   4.246   9.092  5.1712 -3.3498 -1.3196
   46MPD2    H2  721   4.485   4.407   9.149  0.0313  0.7053 -2.0197
   46MPD2    H3  722   4.328   4.216   9.093  0.5424  0.1270  2.0938
   46MPD2     N  723   3.961   4.485   9.165  0.0806  0.0676  0.1169
   46MPD2    H5  724   3.935   4.577   9.201 -1.1970 -0.2094 -0.0981
   46MPD2    N1  725   4.414   4.654   9.234  0.5169 -0.0735  0.2106
   46MPD2    H7  726   4.371   4.742   9.263  0.1190 -0.2115  0.0357
   47TMC2    C1  727   1.776   0.052   8.792  0.1204  0.3182 -0.0556
   47TMC2    C2  728   1.783   4.674   8.730  0.7266  0.1342 -0.4041
   47TMC2    C3  729   1.683   4.635   8.647  0.3312 -0.5400 -0.3953
   47TMC2    C4  730   1.669   0.141   8.780 -0.3131  0.4522  0.1254
   47TMC2    C5  731   1.564   0.100   8.696  0.3442 -0.2014 -0.3715
   47TMC2    C6  732   1.568   4.718   8.630  0.2312  0.1202  0.2993
   47TMC2     C  733   1.875   0.086   8.895  0.9130 -0.8089 -0.5859
   47TMC2     O  734   1.889   0.204   8.918  0.1173 -0.0521  0.5280
   47TMC2     H  735   1.866   4.609   8.755  1.5076 -0.0391 -3.4887
   47TMC2    H1  736   1.660   0.233   8.836  0.9919  0.6959 -0.0530
   47TMC2    H2  737   1.494   4.689   8.556 -1.7337  3.3469  1.0001
   47TMC2    C7  738   1.438   0.142   8.753  1.1635  0.3369 -0.0493
   47TMC2    C8  739   1.675   4.497   8.610 -0.2365  0.3113 -0.3233
   47TMC2    O1  740   1.434   0.238   8.829  0.3276  0.3701 -0.7643
   47TMC2    O2  741   1.577   4.451   8.559 -0.4601 -0.4720  0.4822
   47TMC2    O5  742   1.807   4.461   8.583  0.0202 -0.0395 -0.1244
   47TMC2    H5  743   1.866   4.519   8.634  1.5625 -2.6402  1.0721
   48MPD2     C  744   2.060   0.104   9.125  0.6294  0.1433  0.8325
   48MPD2    C1  745   1.979   4.740   9.096 -0.0549  0.1382  0.7567
   48MPD2    C2  746   1.968   4.634   9.198 -0.1754  0.2065 -0.0746
   48MPD2    C3  747   2.037   4.639   9.315  0.0898 -0.6739  0.1407
   48MPD2    C4  748   2.116   0.009   9.340 -0.1601 -0.0942 -0.0687
   48MPD2    C5  749   2.129   0.113   9.243 -0.1194 -0.1940 -0.5792
   48MPD2     H  750   1.910   4.545   9.174 -2.0633  1.0070  1.5379
   48MPD2    H1  751   2.166   0.026   9.435  1.8820 -1.4718 -0.9032
   48MPD2    H2  752   2.077   0.184   9.054  3.1518 -2.1900 -1.1724
   48MPD2    H3  753   2.201   0.191   9.264  0.1935 -0.5288 -0.4153
   48MPD2     N  754   2.012   4.533   9.407 -0.6201 -0.2826  0.8055
   48MPD2    H5  755   1.948   4.463   9.372  1.3340 -1.1133 -1.1433
   48MPD2    N1  756   1.907   4.723   8.972  0.0048 -0.2086  0.1249
   48MPD2    H7  757   1.858   4.635   8.963 -1.9764  0.6930  2.1119
   49TMC2    C1  758   4.118   1.111  10.646  0.0268  0.1328  0.3588
   49TMC2    C2  759   4.068   1.214  10.719 -0.3148  0.3174  0.4548
   49TMC2    C3  760   3.936   1.239  10.711 -0.5499 -0.4754  0.6169
   49TMC2    C4  761   4.038   1.039  10.561 -0.5412  0.4672  0.0622
   49TMC2    C5  762   3.905   1.075  10.553 -0.2515  0.0278 -0.6947
   49TMC2    C6  763   3.857   1.174  10.629  0.3897  0.3853 -0.2995
   49TMC2     C  764   4.262   1.088  10.640  0.0529  0.5751  0.3759
   49TMC2     O  765   4.299   0.987  10.580 -0.1826  0.3238 -0.3818
   49TMC2     H  766   4.131   1.279  10.777  1.0949  0.2494 -0.9729
   49TMC2    H1  767   4.067   0.947  10.511  0.9249 -0.1140  2.0110
   49TMC2    H2  768   3.749   1.182  10.635  0.5379  0.1784  3.0807
   49TMC2    C7  769   3.817   0.982  10.483 -0.8294 -0.4116 -0.1361
   49TMC2    C8  770   3.914   1.381  10.729  0.0303  0.3542 -0.4471
   49TMC2    O1  771   3.845   0.867  10.473  0.0137  0.1457 -0.0993
   49TMC2    O2  772   3.990   1.461  10.776  0.1526 -0.2815 -0.0544
   49TMC2    O5  773   3.855   1.413  10.613 -0.4087  0.1145  0.2949
   49TMC2    H5  774   3.792   1.349  10.574 -2.0816  0.3324  2.6780
   50MPD2     C  775   4.564   1.094  10.656 -0.5652 -0.2669  0.8125
   50MPD2    C1  776   4.480   1.194  10.708 -0.2579 -0.0944  0.1874
   50MPD2    C2  777   4.534   1.304  10.783 -0.3311  0.0609  0.8870
   50MPD2    C3  778   4.670   1.316  10.794  0.0665  0.2820 -0.2593
   50MPD2    C4  779   0.008   1.219  10.741  0.2980  0.5710 -0.1940
   50MPD2    C5  780   4.699   1.112  10.673 -0.9361 -0.0135 -0.2600
   50MPD2     H  781   4.467   1.379  10.825  1.3207  1.9258  0.1988
   50MPD2    H1  782   0.116   1.217  10.745  0.3590  1.6966 -1.4363
   50MPD2    H2  783   4.533   1.011  10.594  1.7873  0.2524 -1.0748
   50MPD2    H3  784   0.018   1.035  10.628 -1.0016  0.2899 -0.8723
   50MPD2     N  785   4.729   1.432  10.849 -0.2379  0.1489 -0.1952
   50MPD2    H5  786   0.087   1.443  10.860 -0.4532  0.2319  1.5615
   50MPD2    N1  787   4.338   1.193  10.694  0.0895  0.4699 -0.2873
   50MPD2    H7  788   4.286   1.273  10.730  1.4981  0.5100  1.6871
   51TMC2    C1  789   2.527   0.507   1.897  0.1911  0.6654  0.9583
   51TMC2    C2  790   2.621   0.501   1.996 -0.1013  0.9243 -0.1740
   51TMC2    C3  791   2.621   0.597   2.088 -0.2497 -0.2677  0.3862
   51TMC2    C4  792   2.436   0.606   1.878  0.1665 -0.0672 -0.3966
   51TMC2    C5  793   2.431   0.699   1.979  0.6073  0.2248  0.6115
   51TMC2    C6  794   2.526   0.692   2.083  0.0599 -0.1134  0.5146
   51TMC2     C  795   2.507   0.403   1.794 -0.5002 -0.6200  0.0218
   51TMC2     O  796   2.414   0.419   1.715 -0.6990 -0.4915 -0.1069
   51TMC2     H  797   2.697   0.424   1.994 -1.3721 -0.3096 -0.7710
   51TMC2    H1  798   2.367   0.610   1.795  0.5638 -1.4602 -0.8015
   51TMC2    H2  799   2.518   0.759   2.168 -1.3521 -0.0129  0.3004
   51TMC2    C7  800   2.346   0.812   1.964 -0.3711  1.3888  0.2099
   51TMC2    C8  801   2.719   0.575   2.196  0.1774  0.1343  0.6597
   51TMC2    O1  802   2.386   0.909   2.032  0.2085  0.0666  0.0558
   51TMC2    O2  803   2.786   0.473   2.204  0.5405 -0.5657  0.4747
   51TMC2    O5  804   2.765   0.696   2.230 -0.2184 -0.4046 -0.6775
   51TMC2    H5  805   2.720   0.762   2.174  2.1965  0.3666 -1.7051
   52MPD2     C  806   2.612   4.690   1.581 -0.7808  0.2126 -0.4581
   52MPD2    C1  807   2.533   0.050   1.537 -0.4266  0.1019 -0.5899
   52MPD2    C2  808   2.524   0.165   1.611 -0.1074  0.0061  0.1275
   52MPD2    C3  809   2.602   0.188   1.723 -0.0989 -0.1808 -0.1662
   52MPD2    C4  810   2.688   0.082   1.758 -0.2062 -0.5141  0.0659
   52MPD2    C5  811   2.705   4.718   1.683 -0.6255 -0.1304  0.1458
   52MPD2     H  812   2.462   0.249   1.581 -0.8507 -0.7485 -0.4673
   52MPD2    H1  813   2.763   0.098   1.835 -0.8949  3.5839 -0.1243
   52MPD2    H2  814   2.626   4.593   1.534  0.8899 -0.5947  1.7004
   52MPD2    H3  815   2.775   4.642   1.718 -0.1118  0.5727  0.6429
   52MPD2     N  816   2.593   0.301   1.804 -0.1512  0.0075 -0.2312
   52MPD2    H5  817   2.654   0.296   1.885 -1.8702  1.3213  1.1388
   52MPD2    N1  818   2.441   0.038   1.433 -0.7151 -0.2131  0.1695
   52MPD2    H7  819   2.383   0.117   1.408 -0.2688  0.1596  0.3119
   53TMC2    C1  820   1.272   4.006  11.751  0.2218  0.3869  0.0840
   53TMC2    C2  821   1.388   3.977  11.817 -0.8723 -0.9723  0.1357
   53TMC2    C3  822   1.375   3.971  11.957 -0.1967  0.1881 -0.6760
   53TMC2    C4  823   1.151   4.023  11.814  0.2278  0.1935  0.8271
   53TMC2    C5  824   1.156   4.040  11.952 -0.9219 -0.0341  0.2130
   53TMC2    C6  825   1.264   4.011  12.027  0.2877  0.2555 -0.8943
   53TMC2     C  826   1.288   4.040  11.615 -0.4872  0.1458 -0.7568
   53TMC2     O  827   1.399   4.034  11.556 -0.3728  0.1186 -0.1584
   53TMC2     H  828   1.483   3.962  11.765 -1.4159 -2.1083 -0.5189
   53TMC2    H1  829   1.057   4.034  11.762  0.7074  1.9847  0.3550
   53TMC2    H2  830   1.271   4.047  12.129 -1.8572  1.7347 -1.2643
   53TMC2    C7  831   1.036   4.095  12.018 -0.3331  0.0109  0.7116
   53TMC2    C8  832   1.495   3.974  12.033 -0.0665 -0.4486  0.0488
   53TMC2    O1  833   0.969   4.149  11.935 -0.1626 -0.1914 -0.2236
   53TMC2    O2  834   1.502   4.042  12.132 -0.5191  0.2179  0.9620
   53TMC2    O5  835   1.597   3.935  11.956 -0.4547  0.2467 -0.4209
   53TMC2    H5  836   1.565   3.875  11.886 -3.2206 -0.0811  1.1418
   54MPD2     C  837   1.234   4.154  11.345 -0.1863  0.3314  0.3773
   54MPD2    C1  838   1.146   4.149  11.445  0.4648  0.7055 -0.8960
   54MPD2    C2  839   1.023   4.203  11.432  0.1841 -0.7196 -0.6015
   54MPD2    C3  840   0.985   4.275  11.317  0.5354 -0.3764 -0.2557
   54MPD2    C4  841   1.077   4.280  11.218 -0.1211  0.5196  0.0028
   54MPD2    C5  842   1.197   4.221  11.232 -0.7169 -1.1224  0.0818
   54MPD2     H  843   0.961   4.204  11.521 -0.2181 -0.7651 -0.8834
   54MPD2    H1  844   1.053   4.341  11.132  0.9952  1.7264  0.5505
   54MPD2    H2  845   1.332   4.108  11.351 -1.3422 -1.8515  2.3660
   54MPD2    H3  846   1.278   4.227  11.160 -0.9092  3.1933  0.1947
   54MPD2     N  847   0.864   4.336  11.297 -0.9330 -0.4781  0.2044
   54MPD2    H5  848   0.847   4.395  11.216  0.2975  0.6151  0.7427
   54MPD2    N1  849   1.171   4.092  11.567  0.4236  0.2938  0.3294
   54MPD2    H7  850   1.099   4.099  11.637  0.8895  0.7180  0.7646
   55TMC2    C1  851   2.184   2.133  17.574 -0.2438  0.0932 -0.1475
   55TMC2    C2  852   2.179   2.079  17.442 -0.0299 -0.3914 -0.0301
   55TMC2    C3  853   2.143   1.946  17.438 -0.2552 -0.1816  0.1180
   55TMC2    C4  854   2.162   2.061  17.693 -0.7765  0.2952  0.6029
   55TMC2    C5  855   2.143   1.929  17.675 -0.0487  0.2897  0.2092
   55TMC2    C6  856   2.127   1.870  17.551  0.5165 -0.0838 -0.2526
   55TMC2     C  857   2.164   2.271  17.606 -0.6761 -0.3954 -0.4578
   55TMC2     O  858   2.119   2.299  17.719 -0.5491  0.3139  0.3188
   55TMC2     H  859   2.184   2.145  17.356 -4.2727  0.6161  0.5148
   55TMC2    H1  860   2.182   2.099   0.025  0.8144  0.9393  0.0447
   55TMC2    H2  861   2.124   1.762  17.536  3.3103 -0.6557  3.2370
   55TMC2    C7  862   2.132   1.843   0.023 -0.3212 -0.2301  0.3647
   55TMC2    C8  863   2.093   1.901  17.316  0.4652  0.6451 -0.2941
   55TMC2    O1  864   2.191   1.734   0.010 -0.1637 -0.0636 -0.2913
   55TMC2    O2  865   2.106   1.958  17.206 -0.4600 -0.1260 -0.4026
   55TMC2    O5  866   1.977   1.838  17.347 -0.0007 -0.2567  0.0615
   55TMC2    H5  867   1.959   1.835  17.443  0.4180 -2.0702  0.0689
   56MPD2     C  868   2.231   2.561  17.390  0.6052 -0.0297  0.1523
   56MPD2    C1  869   2.188   2.498  17.508  0.0211 -0.1760  0.4718
   56MPD2    C2  870   2.129   2.569  17.614  0.0312 -0.0434 -0.2772
   56MPD2    C3  871   2.121   2.705  17.604  0.4152 -0.6256  0.3009
   56MPD2    C4  872   2.165   2.762  17.485  0.0322  0.5382 -0.3550
   56MPD2    C5  873   2.216   2.695  17.381  0.5651 -0.5371  0.1834
   56MPD2     H  874   2.102   2.520  17.707  1.7498 -0.4773  0.0047
   56MPD2    H1  875   2.163   2.870  17.470 -3.1148  0.2118 -2.2052
   56MPD2    H2  876   2.274   2.509  17.305  0.9823 -0.9874  0.9250
   56MPD2    H3  877   2.254   2.741  17.291  1.2250 -0.9384  0.2555
   56MPD2     N  878   2.077   2.793  17.710 -0.2789  0.8267 -0.4438
   56MPD2    H5  879   2.094   2.892  17.694 -0.4099  1.1626  1.4909
   56MPD2    N1  880   2.203   2.358  17.510  0.2458  0.1857  0.2407
   56MPD2    H7  881   2.253   2.307  17.438 -0.5464  1.8243 -1.4665
   57TMC2    C1  882   0.429   3.037  12.900  0.6020 -0.5638  0.8582
   57TMC2    C2  883   0.359   2.925  12.902  0.1266 -0.7184 -0.2044
   57TMC2    C3  884   0.421   2.804  12.906  0.4838  0.1737 -0.0468
   57TMC2    C4  885   0.564   3.036  12.925 -0.1666 -0.2118 -0.3996
   57TMC2    C5  886   0.630   2.909  12.929 -0.8519  0.3658 -0.8478
   57TMC2    C6  887   0.556   2.793  12.915 -0.1911 -0.2365  0.6523
   57TMC2     C  888   0.348   3.157  12.929 -0.2735  0.5428  0.3779
   57TMC2     O  889   0.237   3.141  12.982 -0.0950  0.2329 -0.2191
   57TMC2     H  890   0.251   2.933  12.899  0.2009 -0.3605 -2.3197
   57TMC2    H1  891   0.623   3.127  12.929  1.1933 -1.0617 -1.2614
   57TMC2    H2  892   0.595   2.692  12.927  0.1530 -0.1290  0.4540
   57TMC2    C7  893   0.775   2.910  12.955 -0.4418  0.3442 -0.0005
   57TMC2    C8  894   0.346   2.674  12.882  0.7120 -0.0521  0.2323
   57TMC2    O1  895   0.829   3.017  12.970  0.3816 -0.0049 -0.1940
   57TMC2    O2  896   0.393   2.582  12.818 -0.0538  0.4295  0.1558
   57TMC2    O5  897   0.240   2.678  12.968 -0.4938  0.2460 -0.0833
   57TMC2    H5  898   0.243   2.756  13.027 -0.7882  0.9560 -1.0002
   58MPD2     C  899   0.275   3.636  13.039 -0.3184  0.0531 -0.7125
   58MPD2    C1  900   0.192   3.546  12.986 -0.0071  0.0141  0.8353
   58MPD2    C2  901   0.247   3.422  12.950 -0.0937 -0.2804  1.0262
   58MPD2    C3  902   0.378   3.395  12.956 -0.0555 -0.0883  0.4344
   58MPD2    C4  903   0.464   3.497  12.993  0.1681  0.6106  0.4148
   58MPD2    C5  904   0.408   3.614  13.043  0.5354 -0.3948  0.8644
   58MPD2     H  905   0.179   3.353  12.902  0.9036 -1.6792  1.6155
   58MPD2    H1  906   0.571   3.490  12.975 -0.0606 -1.6132 -0.1000
   58MPD2    H2  907   0.251   3.737  13.068 -1.9015 -0.8439  1.1579
   58MPD2    H3  908   0.476   3.692  13.077  0.1084  0.1295  0.5078
   58MPD2     N  909   0.427   3.267  12.917 -0.1410  0.6223  0.1008
   58MPD2    H5  910   0.522   3.253  12.886 -1.2877 -0.2092 -3.0367
   58MPD2    N1  911   0.061   3.579  12.945  0.0072 -0.0193 -0.5999
   58MPD2    H7  912   0.003   3.503  12.910 -1.8338  1.5150 -0.8643
   59TMC2    C1  913   3.142   2.660  12.756  0.2683 -0.1679  0.0535
   59TMC2    C2  914   3.089   2.535  12.754 -0.2299 -1.2954 -0.2702
   59TMC2    C3  915   2.960   2.520  12.716  0.2376  0.4993 -0.3240
   59TMC2    C4  916   3.068   2.764  12.716  0.0276 -0.5265 -0.4175
   59TMC2    C5  917   2.943   2.752  12.662 -0.5671 -0.2105 -0.1316
   59TMC2    C6  918   2.887   2.626  12.673 -0.2722  0.1236  0.0760
   59TMC2     C  919   3.231   2.673  12.870  0.4495 -0.2555  0.4062
   59TMC2     O  920   3.234   2.582  12.947 -0.2020 -0.9600  0.3425
   59TMC2     H  921   3.155   2.451  12.772  1.3251 -0.8394 -3.7450
   59TMC2    H1  922   3.107   2.865  12.722 -2.7945  0.6599 -1.9129
   59TMC2    H2  923   2.782   2.611  12.652 -0.2645 -0.2295  0.2988
   59TMC2    C7  924   2.854   2.859  12.620 -0.7286  0.0804  0.1242
   59TMC2    C8  925   2.885   2.408  12.757  0.0703  0.0358  1.0651
   59TMC2    O1  926   2.737   2.835  12.632  0.2754  1.3069  0.2894
   59TMC2    O2  927   2.762   2.410  12.774  0.5469  0.0925  0.0434
   59TMC2    O5  928   2.960   2.302  12.722 -0.5047 -0.3893 -0.4451
   59TMC2    H5  929   3.037   2.315  12.663 -0.2358 -0.4296 -0.1076
   60MPD2     C  930   3.305   2.810  13.127  0.3123 -1.4676 -0.3091
   60MPD2    C1  931   3.360   2.839  12.998  0.1695  0.5668 -0.2419
   60MPD2    C2  932   3.459   2.937  12.989 -0.1103 -0.0332 -0.2455
   60MPD2    C3  933   3.521   2.985  13.105  0.3188 -0.3208 -0.4694
   60MPD2    C4  934   3.462   2.959  13.225 -0.3469 -0.0972  0.0831
   60MPD2    C5  935   3.355   2.875  13.232  0.2178  0.6313 -0.6784
   60MPD2     H  936   3.500   2.966  12.893  1.1773  0.3969  0.4248
   60MPD2    H1  937   3.501   2.997  13.319 -1.5235  0.9207  0.1567
   60MPD2    H2  938   3.226   2.739  13.145 -0.1967 -0.7293  0.3583
   60MPD2    H3  939   3.309   2.850  13.327  0.5449  0.1965 -0.6309
   60MPD2     N  940   3.619   3.088  13.111 -0.4256 -0.2495 -0.2019
   60MPD2    H5  941   3.630   3.126  13.205 -0.5900 -0.2332 -0.1896
   60MPD2    N1  942   3.297   2.795  12.879  0.5074 -0.7338 -0.0215
   60MPD2    H7  943   3.315   2.849  12.795  0.5049  1.0589  1.1451
   61TMC2    C1  944   3.071   0.140  15.822 -0.2969 -0.1582 -0.3965
   61TMC2    C2  945   2.972   0.110  15.912 -0.1418  0.2983 -0.3523
   61TMC2    C3  946   2.851   0.164  15.890 -0.1134  0.3740  0.2954
   61TMC2    C4  947   3.061   0.237  15.729  0.5834 -0.4624  0.4590
   61TMC2    C5  948   2.942   0.309  15.737  0.4087  0.6868  0.5235
   61TMC2    C6  949   2.836   0.272  15.808 -0.2933 -0.2185  0.4064
   61TMC2     C  950   3.163   0.038  15.791 -0.2152 -0.1689 -0.7913
   61TMC2     O  951   3.172   4.687  15.864 -0.5621  0.0693  0.2217
   61TMC2     H  952   2.985   0.025  15.979 -1.7995  0.9614  0.7962
   61TMC2    H1  953   3.142   0.263  15.662  0.1972  0.1880  0.2423
   61TMC2    H2  954   2.739   0.318  15.800  1.3433  3.0152 -0.6486
   61TMC2    C7  955   2.921   0.401  15.625  0.7736  0.1452  0.6608
   61TMC2    C8  956   2.743   0.118  15.974 -0.6816 -0.1544 -0.1188
   61TMC2    O1  957   3.007   0.397  15.533 -0.5755  0.0029 -0.3603
   61TMC2    O2  958   2.765   0.029  16.052 -0.0175 -0.0317 -0.5950
   61TMC2    O5  959   2.641   0.212  15.971  0.1186  0.5367 -0.7416
   61TMC2    H5  960   2.579   0.220  16.046  1.5386  1.3818  0.3335
   62MPD2     C  961   3.293   4.566  15.626 -1.1002 -0.4535 -0.0383
   62MPD2    C1  962   3.297   4.699  15.596  0.3684 -0.0128  0.3136
   62MPD2    C2  963   3.362   4.736  15.483  0.2444  0.7303  0.3910
   62MPD2    C3  964   3.400   4.640  15.389 -0.0727 -0.2052  0.0412
   62MPD2    C4  965   3.386   4.506  15.416 -0.1488 -0.3647  0.8114
   62MPD2    C5  966   3.337   4.478  15.540  0.4357 -0.3430 -0.3957
   62MPD2     H  967   3.370   0.099  15.459  1.6132  1.0581  2.2706
   62MPD2    H1  968   3.394   4.424  15.345 -0.3673  0.3313 -0.0093
   62MPD2    H2  969   3.250   4.535  15.721 -2.2588 -2.2349 -1.1392
   62MPD2    H3  970   3.327   4.373  15.564  0.9500 -0.5495 -1.1024
   62MPD2     N  971   3.452   4.687  15.269 -0.3094  0.3081  0.0246
   62MPD2    H5  972   3.460   0.045  15.255  2.7722  0.1692  1.0110
   62MPD2    N1  973   3.243   0.058  15.679 -0.3832 -0.6194  0.1144
   62MPD2    H7  974   3.250   0.154  15.645 -2.5765 -1.1476 -1.8012
   63TMC2    C1  975   1.701   0.075  10.067  0.1632  0.6093 -0.0165
   63TMC2    C2  976   1.815   0.086  10.144  0.7956 -0.1387 -0.4869
   63TMC2    C3  977   1.916   0.142  10.077 -0.0766 -0.0956  0.8821
   63TMC2    C4  978   1.687   0.110   9.937 -0.1456  0.1874 -0.2660
   63TMC2    C5  979   1.786   0.188   9.890  0.6396 -0.0298  0.0458
   63TMC2    C6  980   1.904   0.210   9.959  0.2175  0.1004  0.1422
   63TMC2     C  981   1.582   0.029  10.134 -0.7010 -0.1868 -0.0046
   63TMC2     O  982   1.477   0.082  10.098  0.1012 -0.3170 -0.1632
   63TMC2     H  983   1.824   0.050  10.246  0.1073  1.2574  0.0652
   63TMC2    H1  984   1.590   0.104   9.890 -1.5098  1.9610  2.3619
   63TMC2    H2  985   1.998   0.252   9.927  0.3889 -0.1274  0.3459
   63TMC2    C7  986   1.793   0.211   9.749  0.5556  0.0313  0.2223
   63TMC2    C8  987   2.038   0.178  10.148 -0.4325 -0.0898  0.5417
   63TMC2    O1  988   1.714   0.149   9.680 -0.1618 -0.1053  0.4497
   63TMC2    O2  989   2.150   0.193  10.097 -0.2921 -0.0481  0.5131
   63TMC2    O5  990   1.981   0.259  10.247 -0.3751 -0.1569  0.5415
   63TMC2    H5  991   1.884   0.260  10.263 -0.3695 -2.0370  0.6979
   64MPD2     C  992   1.346   4.438  10.440 -0.2005 -0.1362  0.0875
   64MPD2    C1  993   1.480   4.417  10.438  0.2058 -0.4796 -0.1021
   64MPD2    C2  994   1.556   4.486  10.352  0.4976 -0.0981 -0.0090
   64MPD2    C3  995   1.510   4.593  10.285  0.2667 -0.5062  0.3854
   64MPD2    C4  996   1.379   4.627  10.296  0.4508  0.4612  0.1711
   64MPD2    C5  997   1.298   4.552  10.372 -0.0881 -0.7929 -0.5776
   64MPD2     H  998   1.662   4.465  10.346  0.0772 -2.3636  0.6362
   64MPD2    H1  999   1.335   4.719  10.259  0.2752  0.3688  0.1485
   64MPD2    H2 1000   1.294   4.390  10.522  1.1915  0.1105  1.1139
   64MPD2    H3 1001   1.195   4.582  10.386 -0.5758 -2.5683 -0.3581
   64MPD2     N 1002   1.609   4.659  10.207  0.2439 -0.1402  0.2723
   64MPD2    H5 1003   1.706   4.636  10.227  0.1124 -0.3935  0.6044
   64MPD2    N1 1004   1.543   4.315  10.511  0.4921  0.0124  0.0882
   64MPD2    H7 1005   1.644   4.316  10.500  0.5260 -2.5669  0.1110
   65TMC2    C1 1006   3.656   4.101  15.341  0.1167 -0.8512 -0.0590
   65TMC2    C2 1007   3.727   4.053  15.236 -0.0967 -0.2420  0.0945
   65TMC2    C3 1008   3.793   4.147  15.158 -0.4303 -0.5032 -0.2313
   65TMC2    C4 1009   3.644   4.234  15.371 -0.2844 -0.4313 -0.7000
   65TMC2    C5 1010   3.705   4.323  15.276  0.3957 -0.1251  0.2066
   65TMC2    C6 1011   3.776   4.278  15.171  0.1578 -0.2258 -0.0873
   65TMC2     C 1012   3.606   4.007  15.436 -0.0199 -1.5170  0.2591
   65TMC2     O 1013   3.555   4.051  15.534  0.3559  0.0779  0.3709
   65TMC2     H 1014   3.753   3.948  15.228  2.7957  0.2985  2.4559
   65TMC2    H1 1015   3.582   4.271  15.452 -0.9804 -1.8290 -0.5803
   65TMC2    H2 1016   3.831   4.349  15.112 -0.2441  0.7462  0.7151
   65TMC2    C7 1017   3.745   4.461  15.318 -0.1097  0.1895  0.2846
   65TMC2    C8 1018   3.914   4.102  15.100 -0.7876  0.7257  0.4235
   65TMC2    O1 1019   3.814   4.526  15.239  0.7930  0.3969  0.3416
   65TMC2    O2 1020   3.985   4.012  15.144  0.4304  0.2397 -0.0035
   65TMC2    O5 1021   3.955   4.184  14.995 -0.0177 -0.3656  0.1528
   65TMC2    H5 1022   3.882   4.240  14.960  1.6632  1.5844 -0.2588
   66MPD2     C 1023   3.500   3.782  15.585  0.3880  0.0077  0.4354
   66MPD2    C1 1024   3.519   3.777  15.451 -0.2109 -0.9118 -0.1485
   66MPD2    C2 1025   3.479   3.662  15.384  0.3137 -0.1268  0.0555
   66MPD2    C3 1026   3.404   3.563  15.447  0.4960  0.6415 -0.2554
   66MPD2    C4 1027   3.377   3.574  15.583  0.6552 -0.0341 -1.1054
   66MPD2    C5 1028   3.432   3.684  15.655 -0.1166  0.0838  0.2608
   66MPD2     H 1029   3.490   3.656  15.276 -0.7183  0.5477 -0.0941
   66MPD2    H1 1030   3.326   3.507  15.650 -0.8526  0.6528 -1.5597
   66MPD2    H2 1031   3.542   3.862  15.643 -0.4472 -0.0596  1.1432
   66MPD2    H3 1032   3.410   3.684  15.761 -3.3027 -1.6359 -0.3947
   66MPD2     N 1033   3.351   3.445  15.383 -0.5091  0.3839 -0.1611
   66MPD2    H5 1034   3.301   3.382  15.445  2.0239  1.4819  3.0016
   66MPD2    N1 1035   3.586   3.881  15.383  0.5927  0.3697  0.5702
   66MPD2    H7 1036   3.610   3.870  15.285  0.5829 -0.6387  0.6884
   67TMC2    C1 1037   3.459   3.682  14.202  0.0757  0.3613  0.1408
   67TMC2    C2 1038   3.354   3.749  14.262 -0.4586 -0.0622 -0.6326
   67TMC2    C3 1039   3.377   3.810  14.383 -0.6097 -0.0643 -0.1615
   67TMC2    C4 1040   3.581   3.668  14.262  0.2412  0.3181  0.2397
   67TMC2    C5 1041   3.593   3.719  14.387 -0.3663  0.4084  0.2380
   67TMC2    C6 1042   3.488   3.784  14.454  0.8685  0.4806  0.7621
   67TMC2     C 1043   3.438   3.618  14.078 -0.9201  0.7819 -0.7895
   67TMC2     O 1044   3.500   3.510  14.069  0.6617 -0.0604  0.4349
   67TMC2     H 1045   3.261   3.758  14.207 -1.6990 -3.1739  0.9820
   67TMC2    H1 1046   3.665   3.625  14.210  0.1815 -0.0986  0.4880
   67TMC2    H2 1047   3.501   3.812  14.558 -0.6240 -2.5478  1.7709
   67TMC2    C7 1048   3.727   3.711  14.436 -0.2245 -0.0162  0.0968
   67TMC2    C8 1049   3.275   3.893  14.437 -0.0661 -0.2214 -0.0291
   67TMC2    O1 1050   3.810   3.666  14.362  0.1899 -0.2047 -0.3702
   67TMC2    O2 1051   3.262   3.903  14.555 -0.3949 -0.7838  0.7690
   67TMC2    O5 1052   3.180   3.932  14.351 -0.2414  0.0884 -0.3398
   67TMC2    H5 1053   3.213   3.934  14.259  1.2985 -2.0953  0.1469
   68MPD2     C 1054   3.337   3.520  13.820  0.3276 -0.0070  0.2606
   68MPD2    C1 1055   3.318   3.644  13.867  0.2879 -0.0306  0.0339
   68MPD2    C2 1056   3.254   3.735  13.789 -0.3788 -0.2043 -0.2980
   68MPD2    C3 1057   3.212   3.701  13.661 -0.6899 -0.9572 -0.6414
   68MPD2    C4 1058   3.234   3.568  13.616  0.6609  0.1826  0.0355
   68MPD2    C5 1059   3.295   3.477  13.699 -0.4585  0.4441 -0.1367
   68MPD2     H 1060   3.255   3.836  13.829  1.2864 -0.2176 -0.3049
   68MPD2    H1 1061   3.202   3.539  13.516  0.7251  2.3720 -0.6222
   68MPD2    H2 1062   3.386   3.446  13.883 -1.8133 -0.6071  1.2404
   68MPD2    H3 1063   3.321   3.376  13.669  1.8000  0.7993  0.6641
   68MPD2     N 1064   3.153   3.794  13.579 -0.0671  0.5408 -0.1101
   68MPD2    H5 1065   3.121   3.763  13.488  1.6022  1.0386 -0.8784
   68MPD2    N1 1066   3.358   3.685  13.994 -0.2935  0.0096 -0.3220
   68MPD2    H7 1067   3.336   3.782  14.013 -0.5860 -0.1137 -0.0297
   69TMC2    C1 1068   0.766   4.692  12.327 -0.0206 -0.0276  0.3188
   69TMC2    C2 1069   0.694   0.054  12.266 -0.0016  0.0685 -0.0368
   69TMC2    C3 1070   0.742   0.100  12.147  0.9367 -0.2720  0.2335
   69TMC2    C4 1071   0.862   4.623  12.259  0.5206 -0.6178  0.1293
   69TMC2    C5 1072   0.894   4.666  12.134 -0.6505  0.2959 -0.4084
   69TMC2    C6 1073   0.837   0.030  12.071 -0.3792 -0.2955 -0.3234
   69TMC2     C 1074   0.718   4.655  12.455 -0.4354  0.4903 -0.4223
   69TMC2     O 1075   0.606   4.692  12.484 -0.4499  0.2781 -0.2844
   69TMC2     H 1076   0.624   0.111  12.325 -1.1245 -0.0843 -1.2221
   69TMC2    H1 1077   0.894   4.524  12.292 -0.1860 -1.0632 -0.5163
   69TMC2    H2 1078   0.857   0.050  11.967 -2.4734 -2.8408 -1.2312
   69TMC2    C7 1079   0.994   4.590  12.050 -0.3187  0.2397  0.1718
   69TMC2    C8 1080   0.685   0.228  12.103  0.0851  0.2537  0.9818
   69TMC2    O1 1081   1.012   4.626  11.934  0.6059  0.4659  0.6910
   69TMC2    O2 1082   0.571   0.255  12.140  0.8412 -0.1078 -0.1708
   69TMC2    O5 1083   0.748   0.267  11.995 -0.0922 -0.5426 -0.0429
   69TMC2    H5 1084   0.842   0.239  12.003  0.4339  1.1434 -0.0984
   70MPD2     C 1085   0.903   4.439  12.700 -0.3817  0.2450  0.6813
   70MPD2    C1 1086   0.795   4.493  12.638  0.2980  0.5991 -0.3729
   70MPD2    C2 1087   0.670   4.460  12.683 -0.5890  0.4819  0.0369
   70MPD2    C3 1088   0.656   4.370  12.788 -0.1480 -0.1990  0.1694
   70MPD2    C4 1089   0.765   4.305  12.834  0.4893  1.0964  0.0528
   70MPD2    C5 1090   0.889   4.348  12.803  0.5609 -0.7188  0.4660
   70MPD2     H 1091   0.580   4.506  12.642  0.0007  0.3056 -1.4397
   70MPD2    H1 1092   0.756   4.221  12.902  0.7830 -0.3889 -1.7410
   70MPD2    H2 1093   1.003   4.473  12.674  0.2570 -1.6672  0.6016
   70MPD2    H3 1094   0.977   4.302  12.848  0.7334  0.9491  1.8369
   70MPD2     N 1095   0.527   4.316  12.813 -0.2850 -0.1231  0.2639
   70MPD2    H5 1096   0.519   4.224  12.855 -2.0674 -0.3748 -0.6535
   70MPD2    N1 1097   0.817   4.575  12.516 -0.4809 -0.2812  0.4123
   70MPD2    H7 1098   0.905   4.568  12.466 -0.9783 -0.1367 -0.4824
   71TMC2    C1 1099   3.696   4.467   1.093  0.2379  0.3643  0.0134
   71TMC2    C2 1100   3.631   4.364   1.025 -0.2653 -0.9615 -0.7254
   71TMC2    C3 1101   3.545   4.298   1.105  0.5869  0.3357  0.1043
   71TMC2    C4 1102   3.688   4.488   1.228 -0.0962  0.1259 -0.3453
   71TMC2    C5 1103   3.601   4.413   1.299  0.1414  0.0175 -0.7118
   71TMC2    C6 1104   3.523   4.318   1.236  0.2492  0.3762  0.4572
   71TMC2     C 1105   3.779   4.553   1.011  0.2022 -0.4702  0.1757
   71TMC2     O 1106   3.767   4.554   0.889  1.1207 -0.1847  0.0761
   71TMC2     H 1107   3.648   4.355   0.919 -0.4970  0.5695 -0.8995
   71TMC2    H1 1108   3.733   4.568   1.287  1.7541 -0.4213 -1.0074
   71TMC2    H2 1109   3.452   4.258   1.293  1.1464 -0.7937  0.3405
   71TMC2    C7 1110   3.568   4.464   1.427  0.5658 -0.6483 -0.4835
   71TMC2    C8 1111   3.509   4.165   1.057  1.0748  0.2436  0.0111
   71TMC2    O1 1112   3.651   4.536   1.490 -0.2129  0.2566 -0.0742
   71TMC2    O2 1113   3.506   4.146   0.938  0.3075  0.7705  0.2715
   71TMC2    O5 1114   3.521   4.077   1.158  0.8111 -0.0299  0.0547
   71TMC2    H5 1115   3.547   4.115   1.245  0.1557 -0.3277  0.3729
   72MPD2     C 1116   3.929   0.306   1.010 -0.2408  0.2765 -0.8169
   72MPD2    C1 1117   3.845   0.238   0.929  0.3990 -1.2108  0.3236
   72MPD2    C2 1118   3.825   0.101   0.943 -0.1871  0.3970 -0.2481
   72MPD2    C3 1119   3.867   0.037   1.055  0.2153  0.2919  0.0637
   72MPD2    C4 1120   3.948   0.106   1.139  0.3611 -0.3568  0.2539
   72MPD2    C5 1121   3.982   0.232   1.115  0.2396  0.1124 -0.0285
   72MPD2     H 1122   3.765   0.045   0.872 -1.5713 -1.6230  2.5175
   72MPD2    H1 1123   3.990   0.067   1.232 -1.8943  0.3801  1.5655
   72MPD2    H2 1124   3.944   0.414   1.012  2.2143 -0.1231  2.6081
   72MPD2    H3 1125   4.016   0.294   1.197  1.9988  0.3094 -0.9086
   72MPD2     N 1126   3.847   4.649   1.092  0.0501  0.7195  0.4824
   72MPD2    H5 1127   3.876   4.626   1.187 -1.3487  1.2249  1.0268
   72MPD2    N1 1128   3.770   0.298   0.824  0.1570  0.0206 -0.3975
   72MPD2    H7 1129   3.701   0.238   0.779  0.3136 -0.0411 -0.5551
   73TMC2    C1 1130   2.146   2.513  14.368  0.9810  0.0699 -0.8783
   73TMC2    C2 1131   2.132   2.535  14.504  0.4579  0.0639  0.2861
   73TMC2    C3 1132   2.119   2.426  14.586  0.9054 -0.1987  0.2059
   73TMC2    C4 1133   2.125   2.388  14.311  1.1702  0.2787  0.3883
   73TMC2    C5 1134   2.109   2.283  14.394  0.5521  0.1706 -0.0326
   73TMC2    C6 1135   2.101   2.299  14.529  0.5999  0.1104  0.3764
   73TMC2     C 1136   2.272   2.569  14.306  0.2124  0.3727 -0.4643
   73TMC2     O 1137   2.313   2.500  14.214 -0.0220 -0.0011  0.4607
   73TMC2     H 1138   2.174   2.622  14.553 -0.4182 -0.2724  1.6305
   73TMC2    H1 1139   2.131   2.372  14.204 -0.6599 -1.5129  0.5655
   73TMC2    H2 1140   2.120   2.211  14.589  0.7292 -0.3795 -0.3847
   73TMC2    C7 1141   2.170   2.163  14.345 -0.1840  0.6522 -0.5247
   73TMC2    C8 1142   2.121   2.446  14.726  0.2882  0.1640 -0.2397
   73TMC2    O1 1143   2.108   2.058  14.356  0.0906  0.0109 -0.3511
   73TMC2    O2 1144   2.181   2.544  14.768 -0.0041  0.0245 -0.0788
   73TMC2    O5 1145   2.001   2.404  14.774 -0.0881 -0.1861 -0.2754
   73TMC2    H5 1146   1.956   2.345  14.710 -1.9553  2.0820 -1.0718
   74MPD2     C 1147   2.710   2.850  14.295 -1.1336  0.3481  0.0112
   74MPD2    C1 1148   2.688   2.727  14.250  0.2619 -0.0440  0.2034
   74MPD2    C2 1149   2.559   2.674  14.260 -0.0127  0.0240 -0.3638
   74MPD2    C3 1150   2.456   2.746  14.334 -0.3416 -0.1945 -0.2274
   74MPD2    C4 1151   2.479   2.878  14.375  0.1650 -0.2051  0.2811
   74MPD2    C5 1152   2.609   2.924  14.358 -0.6107  0.2605  0.3613
   74MPD2     H 1153   2.531   2.585  14.205  0.0447 -0.3244  0.1797
   74MPD2    H1 1154   2.405   2.932  14.434 -1.2851 -1.7308 -0.1283
   74MPD2    H2 1155   2.804   2.904  14.284 -0.8185 -0.5752 -1.9584
   74MPD2    H3 1156   2.637   3.021  14.397  0.0015  0.3931 -0.4050
   74MPD2     N 1157   2.326   2.688  14.361 -0.0090 -0.2080 -0.3403
   74MPD2    H5 1158   2.266   2.740  14.424  0.3951  0.4117 -0.4618
   74MPD2    N1 1159   2.788   2.651  14.183  0.1124 -0.1261  0.2185
   74MPD2    H7 1160   2.867   2.702  14.147  2.6103 -2.4117  2.4855
   75TMC2    C1 1161   3.052   3.997  13.520  0.9444 -0.2642  1.1952
   75TMC2    C2 1162   3.059   4.130  13.521  0.1222  0.8158 -0.0992
   75TMC2    C3 1163   2.956   4.201  13.461  0.3515 -0.5235 -0.2234
   75TMC2    C4 1164   2.951   3.932  13.457 -0.3986  0.0242 -0.3883
   75TMC2    C5 1165   2.852   4.000  13.404  0.3368 -0.3585  0.2909
   75TMC2    C6 1166   2.848   4.142  13.402  0.6852 -0.2220  0.0434
   75TMC2     C 1167   3.141   3.922  13.610 -0.1882  0.3253 -0.0114
   75TMC2     O 1168   3.201   3.989  13.690  0.4230  0.2684  0.5737
   75TMC2     H 1169   3.140   4.185  13.567  0.2256 -0.0985  0.7933
   75TMC2    H1 1170   2.944   3.824  13.460  0.7107  0.0565  3.1284
   75TMC2    H2 1171   2.763   4.198  13.365  1.7895  2.6215  1.7749
   75TMC2    C7 1172   2.768   3.934  13.304 -0.3043  0.5152  0.3642
   75TMC2    C8 1173   2.935   4.341  13.503  0.2789  0.1451  0.1218
   75TMC2    O1 1174   2.805   3.826  13.266  0.2479 -0.5339  0.2103
   75TMC2    O2 1175   2.982   4.393  13.603  0.1725  0.2947  0.0251
   75TMC2    O5 1176   2.919   4.413  13.390  0.1392  0.7826 -0.2456
   75TMC2    H5 1177   2.912   4.358  13.309  0.2070  0.5331 -0.0832
   76TMC2    C1 1178   1.783   3.634  11.818  0.7211 -0.2321 -0.3642
   76TMC2    C2 1179   1.688   3.541  11.816 -0.2384 -0.2802  0.8137
   76TMC2    C3 1180   1.728   3.421  11.874  0.3241  0.4558 -0.1332
   76TMC2    C4 1181   1.908   3.612  11.875 -0.3457 -0.1833 -0.1569
   76TMC2    C5 1182   1.934   3.489  11.932  0.8578  0.4406  0.6667
   76TMC2    C6 1183   1.850   3.386  11.927  0.7642 -0.2204  0.1678
   76TMC2     C 1184   1.755   3.739  11.727 -0.4209  0.7209 -0.5931
   76TMC2     O 1185   1.643   3.787  11.723 -0.1535 -0.2979 -0.6097
   76TMC2     H 1186   1.593   3.565  11.770  1.0733  0.3257 -1.5857
   76TMC2    H1 1187   1.982   3.690  11.858 -1.6204  0.9168 -0.7397
   76TMC2    H2 1188   1.873   3.287  11.965 -1.0135 -0.0493  1.7418
   76TMC2    C7 1189   2.063   3.468  12.014 -0.2596 -0.5061  0.5380
   76TMC2    C8 1190   1.620   3.347  11.920  0.0579  0.1843  0.8713
   76TMC2    O1 1191   2.090   3.355  12.040  0.2607  0.2292 -0.0200
   76TMC2    O2 1192   1.611   3.318  12.037 -0.3881 -0.0365  0.0591
   76TMC2    O5 1193   1.524   3.350  11.825  0.1548  0.0238 -0.0568
   76TMC2    H5 1194   1.571   3.374  11.743 -0.9336 -0.3983 -0.8059
   77MPD2     C 1195   1.863   4.041  11.328 -0.2704 -1.5017 -0.2630
   77MPD2    C1 1196   1.754   4.036  11.412  0.2915  0.4079  0.2604
   77MPD2    C2 1197   1.749   3.943  11.512 -0.5136  1.1757  0.3766
   77MPD2    C3 1198   1.853   3.856  11.538  0.0578  0.5504 -0.3956
   77MPD2    C4 1199   1.956   3.853  11.445 -0.7321  0.1707 -0.2196
   77MPD2    C5 1200   1.955   3.940  11.340 -0.0792 -0.0696 -0.5608
   77MPD2     H 1201   1.655   3.942  11.565  0.9507 -0.6109  2.9192
   77MPD2    H1 1202   2.024   3.768  11.448 -1.6304 -0.5028  0.9699
   77MPD2    H2 1203   1.866   4.100  11.238  2.5169  0.7421  1.3108
   77MPD2    H3 1204   2.032   3.944  11.264 -0.3974 -1.0061 -0.9215
   77MPD2     N 1205   1.854   3.758  11.644 -0.6573  0.7902 -0.2869
   77MPD2    H5 1206   1.942   3.709  11.660 -0.5640  0.8580 -0.5902
   77MPD2    N1 1207   1.646   4.133  11.409 -0.5936 -0.4757  0.2537
   77MPD2    H7 1208   1.567   4.131  11.472 -0.9695  2.1836 -0.1194
   78TMC2    C1 1209   3.189   0.773   1.500 -0.5393 -0.0871  0.0645
   78TMC2    C2 1210   3.129   0.657   1.467  0.6262 -1.1688 -1.1600
   78TMC2    C3 1211   3.213   0.552   1.430  0.3421  0.4138 -0.6913
   78TMC2    C4 1212   3.330   0.794   1.513  0.0544 -1.1254  0.1385
   78TMC2    C5 1213   3.409   0.690   1.488  0.0831 -0.1833  0.4235
   78TMC2    C6 1214   3.353   0.570   1.444  0.1190  0.7937 -0.1531
   78TMC2     C 1215   3.112   0.888   1.537 -0.7289  0.3635 -0.0026
   78TMC2     O 1216   3.157   0.971   1.616 -0.2451 -0.3731  0.7675
   78TMC2     H 1217   3.024   0.634   1.485  0.8270 -1.4012 -0.2536
   78TMC2    H1 1218   3.366   0.894   1.531  1.0329 -1.4266 -0.1512
   78TMC2    H2 1219   3.420   0.487   1.426 -0.0859  0.5993 -0.0289
   78TMC2    C7 1220   3.556   0.700   1.468 -0.3992  0.4809 -1.0921
   78TMC2    C8 1221   3.175   0.420   1.387  0.3371 -0.6234 -0.3668
   78TMC2    O1 1222   3.613   0.609   1.402 -0.0318 -0.2160  0.1189
   78TMC2    O2 1223   3.242   0.322   1.401 -0.4409 -0.1710 -0.3895
   78TMC2    O5 1224   3.067   0.435   1.316 -0.3752  0.3435 -0.0567
   78TMC2    H5 1225   3.065   0.529   1.288  0.3638  0.7498  1.2489
   79MPD1     C 1226   2.689   1.177   1.491  0.4623 -0.0487  0.1401
   79MPD1    C1 1227   2.798   1.200   1.568 -0.2165 -0.6440  0.4340
   79MPD1    C2 1228   2.897   1.104   1.576 -0.3339 -0.3439 -0.7471
   79MPD1    C3 1229   2.895   0.993   1.484 -0.8190 -0.0358  0.1622
   79MPD1    C4 1230   2.786   0.984   1.398 -0.5088  0.4359 -0.3361
   79MPD1    C5 1231   2.683   1.078   1.400  0.7957  0.5794  1.1266
   79MPD1     H 1232   2.983   1.108   1.641 -1.5126 -0.1093  0.8108
   79MPD1    H1 1233   2.786   0.907   1.321 -1.3024 -0.0011  0.0989
   79MPD1    H2 1234   2.596   1.232   1.496 -0.3597 -1.4196 -0.2922
   79MPD1    H3 1235   2.600   1.062   1.332  2.8538 -0.8091 -1.0553
   79MPD1     N 1236   2.989   0.882   1.477  0.5114 -0.4664  0.2979
   79MPD1    H5 1237   2.960   0.804   1.420  0.2906 -0.3807  0.2912
   79MPD1    N1 1238   2.785   1.282   1.682 -0.1619  0.4221 -0.5190
   79MPD1    H6 1239   2.875   1.315   1.715  0.0943 -1.3793  0.6134
   79MPD1    H7 1240   2.730   1.365   1.662 -0.3804  0.6938  1.3004
   80TMC2    C1 1241   1.091   3.658  11.698  0.0811 -0.3910 -0.9894
   80TMC2    C2 1242   1.215   3.631  11.663  0.0561 -0.3215  0.2000
   80TMC2    C3 1243   1.236   3.562  11.546 -0.1925  0.3272 -0.4849
   80TMC2    C4 1244   0.981   3.613  11.629  0.3941 -0.0330  0.4120
   80TMC2    C5 1245   1.012   3.539  11.513 -0.1312 -0.3517 -0.0310
   80TMC2    C6 1246   1.136   3.517  11.467 -0.0947 -0.2525  0.2007
   80TMC2     C 1247   1.079   3.663  11.839  0.6896 -0.1109 -0.0008
   80TMC2     O 1248   1.163   3.596  11.898 -0.1860  0.1114  0.3527
   80TMC2     H 1249   1.295   3.659  11.731 -0.4908  1.5195  0.0793
   80TMC2    H1 1250   0.881   3.641  11.661 -0.4762 -3.3981  0.6211
   80TMC2    H2 1251   1.150   3.450  11.383  2.0366  2.2145 -1.4169
   80TMC2    C7 1252   0.894   3.481  11.444  0.0732  0.2614 -0.4967
   80TMC2    C8 1253   1.361   3.500  11.525  0.5259  0.3903  0.3289
   80TMC2    O1 1254   0.878   3.468  11.320 -0.8946  0.2311  0.0138
   80TMC2    O2 1255   1.461   3.569  11.559  0.2612 -0.4838 -0.0454
   80TMC2    O5 1256   1.349   3.369  11.554 -0.4346 -0.2573 -0.2298
   80TMC2    H5 1257   1.264   3.321  11.542  0.0459 -1.3583  0.7343
   81MPD2     C 1258   0.954   3.594  12.091  0.5439  0.1602  0.5793
   81MPD2    C1 1259   0.915   3.703  12.013  0.2322  0.4507  0.0028
   81MPD2    C2 1260   0.811   3.782  12.064  0.0675  0.3083  0.2524
   81MPD2    C3 1261   0.750   3.742  12.185 -0.3698 -0.1724  0.4797
   81MPD2    C4 1262   0.785   3.631  12.256 -0.3514  0.2282  0.4570
   81MPD2    C5 1263   0.888   3.559  12.208  0.1816 -0.4721  0.1572
   81MPD2     H 1264   0.769   3.857  11.999 -1.9078 -1.3226 -0.3253
   81MPD2    H1 1265   0.737   3.600  12.348  0.5271  0.6368  1.0579
   81MPD2    H2 1266   1.022   3.521  12.049  1.0983  0.6474  0.6370
   81MPD2    H3 1267   0.925   3.469  12.256  2.0330 -1.5392 -3.2756
   81MPD2     N 1268   0.643   3.818  12.242  0.3201  0.5623 -0.3067
   81MPD2    H5 1269   0.608   3.788  12.333  2.3776 -0.7155  0.0447
   81MPD2    N1 1270   0.964   3.726  11.882 -0.2388  0.1403  0.3301
   81MPD2    H7 1271   0.924   3.798  11.822 -0.8429 -0.8737 -0.4685
   82TMC2    C1 1272   2.642   3.308  10.853 -0.5567 -0.3463  0.2488
   82TMC2    C2 1273   2.675   3.383  10.966  0.0824 -0.1077 -0.4173
   82TMC2    C3 1274   2.740   3.319  11.068  0.1906 -0.1925 -0.4740
   82TMC2    C4 1275   2.654   3.177  10.844 -0.3518 -0.8394 -0.0604
   82TMC2    C5 1276   2.713   3.116  10.951 -0.3632 -0.7027 -0.1439
   82TMC2    C6 1277   2.763   3.186  11.056 -1.1952  0.2100 -0.5240
   82TMC2     C 1278   2.592   3.373  10.729 -0.2493  1.0566 -0.9070
   82TMC2     O 1279   2.661   3.358  10.628  0.0030  0.5329 -0.3343
   82TMC2     H 1280   2.655   3.489  10.978 -0.5290 -0.3942  1.1373
   82TMC2    H1 1281   2.618   3.130  10.753  2.0982 -1.2909 -0.7899
   82TMC2    H2 1282   2.818   3.123  11.125 -0.9651  5.1191  3.7727
   82TMC2    C7 1283   2.698   2.981  10.990  0.1893 -0.2044  0.4621
   82TMC2    C8 1284   2.796   3.401  11.173 -0.0292 -0.1280  0.2460
   82TMC2    O1 1285   2.672   2.960  11.109 -0.5054  0.2542 -0.1863
   82TMC2    O2 1286   2.816   3.519  11.148 -0.5103  0.3133 -0.4443
   82TMC2    O5 1287   2.879   3.329  11.246 -0.5034 -0.5067  0.5801
   82TMC2    H5 1288   2.843   3.244  11.279  0.3607  0.1180  3.1091
   83MPD2     C 1289   2.269   3.666  10.481  0.6190  0.2468  0.1012
   83MPD2    C1 1290   2.398   3.639  10.442 -0.0311  0.2274  0.3038
   83MPD2    C2 1291   2.473   3.568  10.530  1.2543 -0.2388  0.6238
   83MPD2    C3 1292   2.419   3.530  10.659  0.3445 -0.1134 -0.0024
   83MPD2    C4 1293   2.295   3.580  10.703 -0.6893 -0.2235  0.2209
   83MPD2    C5 1294   2.222   3.643  10.606 -0.4923 -0.4125  0.0993
   83MPD2     H 1295   2.564   3.520  10.494  0.1793 -2.1814  0.4794
   83MPD2    H1 1296   2.256   3.558  10.802  0.5062  1.0134  0.9642
   83MPD2    H2 1297   2.200   3.721  10.417  1.4027 -0.8717 -1.6996
   83MPD2    H3 1298   2.123   3.683  10.621  0.4925  1.4179  1.6676
   83MPD2     N 1299   2.485   3.454  10.757  0.0120 -0.0725 -0.2320
   83MPD2    H5 1300   2.453   3.473  10.851  2.3900 -0.3907  0.6541
   83MPD2    N1 1301   2.436   3.683  10.309 -0.1279  0.2859 -0.4612
   83MPD2    H7 1302   2.367   3.725  10.248 -0.0347 -0.0395 -0.7869
   84TMC2    C1 1303   0.039   1.844  11.061 -0.2755  0.1184 -0.1315
   84TMC2    C2 1304   0.117   1.893  10.952  0.0447 -0.2030  0.3701
   84TMC2    C3 1305   0.152   1.811  10.852  0.0867  0.5461  0.5904
   84TMC2    C4 1306   4.724   1.723  11.047  0.3036 -0.1738 -0.2697
   84TMC2    C5 1307   0.018   1.643  10.943 -0.0963 -0.1857  0.3043
   84TMC2    C6 1308   0.113   1.681  10.850  0.3573  0.2893  0.2915
   84TMC2     C 1309   4.702   1.943  11.138 -0.0910  0.2477  0.1642
   84TMC2     O 1310   4.699   2.061  11.105 -0.0466  0.8367 -0.2003
   84TMC2     H 1311   0.156   1.994  10.950  0.4481 -0.3653  0.1532
   84TMC2    H1 1312   4.633   1.698  11.101  0.6460  2.6929  1.6357
   84TMC2    H2 1313   0.139   1.621  10.763  1.3009 -0.7137  1.2720
   84TMC2    C7 1314   4.664   1.543  10.898 -0.5544 -1.1262 -0.2636
   84TMC2    C8 1315   0.232   1.861  10.744 -0.0126  0.1246 -0.7432
   84TMC2    O1 1316   4.546   1.566  10.923 -0.0991 -0.0702 -0.3166
   84TMC2    O2 1317   0.295   1.795  10.663 -0.0251  0.4825  0.5107
   84TMC2    O5 1318   0.177   1.978  10.717 -0.3102 -0.7537 -0.1391
   84TMC2    H5 1319   0.109   2.006  10.782 -2.2668  0.9850 -2.9807
   85TMC2    C1 1320   1.331   0.839  15.958 -0.7645 -0.6825 -0.0965
   85TMC2    C2 1321   1.235   0.810  15.863 -0.1501  0.7248  0.0645
   85TMC2    C3 1322   1.221   0.898  15.758  0.0031  0.3233  0.4338
   85TMC2    C4 1323   1.413   0.949  15.947  0.4989  0.2897  1.0502
   85TMC2    C5 1324   1.386   1.034  15.848 -0.0031 -0.3053 -0.3122
   85TMC2    C6 1325   1.290   1.015  15.755 -0.2095 -0.2620  0.8453
   85TMC2     C 1326   1.379   0.749  16.065 -0.7598 -0.6054  0.0773
   85TMC2     O 1327   1.494   0.754  16.096 -0.9365 -0.0747  0.3973
   85TMC2     H 1328   1.175   0.720  15.868 -0.0222  0.6971  1.0483
   85TMC2    H1 1329   1.482   0.977  16.026  2.2269  0.8981 -0.6880
   85TMC2    H2 1330   1.275   1.079  15.669 -2.4401  1.5146  2.5558
   85TMC2    C7 1331   1.478   1.145  15.827  0.5173  0.1466 -0.1054
   85TMC2    C8 1332   1.099   0.880  15.685  0.4615  0.2167  0.3896
   85TMC2    O1 1333   1.582   1.139  15.883  0.5724  0.8208 -0.2421
   85TMC2    O2 1334   1.028   0.779  15.700 -0.0786  0.0853  0.6491
   85TMC2    O5 1335   1.050   0.997  15.644 -0.4648 -0.5289  0.2324
   85TMC2    H5 1336   1.105   1.065  15.689 -1.9391 -0.0069  1.2413
   86MPD2     C 1337   1.275   0.367  16.398  0.0203  0.5821  0.6265
   86MPD2    C1 1338   1.188   0.366  16.294 -0.9145  0.0780 -0.0077
   86MPD2    C2 1339   1.197   0.462  16.197 -0.0014  0.0958 -0.0200
   86MPD2    C3 1340   1.291   0.561  16.202  0.9388  0.2750 -0.6068
   86MPD2    C4 1341   1.387   0.561  16.306 -0.2382  0.2059 -1.1197
   86MPD2    C5 1342   1.363   0.473  16.405 -0.5271 -0.6166  0.0567
   86MPD2     H 1343   1.119   0.460  16.122 -0.4474  0.3562  0.4305
   86MPD2    H1 1344   1.462   0.640  16.308 -0.9442  0.8171  1.0748
   86MPD2    H2 1345   1.261   0.309  16.489  0.4124  0.1652  0.4238
   86MPD2    H3 1346   1.411   0.489  16.501 -0.3127  1.9567 -0.4868
   86MPD2     N 1347   1.282   0.653  16.096  0.5767  0.3442 -0.2193
   86MPD2    H5 1348   1.190   0.664  16.054  0.3920  0.6144  0.2524
   86MPD2    N1 1349   1.096   0.259  16.272 -0.5645  0.1981 -0.4030
   86MPD2    H7 1350   1.041   0.266  16.186  1.3707 -2.6688 -1.8744
   87TMC2    C1 1351   3.704   3.364   0.779 -0.7965 -0.6954 -0.0571
   87TMC2    C2 1352   3.813   3.323   0.843  0.5676 -0.4418  0.5839
   87TMC2    C3 1353   3.821   3.344   0.984 -0.3087  0.6473 -0.7420
   87TMC2    C4 1354   3.602   3.433   0.841 -0.2086 -0.6401  0.5397
   87TMC2    C5 1355   3.611   3.449   0.980 -1.0266  0.1519 -0.0747
   87TMC2    C6 1356   3.718   3.394   1.054 -0.5436 -0.3155  0.2464
   87TMC2     C 1357   3.697   3.322   0.647 -0.0729 -0.6749  0.4130
   87TMC2     O 1358   3.652   3.403   0.566  0.2309 -0.2001 -0.1638
   87TMC2     H 1359   3.902   3.286   0.791  0.3799 -0.8801  0.5712
   87TMC2    H1 1360   3.514   3.463   0.785 -1.0929 -0.7634  1.8339
   87TMC2    H2 1361   3.729   3.412   1.160 -0.4128  0.5989  0.0791
   87TMC2    C7 1362   3.498   3.509   1.052 -0.0045  0.2119  0.5586
   87TMC2    C8 1363   3.947   3.312   1.050 -0.2194 -0.3880 -0.7154
   87TMC2    O1 1364   3.405   3.539   0.983  0.5745  0.8450  0.0374
   87TMC2    O2 1365   4.057   3.334   1.003 -0.8441 -0.2528 -0.2737
   87TMC2    O5 1366   3.930   3.242   1.163  0.4697  0.1299 -0.1658
   87TMC2    H5 1367   3.840   3.205   1.178  0.3983  0.2018 -0.4217
   88MPD2     C 1368   3.465   3.641   1.403  0.4388  0.2227  0.0310
   88MPD2    C1 1369   3.441   3.629   1.267 -0.7873  0.4184 -0.2940
   88MPD2    C2 1370   3.338   3.711   1.217 -0.2776 -0.3380  0.5013
   88MPD2    C3 1371   3.288   3.811   1.297  1.0435 -1.4175 -0.7237
   88MPD2    C4 1372   3.314   3.819   1.427 -0.5684 -0.8140 -0.6701
   88MPD2    C5 1373   3.412   3.739   1.483 -0.2488 -0.5561 -0.2191
   88MPD2     H 1374   3.312   3.717   1.112 -0.2450  0.3193  0.5259
   88MPD2    H1 1375   3.269   3.892   1.492 -2.0043 -1.1664 -1.2686
   88MPD2    H2 1376   3.533   3.572   1.451  0.5479  1.1231  1.1671
   88MPD2    H3 1377   3.420   3.734   1.591 -0.4193 -0.0228 -0.1857
   88MPD2     N 1378   3.214   3.917   1.241  0.0274 -0.3685  0.2022
   88MPD2    H5 1379   3.190   3.988   1.309  2.9340 -0.9259  1.8097
   88MPD2    N1 1380   3.521   3.535   1.188  1.0784  0.1736  0.1767
   88MPD2    H7 1381   3.605   3.507   1.239  0.9520  1.6870  1.1927
   89TMC2    C1 1382   4.186   1.862   1.833 -0.9159  0.1920  0.4851
   89TMC2    C2 1383   4.240   1.957   1.916  0.3454 -0.5824 -0.1991
   89TMC2    C3 1384   4.263   2.081   1.870 -0.0391  0.1970  0.0468
   89TMC2    C4 1385   4.146   1.902   1.704  0.6013  0.1996 -0.0941
   89TMC2    C5 1386   4.178   2.029   1.659 -0.4654 -0.0528 -0.9533
   89TMC2    C6 1387   4.241   2.119   1.740  0.5397 -0.3598 -0.0550
   89TMC2     C 1388   4.204   1.725   1.871 -0.7722  0.2403  0.0353
   89TMC2     O 1389   4.255   1.706   1.980  0.7960  0.3567  0.6985
   89TMC2     H 1390   4.256   1.936   2.022 -1.2444 -0.2067  0.1194
   89TMC2    H1 1391   4.114   1.822   1.638  1.7229 -0.8260  0.6021
   89TMC2    H2 1392   4.252   2.223   1.712  1.2633 -0.5239 -0.3749
   89TMC2    C7 1393   4.158   2.053   1.518  0.3283  0.1032  0.0101
   89TMC2    C8 1394   4.319   2.170   1.963  0.1371 -0.2555  0.0322
   89TMC2    O1 1395   4.098   1.966   1.457  0.2239  0.0984  0.3196
   89TMC2    O2 1396   4.379   2.126   2.060 -0.6452 -0.3059 -0.0182
   89TMC2    O5 1397   4.245   2.284   1.972  0.5871  0.3312  0.1459
   89TMC2    H5 1398   4.171   2.288   1.908  1.0493  1.6004 -0.3053
   90MPD2     C 1399   4.221   1.219   1.745  0.1976  0.7417  0.0943
   90MPD2    C1 1400   4.156   1.288   1.639 -0.1443 -0.4806  0.0639
   90MPD2    C2 1401   4.139   1.426   1.652  0.2919 -0.0788  0.0904
   90MPD2    C3 1402   4.174   1.495   1.765  0.3986  0.1042 -0.7276
   90MPD2    C4 1403   4.223   1.422   1.877  0.6517  0.1066 -0.7486
   90MPD2    C5 1404   4.246   1.285   1.861 -0.4694 -0.0035  0.3214
   90MPD2     H 1405   4.100   1.491   1.575 -0.1817  1.7744  1.8962
   90MPD2    H1 1406   4.252   1.467   1.971  0.1196 -1.2382  0.0650
   90MPD2    H2 1407   4.251   1.114   1.740  1.0273  0.9628  0.4441
   90MPD2    H3 1408   4.290   1.220   1.936  1.7646  0.5615 -0.4700
   90MPD2     N 1409   4.165   1.636   1.769  0.0375 -0.5719 -0.1784
   90MPD2    H5 1410   4.104   1.677   1.699 -1.9479 -1.5016  0.9988
   90MPD2    N1 1411   4.132   1.234   1.512  0.1431 -0.0781  0.1470
   90MPD2    H7 1412   4.083   1.301   1.452  3.0643  1.3169 -0.6818
   91TMC2    C1 1413   0.855   1.848  16.036 -0.4404 -0.3313 -0.0634
   91TMC2    C2 1414   0.920   1.875  16.158  0.0088  0.7727  0.2325
   91TMC2    C3 1415   0.883   1.800  16.263 -0.8043  0.5433  0.1363
   91TMC2    C4 1416   0.765   1.744  16.019 -0.0494 -0.2505  0.2140
   91TMC2    C5 1417   0.737   1.666  16.130 -0.1494 -0.4319  0.0224
   91TMC2    C6 1418   0.806   1.690  16.245  0.4612 -0.2673 -0.0709
   91TMC2     C 1419   0.925   1.891  15.916  1.1711  1.3198  0.0179
   91TMC2     O 1420   0.864   1.898  15.812 -0.2629  0.6011 -0.2168
   91TMC2     H 1421   0.995   1.950  16.181  1.9396 -0.2772 -2.5470
   91TMC2    H1 1422   0.721   1.731  15.921 -0.8012 -1.9091  0.7808
   91TMC2    H2 1423   0.771   1.640  16.335 -2.5024  0.9281 -0.5721
   91TMC2    C7 1424   0.647   1.553  16.111 -0.7045  0.5311 -0.7343
   91TMC2    C8 1425   0.914   1.850  16.401 -0.3780  0.1806  0.0591
   91TMC2    O1 1426   0.655   1.460  16.188  0.2024 -0.4298 -0.3952
   91TMC2    O2 1427   0.983   1.781  16.477  0.3075 -0.1930  0.3648
   91TMC2    O5 1428   0.911   1.989  16.402 -0.3724  0.0848 -0.5473
   91TMC2    H5 1429   0.852   2.024  16.333 -1.4185 -0.0813  0.2659
   92MPD2     C 1430   1.140   1.998  15.733  0.7950  0.3029  0.2531
   92MPD2    C1 1431   1.163   1.962  15.859 -0.4235 -0.0465  0.0141
   92MPD2    C2 1432   1.294   1.947  15.905  0.2027 -0.0908 -0.2062
   92MPD2    C3 1433   1.405   1.948  15.822 -0.9615  0.7693 -0.1575
   92MPD2    C4 1434   1.381   1.995  15.692 -0.4346 -0.2756  0.1396
   92MPD2    C5 1435   1.251   2.012  15.649 -0.3038  0.3763 -0.3710
   92MPD2     H 1436   1.309   1.906  16.004 -1.4125 -3.4260 -1.3765
   92MPD2    H1 1437   1.467   1.990  15.626 -1.5036 -1.3521 -1.1817
   92MPD2    H2 1438   1.041   2.007  15.690 -0.3379 -1.0553  2.5969
   92MPD2    H3 1439   1.251   2.035  15.544 -0.6965 -0.3868 -0.5401
   92MPD2     N 1440   1.531   1.919  15.881 -0.5210 -0.3247 -0.1306
   92MPD2    H5 1441   1.533   1.892  15.979 -2.3325  0.6419  0.1821
   92MPD2    N1 1442   1.063   1.913  15.943  0.1501  0.8370  0.0548
   92MPD2    H7 1443   1.096   1.900  16.038  0.0779  1.1107  0.1187
   93TMC2    C1 1444   2.691   1.174  13.799 -0.0973 -0.2986  0.2591
   93TMC2    C2 1445   2.675   1.068  13.724 -1.0554  0.3501  0.5720
   93TMC2    C3 1446   2.780   1.043  13.636 -0.2221  0.0160 -0.2413
   93TMC2    C4 1447   2.803   1.238  13.807 -0.6631  0.6478 -0.2209
   93TMC2    C5 1448   2.903   1.202  13.726  0.4157 -0.6815 -0.6996
   93TMC2    C6 1449   2.893   1.104  13.639 -0.1340  0.1975 -0.0400
   93TMC2     C 1450   2.571   1.221  13.872  0.2395 -0.0521 -0.1626
   93TMC2     O 1451   2.579   1.291  13.972  0.8259 -0.4323  0.6391
   93TMC2     H 1452   2.585   1.008  13.724 -1.0892  0.4002  1.3158
   93TMC2    H1 1453   2.818   1.317  13.880 -0.4333  0.8054 -0.4382
   93TMC2    H2 1454   2.969   1.077  13.567  0.3253 -0.2944  0.6297
   93TMC2    C7 1455   3.031   1.273  13.716 -0.0079  0.5133  0.3998
   93TMC2    C8 1456   2.775   0.911  13.568  0.9901 -0.3042  1.2346
   93TMC2    O1 1457   3.116   1.220  13.650  0.1276  0.0746 -0.0075
   93TMC2    O2 1458   2.872   0.843  13.554  0.2436 -0.2565 -0.2124
   93TMC2    O5 1459   2.647   0.870  13.549 -0.1392 -0.4150  0.6335
   93TMC2    H5 1460   2.580   0.941  13.542 -0.1566 -0.6189 -1.2745
   94MPD2     C 1461   2.284   1.240  13.950 -0.5661  0.2214  0.3362
   94MPD2    C1 1462   2.333   1.217  13.823  0.2254  0.1600  0.4934
   94MPD2    C2 1463   2.242   1.180  13.725 -0.3348  0.1069  1.0732
   94MPD2    C3 1464   2.113   1.156  13.760  0.0222 -0.4818 -0.0403
   94MPD2    C4 1465   2.065   1.184  13.882  0.1445 -0.6930  0.2722
   94MPD2    C5 1466   2.151   1.224  13.983  0.1763 -0.4162  0.4113
   94MPD2     H 1467   2.288   1.167  13.627 -1.4020  1.4846  0.3926
   94MPD2    H1 1468   1.961   1.181  13.914 -0.2623 -0.3382 -1.0063
   94MPD2    H2 1469   2.352   1.265  14.031 -0.3809 -0.4220  0.3791
   94MPD2    H3 1470   2.122   1.232  14.088 -1.3071 -0.4260  0.0006
   94MPD2     N 1471   2.022   1.126  13.656 -0.8202  0.3610  0.0314
   94MPD2    H5 1472   1.924   1.130  13.681 -1.3803  0.0930 -2.1045
   94MPD2    N1 1473   2.465   1.199  13.791 -0.4018  0.5096 -0.2152
   94MPD2    H7 1474   2.488   1.171  13.696 -1.3426 -1.8607  0.2593
   95TMC2    C1 1475   2.380   3.458  14.797  0.3527  0.5494 -0.2119
   95TMC2    C2 1476   2.423   3.531  14.690 -0.5198 -0.3984  0.6329
   95TMC2    C3 1477   2.327   3.581  14.610  0.1761  0.5160  0.2267
   95TMC2    C4 1478   2.253   3.448  14.833 -0.2910  0.0768 -0.7430
   95TMC2    C5 1479   2.161   3.498  14.743 -0.0869 -0.1214  0.0357
   95TMC2    C6 1480   2.201   3.567  14.631 -0.0702  0.0258  0.2707
   95TMC2     C 1481   2.485   3.401  14.884 -0.1975  0.1308  0.2487
   95TMC2     O 1482   2.596   3.447  14.870  0.0971 -0.3628  0.0007
   95TMC2     H 1483   2.526   3.535  14.658 -0.7729  0.1329 -0.0946
   95TMC2    H1 1484   2.220   3.401  14.925 -0.8595  1.7099 -0.1118
   95TMC2    H2 1485   2.124   3.616  14.572 -0.0880 -1.9034 -1.3047
   95TMC2    C7 1486   2.024   3.497  14.789  0.2492  0.2901  0.5721
   95TMC2    C8 1487   2.373   3.628  14.475 -0.0367  0.3082  0.1095
   95TMC2    O1 1488   2.011   3.440  14.898 -0.3756  0.1141  0.0547
   95TMC2    O2 1489   2.490   3.647  14.455 -0.2878 -0.0203  0.0922
   95TMC2    O5 1490   2.282   3.628  14.375 -0.4297 -0.5797 -0.1694
   95TMC2    H5 1491   2.200   3.576  14.390  0.5779 -1.7840  1.1482
   96MPD2     C 1492   2.680   3.120  15.273 -0.2993 -0.4577  1.1054
   96MPD2    C1 1493   2.743   3.187  15.169 -0.3554  0.2693 -0.0561
   96MPD2    C2 1494   2.671   3.267  15.083  0.2047  0.6797 -0.2562
   96MPD2    C3 1495   2.530   3.264  15.086  0.7961  0.8010  0.7496
   96MPD2    C4 1496   2.473   3.195  15.187  0.3007  0.2765 -0.5012
   96MPD2    C5 1497   2.543   3.127  15.280  0.1091 -0.2723 -0.8201
   96MPD2     H 1498   2.720   3.310  14.997  0.9688  0.2342 -0.0470
   96MPD2    H1 1499   2.365   3.187  15.189  0.3596 -0.1155  1.0784
   96MPD2    H2 1500   2.731   3.065  15.352  1.3763 -1.8053 -0.9082
   96MPD2    H3 1501   2.490   3.078  15.360 -2.6035  1.6169 -1.4657
   96MPD2     N 1502   2.442   3.328  14.992  0.5296  0.5942 -0.6194
   96MPD2    H5 1503   2.344   3.306  15.006  0.4368  0.6179 -1.2540
   96MPD2    N1 1504   2.884   3.185  15.154  0.1489 -0.0648 -0.0996
   96MPD2    H7 1505   2.923   3.226  15.070 -0.4827 -1.7230 -1.2087
   97TMC2    C1 1506   0.264   1.509   0.089  0.2739  0.3087 -0.2518
   97TMC2    C2 1507   0.135   1.563   0.074  0.5504  0.4532  0.0514
   97TMC2    C3 1508   0.126   1.698   0.076  0.2446 -0.1769 -0.2002
   97TMC2    C4 1509   0.378   1.584   0.084 -0.2173 -0.9398  0.5353
   97TMC2    C5 1510   0.362   1.717   0.082 -0.2341  0.0161 -0.3310
   97TMC2    C6 1511   0.237   1.775   0.085  0.1718 -0.5273  0.5850
   97TMC2     C 1512   0.292   1.366   0.098 -0.5824 -0.0590  0.8949
   97TMC2     O 1513   0.410   1.331   0.097 -0.1811 -0.1473 -0.2433
   97TMC2     H 1514   0.047   1.501   0.078 -0.1888  1.6547  2.7199
   97TMC2    H1 1515   0.473   1.535   0.070 -0.3800 -0.7276 -1.2340
   97TMC2    H2 1516   0.233   1.882   0.073 -0.7191 -0.2798  3.1427
   97TMC2    C7 1517   0.477   1.798   0.070  0.2842  0.0095  0.0923
   97TMC2    C8 1518   0.015   1.757   0.140 -0.1475 -0.0060  0.1120
   97TMC2    O1 1519   0.581   1.762   0.122 -0.0203  0.1375 -0.2108
   97TMC2    O2 1520   4.736   1.878   0.127 -0.3550  0.1723  0.2236
   97TMC2    O5 1521   4.711   1.681   0.243 -0.7043 -1.0751 -0.0791
   97TMC2    H5 1522   4.735   1.587   0.258  4.2980 -0.4316 -3.7515
   98MPD2     C 1523   0.137   0.871   0.077 -0.8805 -0.4322 -0.1449
   98MPD2    C1 1524   0.254   0.928   0.087  0.9149 -0.0595 -0.5601
   98MPD2    C2 1525   0.275   1.062   0.085 -0.6687  0.4702 -0.6385
   98MPD2    C3 1526   0.166   1.147   0.093  0.1415 -0.2335 -0.5274
   98MPD2    C4 1527   0.041   1.094   0.089 -0.3180 -0.2755 -0.2312
   98MPD2    C5 1528   0.023   0.955   0.067  0.2157  0.0444 -0.0700
   98MPD2     H 1529   0.370   1.106   0.114  0.5310 -1.8334 -1.0623
   98MPD2    H1 1530   4.695   1.157   0.087 -1.2953 -1.6546 -0.3794
   98MPD2    H2 1531   0.121   0.764   0.071 -1.5319 -0.3350 -0.1311
   98MPD2    H3 1532   4.666   0.912   0.064  0.2896 -0.0435 -1.2717
   98MPD2     N 1533   0.180   1.289   0.080  0.6822 -0.7357 -0.4058
   98MPD2    H5 1534   0.092   1.338   0.067  0.4459 -1.2568 -0.7685
   98MPD2    N1 1535   0.366   0.839   0.105 -0.0045  0.3502 -0.0593
   98MPD2    H7 1536   0.337   0.744   0.123  0.2966  0.1464 -0.6584
   99TMC2    C1 1537   4.184   3.008   1.137  0.0085 -0.8132  0.1724
   99TMC2    C2 1538   4.301   3.043   1.194  0.6218 -0.0587 -0.4077
   99TMC2    C3 1539   4.306   3.074   1.320 -0.0264  0.1352  0.6800
   99TMC2    C4 1540   4.066   2.999   1.210 -0.1438 -0.1545 -0.6596
   99TMC2    C5 1541   4.079   3.034   1.342 -0.0466 -0.1073  0.7437
   99TMC2    C6 1542   4.197   3.075   1.398  0.2060  0.7450  0.1732
   99TMC2     C 1543   4.184   2.971   1.000  0.1868  0.6432  0.2399
   99TMC2     O 1544   4.274   3.011   0.925 -0.5646  0.1562 -0.5384
   99TMC2     H 1545   4.387   3.053   1.129 -0.3169 -1.3815 -1.8528
   99TMC2    H1 1546   3.973   2.972   1.161 -1.1756  2.0534  0.1023
   99TMC2    H2 1547   4.191   3.109   1.500  0.4680  0.8346  0.1576
   99TMC2    C7 1548   3.967   3.028   1.436 -0.0581 -0.5369  1.0361
   99TMC2    C8 1549   4.439   3.065   1.380  0.4239 -0.3596 -0.1261
   99TMC2    O1 1550   3.967   3.091   1.542  0.3344 -0.2399  0.1327
   99TMC2    O2 1551   4.534   3.100   1.309 -0.2831  0.7399 -0.7782
   99TMC2    O5 1552   4.428   3.088   1.510  0.4065 -0.0821 -0.4260
   99TMC2    H5 1553   4.354   3.033   1.542  0.0002  0.9810  0.4812
  100MPD2     C 1554   4.111   2.852   0.735 -0.1793  0.2416 -0.5497
  100MPD2    C1 1555   4.077   2.802   0.859  0.1918 -0.3296  0.3462
  100MPD2    C2 1556   4.012   2.680   0.854  0.0829  0.2500 -0.1501
  100MPD2    C3 1557   3.980   2.618   0.733  0.2758 -0.5103  0.1530
  100MPD2    C4 1558   4.025   2.665   0.617  0.1938  0.9287 -0.9423
  100MPD2    C5 1559   4.090   2.788   0.620 -0.7570 -1.0664  0.4358
  100MPD2     H 1560   3.978   2.640   0.950 -2.6841 -2.6316 -2.3246
  100MPD2    H1 1561   4.001   2.622   0.520 -2.4610 -2.2339  1.0880
  100MPD2    H2 1562   4.169   2.944   0.729  1.6034 -0.9581 -1.3881
  100MPD2    H3 1563   4.117   2.842   0.530  1.7648 -0.9605  1.2568
  100MPD2     N 1564   3.906   2.494   0.745 -0.9698  0.0980  0.6046
  100MPD2    H5 1565   3.871   2.462   0.835  0.6190 -1.7402  0.5690
  100MPD2    N1 1566   4.102   2.862   0.982 -1.2979  0.0684 -0.1134
  100MPD2    H7 1567   4.053   2.834   1.066 -0.1718  0.0876  0.5483
  101TMC2    C1 1568   4.031   4.217  12.641 -0.5764 -0.6475  0.2398
  101TMC2    C2 1569   3.947   4.310  12.693  0.6195 -0.0193 -0.1422
  101TMC2    C3 1570   3.983   4.443  12.678  0.8041 -0.5622  0.1066
  101TMC2    C4 1571   4.157   4.249  12.586 -0.6174 -0.3196 -0.5137
  101TMC2    C5 1572   4.191   4.384  12.574 -0.5005  0.4926  0.7004
  101TMC2    C6 1573   4.102   4.476  12.622  0.6629  0.6233 -0.0081
  101TMC2     C 1574   3.991   4.080  12.656  0.2847 -0.4337  0.1990
  101TMC2     O 1575   3.919   4.056  12.753  0.3770  0.4409 -0.1035
  101TMC2     H 1576   3.848   4.275  12.720  1.4550 -0.4731  2.3611
  101TMC2    H1 1577   4.233   4.176  12.558 -0.6255 -0.7435  0.5787
  101TMC2    H2 1578   4.138   4.579  12.622 -0.4149  0.9881 -3.3359
  101TMC2    C7 1579   4.326   4.428  12.548 -0.2946  1.6539  0.1053
  101TMC2    C8 1580   3.912   4.537  12.755  0.2704 -0.4629  0.3101
  101TMC2    O1 1581   4.386   4.388  12.449  0.2161  0.0150 -0.3847
  101TMC2    O2 1582   3.853   4.632  12.702 -0.4017 -0.3835 -0.1164
  101TMC2    O5 1583   3.882   4.488  12.875 -0.1532 -0.0710 -0.1976
  101TMC2    H5 1584   3.939   4.414  12.906 -1.6978 -2.6616 -3.6417
  102MPD2     C 1585   4.117   3.799  12.459 -0.7312 -0.3618 -0.7246
  102MPD2    C1 1586   4.071   3.859  12.574 -0.0282 -0.9554  0.1098
  102MPD2    C2 1587   4.035   3.783  12.686 -0.2952  0.1425  0.3462
  102MPD2    C3 1588   4.049   3.647  12.687  0.7154  0.4074 -0.4520
  102MPD2    C4 1589   4.107   3.586  12.581 -0.1357 -0.1235  0.2868
  102MPD2    C5 1590   4.144   3.666  12.470 -0.1342 -0.1197 -0.5448
  102MPD2     H 1591   3.994   3.837  12.771 -1.7184 -2.1073  1.0790
  102MPD2    H1 1592   4.139   3.483  12.581 -1.1609 -0.4426  0.3391
  102MPD2    H2 1593   4.147   3.855  12.371 -0.8824  1.0223  0.1041
  102MPD2    H3 1594   4.187   3.614  12.386  0.3267  0.2525 -0.5416
  102MPD2     N 1595   4.003   3.574  12.800 -0.4543 -0.8695 -0.2497
  102MPD2    H5 1596   3.970   3.621  12.883  0.3674 -1.3704  0.3528
  102MPD2    N1 1597   4.053   4.003  12.565 -0.3596 -0.0544 -0.6211
  102MPD2    H7 1598   4.089   4.045  12.479  0.1886  0.7787  0.0196
  103TMC2    C1 1599   2.488   4.052  12.394 -0.2425 -0.3561 -0.2992
  103TMC2    C2 1600   2.622   4.057  12.363 -0.3846 -0.5371  0.0840
  103TMC2    C3 1601   2.710   4.119  12.443 -0.0494 -0.0105  0.6416
  103TMC2    C4 1602   2.444   4.099  12.517  0.3242 -0.5029 -0.0445
  103TMC2    C5 1603   2.535   4.162  12.591 -0.4340  0.2534 -0.0188
  103TMC2    C6 1604   2.668   4.177  12.559 -0.5960  0.2384  0.4938
  103TMC2     C 1605   2.399   3.951  12.329 -0.1094  0.8260 -0.3121
  103TMC2     O 1606   2.286   3.991  12.297  0.1858 -0.3946  0.2420
  103TMC2     H 1607   2.657   4.029  12.264  1.1809  0.0836  0.4765
  103TMC2    H1 1608   2.341   4.093  12.550 -0.1039 -0.6013 -1.4018
  103TMC2    H2 1609   2.738   4.237  12.615  0.5298 -0.1799 -0.4567
  103TMC2    C7 1610   2.487   4.238  12.707  0.5611  0.6126 -0.1430
  103TMC2    C8 1611   2.835   4.168  12.388  0.5277  0.8981  0.9568
  103TMC2    O1 1612   2.369   4.216  12.730  0.6164 -0.1196  0.0547
  103TMC2    O2 1613   2.851   4.206  12.275 -0.4462 -0.3057  0.4051
  103TMC2    O5 1614   2.928   4.185  12.489 -0.2097  0.0163 -0.1883
  103TMC2    H5 1615   2.892   4.147  12.572 -0.9321 -0.3239 -0.6514
  104MPD2     C 1616   2.515   3.622  12.212  0.5662 -0.4748 -0.0999
  104MPD2    C1 1617   2.430   3.727  12.220 -0.8093  0.0949 -0.1295
  104MPD2    C2 1618   2.302   3.716  12.173  0.3619 -0.2709 -0.2533
  104MPD2    C3 1619   2.256   3.600  12.110  1.1736 -0.2811  0.9050
  104MPD2    C4 1620   2.344   3.502  12.095  0.6146 -0.0781 -0.7587
  104MPD2    C5 1621   2.470   3.506  12.150 -0.7436 -0.0879 -1.3059
  104MPD2     H 1622   2.235   3.800  12.187  0.1355 -0.5284  0.2094
  104MPD2    H1 1623   2.319   3.408  12.048  1.8875 -0.1088 -1.3772
  104MPD2    H2 1624   2.619   3.636  12.242  0.5223 -0.3416 -0.0107
  104MPD2    H3 1625   2.531   3.417  12.134  0.6104  0.8314 -1.2951
  104MPD2     N 1626   2.119   3.583  12.059  0.0766 -0.6166 -0.1444
  104MPD2    H5 1627   2.060   3.665  12.056 -1.2526 -1.6274 -1.2998
  104MPD2    N1 1628   2.481   3.843  12.290  0.0446 -0.4352 -0.3526
  104MPD2    H7 1629   2.577   3.841  12.324  0.1829  1.2526 -0.6336
  105TMC2    C1 1630   3.739   3.217  17.481  0.3474  0.4279 -0.3286
  105TMC2    C2 1631   3.705   3.348  17.500 -0.3141  0.2136 -0.4993
  105TMC2    C3 1632   3.625   3.380  17.610  0.3544 -0.2415  0.6840
  105TMC2    C4 1633   3.698   3.121  17.576 -0.4903  0.1331  0.1600
  105TMC2    C5 1634   3.622   3.155  17.680  0.5747  0.4628  0.0632
  105TMC2    C6 1635   3.582   3.290  17.699 -0.3608 -0.2497 -0.0457
  105TMC2     C 1636   3.816   3.179  17.369  0.1013 -0.3691 -0.3329
  105TMC2     O 1637   3.800   3.067  17.318  0.2520  0.3148  0.3671
  105TMC2     H 1638   3.739   3.418  17.425  0.3628 -0.2598 -0.6319
  105TMC2    H1 1639   3.738   3.021  17.587  2.4637  1.7927  4.2874
  105TMC2    H2 1640   3.513   3.327   0.006  0.7041  0.2797  0.6758
  105TMC2    C7 1641   3.652   3.084   0.032  0.4593  0.0443 -0.5793
  105TMC2    C8 1642   3.590   3.518  17.635 -0.7467 -0.4304  0.1421
  105TMC2    O1 1643   3.632   2.965   0.006 -0.1279  0.3211 -0.2180
  105TMC2    O2 1644   3.498   3.547  17.705 -0.5961 -0.2511  0.4579
  105TMC2    O5 1645   3.694   3.595  17.610 -0.7392 -0.3143  0.9862
  105TMC2    H5 1646   3.770   3.549  17.568  1.0468  1.1058  2.6530
  106MPD2     C 1647   4.217   3.246  17.068  0.0224 -0.2761  0.5259
  106MPD2    C1 1648   4.230   3.328  17.170 -0.0917  0.7976  0.0377
  106MPD2    C2 1649   4.131   3.327  17.269 -0.1264 -0.2804 -0.0077
  106MPD2    C3 1650   4.020   3.254  17.253  0.4360  0.3770 -0.2581
  106MPD2    C4 1651   4.008   3.172  17.141  0.2736  0.6490  0.3240
  106MPD2    C5 1652   4.099   3.177  17.048 -0.5947 -0.0099  0.0187
  106MPD2     H 1653   4.141   3.383  17.361  0.0121 -1.6825  0.8275
  106MPD2    H1 1654   3.924   3.105  17.123  0.9067 -0.4077  1.2713
  106MPD2    H2 1655   4.298   3.255  16.997 -1.1987  0.7818 -0.7204
  106MPD2    H3 1656   4.097   3.104  16.968 -1.0554 -0.7617  0.7200
  106MPD2     N 1657   3.923   3.267  17.353 -0.1776 -0.4269  0.2199
  106MPD2    H5 1658   3.926   3.347  17.415 -1.5253  0.8243 -1.3140
  106MPD2    N1 1659   4.349   3.392  17.177 -0.1122  0.3557  0.0518
  106MPD2    H7 1660   4.417   3.354  17.111 -0.9852 -1.0379 -0.0363
  107TMC2    C1 1661   4.039   2.578  11.467  1.0730 -0.1819  0.9155
  107TMC2    C2 1662   4.117   2.679  11.421 -1.0305 -0.4896 -0.5904
  107TMC2    C3 1663   4.242   2.642  11.378  0.8485 -0.4571  0.1412
  107TMC2    C4 1664   4.093   2.453  11.488 -0.4827  0.9569  0.5643
  107TMC2    C5 1665   4.225   2.418  11.449  0.3467 -0.3290 -0.7896
  107TMC2    C6 1666   4.300   2.518  11.398  0.7000  0.2207  0.4453
  107TMC2     C 1667   3.919   2.607  11.542  0.1313 -0.4189 -0.4714
  107TMC2     O 1668   3.878   2.524  11.624 -0.3718  0.0677 -0.4736
  107TMC2     H 1669   4.084   2.781  11.406 -2.5147 -1.2163 -2.1643
  107TMC2    H1 1670   4.026   2.371  11.511  1.2212 -0.5082  0.3507
  107TMC2    H2 1671   4.408   2.507  11.392  0.5279 -1.9836  1.4049
  107TMC2    C7 1672   4.285   2.297  11.502  0.0282  0.3559 -0.2259
  107TMC2    C8 1673   4.327   2.750  11.330  1.3693 -0.5734 -0.0285
  107TMC2    O1 1674   4.229   2.249  11.598  0.0336 -0.2240  0.3400
  107TMC2    O2 1675   4.303   2.870  11.331  0.6801 -0.5869  1.0265
  107TMC2    O5 1676   4.396   2.703  11.224 -0.5003 -0.4525  0.1336
  107TMC2    H5 1677   4.380   2.607  11.211  2.3168 -0.8205 -0.5604
  108MPD2     C 1678   3.710   2.900  11.491 -0.3378 -0.1077  0.3499
  108MPD2    C1 1679   3.744   2.781  11.544 -0.6560  1.1189  0.0085
  108MPD2    C2 1680   3.685   2.742  11.663  0.4458 -0.2995 -0.1522
  108MPD2    C3 1681   3.586   2.823  11.719  0.2105 -0.1015  0.2218
  108MPD2    C4 1682   3.556   2.941  11.661 -0.1125 -0.5308  0.0451
  108MPD2    C5 1683   3.613   2.976  11.544  0.1881 -0.0170 -0.2453
  108MPD2     H 1684   3.710   2.644  11.701 -1.8646 -1.2762 -1.1560
  108MPD2    H1 1685   3.476   3.000  11.705  0.9696  2.8908 -2.5658
  108MPD2    H2 1686   3.761   2.932  11.401  1.9185 -3.0953  0.5434
  108MPD2    H3 1687   3.591   3.070  11.495 -0.4793  0.6799  1.3867
  108MPD2     N 1688   3.515   2.774  11.833  0.1170  0.0764  0.0621
  108MPD2    H5 1689   3.444   2.836  11.873  2.6141  1.3237  2.5427
  108MPD2    N1 1690   3.854   2.711  11.487 -0.6932 -0.6878 -0.2164
  108MPD2    H7 1691   3.896   2.758  11.406 -3.9409  0.6673 -1.1100
  109TMC2    C1 1692   4.556   0.006   0.416  0.1994 -0.3125 -0.3836
  109TMC2    C2 1693   4.540   4.646   0.334  0.8358  0.3889  0.6921
  109TMC2    C3 1694   4.651   4.611   0.261  0.2530  0.5647 -0.5166
  109TMC2    C4 1695   4.675   0.072   0.429  0.2988  0.2989 -0.8340
  109TMC2    C5 1696   0.043   0.023   0.364 -0.7279  0.0892 -0.3817
  109TMC2    C6 1697   0.030   4.665   0.276  0.1448 -0.0923  0.1367
  109TMC2     C 1698   4.435   0.083   0.441  0.0964  0.2182 -0.1423
  109TMC2     O 1699   4.349   0.072   0.357  0.0418 -0.6108  0.2216
  109TMC2     H 1700   4.440   4.604   0.330  1.7053 -1.6301 -0.0122
  109TMC2    H1 1701   4.676   0.164   0.486 -0.7972  0.4386 -1.0264
  109TMC2    H2 1702   0.111   4.615   0.224 -0.7320  0.5597 -1.8853
  109TMC2    C7 1703   0.169   0.086   0.394  0.3867 -0.3892  0.4162
  109TMC2    C8 1704   4.646   4.477   0.203 -0.1903  0.2688 -0.2718
  109TMC2    O1 1705   0.263   0.073   0.315  0.2491 -0.0551 -0.9911
  109TMC2    O2 1706   4.741   4.398   0.180 -0.0152  0.0600 -0.2553
  109TMC2    O5 1707   4.525   4.472   0.140  0.0815 -0.4167  0.8775
  109TMC2    H5 1708   4.479   4.558   0.127 -1.5011 -1.9243 -3.6184
  110MPD2     C 1709   4.122   0.376   0.702  0.4642 -1.0448 -0.3315
  110MPD2    C1 1710   4.243   0.379   0.768 -0.6874 -0.2027  0.2280
  110MPD2    C2 1711   4.354   0.311   0.714 -0.6215 -0.5170  0.8050
  110MPD2    C3 1712   4.332   0.240   0.606  0.5015  0.2009 -0.3754
  110MPD2    C4 1713   4.215   0.248   0.538  0.2538 -0.0306  0.2072
  110MPD2    C5 1714   4.112   0.331   0.577 -0.2766  0.1822 -0.2743
  110MPD2     H 1715   4.447   0.303   0.768 -0.4970  0.7102  0.7728
  110MPD2    H1 1716   4.192   0.187   0.452 -3.8641  0.2621  1.1011
  110MPD2    H2 1717   4.032   0.420   0.745  1.7008  1.6814 -0.4921
  110MPD2    H3 1718   4.022   0.348   0.520 -0.9867 -1.7820  0.2597
  110MPD2     N 1719   4.441   0.161   0.556  0.4462 -0.2242  0.0250
  110MPD2    H5 1720   4.523   0.153   0.616  0.5680 -2.4175 -0.4219
  110MPD2    N1 1721   4.248   0.446   0.898 -0.6417  0.1241  0.5605
  110MPD2    H7 1722   4.161   0.486   0.932 -0.7691 -0.9247  1.4704
  111TMC2    C1 1723   0.026   0.145  11.209  0.3729 -0.1738 -0.5551
  111TMC2    C2 1724   0.090   0.223  11.122  0.0363 -0.4382  0.2989
  111TMC2    C3 1725   0.212   0.278  11.146 -0.7416 -0.2548 -0.7980
  111TMC2    C4 1726   0.076   0.120  11.334  0.6472  1.0984 -0.0551
  111TMC2    C5 1727   0.201   0.178  11.359 -0.7942 -0.2462  0.3568
  111TMC2    C6 1728   0.277   0.242  11.263  0.4110 -0.2225  0.1468
  111TMC2     C 1729   4.622   0.132  11.180  0.0322 -0.1370  0.6097
  111TMC2     O 1730   4.579   0.190  11.082 -0.4317 -0.4909 -0.1963
  111TMC2     H 1731   0.040   0.251  11.030 -2.1242  0.5885  1.7971
  111TMC2    H1 1732   0.023   0.061  11.408  0.8925 -0.5043 -1.1454
  111TMC2    H2 1733   0.372   0.284  11.295  0.2281  0.2107  0.1239
  111TMC2    C7 1734   0.254   0.136  11.486 -0.1617 -0.6602 -0.4582
  111TMC2    C8 1735   0.208   0.419  11.105 -0.3032  0.3088  0.3015
  111TMC2    O1 1736   0.170   0.110  11.573 -0.3991  0.0953 -0.3052
  111TMC2    O2 1737   0.101   0.466  11.083  0.4917  0.5986 -0.0186
  111TMC2    O5 1738   0.305   0.479  11.183  0.1239  0.0059  0.1405
  111TMC2    H5 1739   0.393   0.451  11.150  0.6052 -0.3281  1.6930
  112MPD2     C 1740   4.140   0.042  11.318  0.3210 -0.6250  0.0646
  112MPD2    C1 1741   4.186   0.118  11.218 -0.4193 -0.2694  0.1267
  112MPD2    C2 1742   4.322   0.128  11.208 -0.0881  0.3040  0.4530
  112MPD2    C3 1743   4.409   0.050  11.283  0.3794  0.3857  0.1420
  112MPD2    C4 1744   4.358   4.713  11.382 -0.2209  0.4551 -0.6248
  112MPD2    C5 1745   4.226   4.714  11.396  0.2121 -0.2205 -1.0822
  112MPD2     H 1746   4.359   0.204  11.140  0.7575 -0.4611  0.0567
  112MPD2    H1 1747   4.422   4.652  11.444 -0.0938  0.1093 -1.0938
  112MPD2    H2 1748   4.035   0.030  11.342  0.6047 -0.2362  1.5301
  112MPD2    H3 1749   4.175   4.655  11.471  3.9745  2.3441  3.5004
  112MPD2     N 1750   4.552   0.073  11.282 -0.1140 -0.3589  0.2806
  112MPD2    H5 1751   4.601   0.014  11.349  0.4388  2.0453  2.0005
  112MPD2    N1 1752   4.098   0.178  11.124  0.0865 -0.7761 -0.1245
  112MPD2    H7 1753   4.144   0.229  11.048  2.0902 -3.2753 -0.5894
  113TMC2    C1 1754   2.720   2.756   0.549  0.2455 -0.0071 -0.7534
  113TMC2    C2 1755   2.605   2.833   0.548  0.0444 -0.0033  0.3290
  113TMC2    C3 1756   2.500   2.781   0.482  0.6753 -0.0580 -0.2414
  113TMC2    C4 1757   2.735   2.635   0.484  0.7120 -0.3982  0.3200
  113TMC2    C5 1758   2.623   2.590   0.407  0.2405 -1.0525 -0.4273
  113TMC2    C6 1759   2.507   2.659   0.418  0.8136  0.5412  0.1237
  113TMC2     C 1760   2.818   2.793   0.656 -0.2636 -0.2872 -0.3592
  113TMC2     O 1761   2.794   2.893   0.721  0.3200 -0.5716 -0.3595
  113TMC2     H 1762   2.607   2.933   0.590  0.1983  0.8259 -1.6534
  113TMC2    H1 1763   2.822   2.570   0.488  2.0125  1.3562  0.4307
  113TMC2    H2 1764   2.416   2.611   0.385  1.1508 -1.0306  1.5265
  113TMC2    C7 1765   2.623   2.446   0.401 -0.1278  0.0261 -0.4990
  113TMC2    C8 1766   2.388   2.875   0.463 -0.2467  0.0855 -0.3899
  113TMC2    O1 1767   2.671   2.408   0.294  0.7194  0.1257 -0.4195
  113TMC2    O2 1768   2.362   2.959   0.543 -0.3106 -0.1322 -0.2072
  113TMC2    O5 1769   2.344   2.872   0.333  0.9495  0.0805  0.0042
  113TMC2    H5 1770   2.358   2.797   0.271  2.0072 -0.9834  1.5075
  114MPD2     C 1771   3.204   2.702   0.978  0.0894 -0.4812  0.0604
  114MPD2    C1 1772   3.098   2.785   0.994 -0.6728  0.3903 -0.2826
  114MPD2    C2 1773   3.000   2.785   0.898  0.1492  0.1250  0.3111
  114MPD2    C3 1774   2.999   2.695   0.796 -0.4973  0.6119 -0.2766
  114MPD2    C4 1775   3.108   2.611   0.775  0.0910  0.3145 -0.4562
  114MPD2    C5 1776   3.214   2.623   0.864  0.8591 -0.3965 -0.0654
  114MPD2     H 1777   2.923   2.861   0.903 -2.1226 -2.1103 -0.8257
  114MPD2    H1 1778   3.123   2.544   0.691  1.4607 -2.1054  1.7018
  114MPD2    H2 1779   3.298   2.703   1.033  1.6955  0.1823 -2.6667
  114MPD2    H3 1780   3.303   2.565   0.843  1.5207  1.3828 -2.1896
  114MPD2     N 1781   2.900   2.691   0.691  0.0324 -0.1765 -0.1591
  114MPD2    H5 1782   2.902   2.609   0.632 -1.0749  0.6089 -1.2974
  114MPD2    N1 1783   3.082   2.879   1.102  0.0870 -0.0073  0.2670
  114MPD2    H7 1784   3.000   2.939   1.092  0.1408  0.0342  0.0710
  115TMC2    C1 1785   3.534   0.568  17.681 -1.0712 -0.2107  0.4161
  115TMC2    C2 1786   3.669   0.533  17.704 -0.5106 -0.0074 -0.5717
  115TMC2    C3 1787   3.760   0.637  17.712  0.3135 -0.6705 -0.5544
  115TMC2    C4 1788   3.490   0.697  17.680 -0.1932  0.3924  0.1736
  115TMC2    C5 1789   3.586   0.791  17.699 -1.5448  0.2702  0.5125
  115TMC2    C6 1790   3.721   0.769  17.716 -0.7005  0.1124  0.3237
  115TMC2     C 1791   3.443   0.465  17.638 -0.1825  0.2897 -0.9326
  115TMC2     O 1792   3.495   0.370  17.582  0.2411  0.0581 -0.2752
  115TMC2     H 1793   3.705   0.430  17.705  0.4538  0.3166 -1.7993
  115TMC2    H1 1794   3.391   0.731  17.651 -0.6220  0.0521  1.2608
  115TMC2    H2 1795   3.781   0.854  17.748  0.9600 -0.0263 -2.4815
  115TMC2    C7 1796   3.547   0.930  17.725 -0.6304  1.1053  0.8789
  115TMC2    C8 1797   3.894   0.614  17.764  0.0815  0.4828  0.2530
  115TMC2    O1 1798   3.435   0.948   0.005  0.0419 -0.0799  0.1985
  115TMC2    O2 1799   3.935   0.504   0.035  0.0093  0.4693  0.8098
  115TMC2    O5 1800   3.969   0.709  17.705 -0.2819 -0.2823  0.0504
  115TMC2    H5 1801   3.923   0.776  17.650  0.5366  0.3690  0.1583
  116MPD2     C 1802   2.970   0.272  17.597 -0.2615 -0.5920 -0.6010
  116MPD2    C1 1803   3.092   0.225  17.549  0.6495 -0.3036  1.0122
  116MPD2    C2 1804   3.214   0.289  17.582 -0.0817  0.6993 -0.1324
  116MPD2    C3 1805   3.204   0.410  17.650 -0.3306  0.3711 -0.4318
  116MPD2    C4 1806   3.082   0.448  17.709  0.0980  0.5797 -0.3379
  116MPD2    C5 1807   2.967   0.385  17.675 -0.8537  0.2878 -1.0025
  116MPD2     H 1808   3.307   0.262  17.534  0.0114  0.7604  0.0136
  116MPD2    H1 1809   3.067   0.538  17.767  0.3816  0.2097  0.3085
  116MPD2    H2 1810   2.871   0.234  17.573 -0.8446  0.9223 -0.5727
  116MPD2    H3 1811   2.874   0.416  17.720 -0.0643 -0.1207  0.8963
  116MPD2     N 1812   3.316   0.488  17.671  0.3045  0.0893  0.0955
  116MPD2    H5 1813   3.300   0.573  17.725 -1.8941 -1.1881  1.4879
  116MPD2    N1 1814   3.083   0.109  17.466  0.0669 -0.5094  0.2632
  116MPD2    H7 1815   2.989   0.072  17.453  0.7423 -1.9498 -0.4399
  117TMC2    C1 1816   1.804   2.075  13.673 -0.1231 -0.0367 -0.1974
  117TMC2    C2 1817   1.882   1.985  13.745  0.0601 -0.2211  0.5421
  117TMC2    C3 1818   2.008   2.028  13.770 -0.2092  0.7576  0.9966
  117TMC2    C4 1819   1.842   2.204  13.639  0.3461 -0.0649  0.6518
  117TMC2    C5 1820   1.969   2.243  13.681 -0.3670 -0.0067 -0.6870
  117TMC2    C6 1821   2.055   2.154  13.742 -0.7469  0.3524  0.2267
  117TMC2     C 1822   1.685   2.015  13.623 -0.7402 -0.0795  0.2052
  117TMC2     O 1823   1.696   1.895  13.594 -0.6433  0.4110  0.0803
  117TMC2     H 1824   1.837   1.890  13.771  2.2984 -2.0301 -2.0910
  117TMC2    H1 1825   1.778   2.267  13.578 -0.1650 -0.6759  0.5521
  117TMC2    H2 1826   2.147   2.191  13.786  0.0141 -0.2924 -0.8151
  117TMC2    C7 1827   2.020   2.374  13.662 -0.7479 -0.7543 -0.7003
  117TMC2    C8 1828   2.071   1.956  13.875 -0.5173  0.2438 -0.4933
  117TMC2    O1 1829   2.139   2.396  13.661 -0.0831  0.2821 -0.0336
  117TMC2    O2 1830   2.000   1.886  13.950  0.8893 -0.1381  0.7866
  117TMC2    O5 1831   2.183   1.917  13.812 -0.1690  0.1959  0.1134
  117TMC2    H5 1832   2.210   1.975  13.737  1.3468 -0.2409  0.3293
  118MPD2     C 1833   1.839   2.695  13.657 -0.4980 -0.7748 -0.0998
  118MPD2    C1 1834   1.943   2.610  13.649 -0.6366  0.4819 -0.3156
  118MPD2    C2 1835   2.066   2.665  13.626 -0.6113 -0.4726 -0.3740
  118MPD2    C3 1836   2.089   2.801  13.605 -0.1714 -0.7072 -0.0278
  118MPD2    C4 1837   1.978   2.882  13.611  0.3063  0.1342  0.9516
  118MPD2    C5 1838   1.855   2.834  13.635 -0.3146 -0.1319 -0.3767
  118MPD2     H 1839   2.152   2.602  13.607  2.1735  2.9427  0.8811
  118MPD2    H1 1840   1.987   2.987  13.587  0.6557 -0.7562 -2.8987
  118MPD2    H2 1841   1.738   2.657  13.669 -1.2787  0.9284 -1.2875
  118MPD2    H3 1842   1.770   2.900  13.640  0.5521  1.0963 -1.7508
  118MPD2     N 1843   2.213   2.863  13.588  0.2797  0.1539 -0.2596
  118MPD2    H5 1844   2.213   2.965  13.590 -1.6661  0.2051 -2.6585
  118MPD2    N1 1845   1.918   2.473  13.657 -0.1038  0.3405  0.0444
  118MPD2    H7 1846   1.821   2.444  13.664  0.3535 -1.4950 -1.2844
  119TMC2    C1 1847   0.032   2.860  12.711 -0.7440 -0.3696  0.1495
  119TMC2    C2 1848   0.070   2.771  12.614 -0.5120  0.0449 -0.0246
  119TMC2    C3 1849   0.030   2.642  12.621 -0.5995 -0.1566  0.2965
  119TMC2    C4 1850   4.688   2.823  12.807  0.0205 -0.1995  1.0902
  119TMC2    C5 1851   4.638   2.695  12.797  0.6755 -0.0924  0.0722
  119TMC2    C6 1852   4.677   2.599  12.713 -0.1303  0.5180  0.3724
  119TMC2     C 1853   0.040   3.010  12.693 -1.2783 -0.3594  0.3490
  119TMC2     O 1854   4.719   3.069  12.777  0.3190 -0.3064 -0.4595
  119TMC2     H 1855   0.133   2.794  12.528 -0.1921  0.5633  0.3441
  119TMC2    H1 1856   4.646   2.898  12.874 -0.9786 -0.2121  0.4793
  119TMC2    H2 1857   4.650   2.495  12.726 -1.8515  0.7870 -1.1053
  119TMC2    C7 1858   4.548   2.642  12.895  0.5777 -0.6534 -0.4157
  119TMC2    C8 1859   0.101   2.538  12.550  0.4617 -0.4175 -0.1756
  119TMC2    O1 1860   4.480   2.548  12.853 -0.1343 -0.1703 -0.4882
  119TMC2    O2 1861   0.217   2.543  12.517 -0.0604 -0.3774 -0.4680
  119TMC2    O5 1862   0.016   2.448  12.505  0.3101  0.1346 -0.0773
  119TMC2    H5 1863   4.668   2.472  12.533  1.1415  2.9222  0.2205
  120MPD2     C 1864   0.221   3.457  12.527 -0.1785 -0.2296 -0.4023
  120MPD2    C1 1865   0.102   3.415  12.581  0.3148 -0.5358  0.3618
  120MPD2    C2 1866   0.088   3.286  12.617 -0.3161  0.0950  0.7823
  120MPD2    C3 1867   0.173   3.185  12.583 -0.1822  0.0497  0.4905
  120MPD2    C4 1868   0.280   3.219  12.506  0.6150  0.1102  0.3088
  120MPD2    C5 1869   0.305   3.355  12.483  0.1850 -0.5239  0.2423
  120MPD2     H 1870   4.740   3.255  12.668 -1.1914  1.0793 -0.1611
  120MPD2    H1 1871   0.350   3.139  12.481  0.4453 -0.5400  1.9203
  120MPD2    H2 1872   0.233   3.561  12.499  1.2744 -0.0828  0.7372
  120MPD2    H3 1873   0.380   3.385  12.411  0.1021 -0.8642  0.0169
  120MPD2     N 1874   0.138   3.050  12.607 -0.1745 -0.2484 -0.5909
  120MPD2    H5 1875   0.197   2.983  12.558  1.4236  0.6942  0.0209
  120MPD2    N1 1876   0.007   3.510  12.620  0.0769  0.3094 -0.1449
  120MPD2    H7 1877   0.020   3.605  12.588  0.8612 -0.3983 -1.9592
  121TMC2    C1 1878   1.835   4.508  14.482  0.5094  0.1248 -0.3099
  121TMC2    C2 1879   1.853   4.441  14.603 -0.6374  0.5044  0.9160
  121TMC2    C3 1880   1.751   4.357  14.650  0.4301 -0.7759  0.3126
  121TMC2    C4 1881   1.713   4.514  14.425 -0.9743 -0.1614  0.1257
  121TMC2    C5 1882   1.613   4.430  14.473  0.0204 -0.2319  0.1399
  121TMC2    C6 1883   1.631   4.353  14.585 -0.1070  0.4202 -0.2245
  121TMC2     C 1884   1.932   4.615  14.465 -0.7865  0.1528  0.1165
  121TMC2     O 1885   2.028   4.612  14.542  0.3376 -0.7002  0.1701
  121TMC2     H 1886   1.949   4.439  14.652 -0.5757 -1.1076  0.7260
  121TMC2    H1 1887   1.695   4.555  14.326  1.0749 -1.1357 -0.6471
  121TMC2    H2 1888   1.549   4.290  14.618 -0.1305 -0.1245 -1.3283
  121TMC2    C7 1889   1.483   4.431  14.419 -0.3157 -0.7098  0.1676
  121TMC2    C8 1890   1.775   4.276  14.761  0.2890 -0.2681  0.3548
  121TMC2    O1 1891   1.424   4.322  14.425  0.5269  0.1220  0.5237
  121TMC2    O2 1892   1.884   4.243  14.814 -0.0891  0.0977 -0.0998
  121TMC2    O5 1893   1.651   4.251  14.818  0.5923  0.1825 -0.1498
  121TMC2    H5 1894   1.591   4.325  14.795 -0.8367 -0.4107  1.5812
  122MPD2     C 1895   2.099   0.110  14.361 -0.3385  0.3362 -0.0454
  122MPD2    C1 1896   1.992   0.058  14.299 -0.7109 -0.2494 -0.5003
  122MPD2    C2 1897   1.945   0.119  14.178  0.6465 -0.1940 -0.1549
  122MPD2    C3 1898   2.014   0.229  14.122 -0.4808  0.1982  0.6185
  122MPD2    C4 1899   2.128   0.271  14.188 -0.1551  0.3808 -0.2128
  122MPD2    C5 1900   2.171   0.207  14.300  0.0460 -0.2564 -0.3445
  122MPD2     H 1901   1.857   0.071  14.136  0.1040  1.3424 -0.8117
  122MPD2    H1 1902   2.190   0.353  14.153  1.8610 -0.5078  1.3189
  122MPD2    H2 1903   2.141   0.074  14.454  2.6351  1.6855 -0.8854
  122MPD2    H3 1904   2.265   0.239  14.344 -0.6853  0.5939  0.6080
  122MPD2     N 1905   1.984   0.289  13.997  0.1259 -0.2557 -0.0676
  122MPD2    H5 1906   2.029   0.377  13.971  0.4778  0.1693  1.9832
  122MPD2    N1 1907   1.916   4.693  14.350  0.0075 -0.2657 -0.3134
  122MPD2    H7 1908   1.837   4.660  14.295  0.4330  1.9973 -2.3058
  123TMC2    C1 1909   4.185   3.838  10.715 -0.5510 -0.1445  0.3019
  123TMC2    C2 1910   4.317   3.875  10.758  0.5502  0.8746  0.5279
  123TMC2    C3 1911   4.391   3.930  10.655 -0.2899 -0.6068  0.0207
  123TMC2    C4 1912   4.133   3.868  10.586 -0.2628 -0.0197 -0.3561
  123TMC2    C5 1913   4.222   3.907  10.487  0.2519  0.2289 -0.0928
  123TMC2    C6 1914   4.353   3.940  10.523  0.0415  0.5757 -0.4246
  123TMC2     C 1915   4.122   3.738  10.791 -0.7460 -0.3840 -0.2588
  123TMC2     O 1916   4.163   3.718  10.909  0.2937  0.2943 -0.2288
  123TMC2     H 1917   4.362   3.848  10.853 -2.7891 -1.2203  1.5152
  123TMC2    H1 1918   4.029   3.842  10.572 -0.2569 -0.6061  0.7250
  123TMC2    H2 1919   4.432   3.954  10.450  3.2267  1.6563  3.1805
  123TMC2    C7 1920   4.199   3.846  10.360  0.7223 -0.2818 -0.4737
  123TMC2    C8 1921   4.538   3.934  10.669  0.5792 -0.7699 -0.9083
  123TMC2    O1 1922   4.120   3.756  10.363  0.1883  0.7350 -0.4666
  123TMC2    O2 1923   4.612   3.909  10.576  0.2082 -0.3289 -0.0150
  123TMC2    O5 1924   4.564   3.996  10.782  0.3591 -0.1528  0.3016
  123TMC2    H5 1925   4.491   4.036  10.833  0.7926  0.2809  0.5792
  124MPD2     C 1926   3.859   3.286  10.779  0.1492 -0.2987 -0.3214
  124MPD2    C1 1927   3.855   3.344  10.657  0.0984  0.2530 -0.3868
  124MPD2    C2 1928   3.913   3.471  10.648 -0.0455  0.8208  0.5262
  124MPD2    C3 1929   3.975   3.541  10.750 -0.0456  1.0258 -0.9105
  124MPD2    C4 1930   3.977   3.480  10.872 -0.1590  0.2264  0.5489
  124MPD2    C5 1931   3.921   3.353  10.881  0.3460  0.0219  0.3056
  124MPD2     H 1932   3.912   3.521  10.551  2.0853 -0.3895 -0.1091
  124MPD2    H1 1933   4.025   3.530  10.955  1.3813  2.4442 -1.6697
  124MPD2    H2 1934   3.807   3.193  10.802 -1.7371  0.9027  0.2805
  124MPD2    H3 1935   3.931   3.304  10.977  1.7051  0.8366  0.5773
  124MPD2     N 1936   4.052   3.655  10.708  0.3060 -0.2533 -0.2952
  124MPD2    H5 1937   4.058   3.673  10.608 -1.5398  0.0014 -0.3634
  124MPD2    N1 1938   3.785   3.278  10.549 -0.3144  0.3034  0.2867
  124MPD2    H7 1939   3.761   3.181  10.568 -1.5789  0.0979 -2.4244
  125TMC2    C1 1940   0.721   0.500   9.288  0.4898 -0.0796  0.3211
  125TMC2    C2 1941   0.738   0.610   9.213 -0.6970 -0.3332 -0.2371
  125TMC2    C3 1942   0.807   0.601   9.095 -0.2149 -0.0958 -0.1962
  125TMC2    C4 1943   0.774   0.380   9.245 -0.0068  0.3196  0.0554
  125TMC2    C5 1944   0.835   0.372   9.127  0.3723 -0.1290  0.5400
  125TMC2    C6 1945   0.855   0.480   9.045 -0.2282 -0.7080 -0.5355
  125TMC2     C 1946   0.641   0.509   9.410 -0.3261 -0.5977  0.6271
  125TMC2     O 1947   0.624   0.619   9.457  0.4299 -0.0411 -0.8275
  125TMC2     H 1948   0.691   0.701   9.248 -0.5111  0.4367 -1.9611
  125TMC2    H1 1949   0.774   0.290   9.306  2.1055  0.6886  0.5918
  125TMC2    H2 1950   0.909   0.470   8.951  0.3810 -1.4885 -0.1057
  125TMC2    C7 1951   0.862   0.243   9.071 -0.3900 -0.1081 -0.2092
  125TMC2    C8 1952   0.819   0.724   9.014 -0.3739  0.4350  0.1789
  125TMC2    O1 1953   0.793   0.146   9.109  0.0090 -0.3845 -0.8593
  125TMC2    O2 1954   0.832   0.724   8.892  0.5222  0.4597  0.6500
  125TMC2    O5 1955   0.792   0.836   9.085  0.3109 -0.1857 -0.2275
  125TMC2    H5 1956   0.812   0.821   9.180  2.8244 -0.5107 -0.8061
  126MPD1     C 1957   0.506   0.306   9.864 -0.3070  0.4089 -0.2401
  126MPD1    C1 1958   0.520   0.202   9.772 -0.7582 -0.0920  0.3669
  126MPD1    C2 1959   0.556   0.234   9.646 -0.3996 -0.8638 -0.4314
  126MPD1    C3 1960   0.577   0.362   9.604 -0.6562  1.0231 -0.1001
  126MPD1    C4 1961   0.542   0.466   9.689  0.2715  0.3951  1.0320
  126MPD1    C5 1962   0.515   0.438   9.821 -0.3803 -1.3728  0.0800
  126MPD1     H 1963   0.587   0.147   9.590  0.6290 -0.9487  0.2641
  126MPD1    H1 1964   0.552   0.570   9.659 -0.7974  0.4190  0.7727
  126MPD1    H2 1965   0.492   0.295   9.970 -0.7904  3.3801  0.0079
  126MPD1    H3 1966   0.518   0.505   9.906  1.0062 -0.8919 -0.3564
  126MPD1     N 1967   0.626   0.385   9.470 -0.6267  0.4089 -0.2085
  126MPD1    H5 1968   0.633   0.297   9.419  0.4960  0.1312  0.4179
  126MPD1    N1 1969   0.524   0.068   9.811 -0.0079  0.7870 -0.8022
  126MPD1    H6 1970   0.507   0.009   9.729  0.6355 -1.8963  1.0044
  126MPD1    H7 1971   0.460   0.052   9.888  0.7767  0.8327 -0.1343
  127TMC2    C1 1972   1.234   3.874  10.159  0.6133 -0.5587 -0.4638
  127TMC2    C2 1973   1.272   3.858  10.290  0.5196 -0.2110  0.1583
  127TMC2    C3 1974   1.181   3.808  10.378 -0.4164  0.6515 -0.1458
  127TMC2    C4 1975   1.099   3.846  10.122  0.8524 -0.1571  0.2931
  127TMC2    C5 1976   1.007   3.808  10.220  0.8943  0.1544  0.3604
  127TMC2    C6 1977   1.051   3.793  10.350  0.0119 -0.1059  0.3667
  127TMC2     C 1978   1.340   3.907  10.064 -0.1946 -0.0067  0.6159
  127TMC2     O 1979   1.455   3.918  10.099 -0.1238  0.2818  0.4442
  127TMC2     H 1980   1.372   3.891  10.316  0.1609  0.9193  0.0972
  127TMC2    H1 1981   1.068   3.856  10.018  0.0332 -0.5977  0.4956
  127TMC2    H2 1982   0.988   3.777  10.436 -0.0021  1.1353  0.5762
  127TMC2    C7 1983   0.860   3.785  10.186  0.4727 -0.3422 -0.2104
  127TMC2    C8 1984   1.238   3.774  10.507 -0.3420 -0.3279 -0.2648
  127TMC2    O1 1985   0.819   3.842  10.084 -0.2354  0.5014 -0.2866
  127TMC2    O2 1986   1.337   3.835  10.555 -0.2317  0.3329 -0.3417
  127TMC2    O5 1987   1.182   3.666  10.565  0.0287 -0.0953 -0.0029
  127TMC2    H5 1988   1.113   3.628  10.507 -1.7042 -1.8436  3.2245
  128MPD2     C 1989   1.332   3.893   9.697  0.1612 -0.3171  0.5380
  128MPD2    C1 1990   1.374   3.930   9.821  0.0041  0.3492  0.7426
  128MPD2    C2 1991   1.488   4.003   9.830  0.0526  0.0367  0.0360
  128MPD2    C3 1992   1.552   4.052   9.718 -0.2886 -0.2119 -0.3600
  128MPD2    C4 1993   1.504   4.018   9.595 -0.3080 -0.1152  0.0636
  128MPD2    C5 1994   1.392   3.943   9.585 -0.3961 -0.6138 -0.8023
  128MPD2     H 1995   1.538   4.038   9.919  0.2265  0.8198 -0.3736
  128MPD2    H1 1996   1.529   4.069   9.503  1.1051 -1.4536 -0.2872
  128MPD2    H2 1997   1.245   3.829   9.689  0.8674 -1.2710  0.4723
  128MPD2    H3 1998   1.363   3.916   9.484  1.0550 -0.6401 -1.2006
  128MPD2     N 1999   1.662   4.135   9.734 -0.5735 -0.0017 -0.1360
  128MPD2    H5 2000   1.692   4.147   9.830  1.7657  2.6526 -1.2015
  128MPD2    N1 2001   1.297   3.895   9.936 -0.2140 -0.9043  0.2066
  128MPD2    H7 2002   1.202   3.860   9.925 -0.7087  0.8621 -1.1895
  129TMC2    C1 2003   1.371   4.154   1.368 -0.0118 -0.0732 -0.0864
  129TMC2    C2 2004   1.360   4.294   1.365 -0.2021  0.0605  0.0480
  129TMC2    C3 2005   1.237   4.336   1.318 -0.6913 -0.0490 -0.1711
  129TMC2    C4 2006   1.272   4.065   1.339 -0.3892  0.0994  0.6076
  129TMC2    C5 2007   1.152   4.119   1.301 -0.1975  0.2671 -0.2622
  129TMC2    C6 2008   1.138   4.254   1.277  0.8875  0.5036 -0.2481
  129TMC2     C 2009   1.494   4.093   1.408  0.2238 -0.0893 -0.0621
  129TMC2     O 2010   1.491   3.978   1.447 -0.5914  0.0365 -0.3666
  129TMC2     H 2011   1.437   4.360   1.404 -0.3969 -1.3324  2.7966
  129TMC2    H1 2012   1.275   3.958   1.355  0.6958  0.1355  0.6595
  129TMC2    H2 2013   1.045   4.293   1.235  1.6378  0.8702 -1.5595
  129TMC2    C7 2014   1.057   4.038   1.227  0.1068  0.1017 -0.1685
  129TMC2    C8 2015   1.213   4.480   1.341 -0.1992  0.3903  0.3523
  129TMC2    O1 2016   0.971   4.096   1.168  0.0771 -0.1463  0.1078
  129TMC2    O2 2017   1.293   4.557   1.391  0.2204 -0.0310 -0.0742
  129TMC2    O5 2018   1.086   4.507   1.316 -0.0510 -0.8677 -0.2878
  129TMC2    H5 2019   1.032   4.438   1.273 -0.2972 -0.7821 -0.1232
  130MPD2     C 2020   1.785   4.027   1.410 -0.1558 -0.0112  0.6008
  130MPD2    C1 2021   1.729   4.144   1.359 -0.4491 -0.5154  0.2954
  130MPD2    C2 2022   1.806   4.239   1.304 -0.2500  0.1456 -0.0961
  130MPD2    C3 2023   1.944   4.232   1.301  0.0980 -0.3509  0.0843
  130MPD2    C4 2024   2.005   4.120   1.360 -0.2865  0.2733  0.4943
  130MPD2    C5 2025   1.923   4.020   1.410  0.0867  0.3758 -0.5398
  130MPD2     H 2026   1.754   4.325   1.264  1.5085  2.3170  2.3208
  130MPD2    H1 2027   2.113   4.121   1.367 -0.2801  1.5380  0.2305
  130MPD2    H2 2028   1.729   3.950   1.462  0.0301  0.2762  1.2287
  130MPD2    H3 2029   1.976   3.929   1.435 -3.2610 -0.9231  1.8799
  130MPD2     N 2030   2.035   4.340   1.264  0.2019  0.6156 -0.0506
  130MPD2    H5 2031   2.134   4.315   1.265  0.2180  0.7698  2.0464
  130MPD2    N1 2032   1.593   4.173   1.353 -0.2806  0.5614  0.0695
  130MPD2    H7 2033   1.559   4.260   1.313 -0.5796  0.1005 -0.6899
  131TMC2    C1 2034   4.015   3.977   9.896 -0.3300  0.7033 -0.4223
  131TMC2    C2 2035   4.039   4.044  10.011  0.7140 -0.0546 -0.2109
  131TMC2    C3 2036   4.121   4.146  10.000 -0.6255 -0.2432  0.2372
  131TMC2    C4 2037   4.086   4.004   9.775 -0.7416 -0.4628 -0.1951
  131TMC2    C5 2038   4.178   4.104   9.781  1.1840 -0.9867  0.6078
  131TMC2    C6 2039   4.203   4.175   9.896  0.4293  0.0328  0.1073
  131TMC2     C 2040   3.949   3.844   9.915 -0.8856 -0.2336 -0.0611
  131TMC2     O 2041   3.925   3.800  10.028 -0.7048  0.3563  0.1464
  131TMC2     H 2042   4.006   4.008  10.107 -1.9633  1.7654 -0.4326
  131TMC2    H1 2043   4.070   3.931   9.696 -0.3465  0.6823 -1.3276
  131TMC2    H2 2044   4.274   4.255   9.916 -0.8315  0.4565  2.8965
  131TMC2    C7 2045   4.270   4.127   9.674 -0.1429  0.1081  0.2295
  131TMC2    C8 2046   4.153   4.206  10.126  0.2736 -0.0675  0.2631
  131TMC2    O1 2047   4.246   4.077   9.565 -0.0043  0.0335  0.3479
  131TMC2    O2 2048   4.263   4.253  10.163 -0.1310  0.1305 -0.2644
  131TMC2    O5 2049   4.032   4.234  10.188  1.2525  0.5064  0.0241
  131TMC2    H5 2050   3.960   4.204  10.128  1.6472  0.1621 -0.2763
  132MPD2     C 2051   3.772   3.649   9.648  0.4890 -0.5280 -0.0638
  132MPD2    C1 2052   3.829   3.679   9.772 -0.0676 -0.0370  0.2373
  132MPD2    C2 2053   3.805   3.586   9.871 -0.3440 -0.4650 -0.0164
  132MPD2    C3 2054   3.737   3.470   9.854  0.4218 -0.5962  0.0387
  132MPD2    C4 2055   3.682   3.445   9.727 -0.8490  0.2629  0.5749
  132MPD2    C5 2056   3.703   3.530   9.623 -0.2369 -0.6657  0.2805
  132MPD2     H 2057   3.840   3.612   9.971  1.6527  1.2387 -1.1467
  132MPD2    H1 2058   3.615   3.364   9.702 -1.2353  0.5360  0.7147
  132MPD2    H2 2059   3.782   3.712   9.560 -1.0042 -0.4690 -0.2011
  132MPD2    H3 2060   3.664   3.513   9.523 -1.1218 -0.8162  0.6431
  132MPD2     N 2061   3.716   3.390   9.966 -0.1916  0.8233 -0.0854
  132MPD2    H5 2062   3.772   3.414  10.047  0.9777 -0.4160 -0.5364
  132MPD2    N1 2063   3.903   3.796   9.792 -0.0716 -0.3278  0.2581
  132MPD2    H7 2064   3.912   3.865   9.718  0.3214 -0.7129 -0.0440
  133TMC2    C1 2065   3.473   0.609   9.385 -0.6572 -0.4721  0.5662
  133TMC2    C2 2066   3.583   0.622   9.466 -0.6620 -0.3678 -0.0006
  133TMC2    C3 2067   3.603   0.746   9.516 -0.0964  0.3126  0.4018
  133TMC2    C4 2068   3.382   0.710   9.357  0.8925  0.2331  0.1703
  133TMC2    C5 2069   3.410   0.828   9.419  0.5663  0.2830 -0.1562
  133TMC2    C6 2070   3.516   0.846   9.501  0.5300 -0.0709  0.4993
  133TMC2     C 2071   3.461   0.483   9.319 -0.1263  0.8172  0.2515
  133TMC2     O 2072   3.563   0.430   9.286 -0.5061 -0.2984 -0.0799
  133TMC2     H 2073   3.639   0.534   9.495  0.6542  0.2311 -0.7002
  133TMC2    H1 2074   3.303   0.697   9.284  0.4402  0.8734  0.5479
  133TMC2    H2 2075   3.539   0.949   9.524  0.3854 -0.0605  0.5966
  133TMC2    C7 2076   3.329   0.946   9.402 -0.4086  0.4577 -0.0666
  133TMC2    C8 2077   3.698   0.759   9.616  0.1338  0.4258  0.1697
  133TMC2    O1 2078   3.347   1.049   9.465  0.3001 -0.4447 -0.3125
  133TMC2    O2 2079   3.684   0.839   9.710  0.2677  0.0968 -0.4397
  133TMC2    O5 2080   3.801   0.677   9.598 -0.3706 -0.0939  0.6794
  133TMC2    H5 2081   3.805   0.643   9.506 -2.9109  1.0934  0.1181
  134MPD2     C 2082   3.151   0.290   9.242  0.0410 -0.6169  0.6157
  134MPD2    C1 2083   3.284   0.323   9.243 -0.0486 -0.3712 -0.1783
  134MPD2    C2 2084   3.375   0.234   9.181  0.2114 -0.0487  0.0284
  134MPD2    C3 2085   3.330   0.114   9.129 -0.1844  0.1213 -0.9327
  134MPD2    C4 2086   3.193   0.088   9.123  0.1917 -0.1143  0.2158
  134MPD2    C5 2087   3.105   0.182   9.171  0.2040 -0.0668 -0.1870
  134MPD2     H 2088   3.481   0.256   9.187 -0.0932  0.4804  3.4722
  134MPD2    H1 2089   3.160   4.736   9.083  0.1568  0.1269 -0.3332
  134MPD2    H2 2090   3.078   0.339   9.306 -1.4945 -2.3778  0.2207
  134MPD2    H3 2091   2.999   0.159   9.168  0.2396 -0.2405 -0.1510
  134MPD2     N 2092   3.412   0.007   9.079  0.9849 -0.6960  0.3632
  134MPD2    H5 2093   3.361   4.671   9.040  0.7099 -0.6666  0.6598
  134MPD2    N1 2094   3.329   0.436   9.318 -0.5000 -0.3443  0.3214
  134MPD2    H7 2095   3.258   0.496   9.359  2.1631 -0.3678  4.9135
  135TMC2    C1 2096   1.032   0.603   9.504  1.1776  0.6598  0.6886
  135TMC2    C2 2097   1.059   0.470   9.483 -0.2920  0.1516 -0.2243
  135TMC2    C3 2098   0.999   0.382   9.569  0.0477 -0.5906  0.0864
  135TMC2    C4 2099   0.949   0.644   9.604  0.1622  0.8210 -0.1770
  135TMC2    C5 2100   0.899   0.552   9.696 -0.1278 -0.1121 -1.1695
  135TMC2    C6 2101   0.928   0.421   9.685 -0.3816  0.6366  0.1532
  135TMC2     C 2102   1.126   0.704   9.462 -0.1163  0.0730 -0.1179
  135TMC2     O 2103   1.135   0.805   9.531 -0.7697 -0.4108 -0.1008
  135TMC2     H 2104   1.118   0.434   9.400  0.1803  1.2619 -0.3684
  135TMC2    H1 2105   0.916   0.746   9.612 -0.7044  0.7271 -2.5605
  135TMC2    H2 2106   0.875   0.344   9.740  0.9416  0.4630  1.1846
  135TMC2    C7 2107   0.866   0.613   9.824 -0.4327 -0.5854 -0.3308
  135TMC2    C8 2108   0.990   0.240   9.517  0.5901  0.3270 -0.4702
  135TMC2    O1 2109   0.849   0.735   9.826 -0.5658 -0.6557 -0.2946
  135TMC2    O2 2110   1.007   0.219   9.396 -0.0586 -0.6162 -0.0615
  135TMC2    O5 2111   0.949   0.151   9.610 -0.1417  0.0261  0.0534
  135TMC2    H5 2112   0.952   0.171   9.706 -1.2142  0.7543 -0.0651
  136MPD2     C 2113   1.384   0.837   9.411  0.8922  0.1448  0.2763
  136MPD2    C1 2114   1.340   0.730   9.332  0.8270  0.7713  0.4498
  136MPD2    C2 2115   1.424   0.684   9.231  0.2106  0.5942  0.2671
  136MPD2    C3 2116   1.543   0.743   9.213 -0.4970  0.1475  0.1649
  136MPD2    C4 2117   1.584   0.850   9.288 -0.1279  0.1902 -0.0927
  136MPD2    C5 2118   1.500   0.899   9.385 -0.1344  0.8177 -0.1519
  136MPD2     H 2119   1.392   0.596   9.176  1.3122  0.0091  0.5553
  136MPD2    H1 2120   1.684   0.889   9.272  0.5153 -0.4948  2.1506
  136MPD2    H2 2121   1.348   0.867   9.509 -0.3771  0.3002 -0.2492
  136MPD2    H3 2122   1.527   0.972   9.460  2.7732  1.7178 -2.0479
  136MPD2     N 2123   1.639   0.687   9.125 -0.3455  0.3167  0.3901
  136MPD2    H5 2124   1.725   0.740   9.126  0.1102 -0.4178  0.2196
  136MPD2    N1 2125   1.215   0.657   9.363 -0.5044  0.2395  0.5501
  136MPD2    H7 2126   1.196   0.572   9.312 -1.5977  0.6768  0.2402
  137TMC2    C1 2127   0.561   0.109   8.850  0.3665 -0.0639  0.4398
  137TMC2    C2 2128   0.667   0.141   8.777  0.3671  0.6835 -0.1905
  137TMC2    C3 2129   0.684   0.267   8.724  0.8300 -0.2994  0.5314
  137TMC2    C4 2130   0.460   0.198   8.864  0.3046 -0.4133  0.5378
  137TMC2    C5 2131   0.476   0.324   8.811  0.6105 -0.5531  1.0104
  137TMC2    C6 2132   0.589   0.359   8.738 -0.6629 -0.4356 -0.0701
  137TMC2     C 2133   0.575   0.013   8.959  0.0837  0.1114  0.4220
  137TMC2     O 2134   0.527   0.039   9.067 -0.3565 -0.1698  0.3301
  137TMC2     H 2135   0.743   0.065   8.765 -0.7340 -0.5394  0.6640
  137TMC2    H1 2136   0.371   0.153   8.907 -0.2438 -0.4453 -0.6241
  137TMC2    H2 2137   0.609   0.457   8.697 -0.2933 -0.2606  0.5294
  137TMC2    C7 2138   0.427   0.421   8.909  0.5961  0.2902  0.0629
  137TMC2    C8 2139   0.808   0.294   8.658  0.6365 -0.0721  0.1479
  137TMC2    O1 2140   0.420   0.539   8.866 -0.1463 -0.2462  0.1425
  137TMC2    O2 2141   0.887   0.379   8.688 -0.0255  0.0695 -0.5236
  137TMC2    O5 2142   0.791   0.255   8.530 -0.0072  0.3550  0.0126
  137TMC2    H5 2143   0.715   0.194   8.523  0.5421 -0.1817 -1.3014
  138MPD2     C 2144   0.639   4.408   8.916  0.2502  0.3855 -0.8283
  138MPD2    C1 2145   0.633   4.523   8.985  0.6511 -0.1599 -0.0373
  138MPD2    C2 2146   0.646   4.515   9.123  0.2452  0.1902  1.0216
  138MPD2    C3 2147   0.667   4.396   9.189 -0.0994  0.0320 -0.4131
  138MPD2    C4 2148   0.660   4.285   9.113 -0.3074 -0.1444 -0.5542
  138MPD2    C5 2149   0.644   4.290   8.975 -0.9766 -0.5536  0.0027
  138MPD2     H 2150   0.647   4.605   9.182  1.8008  1.0784 -0.3485
  138MPD2    H1 2151   0.672   4.187   9.158  0.1799 -0.2670 -0.9409
  138MPD2    H2 2152   0.626   4.403   8.809  0.5600  2.1553 -0.9506
  138MPD2    H3 2153   0.654   4.200   8.916  0.5405 -0.5330  0.2437
  138MPD2     N 2154   0.687   4.389   9.330 -0.3209  0.0654  0.3593
  138MPD2    H5 2155   0.733   4.464   9.381 -0.8873  1.1474 -0.7208
  138MPD2    N1 2156   0.629   4.638   8.915  0.7225 -0.7218 -0.1043
  138MPD2    H7 2157   0.637   4.631   8.814  1.3205 -0.4769 -0.0703
  139TMC2    C1 2158   2.204   3.001  13.172 -0.0510 -0.4982  0.3572
  139TMC2    C2 2159   2.297   3.084  13.231 -0.5246  0.6177 -0.3844
  139TMC2    C3 2160   2.246   3.189  13.303  0.6357 -0.0475 -0.3215
  139TMC2    C4 2161   2.070   3.015  13.200 -0.0318  1.5528  0.5056
  139TMC2    C5 2162   2.028   3.127  13.274 -0.2184  0.1945  0.2761
  139TMC2    C6 2163   2.116   3.225  13.315  0.0201  0.2844 -0.0558
  139TMC2     C 2164   2.247   2.861  13.176  0.1796 -0.7541  0.3806
  139TMC2     O 2165   2.171   2.774  13.210 -0.3280 -0.1180  0.2359
  139TMC2     H 2166   2.403   3.073  13.217 -0.6993  0.6599 -1.7464
  139TMC2    H1 2167   1.991   2.959  13.151 -1.0839  3.2652  0.2309
  139TMC2    H2 2168   2.087   3.319  13.360 -1.3513  0.3260 -1.0116
  139TMC2    C7 2169   1.887   3.147  13.299  0.6975 -1.0745 -0.6449
  139TMC2    C8 2170   2.346   3.296  13.317 -0.4471  0.0553  0.0377
  139TMC2    O1 2171   1.850   3.264  13.286 -0.5323  0.1404 -0.2578
  139TMC2    O2 2172   2.445   3.303  13.250 -0.0583 -0.0504  0.0985
  139TMC2    O5 2173   2.342   3.317  13.447 -0.0396  0.3061  0.2059
  139TMC2    H5 2174   2.264   3.278  13.493  1.5417 -2.6175  0.4361
  140MPD2     C 2175   2.543   2.743  13.019  0.0876 -0.3036 -0.4515
  140MPD2    C1 2176   2.445   2.734  13.114 -0.1451 -0.4526 -0.9668
  140MPD2    C2 2177   2.405   2.612  13.160  0.2635  0.2762  0.3162
  140MPD2    C3 2178   2.481   2.504  13.127 -0.0632  0.4362 -0.1897
  140MPD2    C4 2179   2.601   2.517  13.057  0.3453 -0.6588  0.6836
  140MPD2    C5 2180   2.621   2.632  12.987  0.4990 -0.1839 -0.6006
  140MPD2     H 2181   2.317   2.597  13.220  2.5737 -0.2671  3.5514
  140MPD2    H1 2182   2.675   2.438  13.048 -1.1120 -1.7974 -1.2866
  140MPD2    H2 2183   2.566   2.829  12.957 -0.7705  1.2715  1.4081
  140MPD2    H3 2184   2.699   2.634  12.912 -1.1889  1.9675 -2.3126
  140MPD2     N 2185   2.438   2.381  13.182  0.1278  0.0863  0.2500
  140MPD2    H5 2186   2.367   2.383  13.254 -0.2300  0.5529 -0.1155
  140MPD2    N1 2187   2.376   2.855  13.124 -0.1927  0.5910  0.2218
  140MPD2    H7 2188   2.414   2.936  13.075 -1.9288 -0.8199 -3.4423
  141TMC2    C1 2189   2.630   4.389  14.185 -0.1177 -0.4468 -0.3283
  141TMC2    C2 2190   2.619   4.323  14.306 -0.1930  0.4455  0.2491
  141TMC2    C3 2191   2.720   4.347  14.397 -0.1997  0.2859 -0.8867
  141TMC2    C4 2192   2.728   4.484  14.173  0.6258  0.0600  0.7275
  141TMC2    C5 2193   2.822   4.510  14.271 -0.1767  0.5376  0.4053
  141TMC2    C6 2194   2.828   4.432  14.381  0.3624 -0.3905 -0.1600
  141TMC2     C 2195   2.517   4.392  14.090  0.0789 -0.0999  0.5437
  141TMC2     O 2196   2.528   4.476  13.998 -0.6671  0.1027 -0.0052
  141TMC2     H 2197   2.539   4.256  14.335 -0.1672  0.3967  0.2084
  141TMC2    H1 2198   2.742   4.519  14.071 -2.2709 -0.0653  0.2954
  141TMC2    H2 2199   2.904   4.443  14.457 -1.7469  0.2421  1.8464
  141TMC2    C7 2200   2.930   4.599  14.234  0.0443 -0.3782 -0.2153
  141TMC2    C8 2201   2.686   4.304  14.527 -0.4147 -0.1629  0.3191
  141TMC2    O1 2202   2.931   4.653  14.122  0.2831  0.1246 -0.2772
  141TMC2    O2 2203   2.768   4.256  14.605 -0.3988  0.9384 -0.1157
  141TMC2    O5 2204   2.575   4.380  14.557  0.1124  0.4205  0.1403
  141TMC2    H5 2205   2.546   4.430  14.478 -1.5499 -1.5631 -0.5068
  142TMC2    C1 2206   4.012   3.151   9.875  0.2781  0.2942 -0.8281
  142TMC2    C2 2207   3.969   3.172   9.750 -0.5162 -0.6352  0.9249
  142TMC2    C3 2208   3.989   3.298   9.690  0.1297 -0.3338 -0.4194
  142TMC2    C4 2209   4.070   3.246   9.951  0.5097  0.0876 -0.6634
  142TMC2    C5 2210   4.095   3.364   9.882 -0.4187  0.2327  0.2405
  142TMC2    C6 2211   4.062   3.395   9.754  0.2169 -0.1496 -0.2464
  142TMC2     C 2212   3.992   3.024   9.944 -0.2019  0.0702  0.4070
  142TMC2     O 2213   3.975   3.018  10.065  0.0752  0.0993 -0.1557
  142TMC2     H 2214   3.905   3.099   9.702 -0.1554 -1.6884  2.0429
  142TMC2    H1 2215   4.100   3.220  10.052  2.4441  0.3381 -1.1795
  142TMC2    H2 2216   4.061   3.494   9.711  0.7185 -1.1501 -2.5916
  142TMC2    C7 2217   4.146   3.472   9.970 -0.2184 -1.0407 -0.1495
  142TMC2    C8 2218   3.988   3.309   9.544  0.2635  0.9851 -0.9373
  142TMC2    O1 2219   4.135   3.459  10.089  0.4234  0.0575  0.0938
  142TMC2    O2 2220   4.049   3.393   9.477  0.3139 -0.3982  0.5004
  142TMC2    O5 2221   3.875   3.258   9.501 -0.6679 -0.1229 -0.0241
  142TMC2    H5 2222   3.836   3.200   9.570  1.5390 -1.9293 -0.2881
  143MPD2     C 2223   3.876   2.519   9.891 -0.0513 -0.2883  0.2954
  143MPD2    C1 2224   3.842   2.615   9.986  0.7460 -0.0577 -0.0693
  143MPD2    C2 2225   3.885   2.742   9.974 -0.7599  0.2299 -0.3810
  143MPD2    C3 2226   3.953   2.786   9.863  0.1099 -0.1506 -0.1893
  143MPD2    C4 2227   3.982   2.696   9.768  0.0627 -0.5742  0.4599
  143MPD2    C5 2228   3.952   2.563   9.784  0.0616 -0.1882 -0.4221
  143MPD2     H 2229   3.860   2.814  10.052 -2.6153 -2.9851  1.9822
  143MPD2    H1 2230   4.043   2.713   9.680  2.4669 -0.5157  2.1266
  143MPD2    H2 2231   3.848   2.414   9.897  1.1170 -0.6423 -0.6971
  143MPD2    H3 2232   3.990   2.495   9.709 -0.1311 -1.5620  0.7366
  143MPD2     N 2233   3.997   2.921   9.849  0.3007  0.1261 -0.2956
  143MPD2    H5 2234   4.025   2.948   9.756  1.8077 -1.7643 -0.4019
  143MPD2    N1 2235   3.760   2.577  10.089  0.3167 -0.3203  0.3832
  143MPD2    H7 2236   3.736   2.478  10.088  3.4454 -1.0624 -0.1492
  144TMC2    C1 2237   3.427   1.414   0.681  0.0930 -0.3309  0.1925
  144TMC2    C2 2238   3.489   1.303   0.625  0.2907 -0.1802 -0.2875
  144TMC2    C3 2239   3.625   1.303   0.602 -0.1439  0.4143 -0.3896
  144TMC2    C4 2240   3.510   1.524   0.708  0.2241 -0.2693 -0.2838
  144TMC2    C5 2241   3.644   1.513   0.700  0.3774 -0.6271 -0.1551
  144TMC2    C6 2242   3.710   1.404   0.641 -0.5982 -0.1397  0.1488
  144TMC2     C 2243   3.284   1.433   0.684 -0.1946 -0.0715 -0.4026
  144TMC2     O 2244   3.218   1.365   0.601  0.0784  0.2622  0.0824
  144TMC2     H 2245   3.437   1.211   0.601 -3.0008  0.8012  3.0302
  144TMC2    H1 2246   3.469   1.616   0.748 -1.2823 -1.3247  0.5650
  144TMC2    H2 2247   3.816   1.389   0.656 -0.4913  0.7970  0.2949
  144TMC2    C7 2248   3.734   1.607   0.771  0.7063 -0.6950  0.2128
  144TMC2    C8 2249   3.689   1.180   0.577  0.1236  0.3606  0.1888
  144TMC2    O1 2250   3.851   1.603   0.738 -0.2952  0.2843 -0.0548
  144TMC2    O2 2251   3.807   1.164   0.604  0.5530 -0.1886  0.3573
  144TMC2    O5 2252   3.641   1.153   0.452  0.7428  0.2691  0.3402
  144TMC2    H5 2253   3.573   1.219   0.428 -0.6837 -1.3776 -0.1097
  145MPD2     C 2254   2.849   1.652   0.800 -0.4483  0.6718 -0.2798
  145MPD2    C1 2255   2.896   1.605   0.676  0.9403 -0.2534  0.4489
  145MPD2    C2 2256   3.025   1.556   0.675 -0.1512  0.6862 -0.1447
  145MPD2    C3 2257   3.109   1.559   0.785  0.4303  0.5201  0.2038
  145MPD2    C4 2258   3.061   1.613   0.903  0.6503  0.4611 -0.5283
  145MPD2    C5 2259   2.932   1.656   0.908 -0.3443 -0.0753 -0.1311
  145MPD2     H 2260   3.056   1.507   0.584 -0.7175  0.3572 -0.1620
  145MPD2    H1 2261   3.130   1.631   0.985 -0.0896 -2.2692  0.6763
  145MPD2    H2 2262   2.747   1.689   0.808 -1.4882 -2.1470 -0.4384
  145MPD2    H3 2263   2.900   1.702   1.001  0.8430 -0.7773  0.6112
  145MPD2     N 2264   3.239   1.508   0.785  0.1180 -0.4382 -0.2628
  145MPD2    H5 2265   3.307   1.539   0.853  1.1424  1.9146 -2.3577
  145MPD2    N1 2266   2.820   1.620   0.553  0.1128 -0.4266 -0.1473
  145MPD2    H7 2267   2.877   1.627   0.469  0.6962  1.0944  0.3756
  146TMC2    C1 2268   3.656   0.278  12.654 -0.6473 -0.0056  0.8952
  146TMC2    C2 2269   3.549   0.257  12.575  0.4188  0.1706 -0.4812
  146TMC2    C3 2270   3.564   0.173  12.471 -0.0339 -0.2210  0.1629
  146TMC2    C4 2271   3.775   0.219  12.620 -0.4644 -0.1901  0.0700
  146TMC2    C5 2272   3.792   0.148  12.507 -0.1045 -0.1338 -0.3413
  146TMC2    C6 2273   3.684   0.118  12.428 -0.1410 -0.0193  1.0685
  146TMC2     C 2274   3.640   0.370  12.766 -0.1398 -0.1777 -0.6650
  146TMC2     O 2275   3.547   0.448  12.771  0.5454 -0.2006  0.2988
  146TMC2     H 2276   3.450   0.286  12.607  1.0217  0.3518  1.2261
  146TMC2    H1 2277   3.861   0.248  12.680 -0.6746  2.0106 -0.6784
  146TMC2    H2 2278   3.689   0.066  12.332  1.5444  2.2831 -0.1065
  146TMC2    C7 2279   3.925   0.108  12.462 -0.1961 -0.6857 -0.1197
  146TMC2    C8 2280   3.438   0.132  12.406  0.4254 -0.7504  0.1283
  146TMC2    O1 2281   3.932   0.082  12.345  0.1066 -0.6583 -0.2531
  146TMC2    O2 2282   3.349   0.212  12.387  0.2430  0.0079  0.0623
  146TMC2    O5 2283   3.441   0.006  12.354  0.6708 -0.5769  0.1686
  146TMC2    H5 2284   3.516   4.697  12.390  1.0991 -0.5370 -0.6745
  147MPD2     C 2285   4.443   0.076  12.554 -0.6430 -0.4768  0.1553
  147MPD2    C1 2286   4.374   0.130  12.655 -0.9256  0.0684 -0.0581
  147MPD2    C2 2287   4.236   0.144  12.657  0.3557  1.3672  0.1900
  147MPD2    C3 2288   4.170   0.101  12.548  0.5503 -0.2343 -0.0131
  147MPD2    C4 2289   4.227   0.050  12.439 -0.1148 -0.4618 -0.3752
  147MPD2    C5 2290   4.365   0.023  12.445  0.2984  0.3556  0.0642
  147MPD2     H 2291   4.178   0.188  12.738 -1.4325 -2.0129  0.7076
  147MPD2    H1 2292   4.181   0.040  12.341 -0.2925  0.0100 -0.3427
  147MPD2    H2 2293   4.551   0.068  12.553 -0.5928  0.1605  1.2436
  147MPD2    H3 2294   4.412   0.007  12.348  0.3261  1.2576 -0.0743
  147MPD2     N 2295   4.030   0.116  12.560 -0.4035  0.2859 -0.1294
  147MPD2    H5 2296   3.994   0.150  12.649 -2.4803  1.7509 -1.5072
  147MPD2    N1 2297   4.452   0.159  12.764 -0.4057  0.5604  0.1943
  147MPD2    H7 2298   4.550   0.132  12.759 -0.3861  0.6823 -0.0631
  148TMC2    C1 2299   3.931   4.625  10.222 -0.2776  0.7208 -0.8605
  148TMC2    C2 2300   4.064   4.630  10.199  0.2680 -0.8981  0.6090
  148TMC2    C3 2301   4.138   4.539  10.273 -0.4329 -0.3093  0.0920
  148TMC2    C4 2302   3.872   4.547  10.319 -0.2898  0.3475 -0.7429
  148TMC2    C5 2303   3.958   4.475  10.397  0.1794 -0.4833  0.2091
  148TMC2    C6 2304   4.091   4.472  10.380 -0.3521 -0.0523  0.7429
  148TMC2     C 2305   3.854   4.645  10.103 -0.1185 -0.7664 -0.4367
  148TMC2     O 2306   3.881   4.741  10.029 -0.1607  0.2547  0.0282
  148TMC2     H 2307   4.107   4.676  10.110 -0.1315 -3.0427 -0.7114
  148TMC2    H1 2308   3.766   4.548  10.339  0.1563  0.1431  1.6434
  148TMC2    H2 2309   4.158   4.406  10.434 -0.3643 -1.0224 -0.4166
  148TMC2    C7 2310   3.895   4.357  10.453  1.0056  0.3037  0.2745
  148TMC2    C8 2311   4.283   4.544  10.255 -0.0970 -0.1172  0.0845
  148TMC2    O1 2312   3.778   4.337  10.432 -0.1691  0.2512 -0.1364
  148TMC2    O2 2313   4.333   4.576  10.150 -0.0578 -0.4808 -0.4855
  148TMC2    O5 2314   4.318   4.596  10.377 -0.5077  0.0843  0.0628
  148TMC2    H5 2315   4.258   4.590  10.454  0.0719 -1.0619  0.4144
  149MPD2     C 2316   3.646   4.606   9.885 -0.3487  0.9422  0.0717
  149MPD2    C1 2317   3.654   4.527   9.997 -0.1031 -0.2690  0.1616
  149MPD2    C2 2318   3.568   4.420  10.011  0.1317  0.1905 -0.7357
  149MPD2    C3 2319   3.489   4.384   9.907 -0.1217  0.1538  0.0256
  149MPD2    C4 2320   3.484   4.462   9.792 -0.5341  0.2878  0.6058
  149MPD2    C5 2321   3.555   4.577   9.782 -0.4204  0.5107 -0.1039
  149MPD2     H 2322   3.566   4.364  10.104 -0.3254  0.7673 -0.3965
  149MPD2    H1 2323   3.413   4.428   9.718  0.3925  0.1446 -0.2180
  149MPD2    H2 2324   3.712   4.687   9.856  1.3175 -0.4888 -0.1453
  149MPD2    H3 2325   3.540   4.651   9.703  0.9554  2.2998  1.3005
  149MPD2     N 2326   3.418   4.261   9.910 -0.3673 -0.0552  0.0436
  149MPD2    H5 2327   3.359   4.237   9.831 -1.5659  2.1719  0.2625
  149MPD2    N1 2328   3.757   4.547  10.093 -0.4567 -0.3842  0.7125
  149MPD2    H7 2329   3.749   4.473  10.162 -2.0802 -1.2051 -0.3671
  150TMC2    C1 2330   1.421   3.019  12.339 -0.0858  0.1282 -0.8300
  150TMC2    C2 2331   1.334   3.115  12.304 -1.2087  0.6293  0.1682
  150TMC2    C3 2332   1.388   3.238  12.286 -1.3102  0.2880  0.3412
  150TMC2    C4 2333   1.556   3.035  12.365  0.2693 -0.1642  0.3339
  150TMC2    C5 2334   1.610   3.150  12.336  0.4376  0.5765 -0.1839
  150TMC2    C6 2335   1.528   3.260  12.305  1.2947 -0.2964 -0.4058
  150TMC2     C 2336   1.365   2.881  12.360 -0.2096 -0.3255 -0.1127
  150TMC2     O 2337   1.444   2.796  12.400  0.5563 -0.0673  0.1385
  150TMC2     H 2338   1.230   3.118  12.274 -1.4998 -0.0994  1.0927
  150TMC2    H1 2339   1.621   2.954  12.395 -0.1377 -0.6826 -0.1816
  150TMC2    H2 2340   1.572   3.359  12.299 -1.5884  1.0675  1.1391
  150TMC2    C7 2341   1.754   3.178  12.360  0.3896 -0.4584  0.2997
  150TMC2    C8 2342   1.306   3.346  12.242 -0.2469  0.5757 -0.3950
  150TMC2    O1 2343   1.792   3.276  12.295 -0.3640  0.0305 -0.3543
  150TMC2    O2 2344   1.192   3.376  12.282 -0.2367  0.0734 -0.4738
  150TMC2    O5 2345   1.370   3.382  12.122  0.1293 -0.5257  0.1916
  150TMC2    H5 2346   1.452   3.333  12.101  0.5117 -0.5279  1.6957
  151MPD2     C 2347   0.969   2.534  12.302 -0.6583  0.4036 -0.1556
  151MPD2    C1 2348   0.929   2.659  12.253  0.0028  0.0757 -0.2457
  151MPD2    C2 2349   1.018   2.767  12.261  0.0773 -0.6123 -0.7704
  151MPD2    C3 2350   1.149   2.751  12.311 -0.3504  0.9766  0.7422
  151MPD2    C4 2351   1.183   2.626  12.365  0.1500 -0.1859 -0.0510
  151MPD2    C5 2352   1.098   2.520  12.361  0.1566 -0.1974  0.1711
  151MPD2     H 2353   0.998   2.862  12.213 -2.0903 -0.4893  0.3647
  151MPD2    H1 2354   1.287   2.606  12.384  0.5431  1.4374 -0.5277
  151MPD2    H2 2355   0.910   2.449  12.269 -0.6496  1.1204 -2.0438
  151MPD2    H3 2356   1.124   2.422  12.399 -1.0651 -0.2103  0.9947
  151MPD2     N 2357   1.231   2.864  12.325  0.0947 -0.5703 -0.2182
  151MPD2    H5 2358   1.187   2.945  12.283  0.6096  1.2390  2.7235
  151MPD2    N1 2359   0.802   2.670  12.194 -0.1125 -0.0998  0.2555
  151MPD2    H7 2360   0.741   2.589  12.189 -0.3626  0.0223  1.4092
  152TMC2    C1 2361   1.076   2.977  12.658 -0.1998 -0.4637  0.1001
  152TMC2    C2 2362   1.130   2.858  12.690  0.0862  0.5204  0.6135
  152TMC2    C3 2363   1.264   2.851  12.705  1.0150 -0.4358 -0.5570
  152TMC2    C4 2364   1.147   3.094  12.635 -0.8110  0.2092 -0.0936
  152TMC2    C5 2365   1.286   3.079  12.651 -0.2817 -0.0571 -0.2984
  152TMC2    C6 2366   1.347   2.960  12.689  0.6385 -0.0554  0.3673
  152TMC2     C 2367   0.936   2.983  12.600  0.0183 -0.1862 -0.4862
  152TMC2     O 2368   0.907   3.076  12.535  0.3304  0.1660 -0.3082
  152TMC2     H 2369   1.068   2.777  12.729 -0.0565  0.2120 -0.2589
  152TMC2    H1 2370   1.102   3.187  12.602 -1.0173  0.6664  1.4570
  152TMC2    H2 2371   1.447   2.958  12.729  0.7809 -0.4070 -0.0082
  152TMC2    C7 2372   1.362   3.200  12.653 -1.0901 -0.1878  0.3268
  152TMC2    C8 2373   1.322   2.719  12.719  0.6012 -0.8320  0.0423
  152TMC2    O1 2374   1.289   3.295  12.661 -0.2518  0.1152  0.3724
  152TMC2    O2 2375   1.256   2.615  12.693 -0.3153 -0.3527 -0.1981
  152TMC2    O5 2376   1.456   2.740  12.736 -0.3941 -0.6510  0.3700
  152TMC2    H5 2377   1.510   2.659  12.726 -0.6475 -0.5291 -1.8959
  153MPD2     C 2378   0.668   2.720  12.604 -1.2168  0.1964  0.3783
  153MPD2    C1 2379   0.736   2.836  12.563 -0.4201  0.3109  0.0307
  153MPD2    C2 2380   0.670   2.920  12.473 -0.0468 -0.5001  0.3417
  153MPD2    C3 2381   0.543   2.887  12.418  0.0929  0.2404 -0.0473
  153MPD2    C4 2382   0.487   2.770  12.458 -0.2284  0.2272  0.4911
  153MPD2    C5 2383   0.546   2.689  12.550  0.0773 -0.7946  0.6500
  153MPD2     H 2384   0.723   3.004  12.431  0.7963 -1.8892 -1.4270
  153MPD2    H1 2385   0.395   2.731  12.416 -1.4311  1.4536  1.9949
  153MPD2    H2 2386   0.710   2.658  12.682  1.5650  0.8866 -0.5814
  153MPD2    H3 2387   0.498   2.598  12.583  1.4482 -1.1835  1.5739
  153MPD2     N 2388   0.492   2.966  12.314  0.0716 -0.6814 -0.1204
  153MPD2    H5 2389   0.553   3.031  12.266 -1.4108 -0.8445 -2.2412
  153MPD2    N1 2390   0.858   2.867  12.630 -0.0793 -0.0274  0.2139
  153MPD2    H7 2391   0.898   2.801  12.695 -0.7358 -0.0936  0.5436
  154TMC2    C1 2392   3.212   2.984   0.698 -0.0872  0.3378  0.4261
  154TMC2    C2 2393   3.261   3.011   0.825  0.2281  0.2435 -0.1095
  154TMC2    C3 2394   3.390   2.981   0.859 -0.3702  0.7302  0.1290
  154TMC2    C4 2395   3.292   2.910   0.606  0.3533  0.4254  0.5104
  154TMC2    C5 2396   3.426   2.889   0.646  0.2226 -0.0371 -0.2574
  154TMC2    C6 2397   3.471   2.919   0.769 -0.1587 -0.2924 -0.7600
  154TMC2     C 2398   3.096   3.056   0.653  0.0869  0.2790  0.0335
  154TMC2     O 2399   3.028   3.108   0.742 -0.2316  0.0211  0.4019
  154TMC2     H 2400   3.205   3.074   0.892 -0.3115 -0.6453  0.2785
  154TMC2    H1 2401   3.248   2.850   0.527 -0.6211  0.1177  1.2846
  154TMC2    H2 2402   3.577   2.904   0.791 -0.3579  0.1974  0.5206
  154TMC2    C7 2403   3.493   2.765   0.605  0.1973 -0.8707  1.2233
  154TMC2    C8 2404   3.456   3.040   0.980  0.4687 -0.0751 -0.5565
  154TMC2    O1 2405   3.568   2.699   0.674  0.2752  0.0462 -0.2582
  154TMC2    O2 2406   3.573   3.017   1.005  0.4112 -0.5073  0.0210
  154TMC2    O5 2407   3.388   3.150   1.030 -0.3142 -0.1472  0.3986
  154TMC2    H5 2408   3.302   3.176   0.989  0.6826 -0.3377 -1.8269
  155MPD2     C 2409   2.964   3.040   0.313  0.4528  0.0813 -0.0297
  155MPD2    C1 2410   2.953   3.075   0.443  0.1766 -0.3756 -0.4288
  155MPD2    C2 2411   2.837   3.120   0.500  0.0006  0.1420 -0.8489
  155MPD2    C3 2412   2.729   3.147   0.413 -0.0387 -0.0082 -0.2365
  155MPD2    C4 2413   2.750   3.135   0.274 -0.5196 -0.1745  0.1121
  155MPD2    C5 2414   2.855   3.063   0.230  0.1954 -0.5640 -0.5024
  155MPD2     H 2415   2.828   3.140   0.606  0.7677 -1.4923 -0.4674
  155MPD2    H1 2416   2.669   3.149   0.204  0.2777  1.0763 -0.5565
  155MPD2    H2 2417   3.057   2.993   0.283  0.4559 -0.9096  1.4902
  155MPD2    H3 2418   2.854   3.038   0.124 -0.3597 -3.9046  0.2957
  155MPD2     N 2419   2.611   3.189   0.476 -0.1949 -0.4639 -0.1436
  155MPD2    H5 2420   2.614   3.196   0.578  1.5865  1.3454 -0.3136
  155MPD2    N1 2421   3.073   3.038   0.523  0.2806  0.3002 -0.1011
  155MPD2    H7 2422   3.152   3.010   0.466  0.4686  0.2478  0.1853
  156TMC2    C1 2423   1.758   0.218  11.537  0.4405  0.0468 -0.4352
  156TMC2    C2 2424   1.764   0.094  11.483  0.1047  0.9489  0.5139
  156TMC2    C3 2425   1.680   0.063  11.374  0.1579 -0.0415  0.3474
  156TMC2    C4 2426   1.680   0.312  11.480  0.5134  0.1002  0.5848
  156TMC2    C5 2427   1.593   0.283  11.383 -0.3430  0.3248 -0.8975
  156TMC2    C6 2428   1.601   0.160  11.324 -0.8164 -0.0586 -0.2066
  156TMC2     C 2429   1.795   0.257  11.671  0.1420 -0.5358  0.3805
  156TMC2     O 2430   1.731   0.353  11.712  0.0633 -0.5552 -0.2873
  156TMC2     H 2431   1.822   0.017  11.532 -3.4790 -1.3998  1.0479
  156TMC2    H1 2432   1.695   0.416  11.506  1.8210  0.2236 -0.6587
  156TMC2    H2 2433   1.533   0.147  11.240  0.3478 -1.2643 -0.9759
  156TMC2    C7 2434   1.474   0.366  11.380 -0.5217  0.2088 -0.1456
  156TMC2    C8 2435   1.670   4.668  11.330  0.4112  0.0446  0.0764
  156TMC2    O1 2436   1.418   0.403  11.276 -0.4315  0.2077  0.1913
  156TMC2    O2 2437   1.706   4.568  11.394  0.3373 -0.2452  0.6899
  156TMC2    O5 2438   1.648   4.671  11.195 -0.6707  0.3397 -0.4973
  156TMC2    H5 2439   1.657   0.017  11.153 -0.1483  2.0630  3.1812
  157MPD2     C 2440   2.082   0.156  11.878 -0.2696 -0.3715  0.3158
  157MPD2    C1 2441   1.964   0.215  11.850 -0.3602 -0.0646 -0.4282
  157MPD2    C2 2442   1.896   0.285  11.948  0.1092 -0.4993  0.9478
  157MPD2    C3 2443   1.941   0.300  12.077  0.2447 -0.8097  0.3540
  157MPD2    C4 2444   2.071   0.248  12.101  0.0654  0.9818 -0.2092
  157MPD2    C5 2445   2.135   0.178  12.004 -0.3702  0.1123 -0.2854
  157MPD2     H 2446   1.810   0.345  11.918  0.4107  0.1208  1.3353
  157MPD2    H1 2447   2.119   0.255  12.198 -0.7674  3.0576  0.0628
  157MPD2    H2 2448   2.137   0.096  11.807  0.6911 -0.4027  1.0823
  157MPD2    H3 2449   2.233   0.136  12.023  0.4946  1.9847 -0.6748
  157MPD2     N 2450   1.874   0.397  12.159  0.6062  0.0905 -0.0068
  157MPD2    H5 2451   1.788   0.436  12.121  0.0413 -0.4859  0.6856
  157MPD2    N1 2452   1.910   0.196  11.719 -0.2145  0.5609 -0.3023
  157MPD2    H7 2453   1.953   0.127  11.657 -1.4067 -1.0385  0.6470
  158TMC2    C1 2454   1.942   4.190  12.953  0.3042 -0.1400  0.4448
  158TMC2    C2 2455   1.989   4.236  12.835  0.0853 -0.5336  0.3624
  158TMC2    C3 2456   1.896   4.278  12.743  0.3377  0.3475  0.0412
  158TMC2    C4 2457   1.804   4.183  12.985  0.8099 -0.0860 -0.8119
  158TMC2    C5 2458   1.715   4.225  12.887 -0.3750 -0.0223 -0.8634
  158TMC2    C6 2459   1.761   4.282  12.772 -0.0615  0.8190 -0.3364
  158TMC2     C 2460   2.034   4.170  13.057  0.1995  0.6168  0.3864
  158TMC2     O 2461   2.134   4.241  13.058 -0.2071 -0.3156 -0.2539
  158TMC2     H 2462   2.094   4.235  12.807 -0.3409  3.0115 -1.3545
  158TMC2    H1 2463   1.766   4.166  13.085 -0.3608  4.4393 -0.4873
  158TMC2    H2 2464   1.692   4.306  12.692  1.1553  2.1211 -0.9905
  158TMC2    C7 2465   1.572   4.227  12.905  0.2841 -0.0736  1.0642
  158TMC2    C8 2466   1.933   4.282  12.604 -0.7520  0.0743  0.0998
  158TMC2    O1 2467   1.506   4.322  12.876  0.1783  0.6755 -0.2900
  158TMC2    O2 2468   2.026   4.214  12.561  0.0160  0.3022  0.4039
  158TMC2    O5 2469   1.898   4.410  12.569  0.2026 -0.1019  0.2211
  158TMC2    H5 2470   1.837   4.463  12.624  1.3788  1.4484  0.0433
  159MPD2     C 2471   2.192   4.045  13.530 -0.3755 -0.2000 -0.1294
  159MPD2    C1 2472   2.057   4.013  13.525 -0.1359  0.6553 -0.1222
  159MPD2    C2 2473   1.993   4.031  13.405 -0.2353 -0.1962  0.0589
  159MPD2    C3 2474   2.063   4.074  13.292 -0.6387  0.2359  0.3451
  159MPD2    C4 2475   2.195   4.097  13.303  0.2305  0.1649  0.0215
  159MPD2    C5 2476   2.264   4.088  13.419 -0.3133 -0.3727 -0.3352
  159MPD2     H 2477   1.887   4.011  13.396 -0.1404 -0.3077 -0.7407
  159MPD2    H1 2478   2.263   4.109  13.219  0.3517 -1.1544 -0.0651
  159MPD2    H2 2479   2.244   4.034  13.624 -0.1007 -0.0684 -0.2675
  159MPD2    H3 2480   2.372   4.099  13.422 -0.4170  0.5265 -0.0204
  159MPD2     N 2481   1.991   4.098  13.168 -0.2519  0.3856 -0.6695
  159MPD2    H5 2482   1.900   4.053  13.165 -0.5594  1.0462 -1.1074
  159MPD2    N1 2483   2.001   3.953  13.640  0.2979  0.0535 -0.2957
  159MPD2    H7 2484   2.055   3.930  13.722 -1.4455  0.6118  1.0146
  160TMC2    C1 2485   1.832   2.208   1.427  0.0747  0.0633  0.1078
  160TMC2    C2 2486   1.792   2.092   1.492  0.2337  0.0902  0.4956
  160TMC2    C3 2487   1.825   1.979   1.426 -0.6243  0.6258  0.0451
  160TMC2    C4 2488   1.913   2.212   1.324  0.1122 -1.2196  0.0803
  160TMC2    C5 2489   1.937   2.092   1.263 -0.5574  0.4028 -0.3321
  160TMC2    C6 2490   1.893   1.979   1.310  0.2209  0.0952 -0.0972
  160TMC2     C 2491   1.791   2.332   1.488 -0.1506  0.0095  0.5718
  160TMC2     O 2492   1.735   2.327   1.596  0.6946  0.5671  0.6211
  160TMC2     H 2493   1.737   2.082   1.585 -0.6933 -4.3710 -0.5345
  160TMC2    H1 2494   1.958   2.303   1.284 -0.0295 -1.0340  0.3448
  160TMC2    H2 2495   1.932   1.900   1.247  1.8215  0.7971  0.0111
  160TMC2    C7 2496   2.015   2.086   1.140 -0.5480 -0.4060  0.4557
  160TMC2    C8 2497   1.841   1.852   1.493  0.0975 -0.0119 -0.0514
  160TMC2    O1 2498   2.029   1.983   1.078 -0.5051  0.3144  0.3109
  160TMC2    O2 2499   1.930   1.778   1.456  0.0353 -0.2079 -0.3301
  160TMC2    O5 2500   1.714   1.810   1.510  0.4022 -0.3862 -0.0817
  160TMC2    H5 2501   1.654   1.887   1.505  0.7733 -0.3108 -3.4775
  161MPD2     C 2502   1.734   2.600   1.546  0.3955 -0.0136 -0.4175
  161MPD2    C1 2503   1.732   2.560   1.412 -0.0541  0.1335 -0.2603
  161MPD2    C2 2504   1.664   2.630   1.316 -0.2167  0.3324  0.3203
  161MPD2    C3 2505   1.616   2.754   1.343 -0.8454 -0.3116 -0.0979
  161MPD2    C4 2506   1.636   2.804   1.471 -0.0098  0.0821  0.3745
  161MPD2    C5 2507   1.683   2.725   1.569  0.9943  1.0547  0.0155
  161MPD2     H 2508   1.669   2.578   1.220 -2.1495  2.0309 -0.6874
  161MPD2    H1 2509   1.594   2.899   1.501 -1.2252 -0.0539 -0.8696
  161MPD2    H2 2510   1.769   2.546   1.634  0.1019 -1.5388 -1.2319
  161MPD2    H3 2511   1.673   2.749   1.674 -0.5004  0.2529  0.0670
  161MPD2     N 2512   1.544   2.829   1.246 -0.4276  0.1806  0.0149
  161MPD2    H5 2513   1.511   2.923   1.268 -2.0219  0.2032 -2.3961
  161MPD2    N1 2514   1.784   2.428   1.392  0.1522  0.4466 -0.1311
  161MPD2    H7 2515   1.797   2.393   1.298  1.3920  1.1868 -0.2383
  162TMC2    C1 2516   4.509   4.617   0.855  0.5345 -0.0769 -0.6237
  162TMC2    C2 2517   4.450   4.731   0.913 -0.3738  0.2981 -0.2997
  162TMC2    C3 2518   4.500   0.025   1.032 -0.0192 -0.4708 -0.6985
  162TMC2    C4 2519   4.620   4.553   0.912 -0.2624 -0.0493  0.6716
  162TMC2    C5 2520   4.671   4.605   1.032  0.0342 -0.0625 -1.0158
  162TMC2    C6 2521   4.606   4.711   1.094 -0.7760  0.0635 -0.0055
  162TMC2     C 2522   4.457   4.568   0.730 -0.6057 -0.0195  0.1948
  162TMC2     O 2523   4.520   4.480   0.678  0.2236  0.1501  0.6725
  162TMC2     H 2524   4.357   0.027   0.872 -1.2092 -0.2823  1.0742
  162TMC2    H1 2525   4.654   4.455   0.879  0.7798  0.7791 -0.6862
  162TMC2    H2 2526   4.646   0.004   1.189  1.5890  0.7001 -1.2407
  162TMC2    C7 2527   0.049   4.568   1.087  0.3705  0.5305 -0.1607
  162TMC2    C8 2528   4.451   0.147   1.097 -0.2500 -0.4200 -0.0320
  162TMC2    O1 2529   0.110   4.652   1.152  0.4439  0.2958  0.3697
  162TMC2    O2 2530   4.514   0.237   1.148  0.2983  1.1802  0.1881
  162TMC2    O5 2531   4.313   0.149   1.086  0.2702 -0.3804  0.3647
  162TMC2    H5 2532   4.268   0.067   1.055 -2.8500  1.0669  0.9931
  163MPD2     C 2533   4.102   4.467   0.363 -0.0420  0.6112  0.7521
  163MPD2    C1 2534   4.213   4.397   0.407  0.2896 -0.2309  0.1218
  163MPD2    C2 2535   4.289   4.441   0.516 -0.2802  0.6519  0.3433
  163MPD2    C3 2536   4.259   4.569   0.578 -0.0772  0.1795  0.1575
  163MPD2    C4 2537   4.144   4.635   0.539  0.3897  0.1256 -0.3996
  163MPD2    C5 2538   4.071   4.585   0.437 -0.4387  0.5323 -0.6794
  163MPD2     H 2539   4.386   4.396   0.535  0.3295  1.7733 -0.0564
  163MPD2    H1 2540   4.117   4.731   0.582  0.5198  0.0590 -0.1640
  163MPD2    H2 2541   4.042   4.447   0.276  0.9160 -0.2454  0.2835
  163MPD2    H3 2542   3.988   4.647   0.403 -0.2805  0.6814 -0.7945
  163MPD2     N 2543   4.340   4.625   0.682  0.9126  0.4390  0.5725
  163MPD2    H5 2544   4.306   4.712   0.721 -1.2377  0.0041 -0.3333
  163MPD2    N1 2545   4.250   4.287   0.324  0.3116  0.8160  0.1314
  163MPD2    H7 2546   4.199   4.272   0.238 -0.0660  1.1385  0.3032
  164TMC2    C1 2547   4.580   4.286  10.367  0.6575  0.3368  0.2467
  164TMC2    C2 2548   4.669   4.381  10.376 -0.1976  0.7619 -0.3036
  164TMC2    C3 2549   4.678   4.441  10.505  0.5288  0.1130 -0.0989
  164TMC2    C4 2550   4.483   4.260  10.466 -0.7942  0.7774  0.4914
  164TMC2    C5 2551   4.494   4.325  10.586 -0.3068 -0.1163  0.1569
  164TMC2    C6 2552   4.591   4.421  10.607 -0.0694  0.1958 -0.2781
  164TMC2     C 2553   4.615   4.173  10.276  0.5899 -0.0579 -0.1873
  164TMC2     O 2554   4.562   4.066  10.302  0.5869  0.5276 -0.2397
  164TMC2     H 2555   0.014   4.392  10.313  0.8678  1.2324  1.2759
  164TMC2    H1 2556   4.401   4.191  10.452  1.1109 -1.7923  2.0809
  164TMC2    H2 2557   4.603   4.475  10.700 -0.6785  0.3633 -0.2982
  164TMC2    C7 2558   4.377   4.338  10.663 -0.5456  0.8029 -0.5794
  164TMC2    C8 2559   0.058   4.507  10.541 -0.9734  0.7557  0.2249
  164TMC2    O1 2560   4.270   4.315  10.608 -0.4009  0.0576 -0.0739
  164TMC2    O2 2561   0.167   4.452  10.533 -0.0406  0.4924  0.3313
  164TMC2    O5 2562   0.035   4.632  10.586 -0.0979  0.0321 -0.1800
  164TMC2    H5 2563   4.685   4.664  10.576 -0.1463  0.6212  2.0617
  165TMC2    C1 2564   2.114   1.438   2.039  0.0610  0.5319  0.8707
  165TMC2    C2 2565   2.136   1.485   2.167  0.1191  0.7675  0.3782
  165TMC2    C3 2566   2.107   1.618   2.184  0.3259 -0.2874 -0.7179
  165TMC2    C4 2567   2.062   1.522   1.940 -0.0097  0.6358 -0.1746
  165TMC2    C5 2568   2.024   1.651   1.969  0.7614  0.3548  0.1857
  165TMC2    C6 2569   2.045   1.701   2.097  0.1448 -0.3736  0.3503
  165TMC2     C 2570   2.153   1.308   1.998  0.5125 -0.3395  0.0193
  165TMC2     O 2571   2.211   1.241   2.082  0.0460 -0.2825  0.3434
  165TMC2     H 2572   2.184   1.427   2.245 -2.1722 -1.6559 -0.0119
  165TMC2    H1 2573   2.068   1.492   1.836 -0.3866  0.9297 -0.2805
  165TMC2    H2 2574   2.020   1.802   2.128 -3.2311 -0.4198 -2.2144
  165TMC2    C7 2575   2.036   1.741   1.856 -0.3272  0.0558 -0.5651
  165TMC2    C8 2576   2.163   1.683   2.295  1.5674  0.6434  0.2853
  165TMC2    O1 2577   2.059   1.687   1.746  0.4118 -0.1299  0.2174
  165TMC2    O2 2578   2.194   1.801   2.298 -0.4982 -0.3687  0.3645
  165TMC2    O5 2579   2.114   1.614   2.401  0.5967  0.5675 -0.5322
  165TMC2    H5 2580   2.062   1.532   2.388  0.7501  0.6409 -1.5726
  166MPD2     C 2581   2.072   0.880   1.728  0.6861 -0.4828 -0.1847
  166MPD2    C1 2582   2.167   0.906   1.826  0.1227  0.5500 -1.1173
  166MPD2    C2 2583   2.176   1.043   1.879 -0.2617 -0.4576  0.3403
  166MPD2    C3 2584   2.092   1.138   1.831  0.2115 -0.2872  0.0329
  166MPD2    C4 2585   1.987   1.104   1.745  0.4851  0.7317 -0.6262
  166MPD2    C5 2586   1.979   0.976   1.697  0.3445 -0.4096  0.0064
  166MPD2     H 2587   2.252   1.068   1.952  1.3751 -1.3234 -1.0776
  166MPD2    H1 2588   1.911   1.174   1.709 -0.1107  0.8439  0.8529
  166MPD2    H2 2589   2.062   0.781   1.685  0.9547 -0.4801 -0.2556
  166MPD2    H3 2590   1.899   0.938   1.633  0.9485  0.1118 -1.0558
  166MPD2     N 2591   2.092   1.271   1.883  0.2524 -0.0528  0.1420
  166MPD2    H5 2592   2.019   1.335   1.855  1.9687  0.5409 -3.0154
  166MPD2    N1 2593   2.239   0.798   1.877  0.1836  0.1781 -0.2939
  166MPD2    H7 2594   2.224   0.706   1.836 -0.7057  0.2569 -0.1358
  167TMC2    C1 2595   3.723   3.866  12.522  0.0883 -0.0506 -0.6786
  167TMC2    C2 2596   3.688   3.933  12.638  0.0397  0.3523  0.4149
  167TMC2    C3 2597   3.682   3.853  12.750 -0.3343 -0.3442 -0.2335
  167TMC2    C4 2598   3.742   3.729  12.517 -0.1656  0.1129 -0.2265
  167TMC2    C5 2599   3.738   3.660  12.637  0.2409  0.3321  0.1597
  167TMC2    C6 2600   3.717   3.721  12.751 -0.5622  1.2099  0.5812
  167TMC2     C 2601   3.763   3.954  12.406  0.0412  0.9355  0.1261
  167TMC2     O 2602   3.748   4.072  12.421 -0.5310 -0.6086 -0.8940
  167TMC2     H 2603   3.675   4.040  12.644  2.1953  0.7707 -2.5312
  167TMC2    H1 2604   3.744   3.680  12.420  0.8195  0.2321 -0.2682
  167TMC2    H2 2605   3.704   3.671  12.846 -1.9988 -0.7435 -0.6557
  167TMC2    C7 2606   3.728   3.515  12.639  0.2933 -0.2585  1.7733
  167TMC2    C8 2607   3.605   3.896  12.859  0.0286  0.3719 -0.1013
  167TMC2    O1 2608   3.687   3.458  12.740  0.5806  0.1801 -0.2666
  167TMC2    O2 2609   3.537   3.818  12.922 -0.0939  0.1001  0.5628
  167TMC2    O5 2610   3.686   3.997  12.911 -0.4594  0.4325  0.7112
  167TMC2    H5 2611   3.764   4.006  12.852 -1.7621  0.0018 -1.0775
  168MPD2     C 2612   3.895   4.073  12.164 -0.3995 -0.1243  0.0897
  168MPD2    C1 2613   3.841   3.945  12.168 -0.5757 -0.3054  0.0669
  168MPD2    C2 2614   3.831   3.864  12.057 -0.2414 -0.5327  0.8075
  168MPD2    C3 2615   3.866   3.923  11.935  0.6745  0.6258 -0.2622
  168MPD2    C4 2616   3.910   4.055  11.937  0.1455  0.1152  1.0603
  168MPD2    C5 2617   3.933   4.128  12.051  0.3309  0.2069 -0.2538
  168MPD2     H 2618   3.798   3.761  12.069  0.9074 -0.8597  1.1643
  168MPD2    H1 2619   3.937   4.105  11.844 -3.6539  0.0193 -0.0629
  168MPD2    H2 2620   3.905   4.119  12.261 -2.3145  1.6204 -0.5139
  168MPD2    H3 2621   3.965   4.230  12.065  1.2470 -0.0696 -0.3549
  168MPD2     N 2622   3.836   3.851  11.810 -0.1749  0.4413  0.1753
  168MPD2    H5 2623   3.847   3.904  11.724  2.1471  0.3796  0.4393
  168MPD2    N1 2624   3.802   3.887  12.294 -0.3035 -0.5754 -0.1095
  168MPD2    H7 2625   3.789   3.787  12.293  0.2979 -0.6358 -1.9738
  169MPD1     C 2626   4.401   3.473  10.238 -0.0731  0.6054 -0.2575
  169MPD1    C1 2627   4.440   3.342  10.207  0.5094 -0.1545  0.2221
  169MPD1    C2 2628   4.574   3.311  10.184 -0.4956 -0.4479  0.3262
  169MPD1    C3 2629   4.669   3.408  10.182 -0.4744 -0.3392  0.6720
  169MPD1    C4 2630   4.629   3.545  10.190  0.1509  0.2175  0.4399
  169MPD1    C5 2631   4.498   3.573  10.219  0.1211  0.5206 -0.2001
  169MPD1     H 2632   4.606   3.208  10.179 -0.4305 -0.2866 -2.2283
  169MPD1    H1 2633   4.700   3.626  10.186  0.2229  0.1684  0.7612
  169MPD1    H2 2634   4.299   3.504  10.257  0.7705  2.7096  0.8265
  169MPD1    H3 2635   4.462   3.674  10.205  0.3587  0.1469 -3.4296
  169MPD1     N 2636   0.061   3.365  10.168 -0.1291  0.1265  0.8977
  169MPD1    H5 2637   0.074   3.264  10.170  2.0508  0.4082  0.8009
  169MPD1    N1 2638   4.353   3.242  10.245  0.2742  0.1943  0.7122
  169MPD1    H6 2639   4.361   3.165  10.180  1.2490  2.1757 -1.5283
  169MPD1    H7 2640   4.257   3.276  10.253  0.0840 -0.3175  0.5582
  170MPD1     C 2641   0.900   0.708  13.082 -0.1594  0.4510 -0.6470
  170MPD1    C1 2642   0.770   0.726  13.050  0.9287 -0.4618  0.5359
  170MPD1    C2 2643   0.686   0.790  13.142  0.0460  0.6869  0.1503
  170MPD1    C3 2644   0.728   0.815  13.273 -0.2374  0.4429  0.6855
  170MPD1    C4 2645   0.854   0.782  13.307  0.6170 -0.0080  0.5953
  170MPD1    C5 2646   0.934   0.739  13.206 -0.6539 -0.1894 -0.3321
  170MPD1     H 2647   0.585   0.810  13.110 -0.0267 -2.3247 -1.5334
  170MPD1    H1 2648   0.895   0.811  13.403 -0.7653  1.7287  0.6606
  170MPD1    H2 2649   0.971   0.666  13.012 -1.6026 -2.9287 -0.0595
  170MPD1    H3 2650   1.040   0.725  13.222 -0.5686 -0.7242 -1.3658
  170MPD1     N 2651   0.651   0.884  13.364  0.0466  0.4843 -0.6157
  170MPD1    H5 2652   0.700   0.897  13.452  0.5223  0.6430 -0.8989
  170MPD1    N1 2653   0.732   0.716  12.915 -0.1679  0.5963 -0.3092
  170MPD1    H6 2654   0.792   0.647  12.871  0.5346 -1.1970  3.4773
  170MPD1    H7 2655   0.634   0.687  12.913  0.4174 -1.2465 -1.6117
  171MPD1     C 2656   3.705   2.681  15.382  0.1502 -0.2452  0.1612
  171MPD1    C1 2657   3.698   2.550  15.347  0.2145  0.5651 -0.0536
  171MPD1    C2 2658   3.755   2.449  15.413 -0.2362 -0.6710 -0.9285
  171MPD1    C3 2659   3.827   2.480  15.530  0.5950 -0.3650  0.7506
  171MPD1    C4 2660   3.813   2.613  15.582  0.7328 -0.2760 -0.3231
  171MPD1    C5 2661   3.762   2.707  15.501  0.2598 -0.0081 -0.2563
  171MPD1     H 2662   3.746   2.349  15.372  0.6942 -0.9293 -0.5192
  171MPD1    H1 2663   3.848   2.646  15.679  1.9344  2.3639 -1.6357
  171MPD1    H2 2664   3.669   2.763  15.322  0.4066  1.4294  2.2997
  171MPD1    H3 2665   3.764   2.804  15.548  1.2406 -1.1877  2.1323
  171MPD1     N 2666   3.886   2.380  15.609  0.2593  0.0361  0.2579
  171MPD1    H5 2667   3.916   2.414  15.700 -0.4281 -1.1006  0.9120
  171MPD1    N1 2668   3.602   2.527  15.248  0.6792 -0.0611  0.0729
  171MPD1    H6 2669   3.619   2.449  15.184  2.2963 -0.2213  0.6825
  171MPD1    H7 2670   3.579   2.602  15.184 -1.7639 -3.4468 -2.9993
  172MPD1     C 2671   3.069   1.237   0.117 -0.4292 -0.3704 -0.0134
  172MPD1    C1 2672   3.029   1.292   0.236 -0.2796 -0.7507 -0.2067
  172MPD1    C2 2673   3.052   1.424   0.241 -0.1379  1.0352 -0.4219
  172MPD1    C3 2674   3.121   1.499   0.140  0.1662 -0.0218  0.1216
  172MPD1    C4 2675   3.179   1.428   0.037 -0.6784  0.0433  0.6306
  172MPD1    C5 2676   3.144   1.301   0.026  0.5043 -0.1842 -0.8781
  172MPD1     H 2677   3.013   1.486   0.322 -0.9120 -0.0600  0.0404
  172MPD1    H1 2678   3.246   1.465  17.728  0.3432 -1.1286  0.9643
  172MPD1    H2 2679   3.035   1.137   0.092  0.0301 -0.2776 -0.9952
  172MPD1    H3 2680   3.182   1.242  17.711 -1.3172 -2.1593 -0.3138
  172MPD1     N 2681   3.145   1.640   0.146  0.0840 -0.0145 -0.4217
  172MPD1    H5 2682   3.201   1.681   0.072  1.7059  1.4917  1.6619
  172MPD1    N1 2683   2.944   1.224   0.323  0.3541 -0.1596 -0.0505
  172MPD1    H6 2684   2.975   1.128   0.337  1.0936 -0.2009 -1.9929
  172MPD1    H7 2685   2.945   1.267   0.415 -0.4303  1.6677 -0.8774
  173MPD1     C 2686   0.191   2.063  13.842 -0.3100  0.2857  0.0537
  173MPD1    C1 2687   0.057   2.027  13.842 -0.0294  0.5476  0.3927
  173MPD1    C2 2688   0.014   1.933  13.936  0.6101 -0.1521 -0.2940
  173MPD1    C3 2689   0.101   1.873  14.028 -1.0177 -0.3301  0.4944
  173MPD1    C4 2690   0.234   1.918  14.035 -0.2375 -0.5211 -0.8570
  173MPD1    C5 2691   0.279   2.012  13.941  0.1660 -0.3436 -0.2076
  173MPD1     H 2692   4.656   1.894  13.926  0.3459  0.4913 -0.1156
  173MPD1    H1 2693   0.304   1.894  14.113 -1.6952 -1.7398  0.0668
  173MPD1    H2 2694   0.229   2.136  13.771  0.3942  0.5163  0.6619
  173MPD1    H3 2695   0.382   2.043  13.936  0.1963 -0.6984 -1.6490
  173MPD1     N 2696   0.042   1.771  14.105  0.1812 -0.0722  0.1049
  173MPD1    H5 2697   4.685   1.756  14.090  0.1176  0.2384  0.2117
  173MPD1    N1 2698   4.706   2.073  13.745 -0.5186  0.2303 -0.4226
  173MPD1    H6 2699   0.004   2.153  13.697 -0.1343 -0.1647 -0.7569
  173MPD1    H7 2700   4.611   2.093  13.775 -0.1712  2.9927 -1.1504
  174MPD1     C 2701   0.532   1.105  14.672  0.5282 -0.1227 -0.0731
  174MPD1    C1 2702   0.411   1.123  14.730  0.0104 -0.7160  0.3966
  174MPD1    C2 2703   0.299   1.164  14.649  0.5203  0.2688 -0.0896
  174MPD1    C3 2704   0.316   1.222  14.526  0.0563 -0.0047 -0.0604
  174MPD1    C4 2705   0.443   1.220  14.471 -0.4941  0.2954  0.1957
  174MPD1    C5 2706   0.544   1.159  14.541  0.2689 -0.0881  0.0426
  174MPD1     H 2707   0.206   1.167  14.703  0.1186  2.8381 -0.9613
  174MPD1    H1 2708   0.463   1.263  14.373 -0.1983  0.0733  0.1598
  174MPD1    H2 2709   0.624   1.063  14.711  1.0886  1.0478 -0.1433
  174MPD1    H3 2710   0.641   1.161  14.491  0.2328 -1.9209 -0.0995
  174MPD1     N 2711   0.211   1.292  14.459 -0.2448 -0.4371 -0.5715
  174MPD1    H5 2712   0.243   1.336  14.374 -0.0861 -0.8113 -0.7071
  174MPD1    N1 2713   0.400   1.075  14.861 -0.6763 -0.5925 -0.0077
  174MPD1    H6 2714   0.314   1.108  14.905 -0.9747 -0.4120 -0.7237
  174MPD1    H7 2715   0.475   1.096  14.926  0.5828 -1.9735 -1.0324
  175MPD1     C 2716   3.024   2.774  15.449  0.5398  0.6534  0.1485
  175MPD1    C1 2717   3.114   2.688  15.507  0.6925 -0.0311  0.2582
  175MPD1    C2 2718   3.082   2.599  15.606  0.2764  0.2561 -0.2440
  175MPD1    C3 2719   2.955   2.599  15.657 -0.7216  0.1156  0.8031
  175MPD1    C4 2720   2.867   2.686  15.599  0.5461 -0.8098 -0.8655
  175MPD1    C5 2721   2.898   2.773  15.501  0.4194 -0.2501 -0.2073
  175MPD1     H 2722   3.160   2.534  15.644  0.8113  1.0504 -0.0025
  175MPD1    H1 2723   2.764   2.688  15.633  0.6034 -0.7463 -0.6962
  175MPD1    H2 2724   3.047   2.836  15.364 -0.5144  0.6779 -0.1249
  175MPD1    H3 2725   2.812   2.831  15.469  0.0622 -1.4147 -1.3917
  175MPD1     N 2726   2.920   2.519  15.766  0.3301 -0.3489 -0.1408
  175MPD1    H5 2727   2.823   2.527  15.797 -0.1078 -0.6378 -1.4286
  175MPD1    N1 2728   3.249   2.701  15.466  0.3539 -0.3559 -0.0026
  175MPD1    H6 2729   3.247   2.730  15.368 -0.7026 -3.6562 -0.9466
  175MPD1    H7 2730   3.305   2.618  15.482 -1.5048 -1.1648  2.1788
  176MPD1     C 2731   3.960   4.607  17.524  0.2743 -0.2636  0.1235
  176MPD1    C1 2732   4.008   4.693  17.433 -0.1821  0.1363  0.2496
  176MPD1    C2 2733   4.114   0.026  17.479 -0.2910 -0.2976  0.1453
  176MPD1    C3 2734   4.190   4.737  17.596  0.9563 -0.6737 -0.3790
  176MPD1    C4 2735   4.138   4.642  17.681 -0.2173 -0.0292 -0.4700
  176MPD1    C5 2736   4.026   4.578  17.640 -0.1055 -0.3287 -0.5176
  176MPD1     H 2737   4.152   0.107  17.418 -0.0137 -1.7968 -1.6992
  176MPD1    H1 2738   4.180   4.607   0.007  1.1392  2.0930 -0.2876
  176MPD1    H2 2739   3.862   4.561  17.514 -0.1147  0.7055 -0.6318
  176MPD1    H3 2740   3.994   4.499  17.706 -0.6808 -0.5967 -1.1271
  176MPD1     N 2741   4.308   0.058  17.625  0.5507 -0.1945 -0.2907
  176MPD1    H5 2742   4.337   0.124  17.553 -1.9715  2.5545  1.2158
  176MPD1    N1 2743   3.918   0.007  17.336  0.1772  0.2299 -0.0521
  176MPD1    H6 2744   3.964   0.045  17.253 -0.5892  0.8962 -0.1610
  176MPD1    H7 2745   3.850   4.679  17.308  0.4471  0.1144 -0.4239
  177MPD1     C 2746   2.553   4.159  10.188  0.6919  0.9997 -0.1708
  177MPD1    C1 2747   2.587   4.235  10.081  0.1981  0.2793  0.1754
  177MPD1    C2 2748   2.484   4.257   9.983 -0.0941  0.1634  0.2329
  177MPD1    C3 2749   2.358   4.198  10.000 -0.0227  0.1487 -0.7009
  177MPD1    C4 2750   2.333   4.112  10.104 -0.5527 -0.5746 -0.1545
  177MPD1    C5 2751   2.435   4.095  10.194  0.4222 -0.1930 -0.1157
  177MPD1     H 2752   2.498   4.329   9.903 -0.4514  2.3729  2.1495
  177MPD1    H1 2753   2.241   4.061  10.130 -1.4516 -0.0698 -2.2870
  177MPD1    H2 2754   2.623   4.147  10.270  0.5795  1.0889 -0.0623
  177MPD1    H3 2755   2.411   4.043  10.286 -1.3149 -0.4736 -0.7225
  177MPD1     N 2756   2.266   4.205   9.891 -0.3439 -0.1556  0.1143
  177MPD1    H5 2757   2.307   4.268   9.823 -0.6349  0.3057  0.3616
  177MPD1    N1 2758   2.705   4.305  10.082 -0.3406  0.1583 -0.1655
  177MPD1    H6 2759   2.752   4.307   9.992  0.1741 -1.1311  0.0700
  177MPD1    H7 2760   2.774   4.265  10.145  1.9988  0.7642 -2.3191
  178MPD1     C 2761   0.958   0.407   0.334 -0.2071  0.3030 -0.1035
  178MPD1    C1 2762   0.871   0.334   0.256  0.0045  0.5377  0.3514
  178MPD1    C2 2763   0.872   0.362   0.116  0.0165  0.5059 -0.4554
  178MPD1    C3 2764   0.946   0.468   0.060  0.3466  0.0987  0.3369
  178MPD1    C4 2765   1.021   0.539   0.152 -0.1499 -0.1987  0.2178
  178MPD1    C5 2766   1.027   0.508   0.286 -0.3485 -0.7661  0.4397
  178MPD1     H 2767   0.814   0.296   0.053 -0.7895 -1.3012  2.1897
  178MPD1    H1 2768   1.061   0.636   0.123 -2.2512  0.1100 -1.6147
  178MPD1    H2 2769   0.973   0.384   0.439 -0.0484  1.1776  0.0671
  178MPD1    H3 2770   1.093   0.566   0.349  0.0988  0.2000 -0.9144
  178MPD1     N 2771   0.943   0.504  17.690  0.0592 -0.2637 -0.2661
  178MPD1    H5 2772   0.996   0.585  17.659 -2.0981  1.8658  1.6962
  178MPD1    N1 2773   0.816   0.217   0.298 -0.3503  0.2852 -0.5338
  178MPD1    H6 2774   0.720   0.198   0.269 -0.7386 -2.4072  2.4053
  178MPD1    H7 2775   0.810   0.221   0.400 -3.0539 -1.9170 -0.6071
  179MPD1     C 2776   4.340   3.869  15.802  0.4541  0.0548  0.1964
  179MPD1    C1 2777   4.285   3.747  15.767 -0.8000  0.0249 -0.3606
  179MPD1    C2 2778   4.365   3.632  15.753 -0.9393 -0.3910 -0.3144
  179MPD1    C3 2779   4.491   3.628  15.781 -0.6424  0.0413 -0.1456
  179MPD1    C4 2780   4.546   3.749  15.810 -0.1867 -0.2755 -0.3937
  179MPD1    C5 2781   4.476   3.871  15.799  0.4043  0.3076  0.0205
  179MPD1     H 2782   4.306   3.543  15.732  0.4248 -1.8689  2.2249
  179MPD1    H1 2783   4.651   3.754  15.835 -0.8691 -0.3668  2.5127
  179MPD1    H2 2784   4.290   3.963  15.824  0.2433 -0.0563  0.2001
  179MPD1    H3 2785   4.529   3.962  15.821 -1.5186  1.3641  0.2544
  179MPD1     N 2786   4.572   3.506  15.784 -0.5912  0.7549 -0.2695
  179MPD1    H5 2787   4.670   3.519  15.809 -0.1970 -0.6857 -1.0461
  179MPD1    N1 2788   4.145   3.739  15.777 -0.0921 -0.3542 -0.2593
  179MPD1    H6 2789   4.088   3.663  15.741 -1.7477  0.7224  0.0809
  179MPD1    H7 2790   4.099   3.826  15.751  0.7272  0.6372  1.5938
  180MPD1     C 2791   0.499   0.342  15.286  0.4586  0.8590  0.3818
  180MPD1    C1 2792   0.376   0.279  15.259  0.0297 -0.2572 -0.0155
  180MPD1    C2 2793   0.337   0.280  15.127 -0.6422 -0.1744 -0.0051
  180MPD1    C3 2794   0.416   0.331  15.021  0.4420  0.0196  0.0751
  180MPD1    C4 2795   0.535   0.396  15.052 -0.3477  0.0076 -0.5417
  180MPD1    C5 2796   0.580   0.395  15.180 -0.3353 -0.8692 -0.5813
  180MPD1     H 2797   0.246   0.234  15.091 -1.0491  0.8062 -0.2245
  180MPD1    H1 2798   0.601   0.448  14.984  1.5216 -0.9214  0.5650
  180MPD1    H2 2799   0.541   0.344  15.386 -0.2771  1.8226  0.6696
  180MPD1    H3 2800   0.678   0.437  15.201 -1.8117  1.9137  0.7972
  180MPD1     N 2801   0.350   0.347  14.895  0.1917  0.1047  0.1448
  180MPD1    H5 2802   0.264   0.294  14.884  1.6628 -2.3436  0.4955
  180MPD1    N1 2803   0.298   0.211  15.355  0.7230 -0.1089  0.3667
  180MPD1    H6 2804   0.202   0.238  15.335  0.7226  0.4540  1.1217
  180MPD1    H7 2805   0.330   0.229  15.450  0.7212 -1.5354  0.6320
  181MPD1     C 2806   0.754   1.012  10.833  0.6226  0.0490  0.2183
  181MPD1    C1 2807   0.747   1.123  10.904 -0.3549  0.5542  0.8227
  181MPD1    C2 2808   0.820   1.235  10.864 -0.2178 -0.8138 -0.1954
  181MPD1    C3 2809   0.902   1.230  10.753  0.1251 -0.1577  0.1868
  181MPD1    C4 2810   0.913   1.106  10.688  0.5552 -0.1977  0.1900
  181MPD1    C5 2811   0.842   0.999  10.732  0.3122  0.6570 -0.0434
  181MPD1     H 2812   0.799   1.330  10.912  0.0059 -0.3555 -1.0082
  181MPD1    H1 2813   0.983   1.080  10.609 -0.4537  1.9610 -1.4363
  181MPD1    H2 2814   0.703   0.920  10.860  0.2621  0.4059  0.7634
  181MPD1    H3 2815   0.850   0.906  10.678  1.2011 -0.6328  2.2861
  181MPD1     N 2816   0.973   1.343  10.693  0.3209 -0.3550  0.8461
  181MPD1    H5 2817   1.006   1.331  10.598 -1.7847 -0.3359  0.1110
  181MPD1    N1 2818   0.657   1.123  11.016 -0.3233 -0.5171  0.4959
  181MPD1    H6 2819   0.684   1.193  11.085  0.2366  0.6132 -0.8552
  181MPD1    H7 2820   0.654   1.034  11.064 -2.4889 -0.8155 -0.2224
  182MPD1     C 2821   3.050   0.022   0.952  0.4582  0.0350 -0.1679
  182MPD1    C1 2822   3.053   0.123   1.038 -0.6165 -0.1583  0.2136
  182MPD1    C2 2823   2.971   0.233   1.015  0.3528 -0.2574  0.8210
  182MPD1    C3 2824   2.881   0.238   0.911 -0.4517  0.1055 -1.0918
  182MPD1    C4 2825   2.883   0.134   0.825  0.0551 -0.3491 -0.2301
  182MPD1    C5 2826   2.968   0.029   0.846 -0.0003  0.4781 -0.5083
  182MPD1     H 2827   2.974   0.317   1.085 -2.0938  1.9430 -1.7117
  182MPD1    H1 2828   2.821   0.131   0.736 -1.7595  0.8295  1.0032
  182MPD1    H2 2829   3.120   4.684   0.968 -2.4069 -2.7011 -1.3993
  182MPD1    H3 2830   2.975   4.685   0.780  0.0846  0.5643 -0.6142
  182MPD1     N 2831   2.794   0.342   0.885 -0.4038 -0.2123 -0.5347
  182MPD1    H5 2832   2.722   0.327   0.814  2.1428 -1.4133 -2.8737
  182MPD1    N1 2833   3.163   0.133   1.118  0.3761 -0.5260 -0.1509
  182MPD1    H6 2834   3.183   0.043   1.161  2.4433  0.4533  0.9713
  182MPD1    H7 2835   3.147   0.190   1.201 -1.6927  1.5852 -2.0238
  183MPD1     C 2836   1.619   1.112   8.758  0.6992  0.5612  0.1574
  183MPD1    C1 2837   1.671   1.060   8.873 -0.7418 -0.7907  0.1012
  183MPD1    C2 2838   1.650   1.128   8.993  0.5500  0.1283 -1.0679
  183MPD1    C3 2839   1.583   1.245   8.996 -0.9532 -0.4190  1.0566
  183MPD1    C4 2840   1.524   1.296   8.881  0.3350 -0.2038 -0.1244
  183MPD1    C5 2841   1.545   1.233   8.758  0.2285 -0.5014 -0.1550
  183MPD1     H 2842   1.683   1.082   9.085 -1.1928 -0.4257 -0.7153
  183MPD1    H1 2843   1.459   1.383   8.888 -0.4874 -0.7490 -0.9640
  183MPD1    H2 2844   1.613   1.062   8.662 -0.6477  2.9960 -1.0332
  183MPD1    H3 2845   1.510   1.268   8.662  0.5596 -0.2257 -0.1750
  183MPD1     N 2846   1.580   1.312   9.114  0.6676  0.4671 -0.0821
  183MPD1    H5 2847   1.641   1.279   9.188  2.9294  1.0669 -1.7013
  183MPD1    N1 2848   1.721   0.927   8.867 -0.2930 -0.2979  0.6082
  183MPD1    H6 2849   1.771   0.891   8.948  2.0961  1.6106  0.0034
  183MPD1    H7 2850   1.756   0.907   8.773  2.4774  3.8519  0.7590
  184MPD1     C 2851   0.857   4.109  10.437 -0.2213  0.0906  0.1945
  184MPD1    C1 2852   0.987   4.101  10.461  0.0020 -0.6851 -0.5687
  184MPD1    C2 2853   1.072   4.151  10.361  0.1228 -0.3418  0.4062
  184MPD1    C3 2854   1.032   4.206  10.243  0.1223  0.4977  0.0257
  184MPD1    C4 2855   0.894   4.226  10.228 -0.6039 -0.7715 -0.2403
  184MPD1    C5 2856   0.810   4.172  10.326  0.3526  0.7230 -0.7329
  184MPD1     H 2857   1.179   4.148  10.372  0.1654  1.1151  0.3315
  184MPD1    H1 2858   0.850   4.271  10.139 -1.2033 -0.6596  0.1139
  184MPD1    H2 2859   0.783   4.061  10.499 -0.3066 -0.6628 -0.4890
  184MPD1    H3 2860   0.704   4.159  10.305  0.0735 -1.4767  2.0728
  184MPD1     N 2861   1.110   4.243  10.131  0.8414  0.3899  0.3040
  184MPD1    H5 2862   1.057   4.269  10.049  0.7524  1.5624  0.7340
  184MPD1    N1 2863   1.024   4.031  10.575 -0.0124  0.0976  0.6718
  184MPD1    H6 2864   1.116   4.055  10.612 -0.8591  0.0873  2.8114
  184MPD1    H7 2865   0.950   4.044  10.644 -0.2945  1.3622  0.1371
  185MPD1     C 2866   0.999   4.296   9.202  0.2034  0.3677 -0.5905
  185MPD1    C1 2867   1.019   4.179   9.275  0.0035 -0.0070 -0.2838
  185MPD1    C2 2868   1.095   4.180   9.386  0.3011  0.1766 -0.1285
  185MPD1    C3 2869   1.145   4.296   9.435 -0.0531  0.0298 -0.3902
  185MPD1    C4 2870   1.128   4.412   9.361 -0.7050  0.3808  0.5522
  185MPD1    C5 2871   1.054   4.410   9.247 -0.0272 -0.4960 -0.1804
  185MPD1     H 2872   1.119   4.086   9.435 -1.9860  0.2522  1.1056
  185MPD1    H1 2873   1.175   4.503   9.397 -2.0618  0.8377  1.1664
  185MPD1    H2 2874   0.949   4.296   9.106  0.3059 -0.3019 -0.6440
  185MPD1    H3 2875   1.037   4.506   9.200  1.0911  0.9064  2.2627
  185MPD1     N 2876   1.231   4.299   9.544  0.2283  0.7123  0.3133
  185MPD1    H5 2877   1.280   4.386   9.556 -0.2852  1.1350 -0.6642
  185MPD1    N1 2878   0.996   4.053   9.222  0.0544 -0.4286  0.2703
  185MPD1    H6 2879   0.983   3.976   9.286  0.0194 -0.9563 -0.3685
  185MPD1    H7 2880   0.917   4.056   9.157  2.2085 -2.0622 -2.4228
  186MPD1     C 2881   0.740   3.227  15.877  0.5412  0.2197 -0.1475
  186MPD1    C1 2882   0.798   3.330  15.818  0.4019  0.0883  0.5603
  186MPD1    C2 2883   0.797   3.452  15.876  0.1388  0.1130  0.0269
  186MPD1    C3 2884   0.747   3.465  16.007  0.4377 -0.0768 -0.3015
  186MPD1    C4 2885   0.692   3.358  16.068  0.0204 -0.1872 -0.2233
  186MPD1    C5 2886   0.695   3.242  15.999  0.0246 -0.4790 -0.1456
  186MPD1     H 2887   0.825   3.542  15.822 -0.0658 -1.8529 -3.3646
  186MPD1    H1 2888   0.653   3.349  16.168 -1.0602 -0.7335 -0.6971
  186MPD1    H2 2889   0.728   3.130  15.829 -0.6477  0.0216  0.5535
  186MPD1    H3 2890   0.646   3.156  16.043  1.0308 -0.0989  1.7353
  186MPD1     N 2891   0.727   3.586  16.072 -0.1062 -0.0036  0.2046
  186MPD1    H5 2892   0.701   3.568  16.169  1.4291 -1.1703  0.3962
  186MPD1    N1 2893   0.850   3.305  15.698 -0.5787  0.2852 -0.9254
  186MPD1    H6 2894   0.894   3.214  15.687  1.1128  0.9258  0.6678
  186MPD1    H7 2895   0.922   3.375  15.685 -0.3633  0.2332 -0.0209
  187MPD1     C 2896   0.478   0.486  17.644 -0.4941 -0.1797 -0.4296
  187MPD1    C1 2897   0.352   0.462  17.692 -0.1380  0.0078  0.8178
  187MPD1    C2 2898   0.255   0.551  17.653 -0.4670 -0.2494  0.1613
  187MPD1    C3 2899   0.271   0.649  17.559  0.0741 -0.7787 -0.2448
  187MPD1    C4 2900   0.403   0.662  17.512  0.4676  0.3501 -0.8154
  187MPD1    C5 2901   0.504   0.588  17.562  0.0495 -0.2935 -0.4720
  187MPD1     H 2902   0.154   0.541  17.691  0.4840 -0.8337  2.5156
  187MPD1    H1 2903   0.424   0.742  17.442 -0.0373  1.4086  0.2583
  187MPD1    H2 2904   0.562   0.436  17.690  1.1125  2.1321 -0.8713
  187MPD1    H3 2905   0.604   0.617  17.532  0.9815 -1.1036  1.8215
  187MPD1     N 2906   0.162   0.727  17.514  0.7198  0.0795  0.4224
  187MPD1    H5 2907   0.186   0.811  17.462 -0.4261 -1.0957 -2.0198
  187MPD1    N1 2908   0.322   0.359   0.013 -0.2404 -0.4216 -0.3797
  187MPD1    H6 2909   0.399   0.326   0.072  0.2168  1.9101  0.3278
  187MPD1    H7 2910   0.237   0.370   0.067  0.1902  0.5111  0.1193
  188MPD1     C 2911   3.919   1.145  10.137  0.2510 -0.1093 -0.6929
  188MPD1    C1 2912   4.036   1.079  10.142  0.4891  0.5172 -0.1857
  188MPD1    C2 2913   4.045   0.946  10.103 -0.0915 -0.5738  0.7812
  188MPD1    C3 2914   3.929   0.877  10.057  0.0184 -0.2393  0.0432
  188MPD1    C4 2915   3.807   0.943  10.054  0.1908 -0.3642  0.3477
  188MPD1    C5 2916   3.816   1.080  10.074 -0.6934 -0.4341 -0.6257
  188MPD1     H 2917   4.141   0.895  10.102  0.9720  1.5021 -1.0878
  188MPD1    H1 2918   3.724   0.900  10.000  2.1421 -1.6817 -1.6314
  188MPD1    H2 2919   3.896   1.247  10.162 -1.7416 -0.1597 -2.3448
  188MPD1    H3 2920   3.727   1.141  10.060 -0.6719 -0.3913 -0.5757
  188MPD1     N 2921   3.932   0.748   9.999  0.4343 -0.4187 -0.0662
  188MPD1    H5 2922   3.841   0.712   9.974  1.6708 -0.5446 -4.3197
  188MPD1    N1 2923   4.158   1.151  10.156 -0.1443  0.4475 -0.5229
  188MPD1    H6 2924   4.246   1.110  10.189 -0.4927 -0.4215 -0.6797
  188MPD1    H7 2925   4.142   1.237  10.208  0.1541  0.8107 -1.0396
  189MPD1     C 2926   1.493   1.683   0.560 -0.6237  0.1551 -0.4015
  189MPD1    C1 2927   1.360   1.662   0.567 -0.6164  0.4879  0.0706
  189MPD1    C2 2928   1.275   1.769   0.561 -0.1516  0.6033  0.0140
  189MPD1    C3 2929   1.329   1.893   0.531  0.0105  0.2843 -0.0067
  189MPD1    C4 2930   1.473   1.910   0.515  0.0974  0.4874 -0.5327
  189MPD1    C5 2931   1.550   1.800   0.540  0.9985 -0.6663 -0.5175
  189MPD1     H 2932   1.168   1.753   0.555 -0.5210  2.0552  2.9695
  189MPD1    H1 2933   1.521   2.003   0.488  0.3946  0.4119 -0.2693
  189MPD1    H2 2934   1.559   1.596   0.553  0.1240  0.8068 -1.4209
  189MPD1    H3 2935   1.658   1.805   0.530  0.8635 -0.0624 -1.6918
  189MPD1     N 2936   1.237   1.993   0.490  1.3590 -0.7117  0.1674
  189MPD1    H5 2937   1.139   1.968   0.500  0.6388  1.8856 -0.4483
  189MPD1    N1 2938   1.310   1.536   0.597  0.0904 -0.1706 -0.0478
  189MPD1    H6 2939   1.371   1.463   0.562  0.5219  1.1949 -2.1466
  189MPD1    H7 2940   1.213   1.523   0.569 -0.2280 -0.0182  0.9638
  190MPD1     C 2941   4.688   0.332  15.796 -0.2814 -0.1220  0.6427
  190MPD1    C1 2942   0.000   0.295  15.914 -0.6621 -0.0539  0.3994
  190MPD1    C2 2943   0.142   0.271  15.920 -0.0043  0.1320 -0.5024
  190MPD1    C3 2944   0.214   0.272  15.809  0.6230  0.5689  0.3852
  190MPD1    C4 2945   0.154   0.300  15.684  0.6590  0.0412 -0.0824
  190MPD1    C5 2946   0.022   0.328  15.679  0.2776 -0.3278 -0.0903
  190MPD1     H 2947   0.190   0.255  16.016  0.3259 -1.0793 -0.8749
  190MPD1    H1 2948   0.206   0.312  15.589 -0.5440  1.2407 -0.5893
  190MPD1    H2 2949   4.587   0.364  15.777 -0.4215  0.2011  1.9663
  190MPD1    H3 2950   4.700   0.347  15.594  1.6796  1.0890 -0.8322
  190MPD1     N 2951   0.351   0.250  15.824 -0.2326  0.1781 -0.3437
  190MPD1    H5 2952   0.379   0.264  15.921 -0.6600 -1.2258 -0.0116
  190MPD1    N1 2953   4.666   0.297  16.032  0.5740 -0.3687 -0.6332
  190MPD1    H6 2954   4.709   0.257  16.115  1.1983  1.1108 -0.2451
  190MPD1    H7 2955   4.567   0.274  16.024  0.3590 -0.4422  2.3146
  191MPD1     C 2956   3.540   0.992  13.068  0.0244 -0.2165 -0.4561
  191MPD1    C1 2957   3.432   1.073  13.116 -0.2405 -0.0186 -0.0970
  191MPD1    C2 2958   3.457   1.206  13.158 -0.2146 -0.7076  0.3688
  191MPD1    C3 2959   3.585   1.259  13.139 -0.1291 -0.0553 -0.5488
  191MPD1    C4 2960   3.689   1.177  13.101  0.1380 -0.4674  0.2391
  191MPD1    C5 2961   3.666   1.044  13.076 -0.2993  0.0852  0.1394
  191MPD1     H 2962   3.374   1.269  13.187 -1.3678 -2.0910  0.0562
  191MPD1    H1 2963   3.785   1.226  13.092 -0.0778 -0.4166 -1.7348
  191MPD1    H2 2964   3.529   0.891  13.031  0.0050  0.3537 -1.9907
  191MPD1    H3 2965   3.757   0.994  13.042  0.1921  0.7799  0.4311
  191MPD1     N 2966   3.613   1.392  13.158 -0.0309 -0.5776  0.1050
  191MPD1    H5 2967   3.705   1.435  13.148  0.1321 -0.2709  2.9665
  191MPD1    N1 2968   3.313   1.012  13.143  0.6923 -0.2438  0.2534
  191MPD1    H6 2969   3.230   1.072  13.147  0.7915  0.0141 -1.4178
  191MPD1    H7 2970   3.291   0.940  13.074  0.3438  0.1469 -0.0477
  192MPD1     C 2971   2.933   2.208  13.159 -0.1276 -0.5628  0.5651
  192MPD1    C1 2972   2.989   2.148  13.274  0.1968  0.4216  0.3405
  192MPD1    C2 2973   3.088   2.057  13.266 -0.0262 -0.0506 -0.2331
  192MPD1    C3 2974   3.157   2.049  13.143 -0.8633 -0.2029 -0.6037
  192MPD1    C4 2975   3.106   2.113  13.037 -0.7744  0.3985 -0.5504
  192MPD1    C5 2976   2.992   2.192  13.041 -0.3535 -0.4406 -0.3366
  192MPD1     H 2977   3.122   2.010  13.357  0.4223  1.0258  0.1632
  192MPD1    H1 2978   3.150   2.094  12.940 -0.5445  1.7209 -0.6990
  192MPD1    H2 2979   2.849   2.276  13.167 -0.6465 -1.0293 -0.8962
  192MPD1    H3 2980   2.947   2.226  12.948  0.7129 -1.9143 -1.3902
  192MPD1     N 2981   3.273   1.967  13.123 -0.4985 -0.2318  0.7586
  192MPD1    H5 2982   3.295   1.945  13.026  2.0882  1.2487  0.9993
  192MPD1    N1 2983   2.921   2.164  13.396  0.0499 -0.2274  0.6430
  192MPD1    H6 2984   2.877   2.256  13.406  0.7327  0.1165  0.4796
  192MPD1    H7 2985   2.969   2.134  13.480  0.8398  0.9588  0.6164
  193MPD1     C 2986   3.641   2.102  15.790 -0.1197 -0.8196 -0.2394
  193MPD1    C1 2987   3.612   2.232  15.843 -0.1814  0.1354 -0.4349
  193MPD1    C2 2988   3.674   2.268  15.965  0.4201  0.6820 -0.4751
  193MPD1    C3 2989   3.762   2.177  16.024  1.1980 -0.2234  0.2336
  193MPD1    C4 2990   3.783   2.051  15.981 -0.8095 -0.1134  0.1015
  193MPD1    C5 2991   3.723   2.016  15.863 -0.5981  0.0352  0.1113
  193MPD1     H 2992   3.645   2.364  16.005 -0.0165  0.3253  0.0689
  193MPD1    H1 2993   3.845   1.980  16.035 -0.2694  0.7039  0.5553
  193MPD1    H2 2994   3.586   2.066  15.703 -1.5003  0.6386  0.0285
  193MPD1    H3 2995   3.734   1.913  15.830  0.4833 -0.1375  1.0318
  193MPD1     N 2996   3.822   2.205  16.152  0.2768  0.0215 -0.8282
  193MPD1    H5 2997   3.877   2.129  16.192 -0.9659  0.2036  1.2370
  193MPD1    N1 2998   3.519   2.312  15.780 -0.1754  0.1920 -0.2875
  193MPD1    H6 2999   3.534   2.413  15.782  2.3695 -0.1772 -1.3823
  193MPD1    H7 3000   3.503   2.285  15.683 -0.4412  0.1410 -0.2291
  194MPD1     C 3001   1.732   4.609  16.848  0.2176  0.5077 -0.2093
  194MPD1    C1 3002   1.780   4.596  16.980 -0.1300 -0.0454 -0.3268
  194MPD1    C2 3003   1.888   4.514  16.999  0.1793 -0.1379 -0.9613
  194MPD1    C3 3004   1.942   4.437  16.894  0.1230 -0.4790 -0.2036
  194MPD1    C4 3005   1.889   4.454  16.770  0.8772 -1.4541  0.0754
  194MPD1    C5 3006   1.785   4.540  16.743  0.0034 -0.4039 -0.0823
  194MPD1     H 3007   1.923   4.497  17.100  0.7253 -2.9012 -1.6118
  194MPD1    H1 3008   1.927   4.409  16.678  1.6571  1.1946 -0.8866
  194MPD1    H2 3009   1.648   4.676  16.831 -1.8391 -2.7092 -2.7765
  194MPD1    H3 3010   1.750   4.538  16.641  0.7353  0.6921 -0.3475
  194MPD1     N 3011   2.048   4.342  16.909 -0.1671  0.1245 -0.5002
  194MPD1    H5 3012   2.074   4.291  16.826  1.3399  0.1161 -0.0073
  194MPD1    N1 3013   1.758   4.704  17.072 -0.0895  0.4299 -0.8015
  194MPD1    H6 3014   1.773   4.687  17.171 -1.9615 -1.5726 -0.8415
  194MPD1    H7 3015   1.666   0.000  17.055  0.0163  0.3450 -1.5449
  195MPD1     C 3016   4.122   1.578   0.365 -0.1741  0.1860 -0.1535
  195MPD1    C1 3017   4.237   1.512   0.402  0.0918  0.0546  0.4558
  195MPD1    C2 3018   4.240   1.394   0.474  0.4612 -0.0658  0.2308
  195MPD1    C3 3019   4.115   1.336   0.492  0.1431  0.1348 -0.1806
  195MPD1    C4 3020   4.005   1.397   0.440 -0.2579 -0.1215 -0.7414
  195MPD1    C5 3021   4.003   1.525   0.397 -0.2668 -0.1446 -0.5253
  195MPD1     H 3022   4.334   1.343   0.489 -0.9567 -2.0807  2.1972
  195MPD1    H1 3023   3.909   1.351   0.461 -1.2156  1.8227 -0.9215
  195MPD1    H2 3024   4.122   1.670   0.309  0.3919  0.2313 -0.0793
  195MPD1    H3 3025   3.909   1.572   0.372  0.0928  0.5791 -0.5289
  195MPD1     N 3026   4.094   1.212   0.544 -0.1247  0.2352  0.8705
  195MPD1    H5 3027   4.008   1.162   0.526 -0.2945  0.9812 -0.3778
  195MPD1    N1 3028   4.362   1.574   0.370 -0.0756 -0.3715  0.2711
  195MPD1    H6 3029   4.355   1.676   0.373  1.1684 -0.3316  1.8589
  195MPD1    H7 3030   4.437   1.528   0.422 -0.1737 -1.1781 -0.3140
  196MPD1     C 3031   3.106   4.738   0.364  0.5203  0.2272  0.1401
  196MPD1    C1 3032   3.112   0.129   0.320  0.3768  0.2668  0.6320
  196MPD1    C2 3033   3.184   0.214   0.401  0.2094  0.1927  0.6905
  196MPD1    C3 3034   3.218   0.185   0.533 -0.1704  0.5044 -0.2009
  196MPD1    C4 3035   3.192   0.061   0.586  0.4032 -0.4746 -0.5107
  196MPD1    C5 3036   3.146   4.706   0.494 -1.1298 -0.5385 -0.2905
  196MPD1     H 3037   3.206   0.310   0.357  0.5470 -0.6317 -0.9700
  196MPD1    H1 3038   3.229   0.030   0.683  1.0532  0.2438 -0.5285
  196MPD1    H2 3039   3.072   4.654   0.305 -1.7811  0.6449  0.8519
  196MPD1    H3 3040   3.133   4.604   0.528 -1.5466 -1.1071 -2.1590
  196MPD1     N 3041   3.295   0.273   0.612 -0.4083  0.5027 -0.0023
  196MPD1    H5 3042   3.324   0.232   0.700  0.8965  0.4426 -0.4749
  196MPD1    N1 3043   3.099   0.161   0.181 -0.6258  0.2805  0.0366
  196MPD1    H6 3044   3.029   0.105   0.133 -0.7514  0.1519  0.3700
  196MPD1    H7 3045   3.076   0.257   0.155  0.5493  0.4771 -0.2864
  197MPD1     C 3046   2.831   2.147  17.438  0.3665  0.5296 -0.1695
  197MPD1    C1 3047   2.893   2.259  17.482 -0.2095  0.2371 -0.6151
  197MPD1    C2 3048   2.930   2.363  17.399  0.3456 -0.1234  0.6583
  197MPD1    C3 3049   2.885   2.366  17.263  0.3566  0.1702  0.2469
  197MPD1    C4 3050   2.813   2.260  17.216 -0.2200  0.2119 -0.2956
  197MPD1    C5 3051   2.786   2.157  17.307  0.0165  0.3821 -0.2274
  197MPD1     H 3052   2.987   2.446  17.438 -1.1784  1.8409 -1.2789
  197MPD1    H1 3053   2.780   2.265  17.113  0.1769  0.9508 -0.3863
  197MPD1    H2 3054   2.810   2.056  17.493  0.1330  0.9543  0.4387
  197MPD1    H3 3055   2.726   2.072  17.278 -1.3407  2.1848 -2.7046
  197MPD1     N 3056   2.916   2.464  17.169 -0.1013  0.6694 -0.1715
  197MPD1    H5 3057   2.898   2.448  17.071 -0.1189  0.9141 -0.2074
  197MPD1    N1 3058   2.916   2.271  17.624  0.2556 -0.1677 -0.1673
  197MPD1    H6 3059   3.000   2.325  17.642  1.0269 -0.8634 -1.7007
  197MPD1    H7 3060   2.933   2.176  17.658  2.9918 -0.5007 -2.4295
  198MPD1     C 3061   4.547   0.794  15.297  0.3864 -0.5063  0.0265
  198MPD1    C1 3062   4.603   0.826  15.415 -0.5225 -0.8350 -0.5452
  198MPD1    C2 3063   4.635   0.964  15.431 -0.3082 -0.3334 -0.1694
  198MPD1    C3 3064   4.601   1.064  15.341  0.4831  0.9268 -0.2324
  198MPD1    C4 3065   4.548   1.018  15.222 -0.3597 -0.1117 -0.6681
  198MPD1    C5 3066   4.533   0.887  15.195  0.7336  0.5571  0.2573
  198MPD1     H 3067   4.670   0.985  15.532 -0.8699  0.1463 -0.0745
  198MPD1    H1 3068   4.530   1.079  15.134 -1.3223 -1.5280 -1.4548
  198MPD1    H2 3069   4.532   0.688  15.284 -1.1432 -0.5082  1.7747
  198MPD1    H3 3070   4.486   0.866  15.099 -0.6926 -0.2083  1.1223
  198MPD1     N 3071   4.628   1.201  15.367  0.0363  0.7915  0.0996
  198MPD1    H5 3072   4.686   1.222  15.447  1.0941  0.2073 -0.5083
  198MPD1    N1 3073   4.658   0.726  15.495 -0.0602 -0.3455 -0.5075
  198MPD1    H6 3074   4.612   0.639  15.468 -0.0681 -0.2924 -0.6695
  198MPD1    H7 3075   4.647   0.752  15.592  0.7513 -2.6686  0.2105
  199MPD1     C 3076   1.998   2.875  10.481 -0.0631 -0.5868 -0.1370
  199MPD1    C1 3077   1.902   2.968  10.463  0.5099 -0.4026 -0.1544
  199MPD1    C2 3078   1.777   2.934  10.436 -0.2741 -0.0587 -0.3223
  199MPD1    C3 3079   1.750   2.797  10.422 -0.0799  0.3743 -0.4166
  199MPD1    C4 3080   1.855   2.706  10.427 -0.3685 -0.2933  1.3299
  199MPD1    C5 3081   1.982   2.747  10.445  0.2351  0.8483  0.7120
  199MPD1     H 3082   1.699   3.005  10.408  1.2509  0.4879 -3.2189
  199MPD1    H1 3083   1.840   2.600  10.409  0.5951 -0.3903  1.0537
  199MPD1    H2 3084   2.092   2.900  10.527  0.1125 -3.8119  1.1829
  199MPD1    H3 3085   2.053   2.671  10.477  0.0311  0.1525 -0.4699
  199MPD1     N 3086   1.619   2.746  10.393  0.8414 -0.6949 -0.0886
  199MPD1    H5 3087   1.613   2.647  10.372 -0.2062 -0.6840  0.1605
  199MPD1    N1 3088   1.938   3.101  10.464  0.3910 -0.4354  0.4077
  199MPD1    H6 3089   2.016   3.122  10.526  1.6191 -1.8084 -0.6534
  199MPD1    H7 3090   1.861   3.158  10.499  0.9109  0.6544 -0.2243
  200MPD1     C 3091   0.698   2.188  14.797  0.5819  0.2427  0.3071
  200MPD1    C1 3092   0.709   2.104  14.684 -0.6081  0.3694 -0.4165
  200MPD1    C2 3093   0.835   2.104  14.620 -0.7596  0.0338 -0.3015
  200MPD1    C3 3094   0.932   2.202  14.636 -0.5824 -0.4416  0.1795
  200MPD1    C4 3095   0.913   2.303  14.728  0.2217 -0.0065  0.5814
  200MPD1    C5 3096   0.796   2.290  14.805 -0.3410 -0.1334 -0.4544
  200MPD1     H 3097   0.851   2.028  14.545  0.5091  0.9479 -0.9515
  200MPD1    H1 3098   0.974   2.392  14.737  0.3690 -0.1790  1.2600
  200MPD1    H2 3099   0.617   2.192  14.869  0.5839  0.3177  0.3056
  200MPD1    H3 3100   0.779   2.364  14.882 -0.2478 -1.4452  0.8191
  200MPD1     N 3101   1.053   2.200  14.561  0.3368 -0.0340 -0.0331
  200MPD1    H5 3102   1.059   2.132  14.485 -4.8681 -0.3536 -0.1515
  200MPD1    N1 3103   0.608   2.008  14.651  0.2513 -0.2781 -0.4030
  200MPD1    H6 3104   0.524   2.049  14.692  1.5211  3.1550 -1.2234
  200MPD1    H7 3105   0.601   1.986  14.552  0.6657 -0.0414 -0.4858
  201MPD1     C 3106   2.560   1.226  13.194  0.5935  0.7835 -0.7600
  201MPD1    C1 3107   2.513   1.096  13.179 -0.6690 -0.5546  0.4320
  201MPD1    C2 3108   2.609   0.993  13.188 -0.5826  0.0099  0.8359
  201MPD1    C3 3109   2.740   1.021  13.204  0.5913  0.4885 -0.3819
  201MPD1    C4 3110   2.784   1.153  13.184 -0.0353 -0.4334  0.0429
  201MPD1    C5 3111   2.690   1.253  13.198 -0.5839 -0.3468 -0.6917
  201MPD1     H 3112   2.584   0.889  13.174 -0.6190 -0.0456  1.3051
  201MPD1    H1 3113   2.887   1.183  13.199  0.5919 -1.5820 -1.8722
  201MPD1    H2 3114   2.495   1.312  13.181 -0.2811  0.3729  0.9024
  201MPD1    H3 3115   2.722   1.357  13.196 -1.7625  0.0441  0.9489
  201MPD1     N 3116   2.829   0.914  13.230  0.1654  0.0662 -0.0915
  201MPD1    H5 3117   2.786   0.828  13.262  0.0563  0.3420  0.5001
  201MPD1    N1 3118   2.379   1.059  13.187  0.1917  0.2608 -0.0848
  201MPD1    H6 3119   2.348   0.989  13.119  1.7497  0.8631 -1.4201
  201MPD1    H7 3120   2.319   1.138  13.164 -0.9329 -1.4164 -2.9482
  202MPD1     C 3121   2.100   0.851   8.654  0.5981 -0.0549 -0.1800
  202MPD1    C1 3122   2.175   0.745   8.697 -0.8514 -0.1510  0.1044
  202MPD1    C2 3123   2.260   0.775   8.804  0.5882  0.6722 -0.6866
  202MPD1    C3 3124   2.241   0.877   8.891 -0.4392  0.1606  0.2999
  202MPD1    C4 3125   2.144   0.972   8.863  0.2920  0.4849  0.1333
  202MPD1    C5 3126   2.073   0.956   8.745 -0.2248  0.4556 -0.6463
  202MPD1     H 3127   2.339   0.706   8.831  0.5301  1.6218  1.9525
  202MPD1    H1 3128   2.131   1.063   8.921  1.4667  0.1842  0.8865
  202MPD1    H2 3129   2.048   0.844   8.560 -1.4435  2.4898  0.7365
  202MPD1    H3 3130   2.025   1.050   8.722 -1.2302 -0.3508 -1.8810
  202MPD1     N 3131   2.314   0.889   9.015 -0.4330  0.0842 -0.8183
  202MPD1    H5 3132   2.288   0.961   9.082 -0.2102 -0.9859  0.4142
  202MPD1    N1 3133   2.225   0.657   8.598  0.2835  0.3137 -0.1780
  202MPD1    H6 3134   2.150   0.634   8.534  0.7084 -1.5256 -0.0351
  202MPD1    H7 3135   2.276   0.573   8.629  1.4340  0.1978 -2.4037
  203MPD1     C 3136   1.292   1.434  12.807 -0.1647  0.1151  0.4478
  203MPD1    C1 3137   1.396   1.454  12.893  0.0401  0.2875  0.0732
  203MPD1    C2 3138   1.498   1.358  12.889  0.5982 -0.5537  0.4468
  203MPD1    C3 3139   1.497   1.253  12.796  0.2562 -0.0605  0.7853
  203MPD1    C4 3140   1.392   1.238  12.703  0.2696  0.6523  0.4670
  203MPD1    C5 3141   1.290   1.333  12.717 -0.0695  0.1794 -0.6993
  203MPD1     H 3142   1.583   1.373  12.955  0.0318  1.7581  0.6571
  203MPD1    H1 3143   1.383   1.164  12.625  3.1827  1.6650 -0.8230
  203MPD1    H2 3144   1.215   1.510  12.811  1.5374  1.8461  0.4250
  203MPD1    H3 3145   1.210   1.334  12.644 -0.1378  0.2643 -0.6229
  203MPD1     N 3146   1.612   1.170  12.784 -0.0556 -0.2997 -0.4487
  203MPD1    H5 3147   1.685   1.190  12.851 -1.3502  1.7287  0.3534
  203MPD1    N1 3148   1.383   1.548  12.996 -0.0622 -0.5492 -0.3405
  203MPD1    H6 3149   1.333   1.630  12.961  1.3549  1.0377  1.3522
  203MPD1    H7 3150   1.475   1.583  13.022 -1.2124 -0.0666  3.0975
  204MPD1     C 3151   1.664   3.198  17.643  0.0332  0.7474 -0.7254
  204MPD1    C1 3152   1.782   3.182  17.581  0.5080  0.4979 -0.0436
  204MPD1    C2 3153   1.821   3.052  17.555 -0.0453  0.2792 -0.0927
  204MPD1    C3 3154   1.741   2.942  17.573 -0.0259  0.0529 -0.2665
  204MPD1    C4 3155   1.624   2.962  17.637  0.9109  0.5510 -0.2492
  204MPD1    C5 3156   1.583   3.092  17.666 -0.2978 -0.0882  0.4324
  204MPD1     H 3157   1.904   3.025  17.491 -0.5596 -0.1222 -0.5888
  204MPD1    H1 3158   1.546   2.888  17.650  2.8774 -1.3184  0.8439
  204MPD1    H2 3159   1.633   3.299  17.667  0.6748  0.1323  2.6790
  204MPD1    H3 3160   1.478   3.108  17.691 -0.0266  0.9136  0.9372
  204MPD1     N 3161   1.795   2.814  17.536 -0.4327 -0.7317  0.7638
  204MPD1    H5 3162   1.891   2.818  17.502 -0.9784  0.2962 -0.6273
  204MPD1    N1 3163   1.886   3.279  17.580 -0.2481  0.4606  0.0549
  204MPD1    H6 3164   1.854   3.375  17.567 -0.7668  0.3198  0.2777
  204MPD1    H7 3165   1.954   3.267  17.505 -0.4956 -1.0364  0.0722
  205MPD1     C 3166   1.692   1.068  16.905 -0.1407  1.0107 -0.3195
  205MPD1    C1 3167   1.792   1.161  16.930  0.9095  0.6995  0.4530
  205MPD1    C2 3168   1.780   1.230  17.055  0.2155 -0.3318  0.1999
  205MPD1    C3 3169   1.698   1.185  17.158  0.7914  0.3699 -1.0121
  205MPD1    C4 3170   1.616   1.077  17.127  0.4774 -0.3044 -0.1054
  205MPD1    C5 3171   1.604   1.026  17.001  0.5940 -0.7348  0.2474
  205MPD1     H 3172   1.844   1.316  17.073  1.2909 -1.4880  1.7836
  205MPD1    H1 3173   1.561   1.033  17.209  0.0980  0.0579 -0.1678
  205MPD1    H2 3174   1.680   1.030  16.804  1.2778 -1.2044  0.3548
  205MPD1    H3 3175   1.533   0.946  16.982 -1.5905  1.7031 -1.8895
  205MPD1     N 3176   1.715   1.228  17.289  0.4724 -0.0770 -0.1670
  205MPD1    H5 3177   1.634   1.210  17.348  0.4789 -0.7299 -0.3573
  205MPD1    N1 3178   1.853   1.227  16.822 -0.3066 -0.2519 -0.1121
  205MPD1    H6 3179   1.865   1.167  16.741 -0.3468  0.3423 -0.5615
  205MPD1    H7 3180   1.943   1.272  16.838 -1.2492  2.2244 -1.8501
  206MPD1     C 3181   2.636   4.599  17.178  1.1007 -0.1131  0.2917
  206MPD1    C1 3182   2.619   4.474  17.121  0.3065  0.5066  0.4812
  206MPD1    C2 3183   2.534   4.467  17.009 -0.2337  0.0652  0.2067
  206MPD1    C3 3184   2.468   4.581  16.964 -0.5315 -0.3715 -0.4061
  206MPD1    C4 3185   2.483   4.702  17.033  0.0445 -0.4045  0.0565
  206MPD1    C5 3186   2.560   4.704  17.143 -0.5374  0.3311 -0.0142
  206MPD1     H 3187   2.522   4.373  16.957 -2.3167  0.7532 -0.5607
  206MPD1    H1 3188   2.413   0.040  17.017  2.0218  0.8597 -2.0509
  206MPD1    H2 3189   2.713   4.606  17.253  1.4278 -0.8052  0.0167
  206MPD1    H3 3190   2.573   0.058  17.190  0.7632  2.4311 -4.6707
  206MPD1     N 3191   2.376   4.586  16.857 -0.2772 -0.8636  0.2952
  206MPD1    H5 3192   2.350   4.679  16.828  2.8307 -0.5475 -1.5906
  206MPD1    N1 3193   2.708   4.374  17.158 -0.2562  0.1183 -0.2454
  206MPD1    H6 3194   2.674   4.281  17.137  0.3386  0.0718 -0.9980
  206MPD1    H7 3195   2.733   4.393  17.255  0.6563  2.5669 -0.9504
  207MPD1     C 3196   3.582   1.697  10.471 -0.6042 -0.2081  0.6626
  207MPD1    C1 3197   3.576   1.764  10.343 -0.5320  0.0277 -0.4952
  207MPD1    C2 3198   3.596   1.902  10.337 -0.0393  0.0033 -0.6382
  207MPD1    C3 3199   3.589   1.978  10.454  0.2336 -0.1210  0.6192
  207MPD1    C4 3200   3.581   1.913  10.578 -0.2956  0.1053  0.1271
  207MPD1    C5 3201   3.589   1.775  10.585  0.4553  0.9617 -0.0710
  207MPD1     H 3202   3.600   1.941  10.235 -0.1467  0.7981 -0.3401
  207MPD1    H1 3203   3.592   1.967  10.671 -1.5069  2.2878 -1.0026
  207MPD1    H2 3204   3.576   1.590  10.487 -1.3622  0.1757  2.8681
  207MPD1    H3 3205   3.570   1.731  10.682  0.0969  0.6686 -0.2748
  207MPD1     N 3206   3.584   2.121  10.462 -0.5147 -0.0152 -0.2278
  207MPD1    H5 3207   3.571   2.162  10.554  0.9567 -1.0162  0.4215
  207MPD1    N1 3208   3.585   1.688  10.232  0.1317  0.5488  0.3074
  207MPD1    H6 3209   3.562   1.731  10.143  0.7841  1.4335  0.5697
  207MPD1    H7 3210   3.540   1.597  10.241  1.6586 -0.0301  2.2011
  208MPD1     C 3211   1.095   4.566   0.209  0.2301  0.5828  0.5020
  208MPD1    C1 3212   1.051   4.695   0.217  0.5657  0.0074 -0.0787
  208MPD1    C2 3213   1.151   0.052   0.222  0.8977  0.3281 -0.2402
  208MPD1    C3 3214   1.282   0.020   0.249 -0.0456  0.9116  0.1063
  208MPD1    C4 3215   1.319   4.633   0.254  0.2436 -0.1717 -0.0454
  208MPD1    C5 3216   1.232   4.537   0.215  0.1792 -0.0322  0.0230
  208MPD1     H 3217   1.121   0.156   0.221  0.9741  0.3512 -0.1292
  208MPD1    H1 3218   1.421   4.595   0.257  0.4234  0.4399  1.3124
  208MPD1    H2 3219   1.024   4.486   0.192  0.3486  1.1199 -2.4505
  208MPD1    H3 3220   1.266   4.434   0.209  2.4575  0.5849  2.4321
  208MPD1     N 3221   1.365   0.126   0.264  0.0265  0.6679 -0.0706
  208MPD1    H5 3222   1.324   0.216   0.243 -2.7765 -0.4730  0.3648
  208MPD1    N1 3223   0.913   4.726   0.176  0.2742  0.1128 -0.2076
  208MPD1    H6 3224   0.873   0.069   0.212  0.6857  0.0481  0.3875
  208MPD1    H7 3225   0.847   4.653   0.201  0.3257  0.0404 -0.2813
  209MPD1     C 3226   3.592   1.891  11.592  0.7406 -0.2327  0.2176
  209MPD1    C1 3227   3.582   1.929  11.460 -0.7098  0.0098 -1.3332
  209MPD1    C2 3228   3.548   2.057  11.435 -0.1297  0.0834  0.5150
  209MPD1    C3 3229   3.510   2.150  11.534  0.2543 -0.2465  0.1432
  209MPD1    C4 3230   3.494   2.103  11.662 -0.0579 -0.0778  0.0843
  209MPD1    C5 3231   3.536   1.977  11.682  0.4002  0.8427  0.3092
  209MPD1     H 3232   3.563   2.093  11.334  3.3871 -0.4663  0.8321
  209MPD1    H1 3233   3.448   2.167  11.736  0.5056  2.1050 -1.4271
  209MPD1    H2 3234   3.623   1.792  11.623 -1.3416 -1.5910 -1.9419
  209MPD1    H3 3235   3.528   1.937  11.782  0.5663  1.1903  0.4632
  209MPD1     N 3236   3.487   2.279  11.488  0.5332 -0.3196  0.5686
  209MPD1    H5 3237   3.506   2.299  11.391  0.4385 -0.1771  0.5786
  209MPD1    N1 3238   3.634   1.840  11.368 -0.4612 -0.2461 -0.2059
  209MPD1    H6 3239   3.621   1.742  11.395  2.2729  0.5212  3.9151
  209MPD1    H7 3240   3.606   1.848  11.270 -1.7802  1.7744  0.3490
  210MPD1     C 3241   2.974   3.262  11.595 -0.4168  0.1797  0.3941
  210MPD1    C1 3242   2.967   3.147  11.668 -0.7298 -0.1305  0.1272
  210MPD1    C2 3243   3.059   3.045  11.642 -0.0650  0.3243  0.1936
  210MPD1    C3 3244   3.164   3.057  11.553  0.2340 -0.1806  0.1452
  210MPD1    C4 3245   3.177   3.174  11.485  0.2382  0.0123 -0.7775
  210MPD1    C5 3246   3.077   3.272  11.505 -0.3025 -0.2014  0.0934
  210MPD1     H 3247   3.044   2.951  11.694 -0.5773  0.4767  0.3146
  210MPD1    H1 3248   3.267   3.188  11.427 -1.7393  0.6441 -3.6791
  210MPD1    H2 3249   2.905   3.345  11.602 -1.1460 -0.3010 -1.3452
  210MPD1    H3 3250   3.096   3.366  11.455 -0.8489 -0.2010 -0.1162
  210MPD1     N 3251   3.258   2.953  11.531 -0.7973 -0.2024 -0.7531
  210MPD1    H5 3252   3.331   2.981  11.466 -0.4737  2.1141  0.5651
  210MPD1    N1 3253   2.856   3.123  11.761  0.5626  0.1712 -0.1604
  210MPD1    H6 3254   2.862   3.027  11.793  2.2814  1.0009  1.9424
  210MPD1    H7 3255   2.774   3.113  11.701  1.0681  1.2071 -1.0256
  211MPD1     C 3256   2.082   1.103  15.939 -0.0116 -0.6434 -0.0957
  211MPD1    C1 3257   2.063   1.161  16.061 -0.3732 -0.7327  0.5156
  211MPD1    C2 3258   2.031   1.300  16.073  0.1290 -0.7002  0.0797
  211MPD1    C3 3259   2.045   1.385  15.965 -0.5661  0.4322 -0.0552
  211MPD1    C4 3260   2.081   1.323  15.850  0.1956 -0.6283 -0.2076
  211MPD1    C5 3261   2.100   1.187  15.836  0.0411 -0.1305 -0.4706
  211MPD1     H 3262   1.998   1.336  16.170  0.3413 -0.1893 -0.0347
  211MPD1    H1 3263   2.079   1.386  15.762 -1.3997 -0.4874 -0.0784
  211MPD1    H2 3264   2.108   0.998  15.932  1.3258 -0.3007 -0.2910
  211MPD1    H3 3265   2.131   1.131  15.748  0.8943  1.2178 -1.0155
  211MPD1     N 3266   1.998   1.517  15.980 -0.0943 -0.0393 -0.0548
  211MPD1    H5 3267   1.956   1.535  16.070 -3.2050 -0.8496 -1.3246
  211MPD1    N1 3268   2.064   1.081  16.176 -0.3757 -0.7773 -0.1777
  211MPD1    H6 3269   2.121   1.001  16.147 -0.8205 -1.6815  1.3849
  211MPD1    H7 3270   2.121   1.125  16.248  0.9566 -0.7926 -1.2168
  212MPD1     C 3271   1.654   4.702  16.432 -0.5098 -0.0121 -0.3198
  212MPD1    C1 3272   1.589   0.008  16.543 -0.3019 -0.2854  0.7204
  212MPD1    C2 3273   1.512   4.658  16.607 -0.0343  0.1923 -1.3681
  212MPD1    C3 3274   1.496   4.528  16.565  0.6552  0.4026 -0.2179
  212MPD1    C4 3275   1.566   4.486  16.453  0.1018  0.5244 -0.4714
  212MPD1    C5 3276   1.645   4.573  16.383 -0.2304  0.8011  0.4004
  212MPD1     H 3277   1.467   4.698  16.697 -0.1686 -0.8910 -0.9652
  212MPD1    H1 3278   1.554   4.383  16.422  3.5911 -0.5678  1.7644
  212MPD1    H2 3279   1.712   0.023  16.367 -1.0584  0.9429  0.1294
  212MPD1    H3 3280   1.695   4.538  16.294  0.0483 -3.5299  2.2267
  212MPD1     N 3281   1.416   4.434  16.632 -0.2239  0.1387  0.6723
  212MPD1    H5 3282   1.409   4.342  16.591 -2.9591  1.3475 -1.5955
  212MPD1    N1 3283   1.592   0.145  16.578 -0.0173  0.2062  0.3015
  212MPD1    H6 3284   1.663   0.199  16.529  0.9830  1.1517  2.7934
  212MPD1    H7 3285   1.607   0.166  16.677  0.5434  0.9849  0.0495
  213MPD1     C 3286   4.451   0.813  16.103  0.3728  0.4183  0.1627
  213MPD1    C1 3287   4.477   0.686  16.059 -0.3799 -0.7540  0.0527
  213MPD1    C2 3288   4.393   0.652  15.947  0.3288 -0.3823 -0.3772
  213MPD1    C3 3289   4.336   0.755  15.873 -0.1267 -0.5451  0.3734
  213MPD1    C4 3290   4.330   0.888  15.907 -0.7405  0.1488  0.1909
  213MPD1    C5 3291   4.396   0.911  16.026 -0.7349  0.1615 -0.2320
  213MPD1     H 3292   4.394   0.549  15.911  0.5185 -0.5845  0.1993
  213MPD1    H1 3293   4.279   0.970  15.858 -1.7359 -0.6137 -0.0572
  213MPD1    H2 3294   4.510   0.852  16.186 -0.9164  3.1271 -0.2087
  213MPD1    H3 3295   4.390   1.005  16.078  0.0469 -0.0445  0.2219
  213MPD1     N 3296   4.276   0.706  15.754  0.0707  0.1171 -0.4489
  213MPD1    H5 3297   4.269   0.606  15.736  0.9483 -0.0118 -0.0803
  213MPD1    N1 3298   4.514   0.586  16.150  0.5520 -0.3248  0.2424
  213MPD1    H6 3299   4.579   0.617  16.221  1.4971 -0.9583 -0.3527
  213MPD1    H7 3300   4.546   0.508  16.093 -0.5155 -0.0355 -0.7724
  214MPD1     C 3301   3.345   0.395  15.496  0.2820 -0.7766 -0.7481
  214MPD1    C1 3302   3.420   0.390  15.608  0.7446  0.1743  0.0704
  214MPD1    C2 3303   3.559   0.397  15.605 -0.3362 -0.6406  0.4825
  214MPD1    C3 3304   3.624   0.420  15.481  1.1338  0.2249  0.3865
  214MPD1    C4 3305   3.541   0.429  15.369  0.4203  0.6013 -0.8632
  214MPD1    C5 3306   3.406   0.421  15.377 -0.7948  0.0990 -0.4456
  214MPD1     H 3307   3.612   0.379  15.698 -0.3466  0.9860  0.8066
  214MPD1    H1 3308   3.575   0.434  15.267  2.3025  1.5780 -0.1795
  214MPD1    H2 3309   3.237   0.390  15.498  0.3993 -1.5492  3.2217
  214MPD1    H3 3310   3.352   0.425  15.283 -2.4243  1.1358  0.5255
  214MPD1     N 3311   3.763   0.459  15.459  0.6428  0.3920  0.2846
  214MPD1    H5 3312   3.796   0.473  15.365  1.7397  1.9825  0.9189
  214MPD1    N1 3313   3.355   0.351  15.726 -0.6451 -0.6763  0.4064
  214MPD1    H6 3314   3.266   0.399  15.726  0.5177  1.4805  1.6000
  214MPD1    H7 3315   3.407   0.381  15.808 -0.5486 -3.2535  1.2834
  215MPD1     C 3316   4.219   0.480  10.748  0.1031  0.3692  0.0248
  215MPD1    C1 3317   4.216   0.462  10.888  0.0299  0.0336  0.8934
  215MPD1    C2 3318   4.131   0.544  10.958  0.5863  0.3242 -0.6959
  215MPD1    C3 3319   4.056   0.640  10.897 -0.5134 -0.2763 -0.7033
  215MPD1    C4 3320   4.067   0.654  10.754 -0.5741 -0.1743  0.2421
  215MPD1    C5 3321   4.151   0.577  10.684 -0.3719  0.7487  0.1210
  215MPD1     H 3322   4.118   0.537  11.065  0.8571  1.5592 -0.5819
  215MPD1    H1 3323   4.018   0.728  10.691 -2.5225 -0.9431  0.8401
  215MPD1    H2 3324   4.286   0.424  10.683 -0.1527 -0.5363  0.5455
  215MPD1    H3 3325   4.174   0.595  10.579 -0.6239 -0.7145 -0.1916
  215MPD1     N 3326   3.979   0.735  10.964  0.5628  0.4179 -0.4184
  215MPD1    H5 3327   3.956   0.713  11.061  2.3679 -0.8954 -0.2935
  215MPD1    N1 3328   4.281   0.357  10.950 -0.2868  0.2211  0.1870
  215MPD1    H6 3329   4.318   0.388  11.040  1.0322  0.8765 -0.5975
  215MPD1    H7 3330   4.361   0.326  10.896  0.1666 -0.7862  1.4586
  216MPD1     C 3331   1.704   4.164  16.418 -0.1606 -0.0476 -0.6339
  216MPD1    C1 3332   1.666   4.036  16.386 -0.0054 -0.8874  0.5308
  216MPD1    C2 3333   1.680   3.932  16.472 -0.1586  0.3219  0.2338
  216MPD1    C3 3334   1.714   3.948  16.606 -0.5161 -0.2806  0.6038
  216MPD1    C4 3335   1.743   4.078  16.647 -0.3405  0.5671  0.1893
  216MPD1    C5 3336   1.730   4.180  16.550  0.6040 -0.1657 -0.0190
  216MPD1     H 3337   1.643   3.834  16.445  2.8125 -0.7281 -0.0214
  216MPD1    H1 3338   1.797   4.101  16.738 -1.6714  3.1050  0.3406
  216MPD1    H2 3339   1.703   4.255  16.359 -1.8468  0.7568  0.6129
  216MPD1    H3 3340   1.754   4.279  16.585 -0.5434  1.1712 -3.0364
  216MPD1     N 3341   1.713   3.835  16.692 -0.2523  0.6031 -0.0477
  216MPD1    H5 3342   1.683   3.754  16.639 -1.1759  0.8585  0.0742
  216MPD1    N1 3343   1.629   4.008  16.255  0.8085 -0.3443  0.0381
  216MPD1    H6 3344   1.582   4.088  16.213  1.2800 -0.6569 -1.0754
  216MPD1    H7 3345   1.561   3.932  16.248 -1.9992  2.1676  0.2591
  217MPD1     C 3346   1.481   0.227   8.324  0.1409  0.1760  0.0591
  217MPD1    C1 3347   1.606   0.178   8.360  0.3521  0.4209 -0.3653
  217MPD1    C2 3348   1.683   0.264   8.434 -0.6945  0.1147  0.7242
  217MPD1    C3 3349   1.626   0.376   8.494  0.6932 -0.4958 -0.2037
  217MPD1    C4 3350   1.498   0.422   8.472 -0.2741 -0.3866  0.0764
  217MPD1    C5 3351   1.431   0.344   8.386 -0.2019 -0.3024 -0.4066
  217MPD1     H 3352   1.785   0.235   8.454 -0.8501 -2.5782 -2.4110
  217MPD1    H1 3353   1.457   0.508   8.524  0.8366  0.7295 -0.8823
  217MPD1    H2 3354   1.420   0.189   8.243  0.2810  0.3503 -0.1316
  217MPD1    H3 3355   1.330   0.371   8.354 -0.3361 -1.1983 -0.7215
  217MPD1     N 3356   1.699   0.442   8.592  0.0941 -0.2942 -0.3631
  217MPD1    H5 3357   1.647   0.500   8.656  1.4743  1.1020 -0.5000
  217MPD1    N1 3358   1.654   0.073   8.282 -0.4336 -0.2733 -0.7660
  217MPD1    H6 3359   1.579   0.011   8.252 -1.0936 -0.4452  1.2722
  217MPD1    H7 3360   1.731   0.025   8.327 -0.8852 -0.9625 -0.7358
  218MPD1     C 3361   3.010   1.006  12.921  0.5359  0.3499 -0.3599
  218MPD1    C1 3362   3.134   0.953  12.885 -0.1317  0.0800  0.0825
  218MPD1    C2 3363   3.227   1.034  12.834  0.1896  0.3383  0.4018
  218MPD1    C3 3364   3.209   1.162  12.802  0.1947 -0.1807 -0.4191
  218MPD1    C4 3365   3.091   1.220  12.838  0.3670 -0.1359 -0.1924
  218MPD1    C5 3366   2.990   1.140  12.894 -0.4590  0.2859  0.3442
  218MPD1     H 3367   3.320   0.987  12.806  1.1386  1.6171  1.4102
  218MPD1    H1 3368   3.072   1.326  12.832  0.2209 -0.1388  0.2079
  218MPD1    H2 3369   2.934   0.945  12.967  2.5677 -1.2764  0.8690
  218MPD1    H3 3370   2.900   1.193  12.923 -0.6547 -0.6848  1.5289
  218MPD1     N 3371   3.318   1.232  12.750  0.9232 -0.0260  0.1157
  218MPD1    H5 3372   3.397   1.174  12.727  0.5541 -0.4385 -0.0985
  218MPD1    N1 3373   3.182   0.827  12.929 -0.0676 -0.2074 -0.5018
  218MPD1    H6 3374   3.109   0.758  12.917  0.2309 -0.4440 -0.9597
  218MPD1    H7 3375   3.255   0.783  12.873  1.5351  0.5728  0.9671
  219MPD1     C 3376   3.553   1.671  11.914  0.2515  0.1047 -0.2026
  219MPD1    C1 3377   3.634   1.736  12.002  1.0216 -0.4483  0.0194
  219MPD1    C2 3378   3.636   1.692  12.134 -0.1088 -0.0457 -0.7456
  219MPD1    C3 3379   3.556   1.596  12.182 -0.6846  0.1811 -1.1225
  219MPD1    C4 3380   3.475   1.530  12.090 -0.1899  0.2543  0.0649
  219MPD1    C5 3381   3.468   1.570  11.960  0.3292  0.5690  0.3903
  219MPD1     H 3382   3.700   1.744  12.205 -0.9049 -0.3833  0.2142
  219MPD1    H1 3383   3.417   1.442  12.116  0.4318 -0.3063 -0.4555
  219MPD1    H2 3384   3.558   1.695  11.809 -2.4814 -1.1812 -0.6222
  219MPD1    H3 3385   3.402   1.517  11.892  0.3031 -0.1268  0.9586
  219MPD1     N 3386   3.562   1.544  12.313 -0.3125  0.1338 -0.2736
  219MPD1    H5 3387   3.503   1.462  12.329 -0.9183  0.3890 -1.1891
  219MPD1    N1 3388   3.742   1.811  11.961  0.4600  0.0443 -0.0816
  219MPD1    H6 3389   3.761   1.878  12.035 -2.0682 -0.2401  0.8134
  219MPD1    H7 3390   3.725   1.866  11.877 -0.4861 -3.0094 -1.8735
  220MPD1     C 3391   3.386   0.334  10.390  0.2105  0.5936  0.2420
  220MPD1    C1 3392   3.448   0.432  10.461 -0.1155  0.0825  0.4958
  220MPD1    C2 3393   3.366   0.540  10.489 -0.1956 -0.2637 -0.1722
  220MPD1    C3 3394   3.246   0.561  10.421  0.1902 -0.3208  0.6322
  220MPD1    C4 3395   3.207   0.475  10.324 -0.2227  0.3073 -0.3373
  220MPD1    C5 3396   3.274   0.357  10.316  0.6438  0.7973  0.6562
  220MPD1     H 3397   3.393   0.617  10.561 -1.9844  1.8307 -1.7487
  220MPD1    H1 3398   3.116   0.489  10.267 -0.6664  0.1131  0.3183
  220MPD1    H2 3399   3.440   0.240  10.379 -1.1808  0.0248 -1.7582
  220MPD1    H3 3400   3.237   0.281  10.249 -1.2964  1.7310  0.6437
  220MPD1     N 3401   3.171   0.681  10.449  0.0575 -0.1060  0.2687
  220MPD1    H5 3402   3.211   0.735  10.525  2.4847  0.1154 -1.1802
  220MPD1    N1 3403   3.565   0.414  10.527 -0.4661 -0.8917  0.3270
  220MPD1    H6 3404   3.635   0.349  10.491  0.2721 -0.9066  1.7793
  220MPD1    H7 3405   3.619   0.490  10.568  0.1517 -2.4508  2.4004
  221MPD1     C 3406   2.125   0.980  16.736 -0.2671 -0.7459 -0.4058
  221MPD1    C1 3407   2.126   1.008  16.605  0.1568  0.4915 -0.6716
  221MPD1    C2 3408   2.143   0.917  16.502  0.4805  0.3257 -1.0350
  221MPD1    C3 3409   2.173   0.789  16.543 -0.4736  0.0573  0.0895
  221MPD1    C4 3410   2.200   0.764  16.677  0.5336  0.2117 -0.4921
  221MPD1    C5 3411   2.162   0.857  16.765 -0.0884  0.3159  0.3262
  221MPD1     H 3412   2.137   0.932  16.395  1.2254 -2.4904 -1.4623
  221MPD1    H1 3413   2.213   0.666  16.722  0.9801 -0.6282 -2.4522
  221MPD1    H2 3414   2.111   1.048  16.819 -2.0228  0.8025 -1.9677
  221MPD1    H3 3415   2.182   0.845  16.871 -1.1915  3.1363  0.8543
  221MPD1     N 3416   2.176   0.678  16.460  0.0215  0.5784 -0.0001
  221MPD1    H5 3417   2.184   0.589  16.508 -0.5536 -0.6540 -2.1645
  221MPD1    N1 3418   2.113   1.147  16.570 -0.5185 -0.7091 -0.4569
  221MPD1    H6 3419   2.143   1.178  16.478 -0.5962 -0.9081 -0.5486
  221MPD1    H7 3420   2.125   1.213  16.647  2.6828  0.5493 -2.0225
  222MPD1     C 3421   0.639   4.220   0.427 -0.3956  0.2046  0.8962
  222MPD1    C1 3422   0.750   4.180   0.353  0.0718  0.0341  0.1176
  222MPD1    C2 3423   0.872   4.232   0.394  0.0213  0.4541 -0.7347
  222MPD1    C3 3424   0.881   4.335   0.490 -0.0891 -0.1251 -0.1296
  222MPD1    C4 3425   0.763   4.387   0.542 -0.0542  0.3159 -0.6956
  222MPD1    C5 3426   0.642   4.326   0.517  0.4749  0.5531  0.4258
  222MPD1     H 3427   0.962   4.201   0.343  1.3921  0.6613  1.5685
  222MPD1    H1 3428   0.759   4.474   0.606  0.5542  0.1110 -0.3783
  222MPD1    H2 3429   0.542   4.171   0.420 -1.4464  2.5532 -1.0398
  222MPD1    H3 3430   0.549   4.360   0.561  0.8258  0.3282  1.3266
  222MPD1     N 3431   1.007   4.391   0.538 -0.5110 -0.1210  0.5098
  222MPD1    H5 3432   1.003   4.471   0.601  2.6653  1.6159 -1.5425
  222MPD1    N1 3433   0.750   4.061   0.276  0.1662  0.4089 -0.1291
  222MPD1    H6 3434   0.831   4.064   0.213  0.8865  0.0837  0.7796
  222MPD1    H7 3435   0.669   4.046   0.216 -0.3985 -0.7800  0.9410
  223MPD1     C 3436   1.741   3.891   0.878 -0.3399 -0.0796 -0.4675
  223MPD1    C1 3437   1.700   3.895   0.741  0.3307 -0.4681  0.1603
  223MPD1    C2 3438   1.649   4.015   0.702 -0.7272  0.0235 -0.1770
  223MPD1    C3 3439   1.620   4.113   0.791 -0.1324 -0.4239  0.1913
  223MPD1    C4 3440   1.641   4.104   0.925  0.4672  0.5020 -0.2640
  223MPD1    C5 3441   1.703   3.988   0.967 -0.7269  0.5433 -0.5146
  223MPD1     H 3442   1.630   4.044   0.599 -1.2107 -0.6731 -0.2901
  223MPD1    H1 3443   1.630   4.181   1.000 -0.6578 -0.4483  0.5581
  223MPD1    H2 3444   1.804   3.809   0.912 -1.8765 -0.7404  0.8105
  223MPD1    H3 3445   1.719   3.982   1.074  0.4769 -0.5676 -0.7526
  223MPD1     N 3446   1.560   4.224   0.731 -0.3116  0.0135 -0.3633
  223MPD1    H5 3447   1.559   4.229   0.630  1.0944 -0.1080 -0.3740
  223MPD1    N1 3448   1.743   3.798   0.654 -0.2200  0.6097  0.5466
  223MPD1    H6 3449   1.737   3.708   0.700  1.9138  0.1788 -0.0421
  223MPD1    H7 3450   1.678   3.787   0.576 -0.0619  2.4815  0.1438
  224MPD1     C 3451   1.085   1.272   9.365  0.6062 -0.0464  0.7504
  224MPD1    C1 3452   1.213   1.248   9.316 -0.4098  0.2059 -0.5341
  224MPD1    C2 3453   1.319   1.225   9.405 -0.3950  0.8118 -0.5081
  224MPD1    C3 3454   1.295   1.229   9.542 -0.1575 -0.1851  0.2848
  224MPD1    C4 3455   1.169   1.250   9.590  0.0304  1.5076 -0.1113
  224MPD1    C5 3456   1.068   1.283   9.505  0.4621 -0.0271 -0.8586
  224MPD1     H 3457   1.416   1.189   9.371 -0.7557 -0.1979 -0.4891
  224MPD1    H1 3458   1.140   1.240   9.694  1.5033  0.9950  0.2575
  224MPD1    H2 3459   1.002   1.294   9.298  1.2066  0.0458  0.0422
  224MPD1    H3 3460   0.970   1.304   9.546  0.7414 -2.1096  0.8831
  224MPD1     N 3461   1.395   1.199   9.638 -0.1694  0.4557  0.1908
  224MPD1    H5 3462   1.354   1.181   9.729  1.8395 -1.4779  0.7316
  224MPD1    N1 3463   1.232   1.222   9.180 -0.5811 -0.3075 -0.1928
  224MPD1    H6 3464   1.178   1.285   9.120  1.0195 -0.0106 -1.3184
  224MPD1    H7 3465   1.328   1.247   9.156 -0.6005 -1.9385 -2.0161
  225MPD1     C 3466   2.866   1.579  13.049  0.4698 -0.6484 -0.3212
  225MPD1    C1 3467   2.933   1.695  13.043 -0.2136 -0.5596 -0.3685
  225MPD1    C2 3468   2.931   1.755  12.917  0.4740 -0.4946  0.4091
  225MPD1    C3 3469   2.871   1.690  12.806  0.0590  0.6443  0.0031
  225MPD1    C4 3470   2.796   1.576  12.826  0.5741  0.1353 -0.3203
  225MPD1    C5 3471   2.788   1.522  12.950  0.7123  0.0887  0.8590
  225MPD1     H 3472   2.990   1.845  12.904  1.1554 -1.2103 -1.3899
  225MPD1    H1 3473   2.745   1.530  12.742  0.6593 -0.3822 -0.0916
  225MPD1    H2 3474   2.866   1.525  13.144 -0.6186  2.6146  1.5236
  225MPD1    H3 3475   2.749   1.421  12.951 -1.8985  1.1091  0.7070
  225MPD1     N 3476   2.868   1.747  12.676  0.0082  0.5748 -0.0577
  225MPD1    H5 3477   2.805   1.709  12.606 -0.5114 -0.7402  1.1310
  225MPD1    N1 3478   2.963   1.764  13.163  0.0401 -0.1728  0.1071
  225MPD1    H6 3479   3.036   1.832  13.140 -0.5437  0.1453 -0.7779
  225MPD1    H7 3480   3.013   1.696  13.221  0.9111  0.6868  0.3656
  226MPD1     C 3481   0.483   2.290  10.591  0.4077  0.1357 -0.2704
  226MPD1    C1 3482   0.422   2.259  10.473 -0.8939 -0.3968 -0.0436
  226MPD1    C2 3483   0.499   2.284  10.363 -0.7446 -0.0681  0.0028
  226MPD1    C3 3484   0.633   2.306  10.357 -0.7133 -0.3494 -0.1544
  226MPD1    C4 3485   0.702   2.318  10.481  0.6287  0.6966  0.1377
  226MPD1    C5 3486   0.619   2.327  10.590 -0.2043  0.2205  0.2205
  226MPD1     H 3487   0.455   2.266  10.266  2.0770 -0.1437 -1.2782
  226MPD1    H1 3488   0.807   2.341  10.496  0.5692  1.3080 -0.3693
  226MPD1    H2 3489   0.425   2.298  10.682  0.1616 -0.0725 -0.4109
  226MPD1    H3 3490   0.668   2.352  10.684  0.6771  1.3142 -0.5331
  226MPD1     N 3491   0.704   2.304  10.234  0.0492 -0.6545  0.3238
  226MPD1    H5 3492   0.643   2.285  10.156  0.2095 -1.7207  0.4648
  226MPD1    N1 3493   0.285   2.233  10.473 -0.3509  0.4647  0.8426
  226MPD1    H6 3494   0.260   2.182  10.389  1.5090 -0.5862  0.9355
  226MPD1    H7 3495   0.249   2.188  10.557  0.2316  0.2869  0.9951
  227MPD1     C 3496   1.460   2.859  10.065  0.5159 -0.1715 -0.0171
  227MPD1    C1 3497   1.328   2.890  10.044 -0.0670 -0.2673 -0.2084
  227MPD1    C2 3498   1.245   2.796   9.998 -0.0502 -0.4472 -0.6825
  227MPD1    C3 3499   1.286   2.666   9.997  0.4557  0.3396 -0.5097
  227MPD1    C4 3500   1.417   2.632  10.029  0.4518 -0.1893  0.9313
  227MPD1    C5 3501   1.507   2.734  10.063  0.1734 -0.3894 -0.2992
  227MPD1     H 3502   1.141   2.815   9.976 -0.1102  0.2011  0.1708
  227MPD1    H1 3503   1.454   2.531  10.020 -0.5447 -0.1983 -3.0045
  227MPD1    H2 3504   1.534   2.938  10.073  0.7825 -0.3974 -0.2774
  227MPD1    H3 3505   1.610   2.706  10.078  0.3826  0.7036  0.2958
  227MPD1     N 3506   1.187   2.574   9.967 -0.2150  0.1121  0.1290
  227MPD1    H5 3507   1.089   2.599   9.972 -1.0166 -3.0612  0.7747
  227MPD1    N1 3508   1.303   3.026  10.021  0.0833  0.4384  0.2378
  227MPD1    H6 3509   1.217   3.040  10.074  0.1126 -0.4302  0.5123
  227MPD1    H7 3510   1.377   3.078  10.069 -0.0898  0.1225  0.8433
  228MPD1     C 3511   0.595   4.659  13.056  0.7606 -0.3605 -0.4650
  228MPD1    C1 3512   0.542   4.690  13.177 -0.3085  0.0354 -0.4983
  228MPD1    C2 3513   0.423   0.016  13.180 -0.0033  0.3315 -0.7397
  228MPD1    C3 3514   0.352   0.057  13.066  0.1312 -0.6644  0.0189
  228MPD1    C4 3515   0.403   0.017  12.945  0.3879 -0.6290  0.2214
  228MPD1    C5 3516   0.524   4.689  12.945 -0.0591  0.4546 -0.1338
  228MPD1     H 3517   0.373   0.016  13.276  1.6692 -1.1566  0.1466
  228MPD1    H1 3518   0.365   0.032  12.845 -2.1149 -1.6233  1.0251
  228MPD1    H2 3519   0.681   4.595  13.038  1.8351  0.2737  2.3801
  228MPD1    H3 3520   0.560   4.654  12.850  0.7141  0.0789  0.2988
  228MPD1     N 3521   0.228   0.116  13.075  0.3947 -0.0821 -0.3370
  228MPD1    H5 3522   0.198   0.147  13.166 -0.1493 -2.8678  0.4390
  228MPD1    N1 3523   0.593   4.631  13.296 -0.2905  0.4544  0.3624
  228MPD1    H6 3524   0.695   4.623  13.298 -0.2336  1.1128  0.1769
  228MPD1    H7 3525   0.554   4.669  13.382  2.0809  0.1391  1.5810
  229MPD1     C 3526   4.698   3.375  13.789  0.1548  0.6435 -0.3195
  229MPD1    C1 3527   0.070   3.333  13.733 -0.8825 -0.0857 -0.8806
  229MPD1    C2 3528   0.185   3.327  13.811  0.3627 -0.2685 -0.0025
  229MPD1    C3 3529   0.167   3.339  13.954 -0.2076 -0.3322  0.3821
  229MPD1    C4 3530   0.047   3.368  14.006  0.0478  0.1299 -0.2874
  229MPD1    C5 3531   4.686   3.395  13.919  0.4344  0.8350  0.2786
  229MPD1     H 3532   0.285   3.308  13.773 -1.2703 -0.5596 -4.0840
  229MPD1    H1 3533   0.027   3.374  14.112  0.3482 -0.1870 -0.2140
  229MPD1    H2 3534   4.608   3.400  13.733 -0.8833  1.0491  1.5358
  229MPD1    H3 3535   4.594   3.427  13.966  0.2287  1.2287 -0.3954
  229MPD1     N 3536   0.280   3.334  14.044  0.2430 -0.0617 -0.0209
  229MPD1    H5 3537   0.265   3.338  14.144  0.1181  1.9944 -0.1375
  229MPD1    N1 3538   0.074   3.331  13.593  0.1278 -0.1008  0.1956
  229MPD1    H6 3539   0.140   3.260  13.563  1.6961  0.5519  2.0695
  229MPD1    H7 3540   4.728   3.315  13.546  1.2912 -1.3406 -1.5811
  230MPD1     C 3541   0.344   3.069  14.969  0.2771  0.4333 -0.2394
  230MPD1    C1 3542   0.479   3.050  14.939  0.2945 -0.0465 -0.5484
  230MPD1    C2 3543   0.525   3.088  14.812 -0.2420 -0.0449  1.4125
  230MPD1    C3 3544   0.443   3.145  14.716 -0.8748  0.0789 -0.6456
  230MPD1    C4 3545   0.312   3.168  14.748 -0.1447 -0.3156  0.2583
  230MPD1    C5 3546   0.260   3.130  14.871  0.1288 -0.0848 -0.0201
  230MPD1     H 3547   0.623   3.058  14.775 -0.1027  0.4267  1.3980
  230MPD1    H1 3548   0.236   3.201  14.678  1.2424  1.8808 -0.2512
  230MPD1    H2 3549   0.297   3.035  15.060  2.3888 -0.7989  0.3679
  230MPD1    H3 3550   0.155   3.139  14.895  0.3098  0.8615  0.3956
  230MPD1     N 3551   0.494   3.163  14.581 -0.1532 -0.6324 -0.1844
  230MPD1    H5 3552   0.594   3.154  14.575  0.0102  1.4939 -0.5996
  230MPD1    N1 3553   0.564   2.974  15.022  1.1038  0.2166  0.8107
  230MPD1    H6 3554   0.567   3.010  15.117 -0.0260  2.8546 -0.1275
  230MPD1    H7 3555   0.658   2.982  14.985  2.5015 -0.1393  4.2689
  231MPD1     C 3556   3.650   0.801  15.684  0.0919 -0.0552 -1.0356
  231MPD1    C1 3557   3.578   0.767  15.572  0.6058  0.0327 -0.1097
  231MPD1    C2 3558   3.626   0.816  15.447  0.2337  0.4001  0.3567
  231MPD1    C3 3559   3.742   0.893  15.438 -0.6180 -0.5311  0.6156
  231MPD1    C4 3560   3.809   0.925  15.557 -1.1142 -0.7309  0.9147
  231MPD1    C5 3561   3.765   0.871  15.675  0.4458  0.8952 -0.3703
  231MPD1     H 3562   3.582   0.794  15.350 -2.1868 -3.0664  2.2529
  231MPD1    H1 3563   3.905   0.974  15.562 -0.6643 -1.7554  2.3185
  231MPD1    H2 3564   3.613   0.778  15.783  0.7982 -0.2388 -0.8197
  231MPD1    H3 3565   3.822   0.884  15.766 -0.6985  3.4194 -0.0044
  231MPD1     N 3566   3.788   0.926  15.310 -0.0804 -0.8470  0.1698
  231MPD1    H5 3567   3.735   0.896  15.228 -0.9928  0.3452  0.3192
  231MPD1    N1 3568   3.450   0.705  15.590  0.0097 -0.8857 -0.0358
  231MPD1    H6 3569   3.438   0.630  15.523 -0.7504 -1.7124  1.0416
  231MPD1    H7 3570   3.453   0.664  15.683  0.3719 -3.2825 -1.1120
  232MPD1     C 3571   0.446   3.830   0.410  0.7517 -0.5233  1.1766
  232MPD1    C1 3572   0.329   3.880   0.356 -0.4477 -0.1657  0.1994
  232MPD1    C2 3573   0.240   3.798   0.288  0.0299 -0.6369  0.2609
  232MPD1    C3 3574   0.257   3.661   0.287 -0.5552  0.6936 -0.4912
  232MPD1    C4 3575   0.370   3.606   0.342 -0.7157 -0.5024  0.6251
  232MPD1    C5 3576   0.467   3.691   0.399 -0.9123 -0.5971  0.1729
  232MPD1     H 3577   0.154   3.837   0.233  1.3778  1.8848 -0.0378
  232MPD1    H1 3578   0.392   3.500   0.340 -0.7448 -0.5584  3.2561
  232MPD1    H2 3579   0.533   3.871   0.459  2.6494 -0.1729 -2.4854
  232MPD1    H3 3580   0.561   3.647   0.431 -0.0778  1.6003  0.8276
  232MPD1     N 3581   0.157   3.580   0.229  0.3670  0.9260 -0.2181
  232MPD1    H5 3582   0.075   3.632   0.198 -1.4077 -1.4879  0.4890
  232MPD1    N1 3583   0.311   4.019   0.351  0.3983 -0.0754  0.6482
  232MPD1    H6 3584   0.350   4.073   0.428 -0.7671 -0.1775  1.2969
  232MPD1    H7 3585   0.211   4.035   0.341  0.5742 -0.1460 -1.2762
  233MPD1     C 3586   2.469   1.778   2.125 -0.1241  0.0287 -0.1381
  233MPD1    C1 3587   2.397   1.788   2.007 -0.0245  0.5412 -0.1258
  233MPD1    C2 3588   2.386   1.673   1.927 -0.5317  1.0286  0.1514
  233MPD1    C3 3589   2.441   1.550   1.971 -0.1932  0.4569 -0.7213
  233MPD1    C4 3590   2.499   1.543   2.093  0.2478 -0.4880  0.1767
  233MPD1    C5 3591   2.523   1.655   2.167 -0.4861 -0.2588  0.3314
  233MPD1     H 3592   2.336   1.677   1.831 -1.2620  0.4191  0.5036
  233MPD1    H1 3593   2.530   1.445   2.127  0.6914  0.2809  1.9818
  233MPD1    H2 3594   2.504   1.870   2.171 -1.1989  0.2987  0.1274
  233MPD1    H3 3595   2.582   1.652   2.258  2.3136 -2.9161 -1.5864
  233MPD1     N 3596   2.447   1.437   1.891 -0.1385  0.4922 -0.4075
  233MPD1    H5 3597   2.478   1.357   1.946  2.0059  0.6593 -1.3510
  233MPD1    N1 3598   2.358   1.917   1.951 -0.3162  0.2238 -0.7194
  233MPD1    H6 3599   2.277   1.901   1.893 -0.6571 -3.4781  0.7714
  233MPD1    H7 3600   2.347   1.997   2.014 -1.0173 -1.0281  0.7301
  234MPD1     C 3601   2.833   4.688   9.941 -0.2441  0.5314  0.2523
  234MPD1    C1 3602   2.774   4.669   9.814  0.1722  0.0786  0.0706
  234MPD1    C2 3603   2.742   0.047   9.753  1.0015 -0.2055  0.4295
  234MPD1    C3 3604   2.774   0.173   9.804  0.2129 -0.3031 -0.2886
  234MPD1    C4 3605   2.844   0.182   9.923  0.7719 -0.4679  0.8209
  234MPD1    C5 3606   2.875   0.067   9.992  0.1216 -0.0235 -0.0356
  234MPD1     H 3607   2.696   0.045   9.654  0.9922 -2.5050  0.4845
  234MPD1    H1 3608   2.888   0.272   9.966 -1.2701  1.0845 -0.3064
  234MPD1    H2 3609   2.868   4.599   9.991  0.0810  0.9362  0.7379
  234MPD1    H3 3610   2.950   0.072  10.070 -0.0720  0.0998  0.1443
  234MPD1     N 3611   2.728   0.292   9.730 -0.0238 -0.4922  0.5348
  234MPD1    H5 3612   2.664   0.271   9.654 -2.2631  0.8370  2.0583
  234MPD1    N1 3613   2.725   4.542   9.774 -0.2226 -0.3738  0.1846
  234MPD1    H6 3614   2.772   4.458   9.807  0.3898 -0.5387 -1.1130
  234MPD1    H7 3615   2.703   4.526   9.676  0.2972  0.5350 -0.0794
  235MPD1     C 3616   3.235   2.505  10.194 -0.1722 -0.6182 -0.3125
  235MPD1    C1 3617   3.333   2.531  10.095 -0.7353 -0.4288 -0.0349
  235MPD1    C2 3618   3.391   2.660  10.096 -0.0740 -0.8221  0.4903
  235MPD1    C3 3619   3.372   2.752  10.195 -0.3138 -0.5723 -0.2533
  235MPD1    C4 3620   3.285   2.719  10.293 -0.1624 -0.4611 -0.1611
  235MPD1    C5 3621   3.218   2.599  10.296 -0.0659  0.0740  0.8428
  235MPD1     H 3622   3.447   2.695  10.010 -0.2621  0.0621  0.7264
  235MPD1    H1 3623   3.270   2.783  10.379 -1.0301  0.0874 -0.7104
  235MPD1    H2 3624   3.179   2.412  10.193  2.2953 -2.0643 -2.6214
  235MPD1    H3 3625   3.139   2.582  10.368 -1.0947 -0.5576 -0.4236
  235MPD1     N 3626   3.442   2.874  10.181 -0.2972 -0.6218  0.4397
  235MPD1    H5 3627   3.495   2.888  10.096  1.2490 -0.7938  1.3675
  235MPD1    N1 3628   3.339   2.457   9.970  0.2819  0.3691  0.3610
  235MPD1    H6 3629   3.322   2.360   9.994  1.8621  0.3438  1.3945
  235MPD1    H7 3630   3.434   2.456   9.934 -0.4353  0.8240 -1.5614
  236MPD1     C 3631   2.970   3.982   9.293  0.5767  0.2567  0.5161
  236MPD1    C1 3632   2.898   3.928   9.398  0.7846 -0.0088  0.2647
  236MPD1    C2 3633   2.953   3.925   9.527 -0.4071  0.3420  0.5882
  236MPD1    C3 3634   3.086   3.969   9.548  0.1843 -0.6009 -0.3437
  236MPD1    C4 3635   3.156   4.024   9.445  0.0577  0.0908 -0.5288
  236MPD1    C5 3636   3.096   4.028   9.323  0.1866 -0.6212  0.2564
  236MPD1     H 3637   2.897   3.874   9.604 -0.3397 -0.6706 -0.0248
  236MPD1    H1 3638   3.259   4.057   9.452  0.8062 -2.7543  2.0025
  236MPD1    H2 3639   2.927   3.985   9.194 -0.7100 -0.9993  1.0363
  236MPD1    H3 3640   3.156   4.062   9.239  0.6697  3.0826  2.1045
  236MPD1     N 3641   3.145   3.963   9.671  0.6214 -0.2390  0.0931
  236MPD1    H5 3642   3.226   4.022   9.684  0.9849 -1.4161  3.1943
  236MPD1    N1 3643   2.759   3.898   9.379 -0.4331  0.5092  0.4464
  236MPD1    H6 3644   2.721   3.835   9.450 -1.0740 -0.5331 -0.8233
  236MPD1    H7 3645   2.720   3.850   9.299  1.5798 -1.9382  0.9570
  237MPD1     C 3646   3.867   1.895  14.757  0.6676  0.8826 -0.9659
  237MPD1    C1 3647   3.759   1.900  14.675  0.0297  0.1786 -0.2941
  237MPD1    C2 3648   3.638   1.909  14.739 -0.0047  0.4748  0.4509
  237MPD1    C3 3649   3.623   1.938  14.874 -0.2690  0.2415  0.0488
  237MPD1    C4 3650   3.736   1.929  14.963 -0.2470 -0.3569  0.2410
  237MPD1    C5 3651   3.854   1.911  14.895  0.3850  0.5352  0.1161
  237MPD1     H 3652   3.556   1.916  14.668  0.3873  1.3880  0.0888
  237MPD1    H1 3653   3.743   1.956  15.067  0.4131 -1.0222  0.3707
  237MPD1    H2 3654   3.970   1.886  14.725  1.0496  2.3110 -0.1279
  237MPD1    H3 3655   3.941   1.914  14.960 -0.3051 -0.4792  1.0802
  237MPD1     N 3656   3.499   1.950  14.937  0.2430  0.4860 -0.8837
  237MPD1    H5 3657   3.502   1.958  15.038 -1.2507  0.9949 -0.8762
  237MPD1    N1 3658   3.766   1.876  14.539  0.3238  0.5243  0.4299
  237MPD1    H6 3659   3.685   1.887  14.479  0.9018 -0.6480 -0.5678
  237MPD1    H7 3660   3.850   1.918  14.498 -0.5764  1.7166 -0.1721
  238MPD1     C 3661   1.035   0.823  15.157 -0.0714  1.0458 -0.8777
  238MPD1    C1 3662   0.932   0.832  15.248  1.4219 -0.6654  0.6159
  238MPD1    C2 3663   0.804   0.808  15.200  0.5022 -0.0293  0.2731
  238MPD1    C3 3664   0.777   0.774  15.069  0.1980  0.1256 -0.1207
  238MPD1    C4 3665   0.888   0.776  14.982 -0.3861 -0.2519  1.2664
  238MPD1    C5 3666   1.012   0.810  15.028  0.0593  0.1719  0.1856
  238MPD1     H 3667   0.728   0.797  15.277 -0.3462  1.0662 -0.4088
  238MPD1    H1 3668   0.870   0.763  14.876  0.3487  0.2131  1.0872
  238MPD1    H2 3669   1.137   0.847  15.186 -0.0474  2.1973 -1.9346
  238MPD1    H3 3670   1.098   0.823  14.962 -1.2204  2.4778 -0.9872
  238MPD1     N 3671   0.646   0.750  15.013 -0.0213 -0.2328 -0.6254
  238MPD1    H5 3672   0.649   0.726  14.914  2.0944 -2.1227 -0.0975
  238MPD1    N1 3673   0.948   0.815  15.386  0.2024  0.2178  0.1384
  238MPD1    H6 3674   1.035   0.858  15.417 -0.1587 -1.0657  2.8670
  238MPD1    H7 3675   0.875   0.851  15.447  0.3896 -1.4674  1.3275
  239MPD1     C 3676   0.663   1.236  15.043  0.3878 -0.2830 -0.2733
  239MPD1    C1 3677   0.749   1.204  14.935  0.3415 -0.5523 -0.2729
  239MPD1    C2 3678   0.742   1.286  14.818  0.8589  0.2026 -0.0513
  239MPD1    C3 3679   0.650   1.388  14.810  0.3522  0.2427 -0.6008
  239MPD1    C4 3680   0.572   1.415  14.919  0.2748  0.2281  0.5994
  239MPD1    C5 3681   0.575   1.334  15.028 -0.6820  0.3906 -0.2088
  239MPD1     H 3682   0.810   1.268  14.736 -0.1304  1.1326 -1.0719
  239MPD1    H1 3683   0.502   1.497  14.906  1.0137  0.5579 -1.3473
  239MPD1    H2 3684   0.668   1.184  15.138  0.8016  3.4980  1.7726
  239MPD1    H3 3685   0.504   1.357  15.107 -0.3809  1.1839 -0.1687
  239MPD1     N 3686   0.638   1.473  14.695  0.1503  0.2210 -0.4077
  239MPD1    H5 3687   0.556   1.532  14.682 -0.4186  0.0293  2.1093
  239MPD1    N1 3688   0.846   1.104  14.939  0.8241 -0.4813  0.0601
  239MPD1    H6 3689   0.809   1.022  14.988  1.5658 -2.2518 -2.3263
  239MPD1    H7 3690   0.868   1.071  14.845  0.3697 -1.7465  0.3942
  240MPD1     C 3691   0.195   1.284  14.017  0.8555 -0.7947  0.6310
  240MPD1    C1 3692   0.277   1.219  14.097  0.1840  0.2257  0.6450
  240MPD1    C2 3693   0.221   1.137  14.192  0.2261 -0.3371  0.6899
  240MPD1    C3 3694   0.085   1.117  14.207  0.3164  0.2684 -0.2226
  240MPD1    C4 3695   0.001   1.182  14.112 -0.1360  0.4550  0.7426
  240MPD1    C5 3696   0.059   1.254  14.010  0.9224  0.1396  0.1745
  240MPD1     H 3697   0.287   1.095  14.268  1.2972  1.0621  0.5233
  240MPD1    H1 3698   4.636   1.175  14.109 -0.4317  4.8989  0.7321
  240MPD1    H2 3699   0.239   1.354  13.948  0.9127  0.0013  1.4714
  240MPD1    H3 3700   4.737   1.323  13.957  1.3670  1.3481  1.2029
  240MPD1     N 3701   0.039   1.039  14.315 -0.2425  1.0507 -0.6738
  240MPD1    H5 3702   0.107   1.002  14.380 -0.9465 -1.5009 -1.4186
  240MPD1    N1 3703   0.407   1.259  14.106  0.1925  0.0854 -0.2599
  240MPD1    H6 3704   0.471   1.183  14.132 -0.5250 -0.6092 -0.5204
  240MPD1    H7 3705   0.442   1.311  14.027 -2.2435  1.7113 -0.2581
  241MPD1     C 3706   0.190   1.264  15.124 -0.0061  0.1449  0.0380
  241MPD1    C1 3707   0.165   1.124  15.135  0.1976  0.9308  0.2721
  241MPD1    C2 3708   0.100   1.061  15.027 -0.3330 -0.3190  0.5255
  241MPD1    C3 3709   0.053   1.134  14.917 -0.4384 -0.3510  0.1273
  241MPD1    C4 3710   0.091   1.265  14.910  0.1152  0.2170 -0.2387
  241MPD1    C5 3711   0.158   1.328  15.010  0.6629  0.7451  0.6197
  241MPD1     H 3712   0.077   0.955  15.034  0.6097 -0.4525  1.7025
  241MPD1    H1 3713   0.050   1.326  14.831 -0.9828 -2.0647 -1.4051
  241MPD1    H2 3714   0.229   1.317  15.211 -1.8925  1.4618  0.0911
  241MPD1    H3 3715   0.150   1.436  15.022  0.6619  0.8373 -0.2115
  241MPD1     N 3716   4.727   1.073  14.806 -0.2559  0.3036 -0.0884
  241MPD1    H5 3717   4.722   1.137  14.727  0.7689  2.7195  1.7966
  241MPD1    N1 3718   0.224   1.051  15.234  0.6074  0.1744 -0.4644
  241MPD1    H6 3719   0.232   1.098  15.324 -0.0586 -2.7285  1.1368
  241MPD1    H7 3720   0.162   0.970  15.242 -3.2252  3.0266 -1.5234
  242MPD1     C 3721   4.523   4.376  15.637 -0.4780  0.2494  0.0947
  242MPD1    C1 3722   4.504   4.440  15.514  0.0495  0.2183  0.6607
  242MPD1    C2 3723   4.438   4.368  15.414 -0.0917  0.2393 -0.2544
  242MPD1    C3 3724   4.400   4.235  15.431 -0.4090  0.4116  0.5016
  242MPD1    C4 3725   4.431   4.178  15.558 -0.8301 -0.4697 -0.0389
  242MPD1    C5 3726   4.486   4.250  15.658  0.3275 -0.2131 -0.6363
  242MPD1     H 3727   4.411   4.420  15.323 -1.2748  0.7036  0.3734
  242MPD1    H1 3728   4.419   4.072  15.578  1.9169 -0.7241  0.2671
  242MPD1    H2 3729   4.567   4.438  15.715  0.1650  0.7677 -0.6833
  242MPD1    H3 3730   4.500   4.208  15.757 -2.5306 -1.0270 -0.6015
  242MPD1     N 3731   4.367   4.143  15.332  0.3497 -0.7967  0.0644
  242MPD1    H5 3732   4.363   4.047  15.362  1.2410 -0.4552  1.3021
  242MPD1    N1 3733   4.516   4.575  15.505  0.7462 -0.1170  0.1899
  242MPD1    H6 3734   4.530   4.596  15.406 -2.0478 -1.1990 -0.4116
  242MPD1    H7 3735   4.596   4.613  15.557  0.6831  0.5567 -0.2090
  243MPD1     C 3736   1.772   3.238  17.178 -0.3085  0.5019  0.5290
  243MPD1    C1 3737   1.815   3.166  17.075 -0.8370 -0.7673  0.3944
  243MPD1    C2 3738   1.760   3.041  17.061  0.9153  0.3957 -0.0124
  243MPD1    C3 3739   1.655   2.989  17.146  0.2195  0.6829 -0.1061
  243MPD1    C4 3740   1.616   3.075  17.246 -0.2061  0.4885 -0.3017
  243MPD1    C5 3741   1.675   3.197  17.264 -0.5311 -0.0046  0.2900
  243MPD1     H 3742   1.793   2.979  16.978  0.9678  0.4702 -0.0474
  243MPD1    H1 3743   1.532   3.051  17.309  1.1605  1.6337  1.9592
  243MPD1    H2 3744   1.819   3.332  17.205 -1.8434  1.7329 -1.1021
  243MPD1    H3 3745   1.650   3.259  17.349 -0.9730  0.2863 -0.0583
  243MPD1     N 3746   1.597   2.868  17.117 -0.1159 -0.1265 -0.3119
  243MPD1    H5 3747   1.621   2.822  17.030  1.0674  0.1637 -0.1374
  243MPD1    N1 3748   1.934   3.200  17.009 -0.0510 -0.0727 -0.3295
  243MPD1    H6 3749   1.951   3.301  17.005  1.8666 -0.3823  0.0860
  243MPD1    H7 3750   1.930   3.171  16.911 -0.7931 -1.8257  0.2362
  244MPD1     C 3751   1.439   2.205   0.077 -0.2540 -0.0427 -0.3228
  244MPD1    C1 3752   1.466   2.340   0.064  0.2041  0.1160  0.4074
  244MPD1    C2 3753   1.473   2.391  17.709 -0.4726 -0.3704  0.7991
  244MPD1    C3 3754   1.468   2.320  17.590  0.1322  0.4282  0.2464
  244MPD1    C4 3755   1.470   2.178  17.603 -0.2879  0.2761 -0.2523
  244MPD1    C5 3756   1.450   2.131  17.729  0.4833  0.1650 -0.4746
  244MPD1     H 3757   1.468   2.499  17.700  3.4763  0.0098  3.1004
  244MPD1    H1 3758   1.468   2.107  17.521  0.3742 -1.1172  0.9155
  244MPD1    H2 3759   1.439   2.148   0.169  0.2078  0.9313  0.2804
  244MPD1    H3 3760   1.442   2.025  17.752  1.3701  0.4246  0.9990
  244MPD1     N 3761   1.462   2.392  17.467  0.3699 -0.1288  0.7305
  244MPD1    H5 3762   1.452   2.492  17.475 -0.3555 -0.0628 -1.0627
  244MPD1    N1 3763   1.454   2.422   0.176 -0.2796  0.0939  0.2600
  244MPD1    H6 3764   1.493   2.384   0.262  1.9130 -0.3198 -0.9209
  244MPD1    H7 3765   1.505   2.508   0.161 -0.1604 -0.1403 -0.6566
  245MPD1     C 3766   3.331   3.296  13.044  0.1305 -0.0272 -0.1103
  245MPD1    C1 3767   3.417   3.369  12.970 -0.2873 -0.3630 -0.3585
  245MPD1    C2 3768   3.425   3.504  13.001 -0.4552 -0.4892 -0.2471
  245MPD1    C3 3769   3.337   3.561  13.098 -0.0095  0.5616 -0.5912
  245MPD1    C4 3770   3.254   3.481  13.174  0.9597  0.5926  0.3032
  245MPD1    C5 3771   3.258   3.349  13.144  0.1866  0.3663 -0.5211
  245MPD1     H 3772   3.494   3.568  12.947  0.9546 -2.5278 -0.8532
  245MPD1    H1 3773   3.189   3.512  13.255 -1.9480 -1.1326 -1.3693
  245MPD1    H2 3774   3.309   3.191  13.026 -2.2699  0.5017 -0.3464
  245MPD1    H3 3775   3.190   3.284  13.198  1.5851 -0.9061 -0.3203
  245MPD1     N 3776   3.349   3.699  13.105 -0.2583  0.3006 -0.5471
  245MPD1    H5 3777   3.423   3.738  13.048 -1.3089  2.0892 -0.6576
  245MPD1    N1 3778   3.472   3.317  12.851  0.4289 -0.1089 -0.5407
  245MPD1    H6 3779   3.477   3.215  12.856 -0.5252 -0.1755 -1.0848
  245MPD1    H7 3780   3.559   3.362  12.823  0.1090  0.8936  0.0581
  246MPD1     C 3781   2.912   1.187   9.212  0.1585  0.1474  0.1714
  246MPD1    C1 3782   2.942   1.076   9.130 -0.3527 -0.3320  0.1931
  246MPD1    C2 3783   3.040   0.990   9.176  0.4598 -0.5014 -0.4708
  246MPD1    C3 3784   3.120   1.020   9.290 -0.7149  0.1651 -0.2720
  246MPD1    C4 3785   3.099   1.138   9.358  0.5422 -0.0338  0.0274
  246MPD1    C5 3786   2.991   1.216   9.324  0.5168 -0.2925 -0.2758
  246MPD1     H 3787   3.061   0.892   9.135 -0.5961  0.1526 -2.5552
  246MPD1    H1 3788   3.135   1.140   9.460  0.3481  0.5887  0.0824
  246MPD1    H2 3789   2.814   1.232   9.209 -0.5336 -1.3873 -0.3918
  246MPD1    H3 3790   2.950   1.282   9.399  1.2113  0.5469 -0.6385
  246MPD1     N 3791   3.222   0.925   9.316 -0.2815 -0.1184  0.1163
  246MPD1    H5 3792   3.215   0.832   9.276 -0.0196 -0.2239  0.3188
  246MPD1    N1 3793   2.841   1.033   9.039 -0.8394  0.3835 -0.2570
  246MPD1    H6 3794   2.880   0.976   8.965 -0.5465 -1.7524  1.5284
  246MPD1    H7 3795   2.790   1.112   9.001 -0.4477  0.6844 -0.1472
  247MPD1     C 3796   1.525   3.535  14.719 -0.2650 -0.0388  0.4414
  247MPD1    C1 3797   1.597   3.528  14.837  0.4105  0.5424  0.2495
  247MPD1    C2 3798   1.731   3.519  14.822 -0.3671 -0.2431  0.0683
  247MPD1    C3 3799   1.794   3.533  14.699  0.7606 -0.1783  0.2622
  247MPD1    C4 3800   1.725   3.561  14.585 -0.8770 -0.1133  0.2800
  247MPD1    C5 3801   1.592   3.556  14.600  0.8322 -0.3639 -0.0514
  247MPD1     H 3802   1.786   3.499  14.913  0.4862 -3.9319 -1.2547
  247MPD1    H1 3803   1.770   3.578  14.488  0.6025  3.2051  1.5327
  247MPD1    H2 3804   1.417   3.543  14.717 -0.2293  0.8278  1.7711
  247MPD1    H3 3805   1.526   3.579  14.518  1.5433 -1.4146 -0.9215
  247MPD1     N 3806   1.935   3.524  14.688 -0.3913 -0.2295 -0.7895
  247MPD1    H5 3807   1.982   3.537  14.599  0.7225 -0.7941 -0.2846
  247MPD1    N1 3808   1.521   3.497  14.954 -0.0528 -0.2552  0.5501
  247MPD1    H6 3809   1.556   3.514  15.048  2.8144 -1.1708 -0.3599
  247MPD1    H7 3810   1.421   3.513  14.946  0.0215 -0.8716 -1.5457
  248MPD1     C 3811   3.559   2.453   0.188  0.1428  0.2897 -0.1680
  248MPD1    C1 3812   3.490   2.561   0.153 -0.1454 -0.1687 -0.2333
  248MPD1    C2 3813   3.448   2.656   0.247  0.3711 -0.0902 -0.7969
  248MPD1    C3 3814   3.495   2.650   0.376  0.0439  0.2026  0.7331
  248MPD1    C4 3815   3.581   2.548   0.413 -0.1648  0.6533 -1.4483
  248MPD1    C5 3816   3.606   2.449   0.319  0.0973  0.1381 -0.3457
  248MPD1     H 3817   3.391   2.741   0.212 -1.2099 -1.0232 -0.4628
  248MPD1    H1 3818   3.624   2.548   0.512 -0.8949 -1.5907 -1.1407
  248MPD1    H2 3819   3.594   2.378   0.117  0.1957  0.3492 -0.2045
  248MPD1    H3 3820   3.676   2.370   0.342 -0.0202 -0.1012 -0.8097
  248MPD1     N 3821   3.457   2.750   0.468  0.0775 -0.2608  0.0581
  248MPD1    H5 3822   3.401   2.825   0.428  1.4655  0.6155 -0.2433
  248MPD1    N1 3823   3.449   2.585   0.019  0.2724 -0.2074  0.2307
  248MPD1    H6 3824   3.368   2.641  17.762 -1.3940 -2.5005  0.4670
  248MPD1    H7 3825   3.490   2.538  17.706 -0.0047 -1.6128  0.9062
  249MPD1     C 3826   3.385   0.876  10.242 -0.1921  0.0805  0.1860
  249MPD1    C1 3827   3.382   1.004  10.274 -0.3194 -0.1745 -0.1230
  249MPD1    C2 3828   3.488   1.058  10.348  0.8483 -0.0309  0.7777
  249MPD1    C3 3829   3.585   0.974  10.390 -0.1052  0.1496  0.2113
  249MPD1    C4 3830   3.583   0.840  10.367 -0.8002  0.0373  0.4424
  249MPD1    C5 3831   3.476   0.789  10.299  0.2618  0.2649 -0.2279
  249MPD1     H 3832   3.498   1.166  10.353  0.6452  0.0597 -0.7296
  249MPD1    H1 3833   3.662   0.767  10.379  0.6059  1.7598  1.6554
  249MPD1    H2 3834   3.303   0.843  10.179  0.6852 -0.7354 -0.5277
  249MPD1    H3 3835   3.471   0.683  10.278 -1.0114  0.0968  0.9391
  249MPD1     N 3836   3.695   1.040  10.451 -0.0393 -1.0304 -0.2470
  249MPD1    H5 3837   3.695   1.141  10.451  0.0411 -1.0229  0.9150
  249MPD1    N1 3838   3.286   1.087  10.204 -0.0620 -0.0531  0.7243
  249MPD1    H6 3839   3.245   1.168  10.251 -0.7588  0.0133 -0.0000
  249MPD1    H7 3840   3.218   1.036  10.147 -0.6066  0.7995  0.6106
  250MPD2     C 3841   0.939   1.613  13.289  0.0572 -0.4954 -0.0551
  250MPD2    C1 3842   1.024   1.622  13.177  0.4132 -0.0515  0.0566
  250MPD2    C2 3843   1.027   1.522  13.085  0.6345 -0.2886 -0.2865
  250MPD2    C3 3844   0.926   1.421  13.088 -0.1329  0.1517 -0.3473
  250MPD2    C4 3845   0.852   1.412  13.201 -0.6988  0.8771 -0.5931
  250MPD2    C5 3846   0.859   1.501  13.308  0.0233 -0.1039 -0.3435
  250MPD2     H 3847   1.094   1.527  13.000  1.4586  0.2302  0.3935
  250MPD2    H1 3848   0.775   1.339  13.223  1.3824 -0.8272  1.0311
  250MPD2    H2 3849   0.939   1.693  13.363 -2.5658  0.2927 -0.9301
  250MPD2    H3 3850   0.796   1.495  13.396 -0.5045 -0.4853 -0.7472
  250MPD2     N 3851   0.913   1.320  12.992 -0.2727  0.4335 -0.5099
  250MPD2    H5 3852   0.847   1.244  13.003  2.0952 -1.7101 -1.1546
  250MPD2    N1 3853   1.100   1.738  13.151  0.3867 -0.0676  0.4474
  250MPD2    H7 3854   1.162   1.742  13.071 -0.7188  0.4789 -0.3840
  251TMC3    C1 3855   1.154   1.975  13.148 -0.0802 -0.5010 -0.2050
  251TMC3    C2 3856   1.085   2.085  13.116  0.0351 -0.0517  0.4749
  251TMC3    C3 3857   1.161   2.200  13.090  0.0185 -0.6409 -0.3449
  251TMC3    C4 3858   1.292   1.972  13.165  0.2352  0.0338 -0.1630
  251TMC3    C5 3859   1.361   2.091  13.146  0.0124  0.0783  0.7221
  251TMC3    C6 3860   1.299   2.206  13.105  0.0307  0.4623  1.1546
  251TMC3     C 3861   1.071   1.865  13.204  0.7722  0.5782 -0.1232
  251TMC3     O 3862   0.974   1.900  13.270 -0.0727 -0.4330  0.2446
  251TMC3     H 3863   0.978   2.088  13.102  0.0757 -0.7485  0.0528
  251TMC3    H1 3864   1.353   1.889  13.199  0.7361  0.0294 -1.0783
  251TMC3    H2 3865   1.356   2.293  13.073  0.8903 -0.9109 -1.0405
  251TMC3    C7 3866   1.497   2.096  13.205  0.1852 -0.0437  0.0492
  251TMC3    C8 3867   1.087   2.320  13.045 -0.1283  0.2007 -0.0565
  251TMC3    O1 3868   1.565   1.996  13.196 -0.3412  0.6994  0.2764
  251TMC3    O2 3869   0.966   2.310  13.033  0.4275  0.2895 -0.1909
  252TMC3    C1 3870   0.293   3.374  10.121 -0.1427 -0.3700 -0.5581
  252TMC3    C2 3871   0.396   3.444  10.077 -0.6968 -0.5188  0.3204
  252TMC3    C3 3872   0.510   3.375  10.076  0.2784 -0.4957  0.2994
  252TMC3    C4 3873   0.300   3.244  10.173 -0.2476  0.0690 -0.0380
  252TMC3    C5 3874   0.429   3.185  10.173  0.6411 -0.5466 -0.4078
  252TMC3    C6 3875   0.539   3.248  10.124  0.2492  0.0214 -0.2186
  252TMC3     C 3876   0.166   3.448  10.139 -0.0883  0.1837 -0.1380
  252TMC3     O 3877   0.167   3.566  10.118 -0.4119  0.1989  0.0189
  252TMC3     H 3878   0.387   3.550  10.053 -0.0366 -0.6320 -0.4062
  252TMC3    H1 3879   0.221   3.193  10.227 -0.0013 -1.3019 -0.9663
  252TMC3    H2 3880   0.631   3.198  10.097 -1.1247 -2.3722 -0.4896
  252TMC3    C7 3881   0.441   3.043  10.203  0.1975  0.2940 -0.2773
  252TMC3    C8 3882   0.604   3.430   9.981 -0.6624 -0.2862 -0.3268
  252TMC3    O1 3883   0.335   2.978  10.217 -0.4594  0.2180 -0.0838
  252TMC3    O2 3884   0.550   3.498   9.894 -0.0076 -0.0993 -0.2539
  253MPD2     C 3885   3.198   2.469  15.175 -0.0315  0.1152 -0.0723
  253MPD2    C1 3886   3.075   2.473  15.232  0.0499  0.4162 -0.4605
  253MPD2    C2 3887   3.043   2.391  15.335  0.3543  0.2443 -0.0330
  253MPD2    C3 3888   3.115   2.280  15.376 -0.3569 -0.4542 -0.2011
  253MPD2    C4 3889   3.237   2.267  15.312 -0.8851  0.1448  0.1101
  253MPD2    C5 3890   3.281   2.366  15.228  0.1944 -0.0959 -0.2948
  253MPD2     H 3891   2.941   2.408  15.368  0.1319 -0.3121 -0.4383
  253MPD2    H1 3892   3.302   2.186  15.342 -1.8717 -0.4273  0.6828
  253MPD2    H2 3893   3.232   2.531  15.092  1.2612 -0.1335  0.2631
  253MPD2    H3 3894   3.374   2.346  15.175  1.6496 -1.6145  2.8347
  253MPD2     N 3895   3.070   2.204  15.481  0.2000  0.9163  0.3353
  253MPD2    H5 3896   3.134   2.130  15.506  0.0010  0.2951 -1.0035
  253MPD2    N1 3897   2.974   2.568  15.195 -0.0829 -0.3388 -0.3086
  253MPD2    H7 3898   2.885   2.548  15.239 -0.6249  1.3565 -0.6474
  254TMC3    C1 3899   2.913   2.085  15.608  0.5860 -0.6802 -0.2258
  254TMC3    C2 3900   2.781   2.075  15.636  0.2393  0.3162  0.3276
  254TMC3    C3 3901   2.737   2.007  15.744 -0.1259 -0.1689  0.3353
  254TMC3    C4 3902   3.004   2.035  15.699  0.4433 -0.5561 -0.5888
  254TMC3    C5 3903   2.957   1.950  15.799  1.5233 -0.5812  0.4359
  254TMC3    C6 3904   2.821   1.935  15.826  0.5364  0.0874  0.0247
  254TMC3     C 3905   2.947   2.214  15.541  0.3981  0.3898  0.2731
  254TMC3     O 3906   2.848   2.286  15.522 -0.0684  0.0424  0.3089
  254TMC3     H 3907   2.709   2.114  15.564 -1.6203 -1.7990  1.0441
  254TMC3    H1 3908   3.109   2.060  15.689 -0.3289  1.9035 -2.7860
  254TMC3    H2 3909   2.777   1.878  15.908 -0.3182 -1.8694 -1.7736
  254TMC3    C7 3910   3.047   1.877  15.889 -0.4336 -0.1678 -0.4315
  254TMC3    C8 3911   2.610   2.042  15.797 -0.4680 -0.1123  0.2338
  254TMC3    O1 3912   2.991   1.784  15.946 -0.0665  0.1943 -0.8968
  254TMC3    O2 3913   2.582   1.999  15.907 -0.2422 -0.1822 -0.5877
  255MPD2     C 3914   0.311   4.305  10.266 -0.1919 -0.3920  0.2835
  255MPD2    C1 3915   0.403   4.398  10.244 -0.1534 -0.0444  0.3464
  255MPD2    C2 3916   0.481   4.373  10.130  0.3002 -0.1326 -0.1655
  255MPD2    C3 3917   0.464   4.257  10.059 -0.3348  0.1998  0.0115
  255MPD2    C4 3918   0.367   4.167  10.084  0.7401 -0.1636 -0.3019
  255MPD2    C5 3919   0.294   4.190  10.199 -0.5475 -0.0964 -0.2483
  255MPD2     H 3920   0.573   4.428  10.113  0.5429 -0.8827 -1.2552
  255MPD2    H1 3921   0.370   4.069  10.037  1.8453 -0.1933 -0.1780
  255MPD2    H2 3922   0.248   4.325  10.352  0.8405  0.7799  0.7733
  255MPD2    H3 3923   0.219   4.119  10.231  0.0790 -1.2211 -1.2568
  255MPD2     N 3924   0.560   4.239   9.955  0.5655 -0.9049 -0.1394
  255MPD2    H5 3925   0.631   4.310   9.940  1.2244 -1.4715  0.2880
  255MPD2    N1 3926   0.414   4.506  10.342 -0.0713  0.1285 -0.3774
  255MPD2    H7 3927   0.345   4.508  10.416  0.7704 -1.5661  0.4448
  256TMC3    C1 3928   0.490   4.720  10.417 -0.0546  0.0325  0.0787
  256TMC3    C2 3929   0.586   0.073  10.407 -0.1551 -0.1534  0.4003
  256TMC3    C3 3930   0.564   0.185  10.488 -0.2084 -0.6994  0.5299
  256TMC3    C4 3931   0.368   4.743  10.478  0.8145 -0.5713 -0.1919
  256TMC3    C5 3932   0.349   0.126  10.539 -0.1720  0.5196 -0.5645
  256TMC3    C6 3933   0.457   0.203  10.567 -0.0414 -0.3318  0.2034
  256TMC3     C 3934   0.509   4.611  10.325  0.0547 -0.2797 -1.1958
  256TMC3     O 3935   0.565   4.639  10.220 -0.0874 -0.1430 -0.4548
  256TMC3     H 3936   0.677   0.054  10.350 -1.3448  0.7487 -1.7896
  256TMC3    H1 3937   0.294   4.665  10.490  1.6695 -1.2725  0.5285
  256TMC3    H2 3938   0.444   0.295  10.623 -1.3059 -1.0868  1.1668
  256TMC3    C7 3939   0.242   0.198  10.472 -0.9453  0.3918 -0.2459
  256TMC3    C8 3940   0.635   0.304  10.454  0.3411 -0.5380  0.4958
  256TMC3    O1 3941   0.183   0.113  10.405 -0.9288  0.4078 -0.3072
  256TMC3    O2 3942   0.657   0.383  10.544 -0.2860  0.0773  0.5137
  257MPD2     C 3943   4.589   1.521  13.361  0.0454 -0.5944  0.1587
  257MPD2    C1 3944   4.663   1.459  13.260  0.2856 -0.1672  0.4270
  257MPD2    C2 3945   0.030   1.382  13.290  0.0032 -0.5839  0.3005
  257MPD2    C3 3946   0.051   1.356  13.424 -0.2861  0.3246  0.5738
  257MPD2    C4 3947   4.728   1.426  13.522 -0.0718  0.0113  0.0391
  257MPD2    C5 3948   4.628   1.511  13.488  0.4358 -0.0777  0.1286
  257MPD2     H 3949   0.091   1.336  13.213 -2.1285 -4.5216  0.9745
  257MPD2    H1 3950   0.001   1.407  13.628  0.6661  1.3144  0.1599
  257MPD2    H2 3951   4.509   1.586  13.326  1.4023  1.9786  1.7910
  257MPD2    H3 3952   4.572   1.559  13.567 -3.2876 -0.1725 -2.4316
  257MPD2     N 3953   0.149   1.251  13.449  0.3370  0.1722  0.1915
  257MPD2    H5 3954   0.188   1.204  13.368 -0.9633 -0.9830  0.2359
  257MPD2    N1 3955   4.613   1.491  13.133  0.4035 -0.3184  0.8450
  257MPD2    H7 3956   4.528   1.545  13.126 -0.4403 -1.6162  1.0645
  258TMC3    C1 3957   0.310   1.121  13.577 -0.0100 -0.3811  0.0449
  258TMC3    C2 3958   0.363   1.075  13.460 -0.0405  0.4380 -0.2157
  258TMC3    C3 3959   0.476   1.004  13.470  0.0633 -0.0072  0.6630
  258TMC3    C4 3960   0.360   1.096  13.697 -0.8404 -0.6832 -0.8038
  258TMC3    C5 3961   0.487   1.040  13.704 -0.1927 -0.3654 -0.1409
  258TMC3    C6 3962   0.545   0.986  13.592  0.2999  0.3318  0.1716
  258TMC3     C 3963   0.198   1.219  13.577  0.0994  0.3116 -0.4751
  258TMC3     O 3964   0.193   1.282  13.677 -0.5476  0.6150 -0.3089
  258TMC3     H 3965   0.310   1.085  13.366  0.0682  2.7526 -0.0379
  258TMC3    H1 3966   0.306   1.117  13.789  1.1451 -2.7385  0.8325
  258TMC3    H2 3967   0.639   0.932  13.593  0.3054  0.3486  0.6303
  258TMC3    C7 3968   0.514   0.983  13.836 -1.1021  0.2637 -0.1326
  258TMC3    C8 3969   0.523   0.930  13.352 -1.2810  0.1527 -0.4516
  258TMC3    O1 3970   0.420   0.931  13.898  0.3695  0.2767  0.2938
  258TMC3    O2 3971   0.438   0.899  13.271  0.8503 -0.3089  0.0228
  259MPD2     C 3972   3.594   3.817   0.949  0.2064  0.0639  0.1678
  259MPD2    C1 3973   3.722   3.766   0.937  0.4109 -0.1877 -0.3773
  259MPD2    C2 3974   3.768   3.748   0.812 -0.6077  0.1913 -0.2440
  259MPD2    C3 3975   3.694   3.782   0.697 -0.5039 -0.3569  0.4847
  259MPD2    C4 3976   3.579   3.842   0.707  0.1338  0.3114  0.5667
  259MPD2    C5 3977   3.533   3.854   0.830 -0.0485 -0.2612  0.4378
  259MPD2     H 3978   3.869   3.712   0.795 -0.6497  0.1763 -0.4620
  259MPD2    H1 3979   3.518   3.875   0.624 -0.0514 -0.2248  0.4953
  259MPD2    H2 3980   3.545   3.822   1.045 -0.1910  1.4925 -0.1094
  259MPD2    H3 3981   3.432   3.892   0.836  0.0009 -0.0685  0.0483
  259MPD2     N 3982   3.746   3.757   0.564  0.6949 -0.5100 -0.0446
  259MPD2    H5 3983   3.823   3.693   0.547  0.3713 -0.6337 -1.0289
  259MPD2    N1 3984   3.798   3.738   1.055  0.4420  0.3527 -0.6153
  259MPD2    H7 3985   3.753   3.770   1.140  1.0417 -0.6362  0.0684
  260TMC3    C1 3986   3.772   3.775   0.334 -0.2257  0.1202 -0.0207
  260TMC3    C2 3987   3.806   3.863   0.232 -0.4023 -0.6571  0.0048
  260TMC3    C3 3988   3.843   3.809   0.112  1.1606 -0.3281 -0.6366
  260TMC3    C4 3989   3.781   3.643   0.327  0.2794 -0.7367  0.3271
  260TMC3    C5 3990   3.810   3.592   0.200  0.4012  0.1432  0.7950
  260TMC3    C6 3991   3.850   3.669   0.096 -0.4388 -0.4614 -0.1066
  260TMC3     C 3992   3.724   3.838   0.457 -0.3106  0.0649 -0.3535
  260TMC3     O 3993   3.681   3.954   0.450 -0.3189 -0.0533 -0.2579
  260TMC3     H 3994   3.801   3.970   0.243  2.6240 -0.3831 -1.5096
  260TMC3    H1 3995   3.743   3.582   0.408 -1.3182  0.3081  0.3717
  260TMC3    H2 3996   3.871   3.623  17.767 -0.5181 -0.3505 -0.1770
  260TMC3    C7 3997   3.842   3.456   0.200  0.2628  0.3896 -0.1990
  260TMC3    C8 3998   3.943   3.877   0.036  0.0572 -0.4543 -0.2293
  260TMC3    O1 3999   3.810   3.403   0.094 -0.2219 -0.0060 -0.1046
  260TMC3    O2 4000   3.949   3.997   0.018 -0.0515  0.5482 -0.0158
  261MPD2     C 4001   0.581   1.090  12.267 -0.4053  0.3137 -0.1131
  261MPD2    C1 4002   0.690   1.164  12.298  0.5036 -0.2982  0.7621
  261MPD2    C2 4003   0.721   1.277  12.221 -0.0663  0.5450 -0.1110
  261MPD2    C3 4004   0.635   1.324  12.128  0.4082  0.8235 -0.0607
  261MPD2    C4 4005   0.525   1.248  12.099  0.2636  0.1965  0.1340
  261MPD2    C5 4006   0.492   1.134  12.172 -0.2857 -0.1974  0.0373
  261MPD2     H 4007   0.795   1.350  12.254 -0.1115  1.1634 -1.3586
  261MPD2    H1 4008   0.451   1.279  12.025  1.4071 -1.4433 -1.6816
  261MPD2    H2 4009   0.559   0.995  12.313 -0.3448  1.1745  1.7048
  261MPD2    H3 4010   0.403   1.078  12.145 -0.2016 -1.4036  2.1654
  261MPD2     N 4011   0.660   1.453  12.073  0.2637  0.0439  0.1879
  261MPD2    H5 4012   0.750   1.496  12.094 -0.0648  1.4752 -1.3380
  261MPD2    N1 4013   0.773   1.140  12.411 -0.1181  0.3954 -0.0487
  261MPD2    H7 4014   0.845   1.211  12.428  0.4439  0.4886 -2.8271
  262TMC3    C1 4015   0.608   1.658  11.976  0.5202  0.1483 -0.2645
  262TMC3    C2 4016   0.532   1.774  11.995  0.2545  1.5299 -0.6861
  262TMC3    C3 4017   0.588   1.890  11.952  0.6335 -0.5907  0.1232
  262TMC3    C4 4018   0.726   1.661  11.911  0.2454  0.1097  0.2483
  262TMC3    C5 4019   0.760   1.779  11.849  0.0873 -0.2603  0.4121
  262TMC3    C6 4020   0.687   1.891  11.866  0.1692 -0.5995  0.2598
  262TMC3     C 4021   0.555   1.533  12.023 -0.2204 -0.0097 -0.5861
  262TMC3     O 4022   0.430   1.531  12.032 -0.2891 -0.3249  0.2609
  262TMC3     H 4023   0.443   1.769  12.057  1.1972  1.5495  0.6685
  262TMC3    H1 4024   0.778   1.567  11.901 -0.1239 -0.0165 -0.4415
  262TMC3    H2 4025   0.726   1.984  11.825  2.3861 -0.3946  2.8506
  262TMC3    C7 4026   0.847   1.759  11.727 -0.2248 -0.1714 -0.2172
  262TMC3    C8 4027   0.528   2.016  11.977  1.0991  0.5887 -0.4229
  262TMC3    O1 4028   0.872   1.646  11.691 -0.8376 -0.5799  0.7809
  262TMC3    O2 4029   0.601   2.107  11.942 -0.3705 -0.8599 -0.1723
  263MPD2     C 4030   1.592   0.755  11.657 -0.2914 -0.8474  1.0858
  263MPD2    C1 4031   1.708   0.736  11.583  0.3675 -0.1324  0.1730
  263MPD2    C2 4032   1.731   0.810  11.465  0.6799  0.4196  0.4879
  263MPD2    C3 4033   1.634   0.887  11.413  0.5911  0.2350  0.3925
  263MPD2    C4 4034   1.516   0.900  11.487  0.1051  0.6788  0.0504
  263MPD2    C5 4035   1.490   0.837  11.605  0.3865 -0.1190  0.5190
  263MPD2     H 4036   1.827   0.801  11.416 -0.3267  0.6584 -1.5328
  263MPD2    H1 4037   1.440   0.964  11.445 -0.0038 -0.2361 -1.1749
  263MPD2    H2 4038   1.562   0.684  11.734 -0.9102 -1.8892 -0.1082
  263MPD2    H3 4039   1.394   0.847  11.655  0.5200 -1.6661  1.0768
  263MPD2     N 4040   1.656   0.966  11.285 -0.1898 -0.3927 -0.1328
  263MPD2    H5 4041   1.747   0.945  11.245  1.0632 -1.2131  3.1138
  263MPD2    N1 4042   1.797   0.646  11.644 -0.0153  0.7200  0.3108
  263MPD2    H7 4043   1.768   0.618  11.737 -0.8503  0.6538  0.0301
  264TMC3    C1 4044   1.629   1.138  11.132 -0.3446 -1.0441  0.1567
  264TMC3    C2 4045   1.635   1.277  11.134  0.3640  0.5457  0.6482
  264TMC3    C3 4046   1.671   1.342  11.020  0.1131 -0.0764 -0.2411
  264TMC3    C4 4047   1.662   1.066  11.020 -0.1011 -0.1943  0.5040
  264TMC3    C5 4048   1.701   1.142  10.909  0.2062  0.1794  0.5311
  264TMC3    C6 4049   1.713   1.277  10.907 -0.2784  0.1824 -0.1180
  264TMC3     C 4050   1.578   1.077  11.246  0.0892 -0.0601  0.5920
  264TMC3     O 4051   1.483   1.130  11.300  0.2910  0.3930  0.2236
  264TMC3     H 4052   1.607   1.330  11.224 -0.0051  0.5908  0.5052
  264TMC3    H1 4053   1.649   0.960  11.008 -0.9184 -0.0746  0.3562
  264TMC3    H2 4054   1.748   1.330  10.818  2.1860 -2.1072 -0.5188
  264TMC3    C7 4055   1.693   1.073  10.774 -0.4072  0.1395  0.6345
  264TMC3    C8 4056   1.693   1.480  11.017  0.9814  0.6547 -0.3422
  264TMC3    O1 4057   1.769   1.118  10.685  0.2556 -0.2568 -0.4685
  264TMC3    O2 4058   1.786   1.512  10.950 -0.6575  0.0806  0.3115
  265MPD2     C 4059   4.111   1.553  15.577 -0.3957  0.4471  0.4916
  265MPD2    C1 4060   4.157   1.675  15.525 -0.7127  0.0478  0.0972
  265MPD2    C2 4061   4.235   1.680  15.407 -0.6361  0.2511 -0.1739
  265MPD2    C3 4062   4.260   1.563  15.336 -0.0210 -0.7581  0.3507
  265MPD2    C4 4063   4.205   1.447  15.386  0.6406  0.6190  0.3477
  265MPD2    C5 4064   4.146   1.440  15.504  0.5937  0.2658 -0.1678
  265MPD2     H 4065   4.268   1.779  15.377  2.5002 -0.1288  1.9727
  265MPD2    H1 4066   4.210   1.352  15.333 -3.6964 -1.0927  3.0288
  265MPD2    H2 4067   4.046   1.543  15.663 -0.1237 -2.5242  0.3654
  265MPD2    H3 4068   4.117   1.343  15.541 -1.7749  0.9125 -0.2814
  265MPD2     N 4069   4.307   1.560  15.207 -0.5975  0.5850  0.4419
  265MPD2    H5 4070   4.325   1.469  15.166 -0.1922  1.1691 -0.6974
  265MPD2    N1 4071   4.118   1.805  15.582 -0.6578 -0.3332 -0.0953
  265MPD2    H7 4072   4.136   1.886  15.523  0.4288  0.0298  0.7499
  266TMC3    C1 4073   4.058   1.960  15.748  0.5508  0.0973 -0.4027
  266TMC3    C2 4074   4.133   2.011  15.845  0.2167 -0.3757 -0.5470
  266TMC3    C3 4075   4.123   2.143  15.857  0.5356 -0.8209  0.1858
  266TMC3    C4 4076   3.983   2.027  15.651 -0.1972 -0.2872  0.5331
  266TMC3    C5 4077   3.973   2.164  15.668  0.3579 -0.2410 -0.0643
  266TMC3    C6 4078   4.055   2.219  15.767 -0.2418 -0.1566  0.4973
  266TMC3     C 4079   4.075   1.822  15.715  0.0089 -0.0081 -0.7534
  266TMC3     O 4080   4.081   1.746  15.809 -0.1445 -0.3189 -0.4881
  266TMC3     H 4081   4.177   1.944  15.918 -1.1679  0.4828  1.1000
  266TMC3    H1 4082   3.910   1.984  15.584  1.7316 -0.1070 -1.7243
  266TMC3    H2 4083   4.075   2.325  15.760  1.2320 -0.4992 -0.4395
  266TMC3    C7 4084   3.902   2.249  15.572 -0.1032 -0.0296 -0.0927
  266TMC3    C8 4085   4.214   2.213  15.958  0.0363  0.9674 -0.2629
  266TMC3    O1 4086   3.869   2.182  15.474  0.1376 -0.0167  0.7920
  266TMC3    O2 4087   4.311   2.156  16.003 -0.0871  0.3512 -0.1873
  267MPD2     C 4088   1.520   3.551  17.725  0.6449 -0.2919 -0.1917
  267MPD2    C1 4089   1.646   3.559  17.669  0.3751  0.1415  0.1130
  267MPD2    C2 4090   1.662   3.564  17.530  0.5649 -0.4168  0.9818
  267MPD2    C3 4091   1.547   3.581  17.449 -0.4381  0.9886  0.2833
  267MPD2    C4 4092   1.419   3.584  17.506 -0.4256  0.4733 -0.6878
  267MPD2    C5 4093   1.414   3.570  17.642  0.4662  0.0263  0.4617
  267MPD2     H 4094   1.760   3.562  17.484  0.2312  1.1055  0.2164
  267MPD2    H1 4095   1.329   3.601  17.448 -0.1469  0.8648 -1.0036
  267MPD2    H2 4096   1.504   3.545   0.064  1.4876  3.0373  0.1251
  267MPD2    H3 4097   1.314   3.558  17.683  0.3779 -0.9537 -0.0247
  267MPD2     N 4098   1.557   3.596  17.304 -0.1322  0.1075  0.3519
  267MPD2    H5 4099   1.470   3.594  17.252 -1.0482 -0.7527  1.9445
  267MPD2    N1 4100   1.762   3.558  17.750  0.1982 -0.1068  0.2574
  267MPD2    H7 4101   1.744   3.543   0.081  0.9570 -1.3317  0.2060
  268TMC3    C1 4102   1.987   3.550   0.044 -0.3832 -0.2280  0.5067
  268TMC3    C2 4103   2.112   3.601   0.011 -0.2540  0.0371 -0.1184
  268TMC3    C3 4104   2.222   3.526   0.044  0.0470 -0.7851 -0.2293
  268TMC3    C4 4105   1.969   3.437   0.123  0.2698 -0.1714  0.0208
  268TMC3    C5 4106   2.087   3.375   0.164 -0.7660 -0.2438 -0.0924
  268TMC3    C6 4107   2.211   3.418   0.120 -0.5246  0.0809 -0.4658
  268TMC3     C 4108   1.888   3.587  17.711  0.2577 -0.3365 -0.4681
  268TMC3     O 4109   1.938   3.615  17.605 -0.2773  0.6433 -0.0169
  268TMC3     H 4110   2.123   3.690  17.718 -1.2752  1.5391  1.8820
  268TMC3    H1 4111   1.873   3.394   0.148  0.5932  0.2382  1.9024
  268TMC3    H2 4112   2.298   3.365   0.157 -0.3315 -0.7904 -2.1811
  268TMC3    C7 4113   2.083   3.285   0.276 -0.3492 -0.4200 -0.2613
  268TMC3    C8 4114   2.351   3.565  17.765  0.0830 -0.2103 -0.0088
  268TMC3    O1 4115   2.168   3.196   0.274  0.1515  0.0268  0.1370
  268TMC3    O2 4116   2.439   3.570   0.077  0.6183  0.2629 -0.1157
  269MPD2     C 4117   2.115   2.749  15.719  0.3839  0.6620  0.1935
  269MPD2    C1 4118   2.033   2.712  15.614  0.0278 -0.0340  0.2896
  269MPD2    C2 4119   2.024   2.791  15.503  0.0248 -0.7556 -1.0450
  269MPD2    C3 4120   2.098   2.904  15.485  0.1786  0.3049 -0.1708
  269MPD2    C4 4121   2.179   2.945  15.593 -0.3496  0.4823  0.4744
  269MPD2    C5 4122   2.184   2.868  15.710  1.0185  0.1637  0.3058
  269MPD2     H 4123   1.959   2.760  15.422 -0.6932 -0.6253 -0.5276
  269MPD2    H1 4124   2.238   3.035  15.596 -0.0159  0.0773  5.0018
  269MPD2    H2 4125   2.134   2.698  15.812 -0.4649 -0.0822 -0.0424
  269MPD2    H3 4126   2.249   2.891  15.793 -0.1607 -0.0873  1.2938
  269MPD2     N 4127   2.078   2.982  15.368 -0.0557 -0.0319  0.5615
  269MPD2    H5 4128   2.018   2.940  15.298 -0.6401  1.7579 -0.0348
  269MPD2    N1 4129   1.950   2.599  15.643 -0.0268 -0.5433  0.1068
  269MPD2    H7 4130   1.960   2.549  15.731  2.7557 -1.1628 -0.5475
  270TMC3    C1 4131   1.771   2.442  15.617 -0.5730 -0.1403  0.1220
  270TMC3    C2 4132   1.671   2.389  15.529  0.4171 -0.4290  0.0380
  270TMC3    C3 4133   1.673   2.258  15.501 -0.0428 -0.0169  0.7243
  270TMC3    C4 4134   1.848   2.358  15.691  0.0237  0.8312 -0.4572
  270TMC3    C5 4135   1.841   2.230  15.665 -0.2113  0.1457  0.0089
  270TMC3    C6 4136   1.752   2.174  15.572  0.0418 -0.3191 -0.8875
  270TMC3     C 4137   1.835   2.561  15.568  0.4818  0.4902 -0.1772
  270TMC3     O 4138   1.784   2.607  15.468  0.5335  0.8032 -0.7158
  270TMC3     H 4139   1.611   2.457  15.470  1.9212 -1.1117 -2.2521
  270TMC3    H1 4140   1.927   2.386  15.760  0.0382 -0.2967 -0.0162
  270TMC3    H2 4141   1.755   2.067  15.557 -1.1278 -0.3164 -1.1418
  270TMC3    C7 4142   1.932   2.135  15.730  0.2123 -0.0986  0.0872
  270TMC3    C8 4143   1.576   2.205  15.414  0.9862 -0.1004  0.2377
  270TMC3    O1 4144   1.995   2.065  15.652 -0.1307 -0.4775 -0.5419
  270TMC3    O2 4145   1.476   2.271  15.401  0.1194  0.7427 -0.4020
  271MPD2     C 4146   1.170   1.598  13.748 -0.4587  1.1385 -0.4293
  271MPD2    C1 4147   1.122   1.635  13.871  0.4340 -0.6029  0.1377
  271MPD2    C2 4148   0.984   1.677  13.876 -0.5509  0.6853 -0.0407
  271MPD2    C3 4149   0.911   1.700  13.767  0.4682  0.1890  0.0790
  271MPD2    C4 4150   0.965   1.646  13.649 -0.1258 -0.8097  0.3423
  271MPD2    C5 4151   1.088   1.585  13.641 -0.0250  0.5523  0.5348
  271MPD2     H 4152   0.938   1.704  13.970 -0.8965  0.2900 -0.0970
  271MPD2    H1 4153   0.913   1.647  13.554  0.5890 -0.4775 -0.0467
  271MPD2    H2 4154   1.273   1.571  13.729 -0.9827 -1.0925 -0.1396
  271MPD2    H3 4155   1.130   1.549  13.548 -0.8559  0.4855  0.1856
  271MPD2     N 4156   0.790   1.769  13.763  0.0295  0.1614 -0.3612
  271MPD2    H5 4157   0.753   1.797  13.673 -0.2610 -0.7650 -0.5342
  271MPD2    N1 4158   1.199   1.640  13.987 -0.3273 -0.0195  0.1397
  271MPD2    H7 4159   1.148   1.662  14.072 -0.7241 -1.0737  0.1738
  272TMC3    C1 4160   1.394   1.628  14.129 -0.1750 -0.1270 -0.7768
  272TMC3    C2 4161   1.524   1.580  14.148  0.2323 -0.3701  0.1245
  272TMC3    C3 4162   1.574   1.587  14.280 -0.1652  0.0786  0.1241
  272TMC3    C4 4163   1.312   1.678  14.231  0.0161 -0.6108 -0.3439
  272TMC3    C5 4164   1.375   1.683  14.347 -0.3329 -0.6722 -0.0810
  272TMC3    C6 4165   1.504   1.653  14.377 -0.0554 -0.4474 -0.1420
  272TMC3     C 4166   1.339   1.619  13.994  0.4447  0.2315 -0.0526
  272TMC3     O 4167   1.419   1.598  13.906  0.0075  0.1292  0.5046
  272TMC3     H 4168   1.580   1.553  14.059 -0.6934 -1.8115 -0.0297
  272TMC3    H1 4169   1.214   1.720  14.214 -0.0068 -0.8713 -0.8296
  272TMC3    H2 4170   1.547   1.655  14.476 -2.8035 -0.2811  1.0558
  272TMC3    C7 4171   1.295   1.721  14.458 -0.1057  0.0184 -0.3319
  272TMC3    C8 4172   1.718   1.597  14.292  0.7577  0.2150  0.1042
  272TMC3    O1 4173   1.173   1.698  14.452 -0.1658 -0.5546 -0.5722
  272TMC3    O2 4174   1.770   1.634  14.185 -0.1650 -0.3975 -0.0668
  273MPD2     C 4175   2.440   4.422  11.707  0.0780 -0.0428 -0.6543
  273MPD2    C1 4176   2.572   4.444  11.676  0.1299 -0.4734 -0.2492
  273MPD2    C2 4177   2.610   4.461  11.546  1.2762  0.6884  0.9545
  273MPD2    C3 4178   2.507   4.488  11.454 -0.2071  0.1341  0.8288
  273MPD2    C4 4179   2.376   4.469  11.484 -0.9676  0.7580  0.9055
  273MPD2    C5 4180   2.341   4.428  11.609 -0.2322  0.2062  0.3071
  273MPD2     H 4181   2.714   4.467  11.516  0.6990  0.0623 -1.1986
  273MPD2    H1 4182   2.299   4.483  11.409  0.6903  0.0359 -0.9325
  273MPD2    H2 4183   2.410   4.410  11.810 -1.2932  1.1338 -0.9054
  273MPD2    H3 4184   2.238   4.421  11.643 -1.2242  1.3983 -2.4330
  273MPD2     N 4185   2.534   4.518  11.323  0.4540 -0.2653  0.1452
  273MPD2    H5 4186   2.447   4.532  11.273 -0.4442 -1.0663  1.4670
  273MPD2    N1 4187   2.668   4.448  11.787 -0.0204 -0.3376  0.3388
  273MPD2    H7 4188   2.633   4.425  11.879  0.1761  1.9846  0.9814
  274TMC3    C1 4189   2.646   4.628  11.148  0.3839  1.0582 -0.7935
  274TMC3    C2 4190   2.523   4.642  11.096  0.0773 -0.1722  0.3059
  274TMC3    C3 4191   2.479   0.023  11.061 -0.3884 -0.8132 -0.5794
  274TMC3    C4 4192   2.721   4.741  11.160  0.1338 -0.6838 -0.0687
  274TMC3    C5 4193   2.664   0.123  11.152 -0.1276  0.0539 -0.0561
  274TMC3    C6 4194   2.548   0.138  11.086 -0.2396  0.6402 -0.4397
  274TMC3     C 4195   2.657   4.549  11.268  0.2310  0.0419 -0.1340
  274TMC3     O 4196   2.762   4.581  11.325  0.4946  0.7592  0.4460
  274TMC3     H 4197   2.463   4.552  11.091  0.3328 -0.2607 -1.1614
  274TMC3    H1 4198   2.827   4.741  11.184  0.1486  1.9987 -0.1839
  274TMC3    H2 4199   2.487   0.226  11.100 -1.5799  0.0775 -2.6985
  274TMC3    C7 4200   2.658   0.197  11.281  0.1427 -0.7756 -0.6005
  274TMC3    C8 4201   2.373   0.024  10.964  0.0229  0.6728 -0.4651
  274TMC3    O1 4202   2.612   0.312  11.278 -0.5003 -0.7749 -0.5321
  274TMC3    O2 4203   2.298   4.669  10.960  0.6960  0.7490 -0.4646
  275MPD2     C 4204   2.618   2.821  13.906 -0.2948 -0.1509  0.0571
  275MPD2    C1 4205   2.535   2.912  13.982  0.7945 -0.7773  0.5272
  275MPD2    C2 4206   2.399   2.892  13.998  0.3495 -0.3226  0.2927
  275MPD2    C3 4207   2.350   2.766  13.954 -0.2973 -0.0946 -0.0915
  275MPD2    C4 4208   2.435   2.681  13.893 -0.9281  0.2779  0.2062
  275MPD2    C5 4209   2.564   2.702  13.866  0.3573 -0.0680  0.7415
  275MPD2     H 4210   2.329   2.956  14.050  1.2969  0.8528  0.1248
  275MPD2    H1 4211   2.396   2.587  13.857  0.1163 -0.2237  0.3879
  275MPD2    H2 4212   2.720   2.843  13.874 -0.0718 -1.4751 -0.1243
  275MPD2    H3 4213   2.611   2.621  13.812 -1.3084  1.1401 -2.5423
  275MPD2     N 4214   2.217   2.728  13.958 -0.0745 -0.5305  0.2350
  275MPD2    H5 4215   2.203   2.638  13.913 -1.6261 -0.3424  0.3187
  275MPD2    N1 4216   2.588   3.034  14.027  0.0997 -0.6511  0.5580
  275MPD2    H7 4217   2.536   3.089  14.095  1.7114  0.9678  0.4813
  276TMC3    C1 4218   2.725   3.200  14.092  0.0881  0.4049  0.0448
  276TMC3    C2 4219   2.614   3.268  14.132 -0.3303  0.5007 -0.0167
  276TMC3    C3 4220   2.623   3.334  14.252 -0.1800 -0.1847  0.1383
  276TMC3    C4 4221   2.840   3.195  14.156  0.5506  0.2094 -0.0775
  276TMC3    C5 4222   2.845   3.265  14.269 -0.1668  0.8423 -0.5624
  276TMC3    C6 4223   2.743   3.328  14.319 -0.0436  0.5416 -0.8854
  276TMC3     C 4224   2.709   3.086  14.005 -0.1244  0.4289 -0.2158
  276TMC3     O 4225   2.809   3.044  13.944  0.1778  0.0609  0.3041
  276TMC3     H 4226   2.521   3.266  14.076  1.3785 -1.8625 -2.7866
  276TMC3    H1 4227   2.926   3.143  14.117  0.0562 -0.3491 -0.4158
  276TMC3    H2 4228   2.758   3.381  14.412  2.8342 -3.0502  0.7075
  276TMC3    C7 4229   2.921   3.208  14.381  0.1535  0.3067  0.6866
  276TMC3    C8 4230   2.511   3.305  14.337  0.3004  0.0678 -0.2958
  276TMC3    O1 4231   2.860   3.176  14.482 -0.4625 -0.0599  0.1537
  276TMC3    O2 4232   2.400   3.304  14.288 -0.5991 -0.5953  0.2615
  277MPD2     C 4233   4.005   1.929  13.044  0.2142  0.4896  0.3987
  277MPD2    C1 4234   3.906   1.967  13.137 -0.2992 -0.2565  0.0109
  277MPD2    C2 4235   3.896   1.902  13.262 -0.0356  0.0430  0.5696
  277MPD2    C3 4236   3.985   1.800  13.287 -0.1817 -0.7132  1.1992
  277MPD2    C4 4237   4.097   1.774  13.205 -0.2597 -0.4702  0.7202
  277MPD2    C5 4238   4.098   1.836  13.081  0.0989  0.7012  0.3649
  277MPD2     H 4239   3.810   1.916  13.326  0.1774 -0.1903  0.9009
  277MPD2    H1 4240   4.179   1.711  13.238  0.5704  0.2973  0.1307
  277MPD2    H2 4241   4.022   1.974  12.947  0.6011  1.8934  1.1230
  277MPD2    H3 4242   4.193   1.824  13.030  0.0079  1.0372  0.1150
  277MPD2     N 4243   3.963   1.740  13.413 -0.4704  0.5189 -0.6489
  277MPD2    H5 4244   3.879   1.758  13.469 -0.6854  0.3575 -0.9184
  277MPD2    N1 4245   3.817   2.069  13.095 -0.3608  0.1153 -0.1306
  277MPD2    H7 4246   3.810   2.088  12.995 -0.3985 -4.1456 -0.9297
  278TMC3    C1 4247   3.956   1.566  13.553 -0.6073 -0.3118  0.5332
  278TMC3    C2 4248   3.967   1.431  13.529 -0.1647  0.2845 -0.2752
  278TMC3    C3 4249   3.858   1.352  13.547 -0.2624 -0.6309 -0.1046
  278TMC3    C4 4250   3.844   1.627  13.599  0.2728  0.1464 -0.2896
  278TMC3    C5 4251   3.732   1.545  13.617  0.5421 -0.3503  0.0787
  278TMC3    C6 4252   3.736   1.402  13.598 -0.4637  0.5973 -0.1744
  278TMC3     C 4253   4.035   1.635  13.463  0.4320  0.1568  0.1450
  278TMC3     O 4254   4.138   1.580  13.420  0.0407  0.2954 -0.3282
  278TMC3     H 4255   4.053   1.386  13.480  0.4059  1.2735 -0.1952
  278TMC3    H1 4256   3.839   1.734  13.614  0.1600  0.3816 -1.9759
  278TMC3    H2 4257   3.657   1.336  13.634  0.5162 -0.6642 -0.3493
  278TMC3    C7 4258   3.597   1.604  13.635  0.1241 -0.1283  0.2517
  278TMC3    C8 4259   3.862   1.208  13.533 -0.7903  0.2410  0.2662
  278TMC3    O1 4260   3.599   1.725  13.615  0.3764 -0.2408 -0.0889
  278TMC3    O2 4261   3.972   1.156  13.547  0.3491  0.2108  0.1411
  279MPD2     C 4262   3.809   2.156   0.133  0.6499  0.9611  0.0863
  279MPD2    C1 4263   3.701   2.093   0.069 -0.0435  0.2557  0.1039
  279MPD2    C2 4264   3.698   2.100  17.701  0.1108  0.0499  0.1919
  279MPD2    C3 4265   3.787   2.164  17.619  0.6416 -0.1577 -0.1916
  279MPD2    C4 4266   3.890   2.225  17.681 -0.1699  0.2472  0.9867
  279MPD2    C5 4267   3.894   2.231   0.052 -0.1564 -1.3402  0.5370
  279MPD2     H 4268   3.620   2.048  17.646 -0.2681  1.1122 -0.2843
  279MPD2    H1 4269   3.958   2.288  17.625  0.3590 -2.4231 -1.3993
  279MPD2    H2 4270   3.806   2.180   0.238 -0.6521 -0.1256  0.2869
  279MPD2    H3 4271   3.969   2.283   0.110  0.2823 -0.3705 -0.8829
  279MPD2     N 4272   3.766   2.176  17.477 -0.1500 -0.3548 -0.0379
  279MPD2    H5 4273   3.795   2.263  17.434  0.4679 -0.1321  0.8187
  279MPD2    N1 4274   3.608   2.025   0.147 -0.1221 -0.5603  0.0026
  279MPD2    H7 4275   3.623   2.013   0.246  0.0830 -5.0061 -0.5492
  280TMC3    C1 4276   3.388   1.962   0.198  0.0503 -0.3032 -0.1981
  280TMC3    C2 4277   3.294   1.866   0.162 -0.1909  0.3789  0.2012
  280TMC3    C3 4278   3.172   1.850   0.230  0.1014  0.1373  0.2958
  280TMC3    C4 4279   3.356   2.050   0.294  0.3063 -0.2450  0.3570
  280TMC3    C5 4280   3.233   2.038   0.355  0.1348 -0.8183 -0.2298
  280TMC3    C6 4281   3.147   1.933   0.336 -0.2352  0.7748  0.0930
  280TMC3     C 4282   3.481   2.003   0.099  0.0452  0.1349 -0.7186
  280TMC3     O 4283   3.435   2.009  17.752 -0.4134 -0.5688 -0.0643
  280TMC3     H 4284   3.316   1.796   0.083  3.3745  0.2650  1.3031
  280TMC3    H1 4285   3.426   2.126   0.325  1.0145 -0.0520 -1.7434
  280TMC3    H2 4286   3.042   1.935   0.362 -0.6695  2.3355 -1.8180
  280TMC3    C7 4287   3.190   2.169   0.407  0.9262  0.1580  0.2159
  280TMC3    C8 4288   3.107   1.722   0.248  0.2737  0.3480 -0.3898
  280TMC3    O1 4289   3.267   2.220   0.490  0.0772  0.5950 -0.0801
  280TMC3    O2 4290   3.015   1.703   0.334  0.5597 -0.3188 -0.3596
  281TMC3    C1 4291   2.393   2.161  13.200 -0.1101 -0.1656  0.7989
  281TMC3    C2 4292   2.263   2.193  13.227 -0.7696 -0.4173 -0.2227
  281TMC3    C3 4293   2.188   2.089  13.277  0.0505 -0.7787 -0.4662
  281TMC3    C4 4294   2.450   2.034  13.207 -0.1607 -0.5541 -0.2733
  281TMC3    C5 4295   2.364   1.937  13.250 -0.3618 -0.4289  0.4177
  281TMC3    C6 4296   2.234   1.965  13.288 -0.0885 -0.3975 -0.0282
  281TMC3     C 4297   2.475   2.262  13.134 -0.1769  0.2559  0.2319
  281TMC3     O 4298   2.561   2.222  13.058 -0.1042  0.1516 -0.1702
  281TMC3     H 4299   2.218   2.290  13.207  0.6303  0.2455 -0.1902
  281TMC3    H1 4300   2.551   2.010  13.178 -0.3658 -2.3342  0.4439
  281TMC3    H2 4301   2.184   1.894  13.353  0.8013 -1.0617 -0.0713
  281TMC3    C7 4302   2.389   1.812  13.180 -0.3562  0.5076  0.2922
  281TMC3    C8 4303   2.047   2.106  13.304 -0.0227  0.4536 -0.2248
  281TMC3    O1 4304   2.503   1.781  13.156 -0.0554  0.5330 -0.2576
  281TMC3    O2 4305   1.989   2.001  13.312 -0.0859 -0.1430 -0.0616
  282MPD2     C 4306   4.074   3.676  14.810 -0.0055  0.3331  0.2764
  282MPD2    C1 4307   3.954   3.661  14.870  0.4146  0.5306  0.5722
  282MPD2    C2 4308   3.838   3.670  14.794 -0.2899 -0.6507  0.4353
  282MPD2    C3 4309   3.848   3.695  14.658 -0.1830  0.3624  0.0780
  282MPD2    C4 4310   3.968   3.704  14.603  0.3079  1.0004  0.4876
  282MPD2    C5 4311   4.083   3.694  14.677  0.1773  0.7003 -0.0611
  282MPD2     H 4312   3.739   3.648  14.833 -0.7452 -1.8578 -1.3826
  282MPD2    H1 4313   3.988   3.720  14.497 -2.3389 -2.9744 -0.6517
  282MPD2    H2 4314   4.162   3.683  14.873  0.9655 -0.4300 -0.9976
  282MPD2    H3 4315   4.180   3.697  14.628 -1.0311  2.0143 -2.3832
  282MPD2     N 4316   3.731   3.718  14.579 -0.6428 -0.3532  0.0382
  282MPD2    H5 4317   3.648   3.723  14.637 -0.7451  0.9517 -0.2237
  282MPD2    N1 4318   3.934   3.641  15.005 -0.1768 -1.5276  0.0516
  282MPD2    H7 4319   3.839   3.618  15.035 -1.4146  0.6395 -2.1832
  283TMC3    C1 4320   3.968   3.649  15.234 -0.3108 -0.0303 -0.0569
  283TMC3    C2 4321   3.997   3.746  15.318 -0.0292 -0.2854 -0.2950
  283TMC3    C3 4322   3.924   3.742  15.432  0.6414 -0.0021 -0.6236
  283TMC3    C4 4323   3.882   3.540  15.259  0.1847 -0.3894 -0.0919
  283TMC3    C5 4324   3.817   3.541  15.377 -0.2896 -0.2851 -0.1651
  283TMC3    C6 4325   3.832   3.646  15.461 -0.3425  0.1038 -0.2982
  283TMC3     C 4326   4.029   3.662  15.102 -0.0013  0.3031 -0.0548
  283TMC3     O 4327   4.145   3.701  15.106 -0.0477  0.4381 -0.0965
  283TMC3     H 4328   4.071   3.819  15.288 -1.9906  1.2341 -1.4499
  283TMC3    H1 4329   3.885   3.454  15.194 -1.7947  0.3202 -1.1331
  283TMC3    H2 4330   3.766   3.652  15.548  1.5587 -0.6089  1.1818
  283TMC3    C7 4331   3.775   3.422  15.447  0.2478  0.0889 -0.3025
  283TMC3    C8 4332   3.923   3.857  15.520  0.4043 -0.3943 -0.7719
  283TMC3    O1 4333   3.755   3.424  15.570  0.4162  0.7307  0.4676
  283TMC3    O2 4334   3.862   3.852  15.627  0.4149  0.5537  0.2800
  284MPD2     C 4335   1.444   2.775  11.933  0.2421 -0.2762 -0.5382
  284MPD2    C1 4336   1.529   2.715  11.837  0.2397  0.0130  0.4484
  284MPD2    C2 4337   1.511   2.579  11.795  0.6022 -0.0405 -0.8051
  284MPD2    C3 4338   1.424   2.497  11.867 -0.3754 -0.0486 -0.1459
  284MPD2    C4 4339   1.342   2.554  11.959  0.2333 -0.6599 -0.0892
  284MPD2    C5 4340   1.360   2.689  11.993  0.4587 -0.3342 -0.8500
  284MPD2     H 4341   1.582   2.553  11.716  1.4168 -0.2022 -0.0260
  284MPD2    H1 4342   1.283   2.493  12.026  0.4190 -0.1977  0.5015
  284MPD2    H2 4343   1.468   2.876  11.965  2.1529 -0.8687 -0.0912
  284MPD2    H3 4344   1.321   2.722  12.089 -0.1029  1.2446 -1.6299
  284MPD2     N 4345   1.418   2.355  11.861  0.2906 -0.4516  0.4398
  284MPD2    H5 4346   1.352   2.311  11.925  0.5928 -0.9037  0.4427
  284MPD2    N1 4347   1.623   2.784  11.761  0.1945 -0.3780 -0.2834
  284MPD2    H7 4348   1.657   2.724  11.687  1.0281  2.3878 -2.1733
  285TMC3    C1 4349   1.758   2.952  11.667  0.3177  0.3656  0.2633
  285TMC3    C2 4350   1.769   2.874  11.550 -1.2383 -0.1459  0.3930
  285TMC3    C3 4351   1.833   2.928  11.444 -0.8087  0.1375  0.2437
  285TMC3    C4 4352   1.817   3.074  11.674  0.4664 -0.0922  0.1429
  285TMC3    C5 4353   1.895   3.107  11.571  0.0688  0.4833  0.2893
  285TMC3    C6 4354   1.905   3.039  11.453  0.6434 -0.1763  0.0005
  285TMC3     C 4355   1.681   2.907  11.790  0.3564 -0.0819  0.5332
  285TMC3     O 4356   1.669   2.984  11.886 -0.8447 -0.2242  0.4634
  285TMC3     H 4357   1.725   2.777  11.533 -0.7028  0.0591 -2.1659
  285TMC3    H1 4358   1.809   3.142  11.759 -1.8624 -0.5279  0.2649
  285TMC3    H2 4359   1.969   3.077  11.374 -4.0713  2.2578 -2.6668
  285TMC3    C7 4360   1.994   3.213  11.594 -0.0334 -0.1055 -0.4244
  285TMC3    C8 4361   1.840   2.854  11.322 -0.8704 -0.0864 -0.1060
  285TMC3    O1 4362   2.034   3.285  11.503  0.1919  0.3805  0.8881
  285TMC3    O2 4363   1.833   2.729  11.334 -1.1108 -0.1769  0.7212
  286MPD2     C 4364   2.951   1.747   1.418 -0.4265 -0.4687 -0.0350
  286MPD2    C1 4365   2.856   1.705   1.324 -0.3185  0.8410 -0.2151
  286MPD2    C2 4366   2.862   1.573   1.276  0.3315  0.5464 -0.2877
  286MPD2    C3 4367   2.957   1.481   1.324 -0.1586  0.5701 -0.4024
  286MPD2    C4 4368   3.049   1.531   1.413  0.5234 -0.9258  0.5762
  286MPD2    C5 4369   3.041   1.656   1.465  0.5724 -1.0129  0.2902
  286MPD2     H 4370   2.788   1.541   1.203  0.0373  0.5110  0.0277
  286MPD2    H1 4371   3.121   1.472   1.469  0.2774 -0.9436  0.8745
  286MPD2    H2 4372   2.940   1.830   1.487  0.5711 -1.5112  1.3953
  286MPD2    H3 4373   3.118   1.692   1.532  0.1350  0.5051 -0.0000
  286MPD2     N 4374   2.975   1.350   1.279 -0.5143  0.0043 -0.1942
  286MPD2    H5 4375   3.046   1.300   1.331 -0.8164 -0.0983  0.1157
  286MPD2    N1 4376   2.743   1.783   1.272  0.6030 -0.3302 -0.0016
  286MPD2    H7 4377   2.695   1.752   1.188  0.3170  1.1099 -0.3677
  287TMC3    C1 4378   2.944   1.149   1.151 -0.3431  0.1883  0.0098
  287TMC3    C2 4379   2.873   1.078   1.052  0.0461  0.6617  0.1745
  287TMC3    C3 4380   2.915   0.962   1.004 -0.2971 -0.2354  0.2896
  287TMC3    C4 4381   3.063   1.092   1.190 -0.2256  0.1473 -0.1480
  287TMC3    C5 4382   3.110   0.973   1.142 -0.6680 -0.0703 -0.3051
  287TMC3    C6 4383   3.029   0.903   1.050  0.3803  0.0288 -0.3257
  287TMC3     C 4384   2.910   1.292   1.173 -0.0758 -0.6147  0.0367
  287TMC3     O 4385   2.837   1.340   1.089 -0.0653 -0.2975 -0.2717
  287TMC3     H 4386   2.775   1.116   1.022  0.5357  0.3332 -1.8557
  287TMC3    H1 4387   3.121   1.146   1.264  0.3270  0.0652 -0.5149
  287TMC3    H2 4388   3.056   0.807   1.007 -0.5936  0.2284 -1.3929
  287TMC3    C7 4389   3.255   0.943   1.153  0.0447  0.1217  0.0688
  287TMC3    C8 4390   2.856   0.910   0.885 -0.4491  0.3020  0.4998
  287TMC3    O1 4391   3.324   1.019   1.213 -0.1465  0.3431 -0.0268
  287TMC3    O2 4392   2.887   0.796   0.855  0.4699  0.1787  0.5096
  288TMC3    C1 4393   0.012   1.418  14.426  0.0305  0.3212 -0.1388
  288TMC3    C2 4394   4.633   1.462  14.466  0.7326 -0.3759 -0.3612
  288TMC3    C3 4395   4.591   1.591  14.425  0.3983 -0.8938  0.2257
  288TMC3    C4 4396   0.084   1.497  14.339  0.1195 -0.4823  0.4685
  288TMC3    C5 4397   0.036   1.619  14.294  0.2043 -0.5612 -0.2321
  288TMC3    C6 4398   4.665   1.676  14.348  0.5137 -0.3597  0.0908
  288TMC3     C 4399   0.076   1.313  14.502  0.3166  0.6014 -0.1228
  288TMC3     O 4400   0.018   1.265  14.597  0.1720  0.3163 -0.6693
  288TMC3     H 4401   4.585   1.401  14.542 -2.0076  1.8707 -0.2944
  288TMC3    H1 4402   0.163   1.446  14.286 -1.0429 -0.4820 -1.2556
  288TMC3    H2 4403   4.623   1.764  14.302  1.6520 -0.3819 -0.9807
  288TMC3    C7 4404   0.110   1.684  14.191  0.1526  0.1894 -0.2864
  288TMC3    C8 4405   4.464   1.647  14.492 -0.4720 -0.1286  0.4066
  288TMC3    O1 4406   0.227   1.654  14.173 -0.2169  0.5401 -0.2260
  288TMC3    O2 4407   4.441   1.764  14.470  0.0524  0.4691 -0.7605
  289MPD2     C 4408   4.203   0.440  14.447  0.0012  0.0483  0.3162
  289MPD2    C1 4409   4.214   0.558  14.381 -0.5010  0.4787 -0.4608
  289MPD2    C2 4410   4.136   0.593  14.276 -0.6778 -0.2474  0.2774
  289MPD2    C3 4411   4.049   0.496  14.223 -0.3103  0.3515 -0.3392
  289MPD2    C4 4412   4.045   0.369  14.282 -0.3371 -0.3708  0.1740
  289MPD2    C5 4413   4.115   0.347  14.393  0.1382 -0.8659  0.4998
  289MPD2     H 4414   4.153   0.690  14.230  1.4981 -0.6489  0.2648
  289MPD2    H1 4415   3.969   0.298  14.254  0.5112 -1.3314  0.3041
  289MPD2    H2 4416   4.260   0.415  14.537 -0.6623  0.9208  0.9785
  289MPD2    H3 4417   4.119   0.245  14.429  0.9829 -1.5765 -1.6668
  289MPD2     N 4418   3.969   0.525  14.108  0.0957 -0.3352  0.6483
  289MPD2    H5 4419   3.921   0.445  14.067 -0.6493  0.0749  0.7318
  289MPD2    N1 4420   4.311   0.652  14.421  0.4725  0.2026  0.1240
  289MPD2    H7 4421   4.305   0.736  14.363  0.0537 -0.0175 -0.1557
  290TMC3    C1 4422   3.857   0.650  13.941 -0.7466 -0.4899 -0.1534
  290TMC3    C2 4423   3.820   0.776  13.893  0.9384  0.0327  0.1103
  290TMC3    C3 4424   3.704   0.790  13.820 -0.4832 -0.3562  0.3519
  290TMC3    C4 4425   3.787   0.534  13.913  0.1266  0.8627  0.2626
  290TMC3    C5 4426   3.668   0.553  13.852 -0.2510  0.0349  0.1915
  290TMC3    C6 4427   3.628   0.677  13.794 -0.8008 -0.6573 -0.4408
  290TMC3     C 4428   3.959   0.649  14.044 -0.2630 -0.3262 -0.5399
  290TMC3     O 4429   3.993   0.756  14.089 -0.3564 -0.1204  0.2548
  290TMC3     H 4430   3.876   0.859  13.936  1.3767  0.0089 -0.4182
  290TMC3    H1 4431   3.831   0.442  13.949  0.4632  0.8470 -0.1989
  290TMC3    H2 4432   3.522   0.679  13.768 -0.8966 -0.6114 -0.0383
  290TMC3    C7 4433   3.592   0.435  13.804  0.8070  0.5054 -0.0413
  290TMC3    C8 4434   3.646   0.927  13.812 -0.1747 -0.5296  0.3015
  290TMC3    O1 4435   3.517   0.442  13.709  0.2834  0.6937 -0.3828
  290TMC3    O2 4436   3.527   0.933  13.794  0.3986 -0.3872 -0.0709
  291MPD2     C 4437   3.509   0.651   0.245  0.1412  0.3304  0.8458
  291MPD2    C1 4438   3.603   0.564   0.285  0.3871 -0.3910  0.2119
  291MPD2    C2 4439   3.726   0.607   0.329  0.2503  1.2852  0.0145
  291MPD2    C3 4440   3.751   0.740   0.336 -0.0101 -0.3471  0.2214
  291MPD2    C4 4441   3.660   0.832   0.291  0.3581  0.2912 -0.0470
  291MPD2    C5 4442   3.534   0.787   0.261  0.9828  0.0766  0.2170
  291MPD2     H 4443   3.805   0.541   0.361 -1.9249 -1.8611 -1.0971
  291MPD2    H1 4444   3.680   0.938   0.287  0.4220  0.2815  0.0280
  291MPD2    H2 4445   3.407   0.618   0.225 -0.4656  1.9422  1.2875
  291MPD2    H3 4446   3.449   0.854   0.255  0.9715  0.0708  0.3241
  291MPD2     N 4447   3.872   0.795   0.394 -0.8666  0.7492 -0.4162
  291MPD2    H5 4448   3.876   0.897   0.393 -2.1560  0.8157  0.4155
  291MPD2    N1 4449   3.593   0.428   0.281 -0.1249  0.1251 -0.2622
  291MPD2    H7 4450   3.677   0.376   0.306 -2.2752 -2.4672  1.6349
  292TMC3    C1 4451   3.503   0.209   0.279  0.1170 -0.0377 -0.1945
  292TMC3    C2 4452   3.565   0.180   0.398 -0.3040  0.4302  0.3783
  292TMC3    C3 4453   3.558   0.054   0.447 -0.1703  0.4331 -0.6761
  292TMC3    C4 4454   3.421   0.128   0.208  0.2787  0.1175 -0.0534
  292TMC3    C5 4455   3.438   4.741   0.247 -0.3152  0.2809 -0.1078
  292TMC3    C6 4456   3.493   4.701   0.368  0.9515 -0.0404  0.3599
  292TMC3     C 4457   3.486   0.350   0.244  0.2496  1.0598 -0.9077
  292TMC3     O 4458   3.390   0.392   0.181  0.8445  0.2964  0.1165
  292TMC3     H 4459   3.621   0.255   0.453  0.5024 -0.5504  0.8881
  292TMC3    H1 4460   3.376   0.163   0.116  0.7102 -0.6830 -0.5673
  292TMC3    H2 4461   3.509   4.596   0.392 -0.7828 -0.0977  1.2617
  292TMC3    C7 4462   3.402   4.640   0.157  0.0762 -0.4000  0.2289
  292TMC3    C8 4463   3.571   0.036   0.593  0.3716 -0.4234  0.4259
  292TMC3    O1 4464   3.472   4.537   0.159 -0.4504 -0.0887 -0.2773
  292TMC3    O2 4465   3.650   0.110   0.657 -0.2796 -0.5451  0.4749
  293MPD2     C 4466   0.303   1.287  12.514 -0.2480  0.2917  0.4992
  293MPD2    C1 4467   0.190   1.347  12.560 -0.3909  0.2546 -0.1630
  293MPD2    C2 4468   0.189   1.381  12.692  0.1749 -0.2994  0.3251
  293MPD2    C3 4469   0.303   1.375  12.769  0.0863  0.2740 -0.1417
  293MPD2    C4 4470   0.409   1.305  12.711  0.1407 -0.3344 -0.1302
  293MPD2    C5 4471   0.406   1.250  12.592 -0.1741 -0.4135 -0.3700
  293MPD2     H 4472   0.113   1.441  12.740 -1.6993 -0.6569 -2.2074
  293MPD2    H1 4473   0.497   1.290  12.774  0.1406 -1.0759 -0.3029
  293MPD2    H2 4474   0.309   1.265  12.409 -0.9700  3.3189 -0.1680
  293MPD2    H3 4475   0.483   1.188  12.547  1.0875  0.1297  1.0547
  293MPD2     N 4476   0.313   1.435  12.891  0.7518  0.3173  0.3213
  293MPD2    H5 4477   0.232   1.452  12.950 -0.3120 -1.4975 -0.6232
  293MPD2    N1 4478   0.087   1.370  12.467  0.1156  0.1577 -0.2462
  293MPD2    H7 4479   0.120   1.369  12.371 -0.2919 -0.9490 -0.3647
  294TMC3    C1 4480   4.623   1.461  12.384 -0.1030 -0.4721 -0.1958
  294TMC3    C2 4481   4.495   1.408  12.391 -0.5481 -0.2454 -0.3418
  294TMC3    C3 4482   4.437   1.382  12.272 -1.0758  0.4564 -0.4608
  294TMC3    C4 4483   4.692   1.478  12.261  0.3114  0.2651 -0.2832
  294TMC3    C5 4484   4.617   1.463  12.146 -0.1526 -0.1433 -0.3734
  294TMC3    C6 4485   4.493   1.411  12.152  0.1049  0.0227 -0.7097
  294TMC3     C 4486   4.701   1.422  12.501  0.2986 -0.0665 -0.1382
  294TMC3     O 4487   4.662   1.421  12.618  0.1784  0.3029  0.3014
  294TMC3     H 4488   4.475   1.355  12.483  1.3014 -3.0967 -1.5949
  294TMC3    H1 4489   0.043   1.531  12.263 -0.2811  1.3971 -2.0944
  294TMC3    H2 4490   4.432   1.388  12.065 -0.3168 -0.3309 -0.3202
  294TMC3    C7 4491   4.701   1.432  12.025 -0.7983  0.4351 -0.3152
  294TMC3    C8 4492   4.350   1.262  12.263 -0.5707  0.0715 -0.1458
  294TMC3    O1 4493   0.075   1.458  12.040  0.0976 -0.3270  0.4696
  294TMC3    O2 4494   4.375   1.196  12.163 -0.1220 -0.0105  0.0453
  295MPD2     C 4495   2.106   0.682   1.029  0.1623  0.3528 -0.2580
  295MPD2    C1 4496   2.031   0.591   0.959  0.5930  0.6211  0.5772
  295MPD2    C2 4497   2.053   0.457   0.991 -0.0327  0.0193  0.2668
  295MPD2    C3 4498   2.142   0.419   1.093  1.1084  0.1246 -0.4297
  295MPD2    C4 4499   2.218   0.513   1.161 -0.4073 -0.1128  0.6115
  295MPD2    C5 4500   2.194   0.650   1.130 -0.2263  0.8423 -0.4781
  295MPD2     H 4501   1.994   0.387   0.932  1.2561 -2.9951  2.5838
  295MPD2    H1 4502   2.295   0.488   1.233 -0.2101 -0.2638  0.3466
  295MPD2    H2 4503   2.099   0.788   1.008  0.8065  0.3496 -0.5022
  295MPD2    H3 4504   2.254   0.725   1.180  1.0674 -1.3142  1.1881
  295MPD2     N 4505   2.168   0.279   1.124 -0.2013  0.1999  0.1072
  295MPD2    H5 4506   2.247   0.268   1.186  0.5828  0.1877 -0.9034
  295MPD2    N1 4507   1.933   0.615   0.855  0.2810  0.3711  0.6736
  295MPD2    H7 4508   1.888   0.531   0.818  0.4590  0.7898 -0.5009
  296TMC3    C1 4509   2.136   0.049   1.158 -0.6633 -0.1708 -0.4139
  296TMC3    C2 4510   2.257   0.038   1.209 -0.4883  0.0956 -0.2066
  296TMC3    C3 4511   2.299   4.662   1.270 -0.0384  0.7154  0.9089
  296TMC3    C4 4512   2.060   4.684   1.157 -0.4058  0.1018 -1.3290
  296TMC3    C5 4513   2.104   4.564   1.206  0.0016  0.3966 -0.0787
  296TMC3    C6 4514   2.225   4.548   1.268  0.2204  0.5794  0.5033
  296TMC3     C 4515   2.088   0.173   1.098  0.1915  0.0630 -0.4987
  296TMC3     O 4516   1.987   0.173   1.025 -0.4263 -0.1596 -0.4704
  296TMC3     H 4517   2.331   0.117   1.203 -0.5249  0.1870  0.5033
  296TMC3    H1 4518   1.963   4.689   1.109 -0.6730 -1.0719 -0.9039
  296TMC3    H2 4519   2.259   4.456   1.316  3.2063  1.8442  0.8167
  296TMC3    C7 4520   1.997   4.467   1.224  0.0690 -0.2281  0.2665
  296TMC3    C8 4521   2.406   4.658   1.378  0.0136  0.7754 -0.0231
  296TMC3    O1 4522   1.884   4.511   1.219  0.4636 -0.3015 -0.8546
  296TMC3    O2 4523   2.430   4.541   1.419  1.0497 -0.1733  0.5779
  297MPD2     C 4524   3.308   2.260  16.377 -0.3775  0.1730  0.5035
  297MPD2    C1 4525   3.295   2.306  16.250 -0.3316 -0.0936  0.1246
  297MPD2    C2 4526   3.372   2.413  16.211 -0.2081  1.0172  0.1130
  297MPD2    C3 4527   3.465   2.468  16.293 -0.5337 -0.3888  0.1053
  297MPD2    C4 4528   3.483   2.404  16.417  0.6146 -0.4540  0.1621
  297MPD2    C5 4529   3.399   2.305  16.457 -0.3924 -0.0236 -0.1714
  297MPD2     H 4530   3.350   2.463  16.118  1.1032  0.2378 -0.6174
  297MPD2    H1 4531   3.564   2.440  16.479  0.6938 -0.4457  0.0541
  297MPD2    H2 4532   3.250   2.180  16.420 -1.5505  0.3758 -0.6966
  297MPD2    H3 4533   3.402   2.265  16.558 -2.3280 -0.9320 -0.4893
  297MPD2     N 4534   3.542   2.580  16.254  0.4158 -0.9515  0.3094
  297MPD2    H5 4535   3.536   2.607  16.157  1.0094  0.2082  0.5981
  297MPD2    N1 4536   3.189   2.277  16.164 -0.1535  0.1842 -0.2376
  297MPD2    H7 4537   3.174   2.322  16.074 -1.6323 -1.5585 -0.8801
  298TMC3    C1 4538   2.961   2.232  16.126 -0.0778 -0.2189  0.4932
  298TMC3    C2 4539   3.004   2.274  16.004  0.0275 -0.4548 -0.2513
  298TMC3    C3 4540   2.933   2.369  15.941 -0.1430  0.0027 -0.2107
  298TMC3    C4 4541   2.850   2.280  16.188 -0.3267 -0.1250 -1.1227
  298TMC3    C5 4542   2.792   2.385  16.129 -0.4746 -0.9455 -0.0607
  298TMC3    C6 4543   2.832   2.429  16.001 -0.4255  0.5184 -0.7214
  298TMC3     C 4544   3.081   2.201  16.206  0.0085 -0.3600 -0.0538
  298TMC3     O 4545   3.053   2.155  16.315 -0.1592 -0.4310 -0.3029
  298TMC3     H 4546   3.080   2.220  15.949 -0.4432 -2.7523  1.3712
  298TMC3    H1 4547   2.820   2.246  16.286 -2.1073  1.3517 -1.1632
  298TMC3    H2 4548   2.792   2.521  15.962  0.3724  1.7254  1.2804
  298TMC3    C7 4549   2.703   2.469  16.208 -0.5317  0.2407 -0.8072
  298TMC3    C8 4550   3.005   2.436  15.837 -0.6174  0.2145 -0.8073
  298TMC3    O1 4551   2.705   2.475  16.330  0.1321  0.5586  0.4805
  298TMC3    O2 4552   3.121   2.406  15.828  0.0809 -0.4875 -0.0004
  299MPD2     C 4553   3.203   2.186  10.540 -0.3539  0.7813 -0.2942
  299MPD2    C1 4554   3.117   2.291  10.544 -1.1320  0.2231 -0.2339
  299MPD2    C2 4555   3.022   2.295  10.449  1.2361  0.9549 -0.6911
  299MPD2    C3 4556   3.017   2.204  10.346  0.0983  0.1838 -0.4554
  299MPD2    C4 4557   3.097   2.095  10.355 -0.6842  0.0480  0.2238
  299MPD2    C5 4558   3.191   2.087  10.454 -0.2087  0.0346  0.3351
  299MPD2     H 4559   2.945   2.370  10.439 -0.3114 -0.7633 -1.7400
  299MPD2    H1 4560   3.086   2.021  10.277  1.0062 -0.6635  0.6658
  299MPD2    H2 4561   3.290   2.179  10.604 -0.0547 -0.4091 -0.8311
  299MPD2    H3 4562   3.259   2.002  10.457  2.1927  1.9496  0.2189
  299MPD2     N 4563   2.924   2.211  10.243  0.2011  0.0119 -0.7435
  299MPD2    H5 4564   2.909   2.123  10.194 -0.1667  1.0648 -2.5227
  299MPD2    N1 4565   3.131   2.380  10.650 -1.0665  0.3741 -0.7158
  299MPD2    H7 4566   3.200   2.358  10.721 -0.3111 -1.8646 -2.1408
  300TMC3    C1 4567   2.759   2.290  10.104 -0.4907  0.5671 -0.5472
  300TMC3    C2 4568   2.740   2.365   9.995  0.1137  0.9292 -0.7625
  300TMC3    C3 4569   2.619   2.364   9.934 -0.9108 -0.3294  0.6223
  300TMC3    C4 4570   2.667   2.203  10.154 -0.2754  0.0404  0.0247
  300TMC3    C5 4571   2.539   2.204  10.088  0.4637 -0.5212 -0.4679
  300TMC3    C6 4572   2.517   2.277   9.977 -0.4124 -0.3913 -0.3089
  300TMC3     C 4573   2.861   2.321  10.199  0.0198 -0.1757  0.2967
  300TMC3     O 4574   2.875   2.441  10.227 -0.5393  0.1462  0.4606
  300TMC3     H 4575   2.816   2.437   9.969 -0.0988  1.8658  1.2287
  300TMC3    H1 4576   2.686   2.149  10.246 -0.4167  2.3345  1.3840
  300TMC3    H2 4577   2.426   2.267   9.919 -0.2591  2.1626 -0.9787
  300TMC3    C7 4578   2.436   2.190  10.187  0.6484  0.0246 -0.6539
  300TMC3    C8 4579   2.584   2.489   9.878  0.5770 -0.6468  0.6262
  300TMC3    O1 4580   2.477   2.136  10.288 -0.1402 -0.0319  0.2726
  300TMC3    O2 4581   2.664   2.575   9.886  0.4146  0.1686  0.2846
  301MPD2     C 4582   1.521   3.689   1.186 -0.4857 -0.5437  0.3640
  301MPD2    C1 4583   1.464   3.645   1.067 -0.1337 -0.5450  0.2325
  301MPD2    C2 4584   1.446   3.513   1.041 -0.0051  0.0217 -0.0086
  301MPD2    C3 4585   1.495   3.412   1.122  0.7089  0.4577 -0.0591
  301MPD2    C4 4586   1.577   3.454   1.227  0.6212 -0.5591 -0.1540
  301MPD2    C5 4587   1.585   3.589   1.262  0.3681 -0.6209  0.4129
  301MPD2     H 4588   1.382   3.496   0.955  0.2117 -0.0442 -0.1554
  301MPD2    H1 4589   1.606   3.378   1.299 -0.7701 -1.1759 -0.2397
  301MPD2    H2 4590   1.537   3.793   1.210  1.4121 -1.2075  2.0053
  301MPD2    H3 4591   1.648   3.620   1.344 -0.4922  1.6044  0.2145
  301MPD2     N 4592   1.467   3.277   1.104  0.5716 -0.2384  0.1018
  301MPD2    H5 4593   1.494   3.214   1.179 -3.0437 -1.6372  0.2256
  301MPD2    N1 4594   1.411   3.738   0.980  0.1803  0.4087  0.1246
  301MPD2    H7 4595   1.393   3.699   0.888  0.7124 -0.2705  0.3077
  302TMC3    C1 4596   1.340   3.095   1.021 -0.0177  1.0734 -0.2065
  302TMC3    C2 4597   1.425   3.009   1.079 -0.4090  0.7805  0.1607
  302TMC3    C3 4598   1.407   2.875   1.054 -0.5891  0.1024  0.3294
  302TMC3    C4 4599   1.244   3.053   0.936  0.4833 -0.5872 -0.1818
  302TMC3    C5 4600   1.238   2.923   0.903  0.5129 -0.6387  0.5394
  302TMC3    C6 4601   1.319   2.827   0.956  0.2317  0.9820  0.1607
  302TMC3     C 4602   1.398   3.227   0.996  0.1370  1.3861  0.0976
  302TMC3     O 4603   1.356   3.278   0.894 -0.2019  0.1099 -0.1796
  302TMC3     H 4604   1.500   3.045   1.149  0.3723  0.2393 -0.3918
  302TMC3    H1 4605   1.185   3.129   0.887  1.3055 -0.5816 -1.1678
  302TMC3    H2 4606   1.319   2.723   0.928  0.2054  0.1012  3.4319
  302TMC3    C7 4607   1.155   2.881   0.796  0.4014 -0.1255  0.1305
  302TMC3    C8 4608   1.489   2.780   1.128  0.4414 -0.1097  0.7893
  302TMC3    O1 4609   1.197   2.799   0.715  0.1451  0.2588  0.1003
  302TMC3    O2 4610   1.494   2.672   1.070 -0.0371 -0.1282 -0.3457
  303MPD2     C 4611   0.386   2.050  11.075  0.1138  0.0852 -0.3451
  303MPD2    C1 4612   0.418   1.914  11.076 -0.0388  0.1015  0.0743
  303MPD2    C2 4613   0.483   1.859  10.968  0.2191  1.2300 -0.7206
  303MPD2    C3 4614   0.527   1.938  10.860  0.2139 -0.4857 -0.6222
  303MPD2    C4 4615   0.497   2.076  10.867  0.2409 -0.0687  0.0337
  303MPD2    C5 4616   0.420   2.128  10.968 -0.7379  0.2091 -0.6006
  303MPD2     H 4617   0.488   1.752  10.957 -0.0735  1.0695  0.7560
  303MPD2    H1 4618   0.531   2.157  10.804 -0.4854 -1.1311 -1.7193
  303MPD2    H2 4619   0.336   2.084  11.165 -2.3395 -2.7639 -0.6178
  303MPD2    H3 4620   0.415   2.236  10.968  2.6049  0.3575  0.2104
  303MPD2     N 4621   0.591   1.879  10.746  0.1174  0.4447  0.7419
  303MPD2    H5 4622   0.612   1.934  10.663  1.2727  1.3058  1.6062
  303MPD2    N1 4623   0.374   1.846  11.197  0.4626  0.3021 -0.2679
  303MPD2    H7 4624   0.317   1.897  11.265  0.0441  0.2211 -0.5594
  304TMC3    C1 4625   0.365   1.659  11.353  0.0771 -0.3508 -0.4441
  304TMC3    C2 4626   0.229   1.674  11.377 -0.1070 -0.1970  0.1791
  304TMC3    C3 4627   0.177   1.577  11.465 -0.2359 -0.5655 -0.3439
  304TMC3    C4 4628   0.442   1.557  11.405 -0.3247  0.6749 -0.5959
  304TMC3    C5 4629   0.386   1.461  11.486 -0.6114  0.0846  0.1910
  304TMC3    C6 4630   0.255   1.474  11.518 -0.9830 -0.4066  0.5336
  304TMC3     C 4631   0.400   1.713  11.217  0.7276 -0.1602 -0.2110
  304TMC3     O 4632   0.449   1.632  11.143  0.0064  0.3152  0.2590
  304TMC3     H 4633   0.160   1.748  11.336 -1.2974  0.4196  3.3455
  304TMC3    H1 4634   0.544   1.545  11.370 -0.1110 -0.3784  0.3877
  304TMC3    H2 4635   0.216   1.405  11.591  0.5672 -2.4951 -0.6155
  304TMC3    C7 4636   0.418   1.322  11.445 -0.5138  0.2713 -0.1111
  304TMC3    C8 4637   0.057   1.529  11.397  0.3263  0.0952 -0.0295
  304TMC3    O1 4638   0.321   1.247  11.431 -0.1489 -0.3701  0.8524
  304TMC3    O2 4639   4.722   1.612  11.362  0.2166  0.3483  0.1553
  305MPD2     C 4640   3.645   3.744  13.643  1.7731 -0.5262  0.3885
  305MPD2    C1 4641   3.778   3.703  13.634  0.3007 -0.2286 -0.0908
  305MPD2    C2 4642   3.816   3.641  13.516 -0.1541  0.3941 -0.0031
  305MPD2    C3 4643   3.725   3.620  13.414 -0.4837  0.0617  0.3669
  305MPD2    C4 4644   3.596   3.663  13.419 -0.2594 -0.5744  0.6777
  305MPD2    C5 4645   3.563   3.730  13.536  0.4169 -0.0809  0.2156
  305MPD2     H 4646   3.923   3.629  13.504 -0.4079 -2.0474  0.1882
  305MPD2    H1 4647   3.518   3.639  13.348  1.6873 -1.0932 -1.2754
  305MPD2    H2 4648   3.603   3.790  13.731  2.2727 -3.1496  1.9875
  305MPD2    H3 4649   3.461   3.764  13.551  0.3926  0.0063 -0.1352
  305MPD2     N 4650   3.763   3.537  13.299 -0.1658 -0.9969  0.1353
  305MPD2    H5 4651   3.684   3.502  13.246  0.0177  0.9352 -1.4094
  305MPD2    N1 4652   3.857   3.699  13.751 -0.1175  0.1973 -0.3142
  305MPD2    H7 4653   3.824   3.755  13.829  1.2576 -1.4818  1.4986
  306TMC3    C1 4654   4.045   3.687  13.891 -0.2232 -0.1483  0.5331
  306TMC3    C2 4655   4.131   3.597  13.942  0.7382 -0.1488 -0.1147
  306TMC3    C3 4656   4.198   3.629  14.052  0.5490  0.2240  0.0752
  306TMC3    C4 4657   4.013   3.802  13.955 -0.1109  0.0286  0.5200
  306TMC3    C5 4658   4.057   3.820  14.083 -0.1890 -0.5604  0.0841
  306TMC3    C6 4659   4.147   3.731  14.135  0.4109  0.2095 -0.4376
  306TMC3     C 4660   3.981   3.649  13.763 -0.3669  0.1356 -0.0959
  306TMC3     O 4661   4.038   3.558  13.700  0.5323 -0.3569 -0.1188
  306TMC3     H 4662   4.151   3.501  13.895  0.3954 -0.4268  0.3107
  306TMC3    H1 4663   3.931   3.865  13.922 -0.6025 -1.5888 -1.3630
  306TMC3    H2 4664   4.178   3.732  14.239 -0.3028 -0.7660 -0.2114
  306TMC3    C7 4665   3.970   3.899  14.170 -0.0101  0.0834 -0.1454
  306TMC3    C8 4666   4.267   3.523  14.120  0.5294 -0.0065  0.0949
  306TMC3    O1 4667   3.853   3.924  14.139  0.3940  0.5108  0.3255
  306TMC3    O2 4668   4.368   3.555  14.177 -0.6964 -0.0986 -0.1087
  307MPD2     C 4669   2.106   1.707   0.284 -0.1353  0.2635 -0.2182
  307MPD2    C1 4670   2.061   1.833   0.257 -0.2804  0.3277 -0.0795
  307MPD2    C2 4671   2.001   1.901   0.360 -0.0362  0.5081 -0.4641
  307MPD2    C3 4672   1.979   1.845   0.484  0.0042 -0.0482  0.6778
  307MPD2    C4 4673   2.020   1.717   0.506 -1.3376 -0.2822  0.0773
  307MPD2    C5 4674   2.084   1.650   0.408  0.6628  0.6960  0.1747
  307MPD2     H 4675   1.988   2.008   0.344 -1.2733  0.3949 -0.2194
  307MPD2    H1 4676   2.020   1.669   0.603  1.0120 -1.0908 -0.3334
  307MPD2    H2 4677   2.157   1.649   0.208 -0.1680  1.1651 -0.9282
  307MPD2    H3 4678   2.127   1.554   0.437 -0.0569  0.4742  0.5256
  307MPD2     N 4679   1.923   1.925   0.582 -0.0086  0.0365  0.4756
  307MPD2    H5 4680   1.902   2.022   0.560 -0.9806 -0.5732 -1.3289
  307MPD2    N1 4681   2.089   1.904   0.136 -0.3137  0.1186  0.1970
  307MPD2    H7 4682   2.058   2.001   0.129  0.0831  0.2940  0.8250
  308TMC3    C1 4683   1.613   1.985   0.923  0.2397  0.4796 -0.9515
  308TMC3    C2 4684   1.649   2.116   0.966  0.2968  0.9435  0.1631
  308TMC3    C3 4685   1.747   2.178   0.900 -0.2330  0.0441 -0.0989
  308TMC3    C4 4686   1.685   1.913   0.832  0.6576 -0.0197 -0.1881
  308TMC3    C5 4687   1.796   1.978   0.775  0.9104 -0.4839 -0.0358
  308TMC3    C6 4688   1.825   2.111   0.804 -0.2263  0.3482 -0.3273
  308TMC3     C 4689   1.469   1.957   0.914 -0.1325 -0.2695 -0.0756
  308TMC3     O 4690   1.453   1.837   0.910 -1.0104 -0.1332 -0.0266
  308TMC3     H 4691   1.597   2.162   1.048 -0.6528  1.2984 -0.6410
  308TMC3    H1 4692   1.652   1.817   0.795  0.4395 -0.4443  1.1114
  308TMC3    H2 4693   1.913   2.153   0.756 -1.4648  3.7404  0.3652
  308TMC3    C7 4694   1.889   1.890   0.709 -0.1560  0.0689  0.1034
  308TMC3    C8 4695   1.776   2.312   0.943 -0.2737  1.0971 -0.7037
  308TMC3    O1 4696   1.902   1.783   0.762  0.0486 -0.0082  0.3592
  308TMC3    O2 4697   1.755   2.337   1.065  0.3274 -0.5550  0.3306
  309MPD2     C 4698   1.133   2.460  17.233 -0.5231 -0.0958 -0.5251
  309MPD2    C1 4699   1.022   2.422  17.157 -0.7634 -0.3856 -0.4656
  309MPD2    C2 4700   0.897   2.457  17.205  0.4084  0.1630  0.6144
  309MPD2    C3 4701   0.877   2.527  17.328 -0.1041 -1.3972  0.3012
  309MPD2    C4 4702   0.993   2.563  17.399 -0.3908 -0.4346  1.5660
  309MPD2    C5 4703   1.110   2.529  17.342 -0.0655  0.0596 -0.0356
  309MPD2     H 4704   0.816   2.423  17.142  1.1663  1.0953 -0.8726
  309MPD2    H1 4705   0.990   2.620  17.492  1.3892  2.2420 -0.0057
  309MPD2    H2 4706   1.235   2.455  17.197  0.1651 -2.2308  1.7101
  309MPD2    H3 4707   1.201   2.568  17.387 -0.6619  0.4184  0.8665
  309MPD2     N 4708   0.750   2.572  17.373  0.7765  0.0021 -0.6783
  309MPD2    H5 4709   0.738   2.641  17.447 -0.4164 -0.9389  0.0096
  309MPD2    N1 4710   1.038   2.366  17.033  0.2460 -0.1447  0.1630
  309MPD2    H7 4711   0.953   2.370  16.977  0.4203 -3.2317 -0.3327
  310TMC3    C1 4712   1.143   2.270  16.844 -0.1734  0.3553 -0.2343
  310TMC3    C2 4713   1.036   2.320  16.773 -0.1404 -0.3505  0.0388
  310TMC3    C3 4714   1.028   2.278  16.645  0.1679  0.1169 -0.3894
  310TMC3    C4 4715   1.239   2.176  16.802 -0.5834 -0.3461 -0.4727
  310TMC3    C5 4716   1.218   2.125  16.678  0.7886 -1.1749  0.0573
  310TMC3    C6 4717   1.119   2.183  16.597  0.8859 -0.2240 -0.0672
  310TMC3     C 4718   1.144   2.302  16.986 -0.1500 -0.3549  0.5039
  310TMC3     O 4719   1.234   2.265  17.059  0.0998 -0.2778 -0.0811
  310TMC3     H 4720   0.983   2.408  16.808 -1.6645 -0.9080 -0.8766
  310TMC3    H1 4721   1.300   2.116  16.868 -0.8967 -1.3520 -1.0860
  310TMC3    H2 4722   1.114   2.143  16.496  1.7849  1.3972 -0.7634
  310TMC3    C7 4723   1.326   2.053  16.607  0.8553  0.6199  0.5135
  310TMC3    C8 4724   0.946   2.349  16.544  0.0012  0.1826  0.9075
  310TMC3    O1 4725   1.298   2.008  16.497  0.1842 -0.0562  0.2828
  310TMC3    O2 4726   0.997   2.358  16.432 -0.2544 -0.2849  0.3832
  311MPD2     C 4727   2.950   3.051  12.907  0.3256 -0.3660 -0.3549
  311MPD2    C1 4728   2.928   3.174  12.846 -0.0080  0.0445  0.1743
  311MPD2    C2 4729   2.804   3.220  12.838 -0.0557  0.3110  0.2553
  311MPD2    C3 4730   2.696   3.148  12.886  0.6196 -0.2066  0.0575
  311MPD2    C4 4731   2.723   3.040  12.964 -0.4042  0.3860  0.4951
  311MPD2    C5 4732   2.847   2.995  12.977  0.3464  0.2848 -0.3325
  311MPD2     H 4733   2.790   3.317  12.790  0.3063 -0.4870 -1.4783
  311MPD2    H1 4734   2.646   2.998  13.027 -1.2777 -0.1861 -0.9437
  311MPD2    H2 4735   3.050   3.016  12.927 -0.1842 -0.2247  2.4793
  311MPD2    H3 4736   2.864   2.916  13.049  1.5870  0.9901  0.1671
  311MPD2     N 4737   2.571   3.207  12.881 -0.0762 -0.4432  1.0790
  311MPD2    H5 4738   2.566   3.299  12.838  2.6334 -0.7366  0.1998
  311MPD2    N1 4739   3.037   3.256  12.789  0.3646 -0.0877 -0.0050
  311MPD2    H7 4740   3.011   3.350  12.761  0.6554  0.3753  1.2865
  312TMC3    C1 4741   2.341   3.267  12.909 -0.2159  0.7910 -0.4020
  312TMC3    C2 4742   2.216   3.214  12.906 -0.3914 -1.1191 -0.0543
  312TMC3    C3 4743   2.109   3.296  12.943 -0.6420 -0.7316 -0.1197
  312TMC3    C4 4744   2.366   3.394  12.950 -0.1717 -0.2074 -0.0844
  312TMC3    C5 4745   2.265   3.479  12.985  0.0195 -0.3660 -0.2415
  312TMC3    C6 4746   2.136   3.434  12.968  0.5350 -0.3284 -0.0187
  312TMC3     C 4747   2.453   3.163  12.921  0.3519 -0.4132  0.1646
  312TMC3     O 4748   2.428   3.051  12.959  0.0098 -0.1908  0.3983
  312TMC3     H 4749   2.195   3.114  12.872  0.7456 -1.6648  0.8650
  312TMC3    H1 4750   2.470   3.425  12.954 -0.2249 -0.0566  0.0891
  312TMC3    H2 4751   2.059   3.509  12.983 -0.0837 -1.4701  2.5695
  312TMC3    C7 4752   2.287   3.624  12.969  0.2225 -0.2144  0.4779
  312TMC3    C8 4753   1.978   3.264  12.885 -0.8125 -0.0918  0.2894
  312TMC3    O1 4754   2.199   3.680  12.906  0.5334  0.4195  0.8333
  312TMC3    O2 4755   1.935   3.150  12.892  0.7981  0.0967  0.5362
  313MPD2     C 4756   1.532   3.094  11.496 -0.0399  0.5008 -0.3935
  313MPD2    C1 4757   1.578   3.141  11.379  0.3923  0.3657  0.1222
  313MPD2    C2 4758   1.569   3.057  11.267 -0.2207 -0.1093 -0.3333
  313MPD2    C3 4759   1.521   2.924  11.275 -0.2038  0.0688  0.5979
  313MPD2    C4 4760   1.478   2.880  11.398  0.9288 -0.6934 -0.5265
  313MPD2    C5 4761   1.480   2.965  11.504 -0.1790  0.1727  0.5874
  313MPD2     H 4762   1.616   3.091  11.175 -1.9958  1.2321 -0.7496
  313MPD2    H1 4763   1.460   2.777  11.426 -1.9278 -0.1093 -0.1574
  313MPD2    H2 4764   1.521   3.151  11.588 -1.7804 -2.3595  1.1702
  313MPD2    H3 4765   1.447   2.931  11.601  0.7343  1.3582  1.3196
  313MPD2     N 4766   1.527   2.836  11.157  0.0638  0.0664 -0.2017
  313MPD2    H5 4767   1.564   2.876  11.071  0.1052  0.4202 -0.0217
  313MPD2    N1 4768   1.640   3.266  11.360  0.0632 -0.3238  0.1021
  313MPD2    H7 4769   1.668   3.292  11.266 -0.8985  3.5882  0.8879
  314TMC3    C1 4770   1.712   3.479  11.401 -0.5450  0.3562 -0.0697
  314TMC3    C2 4771   1.847   3.506  11.397 -0.2501 -0.2556  0.0226
  314TMC3    C3 4772   1.891   3.573  11.286  0.4256  0.0710  0.5530
  314TMC3    C4 4773   1.635   3.508  11.294 -0.3469  0.6040  0.0367
  314TMC3    C5 4774   1.683   3.559  11.183  0.2100  0.4793 -0.1293
  314TMC3    C6 4775   1.812   3.605  11.179 -0.2961 -0.3506  0.2677
  314TMC3     C 4776   1.672   3.356  11.459  0.3031 -0.5062 -0.2289
  314TMC3     O 4777   1.690   3.344  11.581 -0.9297  0.3067  0.1396
  314TMC3     H 4778   1.912   3.472  11.478  0.4589  1.3788  0.1488
  314TMC3    H1 4779   1.531   3.478  11.291 -0.1935 -0.2343  2.6674
  314TMC3    H2 4780   1.848   3.646  11.085  0.1852 -0.6839  0.3030
  314TMC3    C7 4781   1.648   3.471  11.073  0.1664  0.1818 -0.7430
  314TMC3    C8 4782   2.029   3.600  11.253  0.2776  0.0940  0.0317
  314TMC3    O1 4783   1.616   3.360  11.113  0.0593 -0.5991  0.3444
  314TMC3    O2 4784   2.054   3.682  11.164 -0.0066  0.4486  0.2128
  315MPD2     C 4785   2.246   2.205   0.327 -0.1302  0.3804  0.1955
  315MPD2    C1 4786   2.349   2.169   0.252 -0.1557 -1.1463  0.4203
  315MPD2    C2 4787   2.396   2.259   0.156  0.5130 -0.7187  0.1547
  315MPD2    C3 4788   2.361   2.393   0.159  0.3985 -0.4548  0.9724
  315MPD2    C4 4789   2.260   2.425   0.246 -1.1322 -0.3379 -0.1364
  315MPD2    C5 4790   2.203   2.335   0.332 -0.0911 -0.2459 -0.2679
  315MPD2     H 4791   2.469   2.224   0.084 -0.5103 -0.3287 -1.0807
  315MPD2    H1 4792   2.206   2.519   0.236 -0.4393 -0.1364 -2.1093
  315MPD2    H2 4793   2.200   2.138   0.398  0.3268 -0.0903  0.0439
  315MPD2    H3 4794   2.124   2.375   0.395  0.3911 -2.3809  1.6773
  315MPD2     N 4795   2.419   2.479   0.063 -0.8105  0.1453 -0.3068
  315MPD2    H5 4796   2.484   2.442  17.762 -0.7135  2.9215 -1.7200
  315MPD2    N1 4797   2.410   2.038   0.244  0.6977 -0.2023  0.4444
  315MPD2    H7 4798   2.482   2.025   0.174  2.1675  0.3130  1.8585
  316TMC3    C1 4799   2.511   2.667  17.758  0.3762 -0.0549  0.2438
  316TMC3    C2 4800   2.612   2.716   0.061 -0.4486  0.8144  0.3886
  316TMC3    C3 4801   2.726   2.742  17.754  0.8049 -0.4838 -0.1196
  316TMC3    C4 4802   2.517   2.637  17.626  0.3677 -0.8874  0.0722
  316TMC3    C5 4803   2.625   2.689  17.558 -0.6534 -0.4895 -0.3010
  316TMC3    C6 4804   2.734   2.739  17.620 -0.7024 -0.2672  0.2265
  316TMC3     C 4805   2.408   2.614   0.063 -0.7429 -0.0448 -0.2667
  316TMC3     O 4806   2.369   2.676   0.164  0.2266 -0.5479 -0.1906
  316TMC3     H 4807   2.619   2.732   0.168  0.3922 -1.2474  0.6476
  316TMC3    H1 4808   2.429   2.610  17.569  0.1592 -0.1170  0.0272
  316TMC3    H2 4809   2.815   2.782  17.562 -0.1970  0.3414  1.3978
  316TMC3    C7 4810   2.608   2.712  17.406 -0.3511  0.1444  0.1373
  316TMC3    C8 4811   2.848   2.710   0.058  0.0152  0.3036  0.9051
  316TMC3    O1 4812   2.645   2.821  17.361  0.3049  0.3383  0.0431
  316TMC3    O2 4813   2.936   2.794   0.063  0.1184 -0.2773 -0.3681
  317MPD2     C 4814   3.713   0.562  12.996  0.3608 -0.1446 -0.5824
  317MPD2    C1 4815   3.763   0.441  12.974 -0.2194  0.3482 -0.1793
  317MPD2    C2 4816   3.849   0.390  13.062 -0.0038 -0.1561 -0.4292
  317MPD2    C3 4817   3.901   0.465  13.169 -0.2103  0.0320  0.6953
  317MPD2    C4 4818   3.845   0.589  13.194 -0.1766 -0.1108  0.2048
  317MPD2    C5 4819   3.752   0.635  13.107 -0.2144  0.4195 -0.7282
  317MPD2     H 4820   3.885   0.288  13.055  0.2939 -0.0954  0.1463
  317MPD2    H1 4821   3.882   0.653  13.273  1.5137 -1.7248  0.7213
  317MPD2    H2 4822   3.651   0.619  12.928  2.0277  1.9254 -0.3688
  317MPD2    H3 4823   3.711   0.733  13.132 -0.6411  0.5197 -1.8020
  317MPD2     N 4824   4.013   0.413  13.247 -0.0388 -0.3793  0.3770
  317MPD2    H5 4825   4.036   0.315  13.233 -1.1725 -0.7913  1.4199
  317MPD2    N1 4826   3.739   0.356  12.863  0.6414  0.0287 -1.0013
  317MPD2    H7 4827   3.800   0.276  12.849  3.1330  1.7364  0.2168
  318TMC3    C1 4828   4.157   0.383  13.422 -0.0837  0.4321  0.0950
  318TMC3    C2 4829   4.117   0.251  13.438  0.4043  0.2615  0.1480
  318TMC3    C3 4830   4.197   0.165  13.504 -0.0936  0.0301 -0.0777
  318TMC3    C4 4831   4.278   0.428  13.466  0.2062 -0.1698  0.4280
  318TMC3    C5 4832   4.367   0.339  13.524  0.7663  0.1384 -0.8533
  318TMC3    C6 4833   4.329   0.206  13.534  0.2659  0.1236 -0.7597
  318TMC3     C 4834   4.073   0.482  13.351  0.3710  0.0614 -0.1833
  318TMC3     O 4835   4.096   0.604  13.355  0.3215 -0.1714  0.5426
  318TMC3     H 4836   4.012   0.228  13.423  0.5662 -0.4370  0.0994
  318TMC3    H1 4837   4.312   0.524  13.429  3.3026 -1.2795  0.3891
  318TMC3    H2 4838   4.390   0.122  13.564 -1.2512 -0.0375  1.8755
  318TMC3    C7 4839   4.506   0.357  13.480 -0.2759  0.1208 -0.3197
  318TMC3    C8 4840   4.156   0.027  13.523 -0.3161 -0.1164  0.3806
  318TMC3    O1 4841   4.533   0.457  13.412 -0.6093  0.2306 -0.2392
  318TMC3    O2 4842   4.231   4.692  13.579 -0.2064 -0.5417 -0.0494
  319MPD2     C 4843   0.671   2.119  16.702  0.0816  0.3679 -0.7739
  319MPD2    C1 4844   0.701   1.983  16.699 -0.0924 -0.3365  0.5794
  319MPD2    C2 4845   0.639   1.896  16.612 -0.9760 -0.1689 -0.6611
  319MPD2    C3 4846   0.547   1.946  16.518 -0.0081 -0.3211  0.4006
  319MPD2    C4 4847   0.518   2.080  16.524 -0.0625  0.1170  0.3441
  319MPD2    C5 4848   0.586   2.169  16.612 -0.3100  0.4779 -0.1151
  319MPD2     H 4849   0.670   1.792  16.611  1.6222  0.6436 -3.0697
  319MPD2    H1 4850   0.436   2.119  16.465  0.8285  3.9419  1.6309
  319MPD2    H2 4851   0.725   2.191  16.762  0.6075 -1.1478  0.5938
  319MPD2    H3 4852   0.559   2.274  16.614 -1.8705  0.0436  1.8711
  319MPD2     N 4853   0.475   1.865  16.428 -0.2209 -0.9874 -0.3415
  319MPD2    H5 4854   0.401   1.913  16.377  0.3260 -0.4894 -0.6704
  319MPD2    N1 4855   0.804   1.928  16.776  0.0375  0.5081  0.1029
  319MPD2    H7 4856   0.815   1.829  16.758  0.0985  0.7704 -1.2963
  320TMC3    C1 4857   0.391   1.673  16.314  0.3668 -0.1669  0.2297
  320TMC3    C2 4858   0.336   1.746  16.209  0.1812 -0.0486 -0.6345
  320TMC3    C3 4859   0.240   1.683  16.132  0.5457 -0.0515 -0.0193
  320TMC3    C4 4860   0.359   1.549  16.347  0.9587  1.0037  0.8870
  320TMC3    C5 4861   0.270   1.491  16.263  0.4458  0.1153 -0.0316
  320TMC3    C6 4862   0.202   1.556  16.161  0.2054  1.5449 -0.1666
  320TMC3     C 4863   0.494   1.729  16.398 -0.0050 -0.5196  0.4464
  320TMC3     O 4864   0.579   1.653  16.453 -0.0369  0.3291  0.5072
  320TMC3     H 4865   0.377   1.844  16.191 -2.7871  1.5267  1.2606
  320TMC3    H1 4866   0.412   1.501  16.428 -0.0676  2.1253  2.2353
  320TMC3    H2 4867   0.129   1.500  16.105  0.2970  1.6542 -0.3942
  320TMC3    C7 4868   0.242   1.353  16.284  0.1152  0.0808  0.1774
  320TMC3    C8 4869   0.175   1.773  16.039  0.2842  0.6500  0.8580
  320TMC3    O1 4870   0.142   1.309  16.236 -0.4896 -0.3681 -0.1412
  320TMC3    O2 4871   0.241   1.862  15.987 -0.0005  0.3561  0.2541
  321TMC3    C1 4872   0.973   1.891  16.926  0.0311 -0.1650 -0.2178
  321TMC3    C2 4873   0.968   1.758  16.903 -0.1531  0.3722  0.3844
  321TMC3    C3 4874   1.071   1.685  16.952 -0.2731  0.3897  0.5418
  321TMC3    C4 4875   1.075   1.943  17.007 -0.2638  0.3526 -0.6257
  321TMC3    C5 4876   1.183   1.869  17.042  0.1591  0.6012  0.2923
  321TMC3    C6 4877   1.180   1.738  17.004  0.2499  0.4513 -0.4298
  321TMC3     C 4878   0.881   1.988  16.872 -0.5781 -0.8688 -0.2627
  321TMC3     O 4879   0.880   2.101  16.920  0.2838 -0.0696 -0.4966
  321TMC3     H 4880   0.885   1.703  16.859  0.5799  0.8965 -1.6415
  321TMC3    H1 4881   1.081   2.048  17.031 -1.5672 -0.2918  2.5533
  321TMC3    H2 4882   1.267   1.676  17.025 -0.4436 -0.7233 -0.9924
  321TMC3    C7 4883   1.227   1.879  17.176 -0.4089 -0.6397  0.6209
  321TMC3    C8 4884   1.028   1.559  17.014  0.7186  0.5301  0.3340
  321TMC3    O1 4885   1.223   1.772  17.233 -0.1258  0.2870  0.0086
  321TMC3    O2 4886   0.933   1.489  16.979  0.0769  0.4086 -0.1012
  322MPD2     C 4887   3.757   2.639  13.010 -0.4933 -0.4830 -0.6884
  322MPD2    C1 4888   3.781   2.631  13.149  1.3139  0.2033 -0.2117
  322MPD2    C2 4889   3.864   2.533  13.200 -0.2651  0.8174 -0.0990
  322MPD2    C3 4890   3.921   2.435  13.124 -0.5228  0.1285 -0.3111
  322MPD2    C4 4891   3.884   2.436  12.989  0.3037  0.8144 -0.0089
  322MPD2    C5 4892   3.806   2.538  12.932  0.2254  0.3648  0.1639
  322MPD2     H 4893   3.880   2.541  13.307 -0.6302 -2.0304  0.1623
  322MPD2    H1 4894   3.918   2.354  12.926 -0.3661 -0.4470  1.2782
  322MPD2    H2 4895   3.696   2.720  12.971  1.7772  2.3292  1.6802
  322MPD2    H3 4896   3.786   2.528  12.826 -1.5209 -0.9978  0.6133
  322MPD2     N 4897   4.012   2.342  13.190  0.3048 -0.2653  0.4192
  322MPD2    H5 4898   4.008   2.357  13.291  0.7013  1.7753  0.1264
  322MPD2    N1 4899   3.736   2.741  13.231 -0.3104  0.2539 -0.3235
  322MPD2    H7 4900   3.693   2.816  13.179 -0.1631  0.2544 -0.4444
  323TMC3    C1 4901   3.799   2.899  13.390 -0.2815  0.0276 -0.3615
  323TMC3    C2 4902   3.875   2.955  13.293 -1.0842 -0.5377 -0.3202
  323TMC3    C3 4903   3.955   3.059  13.338 -0.0496 -0.0968  0.0491
  323TMC3    C4 4904   3.807   2.933  13.523  0.7690 -0.1177 -0.2588
  323TMC3    C5 4905   3.895   3.027  13.564 -0.9249  0.1113 -0.6528
  323TMC3    C6 4906   3.966   3.092  13.467  0.2999 -0.6560  0.4514
  323TMC3     C 4907   3.757   2.765  13.369  0.4878  0.5659  0.2078
  323TMC3     O 4908   3.789   2.686  13.456 -0.1811 -0.1345 -0.1466
  323TMC3     H 4909   3.874   2.927  13.189 -2.6045 -0.8514 -0.2211
  323TMC3    H1 4910   3.745   2.880  13.594  0.6316 -1.2421 -1.2183
  323TMC3    H2 4911   4.041   3.166  13.495  0.3319 -0.2302 -0.7926
  323TMC3    C7 4912   3.973   2.997  13.688  0.6051 -0.2001  0.2411
  323TMC3    C8 4913   4.071   3.101  13.249  0.2545 -0.3470  1.1217
  323TMC3    O1 4914   3.968   2.883  13.730 -0.6992  0.3772 -0.4108
  323TMC3    O2 4915   4.116   3.211  13.274  0.0654  0.0553  0.1666
  324MPD2     C 4916   0.897   4.129  14.387 -0.2024 -0.0670  0.3993
  324MPD2    C1 4917   0.856   4.258  14.398  0.7491  0.1710 -0.3347
  324MPD2    C2 4918   0.745   4.295  14.324  0.7115  0.1067 -0.8943
  324MPD2    C3 4919   0.682   4.205  14.234 -0.6343 -0.3802  0.3229
  324MPD2    C4 4920   0.725   4.075  14.231 -0.1954 -0.2091  0.6754
  324MPD2    C5 4921   0.841   4.044  14.296  0.4045  0.0378  0.4064
  324MPD2     H 4922   0.706   4.395  14.333  0.4945 -0.1699  1.3110
  324MPD2    H1 4923   0.681   4.001  14.165 -0.3046  0.4633 -0.0066
  324MPD2    H2 4924   0.984   4.094  14.442  0.2273 -1.0588 -0.8933
  324MPD2    H3 4925   0.887   3.947  14.279  2.3634  1.0768 -0.1038
  324MPD2     N 4926   0.568   4.236  14.155 -0.6195 -0.5794  1.0462
  324MPD2    H5 4927   0.521   4.157  14.112 -0.1606  0.0391 -0.5684
  324MPD2    N1 4928   0.914   4.357  14.482  0.6157 -0.5501  0.1794
  324MPD2    H7 4929   0.861   4.443  14.476  0.3715 -0.6128  1.4949
  325TMC3    C1 4930   0.394   4.378  14.078  0.2342  0.0648  0.2517
  325TMC3    C2 4931   0.317   4.268  14.062  0.6092 -0.3607  0.2220
  325TMC3    C3 4932   0.204   4.278  13.980 -0.1581  0.5983  1.0333
  325TMC3    C4 4933   0.370   4.498  14.023 -0.0276 -0.0406  0.3673
  325TMC3    C5 4934   0.260   4.504  13.942 -0.2680 -0.4165  0.4923
  325TMC3    C6 4935   0.178   4.396  13.920 -0.0087 -0.0847  0.4529
  325TMC3     C 4936   0.532   4.366  14.139  0.7400  0.5495  0.5625
  325TMC3     O 4937   0.595   4.471  14.145 -0.6294 -0.6867  0.3827
  325TMC3     H 4938   0.343   4.170  14.101 -0.2470  0.8825  3.8740
  325TMC3    H1 4939   0.445   4.575  14.011  0.0231  0.0433  1.2295
  325TMC3    H2 4940   0.082   4.405  13.869  0.3886 -0.1239 -0.2949
  325TMC3    C7 4941   0.225   4.645  13.902  0.9042  0.3757  0.3042
  325TMC3    C8 4942   0.120   4.175  13.937 -0.5186 -0.0712 -0.8722
  325TMC3    O1 4943   0.162   4.650  13.797 -0.0092 -0.3091  0.1117
  325TMC3    O2 4944   0.069   4.185  13.823 -0.0921  0.3401 -0.7230
  326MPD2     C 4945   1.796   0.396  11.090  0.5967 -0.3487 -0.0091
  326MPD2    C1 4946   1.817   0.362  10.957  0.1933  0.7491  0.3245
  326MPD2    C2 4947   1.928   0.421  10.899 -0.3856 -0.0371  0.2634
  326MPD2    C3 4948   2.020   0.501  10.970 -0.1684  0.3530 -0.3039
  326MPD2    C4 4949   2.007   0.516  11.106  0.5761  0.0027 -0.1911
  326MPD2    C5 4950   1.892   0.466  11.157 -0.3970 -0.6319 -0.4871
  326MPD2     H 4951   1.946   0.398  10.794  1.2722 -0.0710  0.5438
  326MPD2    H1 4952   2.069   0.578  11.170 -0.4992 -0.6611  1.4815
  326MPD2    H2 4953   1.710   0.365  11.147 -0.6543  0.7712 -1.3026
  326MPD2    H3 4954   1.874   0.490  11.261 -0.2170 -0.5809 -0.4687
  326MPD2     N 4955   2.145   0.549  10.911  0.2401 -0.0619 -0.5973
  326MPD2    H5 4956   2.212   0.577  10.981 -0.7665  0.3234  0.2211
  326MPD2    N1 4957   1.739   0.274  10.878 -0.0155  0.5481 -0.3288
  326MPD2    H7 4958   1.759   0.271  10.779  0.0245  1.2347 -0.3398
  327TMC3    C1 4959   1.613   0.095  10.833  0.6006 -0.1572 -0.1725
  327TMC3    C2 4960   1.516   0.155  10.759  0.1036  0.0517 -0.1603
  327TMC3    C3 4961   1.518   0.147  10.626 -0.3152  0.0512 -0.3596
  327TMC3    C4 4962   1.712   0.030  10.769  0.1856 -0.3737  0.6882
  327TMC3    C5 4963   1.720   0.032  10.630  0.3982  0.6400  0.2015
  327TMC3    C6 4964   1.619   0.083  10.550 -0.1896  0.6751 -0.3144
  327TMC3     C 4965   1.663   0.176  10.936 -0.1088 -0.1071 -0.1140
  327TMC3     O 4966   1.704   0.114  11.036 -0.1974 -0.5221  0.3195
  327TMC3     H 4967   1.434   0.203  10.812 -1.1102 -1.0462 -1.0607
  327TMC3    H1 4968   1.792   4.736  10.832 -0.9765 -0.2358  2.2540
  327TMC3    H2 4969   1.630   0.089  10.442 -1.3289 -2.6917 -0.6041
  327TMC3    C7 4970   1.848   0.077  10.584 -0.8507 -0.8366  0.5759
  327TMC3    C8 4971   1.435   0.237  10.544  0.9470  0.4552  0.0155
  327TMC3    O1 4972   1.841   0.124  10.472  0.4403 -0.7846  0.2991
  327TMC3    O2 4973   1.484   0.292  10.443 -0.1893  0.5120  0.3571
  328MPD2     C 4974   0.290   0.393  17.315 -0.3297 -0.0828  0.1828
  328MPD2    C1 4975   0.155   0.393  17.334 -0.2207 -0.2593 -0.1306
  328MPD2    C2 4976   0.078   0.492  17.277  0.3642 -0.1810 -0.2489
  328MPD2    C3 4977   0.145   0.595  17.206 -0.1648 -0.3240  0.0139
  328MPD2    C4 4978   0.282   0.583  17.180  0.4166  0.5855 -0.1515
  328MPD2    C5 4979   0.352   0.485  17.240 -0.4673 -0.6028  0.4082
  328MPD2     H 4980   4.713   0.486  17.286  0.3792 -0.7220 -0.3910
  328MPD2    H1 4981   0.332   0.661  17.123  0.1621  0.7824 -0.1105
  328MPD2    H2 4982   0.350   0.318  17.366 -1.6742 -1.9138 -0.9193
  328MPD2    H3 4983   0.460   0.486  17.241 -0.4631 -1.3227  0.2928
  328MPD2     N 4984   0.066   0.696  17.147 -0.1423  0.0104 -0.2476
  328MPD2    H5 4985   4.709   0.675  17.147 -0.1225 -0.0920  0.1247
  328MPD2    N1 4986   0.100   0.305  17.429  0.1949  0.3258  0.3476
  328MPD2    H7 4987   0.166   0.261  17.493 -0.7639 -1.3481  0.2005
  329TMC3    C1 4988   4.672   0.204  17.567 -0.1637 -0.9042  0.2017
  329TMC3    C2 4989   4.728   0.250  17.678  0.2459 -0.1484 -0.0753
  329TMC3    C3 4990   4.686   0.216   0.040  0.2126  0.1469 -0.0017
  329TMC3    C4 4991   4.556   0.131  17.577  0.6669  0.0560  0.7024
  329TMC3    C5 4992   4.522   0.086  17.703  0.0193  0.5688  0.4822
  329TMC3    C6 4993   4.578   0.125   0.049 -0.6203  0.5032  1.1750
  329TMC3     C 4994   4.709   0.273  17.441 -0.8600 -0.4755  0.5870
  329TMC3     O 4995   4.618   0.269  17.357  0.3489 -0.0120 -0.2460
  329TMC3     H 4996   0.055   0.332  17.676 -0.8026  0.6951 -1.9723
  329TMC3    H1 4997   4.511   0.082  17.492  0.8947 -0.3686  0.8258
  329TMC3    H2 4998   4.547   0.090   0.147  0.5652  2.8348  2.3767
  329TMC3    C7 4999   4.401   0.014  17.718  0.2474 -0.0248  0.0127
  329TMC3    C8 5000   4.709   0.321   0.141 -0.3410  0.0583  0.2130
  329TMC3    O1 5001   4.388   4.681   0.047 -0.5270  0.5760  0.4445
  329TMC3    O2 5002   0.081   0.370   0.145 -0.1703  0.0141 -0.4081
  330TMC3    C1 5003   2.023   4.397   9.605 -0.3948 -0.2397  0.3754
  330TMC3    C2 5004   1.891   4.355   9.588  0.5413  0.0543  0.2090
  330TMC3    C3 5005   1.849   4.255   9.666 -0.0500  0.1882 -0.2030
  330TMC3    C4 5006   2.109   4.336   9.695 -0.7664 -0.4145 -0.3753
  330TMC3    C5 5007   2.062   4.225   9.768 -0.8008  0.1604  0.2096
  330TMC3    C6 5008   1.932   4.181   9.752 -0.6520  0.5253 -0.2283
  330TMC3     C 5009   2.069   4.514   9.530  0.7283  0.3265 -0.4633
  330TMC3     O 5010   2.166   4.573   9.573  0.3689 -0.2496  0.6893
  330TMC3     H 5011   1.813   4.415   9.543 -0.2319  0.0747  1.5570
  330TMC3    H1 5012   2.198   4.390   9.725 -1.6543 -0.4921  2.4020
  330TMC3    H2 5013   1.900   4.087   9.796  1.4338  1.7333  3.8906
  330TMC3    C7 5014   2.131   4.166   9.881  0.6212  0.2473  0.2805
  330TMC3    C8 5015   1.728   4.192   9.628  0.5278 -0.0826 -1.0054
  330TMC3    O1 5016   2.063   4.102   9.958 -0.4766  0.0957  0.4617
  330TMC3    O2 5017   1.712   4.197   9.507  0.0583 -0.0655  0.4027
  331MPD2     C 5018   4.608   3.652  12.313  0.5563 -0.4904 -0.1889
  331MPD2    C1 5019   0.000   3.655  12.281  0.3657  0.6213 -0.3252
  331MPD2    C2 5020   0.054   3.540  12.229  0.5793 -0.6720 -0.2009
  331MPD2    C3 5021   4.721   3.429  12.191 -0.0794  0.1299 -0.0107
  331MPD2    C4 5022   4.588   3.426  12.238 -0.4149 -0.3519 -0.1602
  331MPD2    C5 5023   4.537   3.540  12.293  0.1491 -0.8693  0.2690
  331MPD2     H 5024   0.160   3.527  12.212  0.9987 -1.0274  2.6836
  331MPD2    H1 5025   4.522   3.342  12.220  0.8514 -1.4994  0.4989
  331MPD2    H2 5026   4.573   3.737  12.371 -1.3525 -1.5742  0.2532
  331MPD2    H3 5027   4.432   3.551  12.321  0.2767 -0.6171  0.6515
  331MPD2     N 5028   0.032   3.308  12.152  0.9817 -0.6517  0.3410
  331MPD2    H5 5029   4.722   3.227  12.181  0.9556 -0.0644  1.9398
  331MPD2    N1 5030   0.073   3.765  12.313 -0.1871  0.5440 -0.4178
  331MPD2    H7 5031   0.027   3.852  12.337 -1.3958  0.1561 -1.3372
  332TMC3    C1 5032   0.191   3.173  12.038  0.4735 -0.9372 -0.1196
  332TMC3    C2 5033   0.286   3.180  11.940  0.3490  0.5213  0.6082
  332TMC3    C3 5034   0.403   3.113  11.958  0.0479  0.3533 -0.1221
  332TMC3    C4 5035   0.202   3.088  12.148  0.0345 -0.1359  0.1689
  332TMC3    C5 5036   0.330   3.041  12.164  0.2728  0.1449 -0.2577
  332TMC3    C6 5037   0.427   3.050  12.072  0.0376 -0.0636  0.2096
  332TMC3     C 5038   0.142   3.309  12.070 -0.7555 -0.3758 -0.1477
  332TMC3     O 5039   0.209   3.398  12.021  0.1033 -0.0133  0.0006
  332TMC3     H 5040   0.275   3.246  11.855 -0.0945 -1.9366 -1.2511
  332TMC3    H1 5041   0.128   3.078  12.227 -0.7133  2.1563 -0.2337
  332TMC3    H2 5042   0.530   3.021  12.088 -0.1098 -0.2773  0.7598
  332TMC3    C7 5043   0.364   2.963  12.280 -0.3394 -0.8162  0.3815
  332TMC3    C8 5044   0.505   3.150  11.867  0.1732 -0.0531  0.0611
  332TMC3    O1 5045   0.278   2.917  12.357  0.5670  0.0815 -0.0001
  332TMC3    O2 5046   0.624   3.146  11.898 -0.3919 -0.0724 -0.0205
  333MPD2     C 5047   0.455   3.617  11.633  0.4470 -0.2994  0.3215
  333MPD2    C1 5048   0.434   3.620  11.495 -0.0373  0.4613  0.0288
  333MPD2    C2 5049   0.335   3.535  11.435  0.4387 -0.2386 -1.0521
  333MPD2    C3 5050   0.262   3.455  11.525  0.2192  0.1763  0.3801
  333MPD2    C4 5051   0.276   3.454  11.658  0.0616  0.5321  0.5869
  333MPD2    C5 5052   0.377   3.531  11.713  0.4512 -0.3064  0.0256
  333MPD2     H 5053   0.337   3.521  11.327 -0.8986 -1.0431 -0.9666
  333MPD2    H1 5054   0.225   3.402  11.738 -0.6029 -0.1867 -0.3065
  333MPD2    H2 5055   0.530   3.680  11.678  0.9329 -1.3259  0.9552
  333MPD2    H3 5056   0.372   3.542  11.820  0.4059 -0.5634  0.0498
  333MPD2     N 5057   0.174   3.363  11.460 -0.1270 -0.3212 -0.5527
  333MPD2    H5 5058   0.171   3.380  11.360  0.2428  2.2944 -0.1076
  333MPD2    N1 5059   0.513   3.710  11.415  0.5018 -0.6066  0.4210
  333MPD2    H7 5060   0.589   3.764  11.455  0.9166 -1.3116  0.5804
  334TMC3    C1 5061   0.597   3.818  11.235  0.1002  0.3456  0.0346
  334TMC3    C2 5062   0.719   3.811  11.291 -0.4281 -0.6004  0.7973
  334TMC3    C3 5063   0.810   3.899  11.248 -0.1444  0.6823 -0.4815
  334TMC3    C4 5064   0.563   3.910  11.137  0.5600 -0.7164  0.2130
  334TMC3    C5 5065   0.663   4.006  11.108 -0.2326  0.0527  0.4159
  334TMC3    C6 5066   0.791   3.997  11.161 -0.0650  0.4071 -0.0542
  334TMC3     C 5067   0.495   3.729  11.282 -0.3434  0.6995  0.0582
  334TMC3     O 5068   0.406   3.694  11.207 -0.4022  0.2169 -0.0098
  334TMC3     H 5069   0.743   3.740  11.370  2.0680 -0.8505 -0.1989
  334TMC3    H1 5070   0.474   3.898  11.077 -0.1627  0.7811  0.9803
  334TMC3    H2 5071   0.869   4.068  11.136 -0.9275  0.9178 -1.2489
  334TMC3    C7 5072   0.610   4.138  11.052 -0.3585  0.2654 -0.6936
  334TMC3    C8 5073   0.947   3.873  11.292 -0.0039  0.5810 -0.3965
  334TMC3    O1 5074   0.696   4.205  11.003  0.7846  0.4846  0.2150
  334TMC3    O2 5075   0.968   3.826  11.406  0.0195  0.0023  0.0936
  335TMC3    C1 5076   0.906   0.492  17.459 -1.1399 -0.1531  0.0276
  335TMC3    C2 5077   0.819   0.465  17.352 -0.0332 -0.2313  0.3393
  335TMC3    C3 5078   0.862   0.489  17.221  0.2462 -0.7341 -0.7072
  335TMC3    C4 5079   1.025   0.549  17.436 -0.2541 -0.6336 -0.0685
  335TMC3    C5 5080   1.061   0.573  17.306 -0.1579 -0.3416  0.2536
  335TMC3    C6 5081   0.983   0.540  17.198  0.5615 -0.4174  0.2693
  335TMC3     C 5082   0.886   0.426  17.589  0.2773  0.3075  0.1512
  335TMC3     O 5083   0.806   0.331  17.590  0.2571  0.6440  0.1506
  335TMC3     H 5084   0.722   0.420  17.370  0.8786 -3.1223 -2.0033
  335TMC3    H1 5085   1.095   0.540  17.518 -0.3040  1.8075  0.2167
  335TMC3    H2 5086   1.008   0.566  17.096 -0.2245  1.0476  0.4458
  335TMC3    C7 5087   1.175   0.644  17.269 -0.2149  1.2547  0.1255
  335TMC3    C8 5088   0.782   0.443  17.110  0.1129 -0.2345 -0.1766
  335TMC3    O1 5089   1.222   0.612  17.160  0.3175 -0.0361  0.1544
  335TMC3    O2 5090   0.822   0.477  17.000 -0.1087  0.0917 -0.1859
  336MPD2     C 5091   0.172   3.013  16.266  0.0718 -0.1473 -0.1680
  336MPD2    C1 5092   0.188   2.968  16.132 -0.3670  0.9097 -0.0087
  336MPD2    C2 5093   0.214   2.836  16.115 -0.4800 -0.3087  0.0574
  336MPD2    C3 5094   0.246   2.755  16.220 -0.4803  0.5913 -0.0104
  336MPD2    C4 5095   0.235   2.803  16.347  0.2845 -0.1069  0.9243
  336MPD2    C5 5096   0.201   2.933  16.373  0.1840 -0.4501  0.5512
  336MPD2     H 5097   0.220   2.792  16.016  0.9266 -0.5624  0.2635
  336MPD2    H1 5098   0.251   2.745  16.437  3.7992  1.0781  1.0651
  336MPD2    H2 5099   0.141   3.115  16.286 -2.2625 -1.0789  0.9134
  336MPD2    H3 5100   0.194   2.961  16.477  0.2089 -0.4193  0.5447
  336MPD2     N 5101   0.284   2.616  16.204  0.2729  0.0770 -0.4251
  336MPD2    H5 5102   0.285   2.564  16.292  0.5741 -1.5574 -1.3887
  336MPD2    N1 5103   0.158   3.042  16.017 -0.1737 -0.1494  0.0500
  336MPD2    H7 5104   0.127   2.981  15.942 -1.2040  0.1023  0.2642
  337TMC3    C1 5105   0.068   3.198  15.878  0.1215  0.2493 -0.4848
  337TMC3    C2 5106   0.060   3.089  15.790  0.6265 -0.3722  0.0010
  337TMC3    C3 5107   4.713   3.078  15.693  0.0780 -0.2354  0.4795
  337TMC3    C4 5108   4.713   3.296  15.873  1.0652 -0.2298  0.0757
  337TMC3    C5 5109   4.625   3.276  15.771 -0.0726  0.6188  0.2844
  337TMC3    C6 5110   4.618   3.177  15.680  0.8416 -0.1482 -0.1725
  337TMC3     C 5111   0.126   3.174  16.008 -0.9271  0.8574  0.7003
  337TMC3     O 5112   0.112   3.260  16.096  0.2935 -0.3007  1.1341
  337TMC3     H 5113   0.150   3.029  15.782  1.4243  0.9537 -1.0283
  337TMC3    H1 5114   4.718   3.377  15.945 -1.7641 -0.2137  0.2411
  337TMC3    H2 5115   4.532   3.172  15.614  2.3927 -1.1417 -2.1140
  337TMC3    C7 5116   4.528   3.381  15.754  0.1050  0.0947  0.1194
  337TMC3    C8 5117   4.698   2.947  15.635  0.6085 -0.4275  0.5267
  337TMC3    O1 5118   4.420   3.346  15.708 -0.6084 -0.8392 -0.0791
  337TMC3    O2 5119   0.008   2.854  15.702 -0.1016 -0.2646  0.2230
  338MPD2     C 5120   0.571   2.780   1.084  0.3479  0.2647  0.2361
  338MPD2    C1 5121   0.509   2.741   0.970 -0.7568  0.2640 -0.1251
  338MPD2    C2 5122   0.374   2.738   0.964 -0.5026 -0.6838 -0.6177
  338MPD2    C3 5123   0.297   2.767   1.073  0.0954  0.1845  0.0968
  338MPD2    C4 5124   0.357   2.818   1.187  0.6957  0.5790  0.9537
  338MPD2    C5 5125   0.496   2.826   1.186  0.1912 -0.1307  0.0955
  338MPD2     H 5126   0.323   2.705   0.874  0.2045  2.0392 -2.0218
  338MPD2    H1 5127   0.307   2.858   1.274  1.8146  3.2100  0.3874
  338MPD2    H2 5128   0.678   2.794   1.094  0.1857  1.4948  0.2604
  338MPD2    H3 5129   0.542   2.863   1.277 -1.8578  0.3520  0.9359
  338MPD2     N 5130   0.163   2.764   1.068 -0.3862 -0.8457 -0.1715
  338MPD2    H5 5131   0.134   2.749   0.972  1.1896 -1.2444 -0.5951
  338MPD2    N1 5132   0.576   2.703   0.855  0.8129 -0.2521 -1.0513
  338MPD2    H7 5133   0.522   2.687   0.771 -1.2087 -2.3683  0.6434
  339TMC3    C1 5134   4.689   2.802   1.116 -0.0916 -0.2166 -0.4776
  339TMC3    C2 5135   4.593   2.708   1.159  1.0297  0.0849  0.0948
  339TMC3    C3 5136   4.480   2.694   1.075 -0.2281 -0.8673  0.1898
  339TMC3    C4 5137   4.673   2.873   1.005 -0.7519  0.2562  0.4990
  339TMC3    C5 5138   4.563   2.860   0.936  0.0728 -0.4328  0.2972
  339TMC3    C6 5139   4.459   2.775   0.967  0.2339 -0.1806  0.8059
  339TMC3     C 5140   0.076   2.797   1.170  0.0040 -0.4716  0.2781
  339TMC3     O 5141   0.094   2.799   1.291  0.4487  0.4904 -0.1761
  339TMC3     H 5142   4.609   2.651   1.250 -0.7656 -2.0545 -0.9324
  339TMC3    H1 5143   0.012   2.936   0.973  0.7339 -1.6580  0.5198
  339TMC3    H2 5144   4.370   2.763   0.907 -0.0873 -0.4446  1.3323
  339TMC3    C7 5145   4.566   2.908   0.800 -0.0926 -0.3640 -0.8584
  339TMC3    C8 5146   4.405   2.570   1.059 -0.3971  0.6846  0.6507
  339TMC3    O1 5147   4.649   2.992   0.768  0.1347  0.5103  0.1897
  339TMC3    O2 5148   4.366   2.543   0.949  0.8456 -0.3763 -0.0872
  340MPD2     C 5149   0.243   0.526  10.088 -0.5301  0.0743 -1.0360
  340MPD2    C1 5150   0.228   0.390  10.092  0.3023 -0.4413 -0.9477
  340MPD2    C2 5151   0.232   0.325  10.212 -0.5054  0.4918  0.0326
  340MPD2    C3 5152   0.257   0.392  10.329 -0.4662 -0.0146  0.1577
  340MPD2    C4 5153   0.304   0.522  10.328 -0.4893  0.6564 -0.5255
  340MPD2    C5 5154   0.282   0.587  10.204  0.1027 -0.4445  0.0691
  340MPD2     H 5155   0.220   0.218  10.203  0.2454  0.3797  0.3738
  340MPD2    H1 5156   0.340   0.578  10.413  1.5413  0.3333 -1.1624
  340MPD2    H2 5157   0.230   0.579   9.994  0.0048 -0.1862 -1.2565
  340MPD2    H3 5158   0.305   0.693  10.194  0.1783 -0.5090 -0.4140
  340MPD2     N 5159   0.275   0.329  10.452 -0.3160 -0.2752  0.3308
  340MPD2    H5 5160   0.314   0.387  10.525  2.9905 -0.9916 -0.8665
  340MPD2    N1 5161   0.175   0.339   9.971  0.3623 -0.0344  0.3342
  340MPD2    H7 5162   0.177   0.398   9.888  0.1292 -1.0193 -0.3652
  341TMC3    C1 5163   0.082   0.189   9.818  0.4012 -0.2231 -0.6230
  341TMC3    C2 5164   0.003   0.075   9.798  0.3639  0.1478 -0.4300
  341TMC3    C3 5165   0.015   0.004   9.686 -0.0686  0.3066  0.2391
  341TMC3    C4 5166   0.175   0.235   9.723 -0.0248  0.3871  0.2771
  341TMC3    C5 5167   0.186   0.146   9.617 -0.7732  0.1823  0.2517
  341TMC3    C6 5168   0.109   0.037   9.594  0.0712  0.4959  0.3092
  341TMC3     C 5169   0.110   0.220   9.954  0.1083  0.2089  0.4019
  341TMC3     O 5170   0.107   0.130  10.036 -0.2513 -0.2691 -0.0613
  341TMC3     H 5171   4.689   0.045   9.885 -0.4613  0.8787 -0.7030
  341TMC3    H1 5172   0.263   0.296   9.743 -0.2711  1.0061 -0.5696
  341TMC3    H2 5173   0.136   4.718   9.509 -2.7452 -0.0331 -0.2173
  341TMC3    C7 5174   0.255   0.204   9.497  0.6889  0.3834  0.1340
  341TMC3    C8 5175   4.693   4.618   9.688  0.0573 -1.4361 -0.2192
  341TMC3    O1 5176   0.271   0.120   9.409 -0.6581  0.0615  0.2302
  341TMC3    O2 5177   4.640   4.592   9.798 -0.0637 -0.8147 -0.5414
  342MPD2     C 5178   3.270   3.347  17.413  0.2707  0.1591 -1.0389
  342MPD2    C1 5179   3.365   3.376  17.320 -0.2667 -0.5249  0.0909
  342MPD2    C2 5180   3.388   3.512  17.294  0.0300  0.1257 -0.1197
  342MPD2    C3 5181   3.318   3.614  17.359 -0.2792  0.8315  0.5470
  342MPD2    C4 5182   3.219   3.579  17.450 -0.8477  0.0291  0.3971
  342MPD2    C5 5183   3.199   3.448  17.482 -0.0506 -0.3109  0.4148
  342MPD2     H 5184   3.474   3.541  17.234  0.8225 -1.3125  0.3138
  342MPD2    H1 5185   3.173   3.658  17.509  0.5253  1.0322  0.1235
  342MPD2    H2 5186   3.234   3.247  17.436  0.5360  0.6923  1.6634
  342MPD2    H3 5187   3.120   3.413  17.548  0.1225 -1.4282  0.0434
  342MPD2     N 5188   3.349   3.751  17.362 -0.2277 -0.1863 -0.9107
  342MPD2    H5 5189   3.295   3.809  17.425  0.3131  0.6274 -1.1888
  342MPD2    N1 5190   3.443   3.276  17.247 -0.0794 -0.1101  0.2211
  342MPD2    H7 5191   3.478   3.298  17.154 -3.1379  2.2309 -0.4123
  343TMC3    C1 5192   3.503   3.058  17.198 -0.3818 -0.1729 -0.3625
  343TMC3    C2 5193   3.535   3.104  17.077  0.2757 -0.1471 -0.3050
  343TMC3    C3 5194   3.559   3.017  16.979  0.3275  0.1870  0.0614
  343TMC3    C4 5195   3.478   2.926  17.224 -0.0651 -0.0715 -0.3136
  343TMC3    C5 5196   3.500   2.844  17.118 -0.2090 -0.0262  0.2612
  343TMC3    C6 5197   3.532   2.887  16.990  0.3927 -0.0126 -0.1102
  343TMC3     C 5198   3.438   3.148  17.289 -0.0291  0.7020  0.5431
  343TMC3     O 5199   3.371   3.088  17.373  0.2979  0.3215  0.3909
  343TMC3     H 5200   3.549   3.210  17.064 -0.0693 -0.3212 -2.0180
  343TMC3    H1 5201   3.451   2.896  17.325  1.3578  0.3368  0.2000
  343TMC3    H2 5202   3.548   2.814  16.911 -1.4397 -1.2365  0.6425
  343TMC3    C7 5203   3.485   2.703  17.138 -0.1901 -0.7084  0.2419
  343TMC3    C8 5204   3.657   3.066  16.885  0.6095 -0.0666 -0.6024
  343TMC3    O1 5205   3.437   2.632  17.049 -0.0400 -0.3003 -0.3389
  343TMC3    O2 5206   3.699   3.180  16.902 -0.0802 -0.8603 -0.2960
  344MPD2     C 5207   3.141   3.170  11.036 -0.3326  0.4793  0.0197
  344MPD2    C1 5208   3.199   3.105  10.924  0.7881  0.3903  0.0749
  344MPD2    C2 5209   3.274   3.182  10.840 -0.1647  0.2080  0.4226
  344MPD2    C3 5210   3.303   3.317  10.868 -0.8395 -0.1348 -0.5457
  344MPD2    C4 5211   3.253   3.375  10.983 -0.0034 -0.0757 -0.9043
  344MPD2    C5 5212   3.169   3.304  11.061 -0.2948 -0.5908  0.4837
  344MPD2     H 5213   3.315   3.139  10.749  0.3729  0.0920  0.7172
  344MPD2    H1 5214   3.256   3.483  10.989  3.2062 -0.2732  1.1200
  344MPD2    H2 5215   3.084   3.128  11.117 -0.3048  1.6844  0.6600
  344MPD2    H3 5216   3.105   3.344  11.139  2.2308  3.6820  0.3162
  344MPD2     N 5217   3.361   3.405  10.774  0.2923  0.5553 -0.4404
  344MPD2    H5 5218   3.363   3.504  10.797  0.5349  0.9431 -2.1043
  344MPD2    N1 5219   3.170   2.971  10.893 -0.0366  0.2108  0.5044
  344MPD2    H7 5220   3.209   2.938  10.805  1.0489 -0.3134  1.1800
  345TMC3    C1 5221   3.462   3.490  10.581 -0.1184 -0.0990  0.9274
  345TMC3    C2 5222   3.539   3.575  10.660 -0.0046 -0.0127 -0.9961
  345TMC3    C3 5223   3.601   3.681  10.597  0.4143 -1.0822  0.1828
  345TMC3    C4 5224   3.454   3.497  10.446  0.6663  0.7594 -0.0183
  345TMC3    C5 5225   3.522   3.597  10.389  0.8883  0.2089  0.1799
  345TMC3    C6 5226   3.598   3.690  10.460  0.9322 -0.4079  0.5456
  345TMC3     C 5227   3.403   3.370  10.645  0.5253 -0.2462 -0.1380
  345TMC3     O 5228   3.389   3.270  10.580 -0.1134  0.3100  0.5573
  345TMC3     H 5229   3.548   3.568  10.768 -1.8096  0.3643 -0.8171
  345TMC3    H1 5230   3.399   3.423  10.390 -0.1359  1.2716  0.0885
  345TMC3    H2 5231   3.663   3.760  10.410 -0.7455  2.1861  1.9912
  345TMC3    C7 5232   3.522   3.593  10.246 -0.0052 -0.0600 -0.5502
  345TMC3    C8 5233   3.681   3.767  10.678 -0.5847 -0.5723 -0.2096
  345TMC3    O1 5234   3.495   3.487  10.193  0.1678  0.0492  0.2761
  345TMC3    O2 5235   3.701   3.731  10.792  0.8892 -0.9215 -0.3166
  346MPD2     C 5236   4.250   0.038  14.569  0.1623 -0.4066  0.0941
  346MPD2    C1 5237   4.342   0.029  14.468 -0.6661 -0.3364 -0.4555
  346MPD2    C2 5238   4.466   0.094  14.464 -0.5045 -0.7482  0.2228
  346MPD2    C3 5239   4.500   0.169  14.571 -0.9143 -0.1703  0.4082
  346MPD2    C4 5240   4.414   0.179  14.676  0.1829  0.7403 -0.4456
  346MPD2    C5 5241   4.297   0.111  14.677 -0.0327  0.7503 -0.4708
  346MPD2     H 5242   4.521   0.074  14.372  1.0401  3.4048  0.2348
  346MPD2    H1 5243   4.423   0.242  14.763  0.6869  0.3788 -0.2345
  346MPD2    H2 5244   4.158   4.723  14.574  0.5757 -1.1528 -0.7878
  346MPD2    H3 5245   4.231   0.109  14.763 -2.2953 -0.0688 -2.1983
  346MPD2     N 5246   4.617   0.244  14.558  0.6209  0.3702 -0.0324
  346MPD2    H5 5247   4.674   0.241  14.474 -0.4481 -1.1777 -0.6808
  346MPD2    N1 5248   4.305   4.723  14.341 -0.1535  0.4202  0.0576
  346MPD2    H7 5249   4.375   4.701  14.271  1.4667 -1.0302  2.1095
  347TMC3    C1 5250   0.045   0.391  14.619 -0.1814  0.0489  0.3869
  347TMC3    C2 5251   0.076   0.418  14.486  0.9131 -0.1545 -0.0055
  347TMC3    C3 5252   0.208   0.442  14.459 -0.3217  0.2957 -0.2990
  347TMC3    C4 5253   0.141   0.384  14.722 -0.0180 -0.0456 -0.4640
  347TMC3    C5 5254   0.274   0.409  14.683  0.0114 -0.7857 -0.5709
  347TMC3    C6 5255   0.305   0.439  14.556 -0.7190 -0.2380 -0.5008
  347TMC3     C 5256   4.666   0.318  14.661  0.7702  0.3405  0.0033
  347TMC3     O 5257   4.639   0.302  14.778  0.3016  0.3516  0.0675
  347TMC3     H 5258   4.729   0.408  14.427  0.1274 -1.6967  1.4665
  347TMC3    H1 5259   0.108   0.370  14.824  1.2333 -0.1892 -0.0814
  347TMC3    H2 5260   0.411   0.436  14.534 -0.7335 -0.3466 -0.5520
  347TMC3    C7 5261   0.385   0.417  14.782 -0.1861  0.4090  0.2533
  347TMC3    C8 5262   0.257   0.377  14.337 -0.0748 -0.2053 -0.5125
  347TMC3    O1 5263   0.486   0.476  14.752 -0.1010  0.0673  0.0088
  347TMC3    O2 5264   0.366   0.320  14.346 -0.3001  0.1632  0.0478
  348MPD2     C 5265   2.956   4.019  12.041  0.0532 -0.5265  0.3696
  348MPD2    C1 5266   3.057   3.973  11.961  0.5912  0.1639  0.4038
  348MPD2    C2 5267   3.062   4.014  11.837  0.2427  0.5127  0.1164
  348MPD2    C3 5268   2.972   4.099  11.781 -0.4616  0.3337 -0.3006
  348MPD2    C4 5269   2.874   4.140  11.863 -0.3183 -0.4238 -0.3297
  348MPD2    C5 5270   2.863   4.102  11.991  0.2690  0.3480  0.0249
  348MPD2     H 5271   3.152   3.976  11.790  0.5280  0.9294  0.3225
  348MPD2    H1 5272   2.809   4.216  11.821 -0.2099  0.0377  0.3168
  348MPD2    H2 5273   2.944   3.998  12.146  0.7520  1.2088  0.7970
  348MPD2    H3 5274   2.784   4.142  12.053 -0.1282 -0.1228 -0.1871
  348MPD2     N 5275   2.973   4.131  11.643 -0.2665  0.1073  0.1822
  348MPD2    H5 5276   3.055   4.114  11.585 -0.9565  1.3721 -1.1582
  348MPD2    N1 5277   3.146   3.867  11.994  0.8478 -0.1740 -0.3554
  348MPD2    H7 5278   3.222   3.840  11.933  1.5727  0.3144  0.3260
  349TMC3    C1 5279   3.179   3.656  12.077 -0.5552  0.1408  0.5520
  349TMC3    C2 5280   3.141   3.566  12.175  0.9547 -0.0521 -0.0413
  349TMC3    C3 5281   3.094   3.441  12.132 -0.1492 -0.8329  0.6638
  349TMC3    C4 5282   3.163   3.626  11.938  0.1528 -0.4064  0.2814
  349TMC3    C5 5283   3.112   3.502  11.899  0.1237 -0.5521 -0.6823
  349TMC3    C6 5284   3.070   3.412  12.001  0.0866  0.1637 -0.2379
  349TMC3     C 5285   3.140   3.793  12.113 -0.2293  0.2379 -0.1333
  349TMC3     O 5286   3.056   3.810  12.206  0.0860 -0.1569  0.2788
  349TMC3     H 5287   3.137   3.588  12.281  0.4857  1.8577 -0.4591
  349TMC3    H1 5288   3.194   3.684  11.852 -1.6362 -1.3374 -0.9861
  349TMC3    H2 5289   3.031   3.314  11.977 -0.3131  0.3183 -0.2099
  349TMC3    C7 5290   3.016   3.529  11.798  0.1063 -0.2809 -0.1713
  349TMC3    C8 5291   3.037   3.359  12.237  0.4826  0.0881  0.3029
  349TMC3    O1 5292   2.903   3.551  11.844 -0.0872 -0.1912  0.3622
  349TMC3    O2 5293   3.074   3.365  12.356  0.5144  0.0419  0.7675
  350MPD2     C 5294   1.054   2.223  10.642 -0.0335 -0.6050  0.4637
  350MPD2    C1 5295   1.180   2.166  10.645  0.3352 -0.1507  0.6496
  350MPD2    C2 5296   1.292   2.241  10.656  1.0640 -0.0859  0.4017
  350MPD2    C3 5297   1.288   2.375  10.675 -0.3228  0.6455  1.0748
  350MPD2    C4 5298   1.168   2.437  10.671 -0.7515 -0.3076 -0.3300
  350MPD2    C5 5299   1.054   2.361  10.656 -0.4221 -0.5733  0.3028
  350MPD2     H 5300   1.392   2.198  10.657  1.1437  0.0897 -0.1824
  350MPD2    H1 5301   1.157   2.543  10.689  0.2353 -0.6267  2.1546
  350MPD2    H2 5302   0.957   2.178  10.629 -0.4752  0.1210  1.1932
  350MPD2    H3 5303   0.961   2.417  10.659 -0.6661 -0.8472 -2.6139
  350MPD2     N 5304   1.409   2.449  10.703  0.3081 -0.1525  0.3684
  350MPD2    H5 5305   1.486   2.386  10.725 -0.1351 -0.7155  0.3303
  350MPD2    N1 5306   1.181   2.023  10.630  0.6069  0.4045  0.0241
  350MPD2    H7 5307   1.268   1.978  10.603  0.4638  0.5419 -0.6910
  351TMC3    C1 5308   1.107   1.798  10.643  0.2208  0.4419  0.5160
  351TMC3    C2 5309   1.201   1.770  10.546 -0.2160 -0.1990 -0.0795
  351TMC3    C3 5310   1.218   1.641  10.513 -0.2947  0.1714  0.1796
  351TMC3    C4 5311   1.035   1.698  10.701 -0.0186 -0.6730  0.0984
  351TMC3    C5 5312   1.044   1.573  10.660 -0.6284 -0.1103  0.0556
  351TMC3    C6 5313   1.136   1.541  10.561  0.9603 -0.2435  0.0767
  351TMC3     C 5314   1.083   1.938  10.669  0.2454 -0.4036  0.6399
  351TMC3     O 5315   0.977   1.975  10.715  0.3365 -0.3487 -0.3481
  351TMC3     H 5316   1.256   1.844  10.490 -0.3985  1.6252  2.1493
  351TMC3    H1 5317   0.972   1.723  10.786  0.2732 -0.8222  0.3604
  351TMC3    H2 5318   1.157   1.436  10.544 -0.5845 -0.6856  0.8444
  351TMC3    C7 5319   0.991   1.470  10.750  0.1041  0.3486 -1.0193
  351TMC3    C8 5320   1.319   1.599  10.418 -0.0565 -0.5250 -0.4536
  351TMC3    O1 5321   0.951   1.504  10.856 -0.7876  0.7835  0.4715
  351TMC3    O2 5322   1.303   1.492  10.364  0.1272 -0.0559  0.2107
  352MPD2     C 5323   1.091   4.727   1.063  0.9877 -0.4851 -0.4187
  352MPD2    C1 5324   0.994   4.638   1.025  0.0780 -0.3345  0.3001
  352MPD2    C2 5325   1.024   4.508   0.984 -0.3486  0.4422  0.0567
  352MPD2    C3 5326   1.154   4.465   0.997  0.5099  0.3668 -0.0046
  352MPD2    C4 5327   1.252   4.558   1.031  0.2899  0.4385 -0.0387
  352MPD2    C5 5328   1.218   4.685   1.067  0.4510  0.4331  0.1997
  352MPD2     H 5329   0.943   4.440   0.962  0.4513 -0.4729 -0.0419
  352MPD2    H1 5330   1.355   4.527   1.034 -0.3123 -1.5292  0.4024
  352MPD2    H2 5331   1.077   0.086   1.096  0.5321 -0.7924  0.3521
  352MPD2    H3 5332   1.297   0.011   1.095  0.1733  1.2798 -1.0877
  352MPD2     N 5333   1.197   4.336   0.963  0.9651  0.4743 -0.9322
  352MPD2    H5 5334   1.297   4.322   0.966  0.9055 -0.3334 -2.6190
  352MPD2    N1 5335   0.860   4.690   1.028  0.0843  0.2811  0.5723
  352MPD2    H7 5336   0.856   0.030   1.088  1.2844 -0.0891  1.1651
  353TMC3    C1 5337   1.183   4.135   0.848  0.0494 -0.4848 -0.2571
  353TMC3    C2 5338   1.265   4.067   0.933  0.1974  0.0670 -0.2389
  353TMC3    C3 5339   1.296   3.933   0.904  0.4808 -0.1945 -0.6814
  353TMC3    C4 5340   1.114   4.062   0.755 -0.0763 -0.4592 -0.9709
  353TMC3    C5 5341   1.122   3.924   0.756  0.1653  0.8411  0.7645
  353TMC3    C6 5342   1.215   3.855   0.831  0.2273  0.8130  0.3859
  353TMC3     C 5343   1.115   4.244   0.898 -0.0663  0.4407 -0.6680
  353TMC3     O 5344   0.995   4.246   0.866 -0.0269  0.1719  0.1263
  353TMC3     H 5345   1.345   4.128   0.972  0.9224 -1.9375  1.4391
  353TMC3    H1 5346   1.040   4.106   0.690  0.4815 -0.8945 -1.9151
  353TMC3    H2 5347   1.233   3.750   0.816  0.6695  0.8669  0.5463
  353TMC3    C7 5348   0.994   3.852   0.748  0.2992  0.5356  0.2579
  353TMC3    C8 5349   1.376   3.867   1.011 -1.4625  0.0844  0.0230
  353TMC3    O1 5350   1.002   3.732   0.736 -0.1247  0.5318 -0.3616
  353TMC3    O2 5351   1.389   3.939   1.109 -0.4467 -0.2747  0.4667
  354TMC3    C1 5352   1.850   0.341  13.807  0.4097  0.2974  0.3156
  354TMC3    C2 5353   1.924   0.448  13.786 -0.5961 -0.1632 -0.3235
  354TMC3    C3 5354   1.895   0.540  13.682  1.5231  0.1423  0.7302
  354TMC3    C4 5355   1.745   0.319  13.722  0.0792  0.0624 -0.1695
  354TMC3    C5 5356   1.728   0.394  13.613  0.2449  1.1755  0.5349
  354TMC3    C6 5357   1.794   0.506  13.593 -0.7965  0.1978  0.0883
  354TMC3     C 5358   1.884   0.248  13.909 -0.8662 -0.0260  0.7645
  354TMC3     O 5359   1.831   0.141  13.915 -0.1417  0.2354  0.1382
  354TMC3     H 5360   2.020   0.455  13.837 -0.5117  0.5702 -0.5815
  354TMC3    H1 5361   1.693   0.224  13.717  1.7352 -0.8359 -0.3263
  354TMC3    H2 5362   1.771   0.572  13.510 -2.1461 -0.0671  0.2483
  354TMC3    C7 5363   1.704   0.326  13.493 -0.0255  0.2455 -0.0931
  354TMC3    C8 5364   2.011   0.624  13.643  0.1670  0.1362  0.5831
  354TMC3    O1 5365   1.609   0.249  13.491 -0.2603  0.2816  0.4115
  354TMC3    O2 5366   2.124   0.595  13.686  0.3362 -0.1009  0.5593
  355MPD2     C 5367   1.944   1.345  11.295 -0.6773 -0.1746  0.0837
  355MPD2    C1 5368   2.044   1.323  11.208 -0.3849  0.0165  0.6474
  355MPD2    C2 5369   2.166   1.280  11.249 -0.9137 -0.7316 -0.1764
  355MPD2    C3 5370   2.192   1.259  11.390 -0.1785 -0.3299 -1.0557
  355MPD2    C4 5371   2.077   1.256  11.472 -0.4871  0.0743  0.1989
  355MPD2    C5 5372   1.952   1.299  11.423  0.0479  0.6002  0.5791
  355MPD2     H 5373   2.246   1.290  11.177  0.2473 -1.7985  0.9488
  355MPD2    H1 5374   2.078   1.229  11.577 -1.6718 -0.1418  0.1504
  355MPD2    H2 5375   1.858   1.408  11.279  0.6985  1.4928 -0.7288
  355MPD2    H3 5376   1.866   1.314  11.486 -0.0072 -1.2935  0.9695
  355MPD2     N 5377   2.313   1.235  11.458  0.0458 -0.1942 -0.5108
  355MPD2    H5 5378   2.312   1.230  11.560  1.3459  1.0675 -0.4373
  355MPD2    N1 5379   2.027   1.385  11.082  0.2568  0.3697 -0.2057
  355MPD2    H7 5380   1.957   1.457  11.069 -0.6233 -0.6115 -0.8562
  356TMC3    C1 5381   2.550   1.246  11.490  0.3178  0.2332 -0.1628
  356TMC3    C2 5382   2.652   1.331  11.451  0.5997  0.1053 -0.3154
  356TMC3    C3 5383   2.730   1.381  11.549 -0.8953 -0.6212 -0.4145
  356TMC3    C4 5384   2.530   1.203  11.618 -1.1907 -0.2283  0.0540
  356TMC3    C5 5385   2.626   1.243  11.710  0.5479  0.5634  0.2609
  356TMC3    C6 5386   2.717   1.340  11.676 -0.6772  0.7889  0.1330
  356TMC3     C 5387   2.437   1.245  11.394  0.2179  1.0726 -0.3519
  356TMC3     O 5388   2.471   1.276  11.280  0.0112  0.4206 -0.1642
  356TMC3     H 5389   2.666   1.366  11.350 -0.3287  1.5872  0.0744
  356TMC3    H1 5390   2.445   1.145  11.652  0.5201 -2.1231  1.0675
  356TMC3    H2 5391   2.790   1.378  11.747  0.5123  0.4360 -0.9160
  356TMC3    C7 5392   2.571   1.240  11.841  0.1401  0.0671 -0.6248
  356TMC3    C8 5393   2.759   1.519  11.540  0.2597  0.4598  0.6161
  356TMC3    O1 5394   2.526   1.132  11.881 -0.4209 -0.0212  0.2959
  356TMC3    O2 5395   2.703   1.595  11.620  0.5720  0.2932  0.1562
  357MPD2     C 5396   2.311   1.140   0.928  0.0371 -0.3151  0.2189
  357MPD2    C1 5397   2.373   1.049   1.012 -0.6246 -0.5924  0.4544
  357MPD2    C2 5398   2.371   1.079   1.146 -0.3838  0.1105 -0.2691
  357MPD2    C3 5399   2.316   1.189   1.198  0.4776 -0.3847 -0.5555
  357MPD2    C4 5400   2.269   1.289   1.109  0.3276 -0.0412 -0.7098
  357MPD2    C5 5401   2.264   1.260   0.976  0.4862  0.1243 -0.6894
  357MPD2     H 5402   2.406   1.001   1.214  0.1794  0.1855 -0.4675
  357MPD2    H1 5403   2.224   1.375   1.157  1.9394  0.7748 -0.6683
  357MPD2    H2 5404   2.305   1.117   0.822  0.3802  1.4748 -0.1869
  357MPD2    H3 5405   2.218   1.333   0.910  1.4918  0.5010 -0.9869
  357MPD2     N 5406   2.295   1.204   1.337 -0.3783 -0.2614  0.0370
  357MPD2    H5 5407   2.266   1.295   1.371 -0.6961  0.1332 -1.2858
  357MPD2    N1 5408   2.424   0.935   0.954  0.4157 -0.5014 -0.0601
  357MPD2    H7 5409   2.392   0.922   0.859 -3.5318 -1.6225  1.4081
  358TMC3    C1 5410   2.536   0.721   0.943 -0.4343 -0.1948 -0.3943
  358TMC3    C2 5411   2.430   0.669   0.875  0.3889  0.4715  0.2789
  358TMC3    C3 5412   2.442   0.535   0.832 -0.1459 -1.0911  0.5870
  358TMC3    C4 5413   2.643   0.652   0.979  0.0251  1.2131 -0.1432
  358TMC3    C5 5414   2.652   0.522   0.936  0.3930  0.2143 -0.2264
  358TMC3    C6 5415   2.554   0.465   0.862 -0.1720 -0.3250 -0.0586
  358TMC3     C 5416   2.506   0.840   1.019 -0.6645 -0.5406 -0.4753
  358TMC3     O 5417   2.559   0.855   1.133 -0.2768  0.2396  0.1382
  358TMC3     H 5418   2.332   0.714   0.863 -1.2802 -2.8306  1.4033
  358TMC3    H1 5419   2.717   0.699   1.042 -0.2741  0.1918  0.9725
  358TMC3    H2 5420   2.549   0.357   0.864 -0.0295 -0.3307 -0.0088
  358TMC3    C7 5421   2.781   0.454   0.958 -0.1167 -1.3389  0.3847
  358TMC3    C8 5422   2.321   0.478   0.774 -0.0607  0.5717 -0.3925
  358TMC3    O1 5423   2.858   0.509   1.040 -0.6025 -0.6249  0.3214
  358TMC3    O2 5424   2.261   0.553   0.696 -0.3101  0.4209 -0.3895
  359MPD2     C 5425   2.553   4.545  12.454  0.2013 -0.5403 -0.7754
  359MPD2    C1 5426   2.557   4.485  12.331 -0.7920 -0.3124  0.1019
  359MPD2    C2 5427   2.443   4.433  12.280 -0.5123 -0.3782  0.0540
  359MPD2    C3 5428   2.328   4.413  12.360 -0.2229 -0.5236  0.3758
  359MPD2    C4 5429   2.326   4.452  12.493 -0.4032 -0.6372  0.5798
  359MPD2    C5 5430   2.441   4.526  12.533 -0.5893  0.4828 -0.1716
  359MPD2     H 5431   2.437   4.411  12.174  2.3094  0.5118 -0.2910
  359MPD2    H1 5432   2.239   4.439  12.557  0.2883 -0.6323  1.5192
  359MPD2    H2 5433   2.643   4.580  12.504  0.2719  0.4504 -1.5985
  359MPD2    H3 5434   2.449   4.563  12.634 -1.8871  0.0749  0.0904
  359MPD2     N 5435   2.218   4.339  12.319  0.4924 -0.3369 -0.5413
  359MPD2    H5 5436   2.145   4.312  12.384  0.8895  0.1326  0.0913
  359MPD2    N1 5437   2.663   4.476  12.243  0.7984  0.3276 -0.4885
  359MPD2    H7 5438   2.637   4.439  12.152  0.8087  0.2304 -0.4517
  360TMC3    C1 5439   2.856   4.549  12.139 -0.3480 -0.4406 -0.0162
  360TMC3    C2 5440   2.947   4.654  12.128 -0.1840  0.3450  1.0229
  360TMC3    C3 5441   2.997   4.680  12.007 -0.2011  0.2844  0.4749
  360TMC3    C4 5442   2.814   4.482  12.026  0.7215 -0.1840  0.5037
  360TMC3    C5 5443   2.867   4.516  11.906  0.5295  0.2664 -0.3961
  360TMC3    C6 5444   2.974   4.602  11.897  0.2289  0.3038 -0.2225
  360TMC3     C 5445   2.786   4.534  12.264  0.3983  0.1140 -0.0048
  360TMC3     O 5446   2.823   4.593  12.366 -0.2407  0.4234  0.6085
  360TMC3     H 5447   2.957   4.725  12.210  1.3127  1.4912 -0.1507
  360TMC3    H1 5448   2.748   4.396  12.029  0.1093  0.2826  0.3438
  360TMC3    H2 5449   3.014   4.631  11.801 -0.8996 -0.0758 -0.8030
  360TMC3    C7 5450   2.807   4.475  11.779  0.2507  0.7099  0.6317
  360TMC3    C8 5451   3.029   0.080  11.981  0.3535 -0.1840  0.0437
  360TMC3    O1 5452   2.874   4.488  11.677  0.1604 -0.4419 -0.6953
  360TMC3    O2 5453   2.980   0.170  12.051  0.2991 -0.5165 -0.0241
  361MPD2     C 5454   4.563   4.250  17.119 -0.1190 -0.1608  0.2269
  361MPD2    C1 5455   4.522   4.170  17.012  0.6139 -0.7410  0.5133
  361MPD2    C2 5456   4.604   4.065  16.965 -0.7172  0.0526  0.9686
  361MPD2    C3 5457   4.706   4.027  17.051  0.0364  0.1627  0.1193
  361MPD2    C4 5458   0.001   4.106  17.158  0.0159 -0.7242  0.2729
  361MPD2    C5 5459   4.674   4.217  17.187  0.2978  0.0793  0.2573
  361MPD2     H 5460   4.567   4.014  16.877 -1.0871  0.7000  0.7511
  361MPD2    H1 5461   0.089   4.083  17.219 -0.0918 -0.0201  0.6935
  361MPD2    H2 5462   4.509   4.334  17.161  0.4469 -0.2854  1.2071
  361MPD2    H3 5463   4.698   4.280  17.272  2.7728  1.1480 -1.2351
  361MPD2     N 5464   0.042   3.920  17.021 -0.3260 -0.0979  0.5440
  361MPD2    H5 5465   0.104   3.880  17.090 -0.4753  0.6228  1.1001
  361MPD2    N1 5466   4.398   4.198  16.946  0.2093  0.7038 -0.8287
  361MPD2    H7 5467   4.373   4.123  16.882  0.5399 -0.3880  0.3276
  362TMC3    C1 5468   4.193   4.282  16.880  0.7394  0.0061  0.1062
  362TMC3    C2 5469   4.101   4.197  16.925  0.1528 -0.1624 -0.9290
  362TMC3    C3 5470   3.973   4.210  16.873  0.7770 -0.0963 -0.1297
  362TMC3    C4 5471   4.165   4.385  16.796  0.0883 -0.4431 -0.0156
  362TMC3    C5 5472   4.043   4.396  16.747 -0.1368  0.6098  0.1334
  362TMC3    C6 5473   3.943   4.313  16.787  0.0082  0.6058  0.1334
  362TMC3     C 5474   4.311   4.305  16.966  0.5271 -0.2545  0.6548
  362TMC3     O 5475   4.339   4.410  17.019  1.0011  0.1897  0.2609
  362TMC3     H 5476   4.123   4.115  16.992 -0.4663 -1.9511 -2.9169
  362TMC3    H1 5477   4.238   4.460  16.770 -2.1818  1.3345 -1.2067
  362TMC3    H2 5478   3.839   4.323  16.757  0.0509 -3.4699 -1.3481
  362TMC3    C7 5479   4.008   4.512  16.671  0.4440  0.1662 -0.3168
  362TMC3    C8 5480   3.866   4.129  16.928  0.5787 -0.4412  0.7321
  362TMC3    O1 5481   4.074   4.618  16.687 -0.2539  0.0653 -0.0425
  362TMC3    O2 5482   3.893   4.016  16.964  0.0320 -0.4429 -0.3347
  363TMC3    C1 5483   1.534   1.482   9.275 -0.6435 -0.3341 -0.1374
  363TMC3    C2 5484   1.667   1.468   9.324 -0.1829 -0.3952 -0.1251
  363TMC3    C3 5485   1.679   1.501   9.458 -0.6415  0.2012 -0.4314
  363TMC3    C4 5486   1.429   1.520   9.357 -0.2265  0.5505 -0.1918
  363TMC3    C5 5487   1.453   1.554   9.487  0.4873 -0.2440 -0.1294
  363TMC3    C6 5488   1.577   1.546   9.537  0.3820 -0.3183  0.6897
  363TMC3     C 5489   1.495   1.415   9.146 -0.0930  0.0021  0.1543
  363TMC3     O 5490   1.399   1.466   9.094  0.5963 -0.2492  0.0992
  363TMC3     H 5491   1.758   1.470   9.264 -0.1159  2.9272  0.0985
  363TMC3    H1 5492   1.332   1.532   9.309 -0.4850 -2.4086 -0.4116
  363TMC3    H2 5493   1.594   1.570   9.641 -3.1744  1.1201  0.9431
  363TMC3    C7 5494   1.354   1.625   9.569 -0.6283 -0.8258 -0.4575
  363TMC3    C8 5495   1.803   1.480   9.535 -0.5700  0.5515  0.4823
  363TMC3    O1 5496   1.397   1.670   9.673 -0.2425 -0.4262 -0.2161
  363TMC3    O2 5497   1.810   1.516   9.651  0.5653 -0.3519 -0.2654
  364MPD2     C 5498   1.026   0.556  10.517 -0.4994 -0.0479  0.3192
  364MPD2    C1 5499   1.155   0.568  10.473  0.3494 -0.3191 -0.0145
  364MPD2    C2 5500   1.251   0.469  10.485  0.2388  0.2366 -0.4099
  364MPD2    C3 5501   1.224   0.367  10.573 -0.2876 -0.0414  0.0988
  364MPD2    C4 5502   1.102   0.370  10.640  0.0725 -0.0124 -0.3778
  364MPD2    C5 5503   1.001   0.456  10.608  1.0873 -0.5769  0.8187
  364MPD2     H 5504   1.350   0.479  10.442 -0.4088  1.8711 -1.5183
  364MPD2    H1 5505   1.076   0.286  10.705 -3.3301  0.3183 -1.2850
  364MPD2    H2 5506   0.943   0.619  10.487 -0.8228 -0.2347  0.8285
  364MPD2    H3 5507   0.903   0.452  10.655 -0.2468  2.0273 -1.7977
  364MPD2     N 5508   1.312   0.264  10.606 -0.5208 -0.6057 -0.0314
  364MPD2    H5 5509   1.286   0.208  10.686 -1.8174  0.1933  0.1057
  364MPD2    N1 5510   1.170   0.687  10.402  0.4193 -0.7882  0.0037
  364MPD2    H7 5511   1.108   0.764  10.421  1.4657 -0.6067  2.6910
  365TMC3    C1 5512   1.306   0.837  10.268  0.0907  0.1784 -0.5538
  365TMC3    C2 5513   1.382   0.843  10.156  0.3369  0.0365  0.1836
  365TMC3    C3 5514   1.475   0.938  10.149 -0.4305 -0.8263  0.0285
  365TMC3    C4 5515   1.312   0.927  10.377 -1.0524  0.1300 -0.0907
  365TMC3    C5 5516   1.413   1.016  10.355  0.7470  0.4171 -0.4863
  365TMC3    C6 5517   1.489   1.026  10.246  0.3368  0.3004  0.4414
  365TMC3     C 5518   1.260   0.701  10.299 -0.2488  1.0483  0.3775
  365TMC3     O 5519   1.311   0.609  10.231 -0.6307 -0.2592  0.5094
  365TMC3     H 5520   1.362   0.780  10.071 -2.3682 -1.0952  1.6225
  365TMC3    H1 5521   1.244   0.929  10.462 -0.2081  0.0148  0.5862
  365TMC3    H2 5522   1.570   1.097  10.248 -0.0021  0.7303 -0.7924
  365TMC3    C7 5523   1.410   1.133  10.442  0.3409  0.0460  0.4064
  365TMC3    C8 5524   1.586   0.941  10.051 -0.5507  0.5250  0.5429
  365TMC3    O1 5525   1.478   1.227  10.403 -0.4632 -0.5734  0.3616
  365TMC3    O2 5526   1.694   0.989  10.085  0.2890  0.4332  0.1220
  366MPD2     C 5527   4.426   2.611  15.001 -0.0732 -0.1580 -0.8864
  366MPD2    C1 5528   4.557   2.614  15.037 -0.4971 -0.2639 -0.2602
  366MPD2    C2 5529   4.627   2.500  15.073  0.3520 -0.0456 -0.1419
  366MPD2    C3 5530   4.560   2.376  15.065 -0.0292 -0.6125  0.0239
  366MPD2    C4 5531   4.423   2.368  15.036 -0.3151  0.1958  0.6508
  366MPD2    C5 5532   4.363   2.485  14.995  0.4591 -0.5587 -0.0156
  366MPD2     H 5533   4.733   2.512  15.093  1.1082 -3.7399 -1.8175
  366MPD2    H1 5534   4.373   2.274  15.017 -1.5806  1.3571 -1.7477
  366MPD2    H2 5535   4.368   2.699  14.977 -0.8291 -0.1119  1.1398
  366MPD2    H3 5536   4.259   2.476  14.965  0.6881 -1.6135 -0.4819
  366MPD2     N 5537   4.639   2.258  15.092 -0.2694  0.2135  0.0006
  366MPD2    H5 5538   4.733   2.279  15.126  0.4826 -0.3350 -1.7063
  366MPD2    N1 5539   4.628   2.737  15.055 -0.2183  0.2390 -0.2228
  366MPD2    H7 5540   4.728   2.725  15.068 -0.3682  1.4746  2.1575
  367TMC3    C1 5541   4.696   2.965  15.076 -0.3034  0.8791 -0.4987
  367TMC3    C2 5542   0.043   2.920  15.168 -0.1952 -0.3094 -0.3024
  367TMC3    C3 5543   0.087   3.005  15.259  0.1967 -0.1242  0.3008
  367TMC3    C4 5544   4.662   3.097  15.075 -0.5608 -0.6172 -0.1856
  367TMC3    C5 5545   4.710   3.179  15.173  0.1210 -0.1180  0.1238
  367TMC3    C6 5546   0.050   3.130  15.266  0.2731 -0.2759 -0.3308
  367TMC3     C 5547   4.587   2.866  15.034 -0.8156 -0.2267  0.5524
  367TMC3     O 5548   4.477   2.910  14.997 -0.0163  0.2581  0.9344
  367TMC3     H 5549   0.062   2.815  15.184  1.7991  0.1096  0.0701
  367TMC3    H1 5550   4.580   3.121  15.008  0.2551  2.1306 -0.1743
  367TMC3    H2 5551   0.078   3.199  15.345  1.1744  0.8059 -1.5837
  367TMC3    C7 5552   4.596   3.247  15.235 -0.9757 -0.4203  0.6093
  367TMC3    C8 5553   0.191   2.960  15.354  0.8371 -0.3712 -0.8453
  367TMC3    O1 5554   4.568   3.221  15.351  0.3346 -0.0427  0.0044
  367TMC3    O2 5555   0.226   2.839  15.350 -0.2627  0.0383 -0.6020
  368MPD2     C 5556   0.487   3.678  12.619  0.1298 -0.7991  0.5218
  368MPD2    C1 5557   0.523   3.789  12.683 -0.4098 -0.1475  1.2175
  368MPD2    C2 5558   0.654   3.799  12.726 -0.1508  0.6679  0.1035
  368MPD2    C3 5559   0.753   3.704  12.691  0.6244 -0.3687  0.1315
  368MPD2    C4 5560   0.714   3.606  12.604 -0.6371 -0.4293  0.0694
  368MPD2    C5 5561   0.582   3.592  12.567 -0.1195 -0.0942 -0.0869
  368MPD2     H 5562   0.689   3.886  12.780 -0.6940  0.2034  1.2086
  368MPD2    H1 5563   0.789   3.536  12.569 -0.9896  0.7066 -2.9218
  368MPD2    H2 5564   0.385   3.656  12.588  1.0367 -2.9415 -0.9386
  368MPD2    H3 5565   0.546   3.513  12.503 -0.9814 -0.6556  1.0947
  368MPD2     N 5566   0.886   3.729  12.695 -0.0097 -0.3336 -0.1550
  368MPD2    H5 5567   0.932   3.653  12.646 -2.0216 -1.8743  0.3222
  368MPD2    N1 5568   0.437   3.897  12.703  0.3360 -0.0135  0.2975
  368MPD2    H7 5569   0.471   3.972  12.763  1.4115 -0.7432  0.6094
  369TMC3    C1 5570   0.262   4.049  12.675  0.3369  0.6205 -1.0646
  369TMC3    C2 5571   0.354   4.154  12.691  0.4288 -0.0866 -0.3402
  369TMC3    C3 5572   0.310   4.276  12.740 -0.1788 -0.6919  0.9271
  369TMC3    C4 5573   0.125   4.068  12.687 -0.7716 -0.1494  0.2935
  369TMC3    C5 5574   0.087   4.194  12.730  0.5061  0.3744  0.0978
  369TMC3    C6 5575   0.177   4.297  12.753 -0.4956 -0.3348  0.3290
  369TMC3     C 5576   0.306   3.908  12.664 -0.3523  1.0393 -0.4261
  369TMC3     O 5577   0.238   3.822  12.616 -0.2047  0.5231  0.5442
  369TMC3     H 5578   0.461   4.134  12.686  0.5401  0.8339 -1.6248
  369TMC3    H1 5579   0.063   3.979  12.686  0.7940 -1.2269  0.0625
  369TMC3    H2 5580   0.157   4.389  12.806 -1.6332 -0.3080 -0.1334
  369TMC3    C7 5581   4.728   4.196  12.829 -0.2284 -0.0641  0.0824
  369TMC3    C8 5582   0.408   4.371  12.770  0.1979 -0.2601  0.0056
  369TMC3    O1 5583   4.741   4.267  12.929 -0.3121  0.1002 -0.2827
  369TMC3    O2 5584   0.371   4.486  12.751 -0.0561  0.0654 -0.3831
  370TMC3    C1 5585   0.976   0.062  16.301  0.4438  0.4899 -0.1526
  370TMC3    C2 5586   0.920   4.723  16.390  0.1465  0.0869  0.3192
  370TMC3    C3 5587   0.866   4.608  16.338  0.2402  0.7060 -0.0523
  370TMC3    C4 5588   0.989   0.038  16.167 -1.1838  0.1232 -0.1350
  370TMC3    C5 5589   0.922   4.672  16.117 -0.3015 -0.2415  0.0642
  370TMC3    C6 5590   0.872   4.582  16.204 -0.5711 -0.0771 -0.3072
  370TMC3     C 5591   1.063   0.166  16.357  0.0330 -0.5463 -0.8122
  370TMC3     O 5592   1.096   0.155  16.477 -0.4810 -0.2779 -0.2650
  370TMC3     H 5593   0.907   0.011  16.493 -1.9527  0.1063  0.0619
  370TMC3    H1 5594   1.056   0.098  16.106 -0.0636 -2.7430 -1.6837
  370TMC3    H2 5595   0.834   4.488  16.166 -1.7762  0.1076  0.4625
  370TMC3    C7 5596   0.982   4.614  16.001 -0.3512 -0.1313  0.1010
  370TMC3    C8 5597   0.809   4.504  16.420  0.0878  0.3057 -0.0521
  370TMC3    O1 5598   1.012   4.698  15.912 -0.5904  0.1690 -0.3507
  370TMC3    O2 5599   0.809   4.391  16.379 -0.2432  0.4006  0.1674
  371TMC3    C1 5600   2.039   3.193  15.271 -0.2799  0.4943  0.6595
  371TMC3    C2 5601   1.905   3.175  15.285 -0.2262 -0.2026  0.1845
  371TMC3    C3 5602   1.822   3.274  15.262  0.0894 -0.9631  0.1854
  371TMC3    C4 5603   2.088   3.308  15.236  0.4114  0.2658 -0.3684
  371TMC3    C5 5604   1.998   3.412  15.220 -0.2998 -0.4502  0.3155
  371TMC3    C6 5605   1.861   3.405  15.236  1.1452 -0.1093  0.0055
  371TMC3     C 5606   2.122   3.112  15.352 -0.4360 -0.3733 -0.1247
  371TMC3     O 5607   2.211   3.176  15.397 -0.4143  0.2259 -0.1226
  371TMC3     H 5608   1.863   3.088  15.335 -2.6799  1.0729  0.3387
  371TMC3    H1 5609   2.193   3.304  15.210  0.3280 -0.2541 -0.6158
  371TMC3    H2 5610   1.794   3.488  15.218 -0.3102 -0.9519  1.5691
  371TMC3    C7 5611   2.041   3.546  15.189  0.2247 -0.3848 -0.4900
  371TMC3    C8 5612   1.683   3.251  15.298  0.0191  0.3120  0.2115
  371TMC3    O1 5613   1.963   3.636  15.148 -0.1904 -0.1275 -0.3067
  371TMC3    O2 5614   1.639   3.139  15.274  0.3501 -0.6097 -0.1985
  372MPD2     C 5615   1.289   4.170  13.006 -0.5211  0.0598 -0.1785
  372MPD2    C1 5616   1.403   4.086  13.012 -1.1270  0.4280  0.2054
  372MPD2    C2 5617   1.376   3.968  13.083 -0.4054  0.3644 -0.5350
  372MPD2    C3 5618   1.259   3.933  13.147  0.0347  0.3265  0.6602
  372MPD2    C4 5619   1.155   4.016  13.136 -0.5189  0.8685 -0.0906
  372MPD2    C5 5620   1.168   4.131  13.061  0.3077  0.0204 -0.0093
  372MPD2     H 5621   1.467   3.908  13.075 -0.3421  0.1740  1.8841
  372MPD2    H1 5622   1.063   3.995  13.188  0.2274  0.3651  1.0180
  372MPD2    H2 5623   1.281   4.257  12.942 -1.8964 -0.5935 -0.8947
  372MPD2    H3 5624   1.093   4.209  13.059  1.7296  1.4164  0.9508
  372MPD2     N 5625   1.248   3.810  13.212 -0.1379 -0.1401 -0.2798
  372MPD2    H5 5626   1.333   3.757  13.230  0.6389  1.4758  0.8113
  372MPD2    N1 5627   1.528   4.106  12.956 -0.2259 -0.1373  0.7170
  372MPD2    H7 5628   1.603   4.039  12.966 -0.1609 -0.1248  0.2985
  373TMC3    C1 5629   1.163   3.627  13.347 -0.5870 -0.1568 -0.3749
  373TMC3    C2 5630   1.062   3.588  13.427  0.3377  0.4815  0.7767
  373TMC3    C3 5631   1.079   3.486  13.516 -0.5384 -0.3202  0.0263
  373TMC3    C4 5632   1.278   3.552  13.338  0.0901 -0.7407 -0.1642
  373TMC3    C5 5633   1.287   3.443  13.411  0.9977 -0.6125 -0.4546
  373TMC3    C6 5634   1.192   3.408  13.509  0.5813 -0.0230  0.1285
  373TMC3     C 5635   1.131   3.747  13.264 -0.1738 -0.2701 -0.2202
  373TMC3     O 5636   1.019   3.796  13.253 -0.2253  0.5827  0.0575
  373TMC3     H 5637   0.979   3.658  13.438 -0.0375 -0.2901  2.8850
  373TMC3    H1 5638   1.331   3.549  13.244  0.1253 -1.6829 -0.1194
  373TMC3    H2 5639   1.208   3.321  13.572 -1.3718 -1.4364 -1.3319
  373TMC3    C7 5640   1.402   3.356  13.406  0.4975  1.1985 -0.0507
  373TMC3    C8 5641   1.028   3.513  13.651  0.2182  0.0273  0.4252
  373TMC3    O1 5642   1.510   3.403  13.379  0.1300 -0.1212  0.1676
  373TMC3    O2 5643   0.938   3.592  13.654  0.5299 -0.1224 -0.0476
  374TMC3    C1 5644   1.302   4.259   9.994 -0.1067  0.1581  0.0451
  374TMC3    C2 5645   1.428   4.328   9.992  0.0227 -0.0092 -0.0439
  374TMC3    C3 5646   1.473   4.365   9.874  0.4500  0.7044  0.4579
  374TMC3    C4 5647   1.231   4.231   9.881 -0.3160 -0.6065  0.8042
  374TMC3    C5 5648   1.284   4.274   9.765  0.4881  0.0866 -0.7336
  374TMC3    C6 5649   1.400   4.354   9.756 -0.5979  0.8700 -0.4147
  374TMC3     C 5650   1.248   4.239  10.124 -0.0164  0.5791 -0.4557
  374TMC3     O 5651   1.330   4.213  10.210 -0.2280  0.0049 -0.2283
  374TMC3     H 5652   1.477   4.358  10.084 -1.3502  1.1797  0.3082
  374TMC3    H1 5653   1.147   4.162   9.886  0.0258 -1.0585  0.3815
  374TMC3    H2 5654   1.447   4.390   9.665 -2.0738 -1.6745 -2.1835
  374TMC3    C7 5655   1.215   4.218   9.651  0.0944 -0.0419 -0.3764
  374TMC3    C8 5656   1.604   4.436   9.866  0.4011  0.3834 -0.0356
  374TMC3    O1 5657   1.127   4.133   9.668 -0.1450  0.9825 -0.2458
  374TMC3    O2 5658   1.622   4.494   9.760 -0.1542 -0.5811  0.4166
  375MPD2     C 5659   2.450   0.377  16.988 -0.0879 -0.2377 -0.9304
  375MPD2    C1 5660   2.338   0.342  16.917  0.1876 -0.0200  0.5384
  375MPD2    C2 5661   2.352   0.251  16.812 -0.2558 -0.2931 -0.3875
  375MPD2    C3 5662   2.482   0.193  16.786  0.1574 -0.1814  0.3570
  375MPD2    C4 5663   2.589   0.223  16.866  0.6437  0.3790 -0.7133
  375MPD2    C5 5664   2.574   0.320  16.964  0.6630  0.1448 -0.3587
  375MPD2     H 5665   2.267   0.229  16.748  0.4579  0.7566 -1.6905
  375MPD2    H1 5666   2.682   0.169  16.851 -0.1791 -1.6488  1.5084
  375MPD2    H2 5667   2.448   0.451  17.068  1.2777  0.2080 -1.3146
  375MPD2    H3 5668   2.657   0.353  17.026  0.3823  0.5467 -0.1955
  375MPD2     N 5669   2.508   0.101  16.683  0.7439  0.0099 -0.1249
  375MPD2    H5 5670   2.595   0.049  16.688 -0.5552 -2.0180  1.5113
  375MPD2    N1 5671   2.213   0.403  16.946  0.1978  0.3728 -0.1025
  375MPD2    H7 5672   2.143   0.402  16.873 -1.3851 -1.1175  1.4465
  376TMC3    C1 5673   2.487   4.737  16.474  0.2334  0.0671  0.0080
  376TMC3    C2 5674   2.612   4.681  16.498 -0.3011  0.6921 -0.0941
  376TMC3    C3 5675   2.657   4.592  16.401 -0.0466  0.7929  0.3080
  376TMC3    C4 5676   2.405   4.709  16.366 -0.6800  0.1532  0.0845
  376TMC3    C5 5677   2.460   4.619  16.274 -0.5637  0.2385  0.1037
  376TMC3    C6 5678   2.584   4.561  16.289  0.9976 -0.9857  0.1702
  376TMC3     C 5679   2.428   0.085  16.574 -0.4075 -0.5826  0.9568
  376TMC3     O 5680   2.322   0.140  16.549  0.1294 -0.4855 -0.4828
  376TMC3     H 5681   2.678   4.719  16.575  0.7426 -1.4216  0.0805
  376TMC3    H1 5682   2.320   0.031  16.345  0.7575  2.5015  1.5308
  376TMC3    H2 5683   2.628   4.485  16.225  0.9542  0.8417 -2.0038
  376TMC3    C7 5684   2.417   4.646  16.139 -0.5260 -0.0540 -0.4120
  376TMC3    C8 5685   2.795   4.576  16.393 -0.1464 -0.0755 -0.8784
  376TMC3    O1 5686   2.307   4.707  16.122 -0.0437  0.5955 -0.3270
  376TMC3    O2 5687   2.851   4.574  16.282  0.2220 -0.0415 -0.4566
  377MPD2     C 5688   0.024   4.595  12.727 -0.6653 -0.3463 -0.4682
  377MPD2    C1 5689   4.736   4.547  12.601 -0.0194  0.0466 -0.2487
  377MPD2    C2 5690   4.608   4.508  12.573  0.1872 -0.2336 -0.5594
  377MPD2    C3 5691   4.512   4.522  12.671 -0.3621 -0.2760 -0.2605
  377MPD2    C4 5692   4.545   4.573  12.797  0.7516 -0.3542 -0.1875
  377MPD2    C5 5693   4.675   4.603  12.824  0.4181  0.7730 -0.5061
  377MPD2     H 5694   4.596   4.470  12.473 -2.7607  2.1253 -1.1053
  377MPD2    H1 5695   4.466   4.588  12.870  1.0350 -0.0790  0.0621
  377MPD2    H2 5696   0.126   4.613  12.757 -0.9207 -0.5244  0.4906
  377MPD2    H3 5697   4.712   4.644  12.918 -1.8750  0.4545  0.5400
  377MPD2     N 5698   4.380   4.481  12.656  0.3586  0.1420  0.2203
  377MPD2    H5 5699   4.320   4.494  12.737 -0.2039 -0.3428 -0.1152
  377MPD2    N1 5700   0.096   4.545  12.501 -0.1975  0.1838 -0.1949
  377MPD2    H7 5701   0.187   4.573  12.533  1.3810 -3.1061 -1.7897
  378TMC3    C1 5702   0.350   4.586  12.119  0.0103  0.5794  0.6205
  378TMC3    C2 5703   0.228   4.590  12.178  0.3100 -0.3760 -0.0388
  378TMC3    C3 5704   0.214   4.536  12.303  0.4273  0.1697 -0.2105
  378TMC3    C4 5705   0.461   4.537  12.175 -0.3865 -0.1983 -0.4999
  378TMC3    C5 5706   0.449   4.479  12.298 -0.3378 -0.4232  0.1774
  378TMC3    C6 5707   0.321   4.485  12.362  0.4759  0.2648 -0.5153
  378TMC3     C 5708   0.355   4.659  11.994  0.7404  0.3627  0.3393
  378TMC3     O 5709   0.260   4.727  11.958  0.6334  0.3596  0.4145
  378TMC3     H 5710   0.139   4.622  12.125  0.9178 -0.2172 -0.9713
  378TMC3    H1 5711   0.555   4.553  12.125 -0.3664 -1.9749 -1.0388
  378TMC3    H2 5712   0.306   4.434  12.457  0.2292  0.5325 -0.4097
  378TMC3    C7 5713   0.524   4.361  12.338  0.2665  0.1568  0.2624
  378TMC3    C8 5714   0.084   4.522  12.365  0.0683 -0.1955 -0.6471
  378TMC3    O1 5715   0.474   4.294  12.433  0.0262 -0.1523  0.2009
  378TMC3    O2 5716   4.730   4.508  12.290  0.1283 -0.3482  1.0390
  379MPD2     C 5717   0.562   2.628  16.358  0.2546 -0.2510 -0.2705
  379MPD2    C1 5718   0.654   2.548  16.297  0.6280 -0.3444 -0.3778
  379MPD2    C2 5719   0.744   2.476  16.375  0.6368 -0.5073  0.5416
  379MPD2    C3 5720   0.737   2.478  16.513  0.6491 -0.5039  1.4327
  379MPD2    C4 5721   0.638   2.548  16.574  0.4262 -0.8840 -0.3113
  379MPD2    C5 5722   0.557   2.623  16.493  0.2956 -0.4608  0.0509
  379MPD2     H 5723   0.826   2.419  16.334  0.7280 -1.3736  1.9027
  379MPD2    H1 5724   0.645   2.550  16.683 -2.7923 -1.4505 -0.0848
  379MPD2    H2 5725   0.502   2.703  16.308  0.1447  0.4541  0.9030
  379MPD2    H3 5726   0.477   2.684  16.533 -1.1924 -1.2306 -1.8008
  379MPD2     N 5727   0.832   2.414  16.591 -0.0212 -0.1884  0.0425
  379MPD2    H5 5728   0.807   2.407  16.689 -0.0072  1.4323  0.1741
  379MPD2    N1 5729   0.655   2.544  16.156 -0.0518 -0.1336 -0.4517
  379MPD2    H7 5730   0.621   2.621  16.099 -0.8684 -0.4656 -0.4161
  380TMC3    C1 5731   0.713   2.462  15.941  0.7657  0.5162 -0.2833
  380TMC3    C2 5732   0.793   2.383  15.860 -1.1986 -0.0383  0.9181
  380TMC3    C3 5733   0.785   2.406  15.729 -0.3321  1.1479  0.7512
  380TMC3    C4 5734   0.632   2.564  15.886 -0.1683  0.0835  0.1322
  380TMC3    C5 5735   0.636   2.585  15.749 -0.1118 -0.2754  0.1677
  380TMC3    C6 5736   0.713   2.507  15.673 -0.5520 -0.2637 -0.1640
  380TMC3     C 5737   0.729   2.451  16.082  0.1756  0.0720  0.0081
  380TMC3     O 5738   0.799   2.360  16.119 -0.4622 -0.3951 -0.1226
  380TMC3     H 5739   0.845   2.293  15.891  1.4904  1.1484 -0.1153
  380TMC3    H1 5740   0.561   2.617  15.949 -0.8611 -0.7281  0.0256
  380TMC3    H2 5741   0.688   2.514  15.568  1.0886  0.4444 -0.5100
  380TMC3    C7 5742   0.542   2.677  15.684  0.2960 -0.8242 -0.1371
  380TMC3    C8 5743   0.867   2.331  15.642  0.0094  0.4606  0.2711
  380TMC3    O1 5744   0.522   2.657  15.562  0.6645 -0.3149  0.0632
  380TMC3    O2 5745   0.913   2.229  15.692  0.8842 -0.8277 -0.3492
  381TMC3    C1 5746   0.794   3.811  16.143  0.4384 -0.4437 -0.2659
  381TMC3    C2 5747   0.882   3.911  16.126 -0.1617 -0.0303  0.4588
  381TMC3    C3 5748   0.899   3.992  16.230 -0.2897 -0.6312  0.2292
  381TMC3    C4 5749   0.706   3.805  16.251  0.1535 -0.0485 -0.4187
  381TMC3    C5 5750   0.719   3.903  16.342  0.3432  0.3836 -0.7409
  381TMC3    C6 5751   0.818   4.001  16.342 -0.2089  0.3211 -0.0083
  381TMC3     C 5752   0.784   3.712  16.039  0.1835 -0.3943 -0.0362
  381TMC3     O 5753   0.827   3.754  15.932  0.2918  0.2189  0.4680
  381TMC3     H 5754   0.939   3.915  16.034 -1.2394 -1.9326 -0.2699
  381TMC3    H1 5755   0.628   3.732  16.265  0.9073 -0.9453 -0.9185
  381TMC3    H2 5756   0.840   4.061  16.429 -1.8268  0.4423  0.3137
  381TMC3    C7 5757   0.692   3.849  16.474  0.4723  0.0955 -0.2527
  381TMC3    C8 5758   1.035   4.045  16.240 -0.1299 -1.0766 -0.0176
  381TMC3    O1 5759   0.734   3.734  16.495  0.1414 -0.0234  0.3802
  381TMC3    O2 5760   1.118   4.020  16.155  0.0509 -0.5103  0.3741
  382MPD2     C 5761   0.288   1.533  17.498 -0.0580 -0.0492  0.0909
  382MPD2    C1 5762   0.152   1.555  17.471  0.4243 -0.5877  0.5161
  382MPD2    C2 5763   0.069   1.442  17.451 -0.5636 -0.4433  0.4045
  382MPD2    C3 5764   0.130   1.313  17.453 -0.2589  0.3359  0.0307
  382MPD2    C4 5765   0.257   1.296  17.503  0.2234  0.5488 -0.3860
  382MPD2    C5 5766   0.336   1.407  17.530  0.2655  0.4801  0.2589
  382MPD2     H 5767   4.707   1.469  17.438 -0.5425  0.8661  2.9165
  382MPD2    H1 5768   0.301   1.200  17.526  0.5352  0.9738  0.7826
  382MPD2    H2 5769   0.359   1.614  17.511 -1.1256  0.7168  1.1723
  382MPD2    H3 5770   0.429   1.387  17.582 -0.2567 -1.5481  0.4228
  382MPD2     N 5771   0.059   1.192  17.444 -0.1613  0.6655 -0.9687
  382MPD2    H5 5772   0.107   1.103  17.432 -0.7000  0.2870 -0.3450
  382MPD2    N1 5773   0.094   1.685  17.480  0.3064  0.9562  0.1802
  382MPD2    H7 5774   4.736   1.685  17.471  0.3074 -0.3652  0.2307
  383TMC3    C1 5775   4.632   1.030  17.443 -0.0392 -0.9337  0.7686
  383TMC3    C2 5776   4.517   0.991  17.390 -0.3008 -0.1754  0.3369
  383TMC3    C3 5777   4.475   0.858  17.388  0.0695  0.0568  0.1007
  383TMC3    C4 5778   4.716   0.937  17.498  0.0623 -0.0786 -1.0176
  383TMC3    C5 5779   4.681   0.809  17.484 -0.2879  0.2371  0.4248
  383TMC3    C6 5780   4.556   0.766  17.442  0.5686 -0.1254 -0.0254
  383TMC3     C 5781   4.665   1.177  17.442 -0.2740  0.0279 -0.0171
  383TMC3     O 5782   4.579   1.267  17.432  0.1022  0.0039 -0.0126
  383TMC3     H 5783   4.457   1.076  17.361 -2.6679 -1.2006  2.2379
  383TMC3    H1 5784   0.075   0.957  17.530  0.2077 -1.2409 -0.7423
  383TMC3    H2 5785   4.534   0.662  17.420 -2.0804  0.7115 -1.3405
  383TMC3    C7 5786   0.029   0.709  17.539 -0.1448  0.4581  0.1240
  383TMC3    C8 5787   4.343   0.827  17.335 -0.5800 -0.2886  0.0059
  383TMC3    O1 5788   4.720   0.605  17.577  0.3427 -0.3297 -0.5223
  383TMC3    O2 5789   4.284   0.918  17.277  0.0141 -0.0076 -0.1288
  384MPD2     C 5790   0.331   1.865  12.455 -0.2094  0.3732  0.2272
  384MPD2    C1 5791   0.440   1.922  12.400 -0.0412 -0.2647 -0.6972
  384MPD2    C2 5792   0.544   1.848  12.375 -0.3847  0.5127 -0.4463
  384MPD2    C3 5793   0.543   1.707  12.386 -0.6943 -0.1663 -0.2257
  384MPD2    C4 5794   0.427   1.651  12.432 -0.3963 -0.4473 -0.3662
  384MPD2    C5 5795   0.323   1.727  12.470 -0.9075 -0.1904  0.8992
  384MPD2     H 5796   0.640   1.897  12.378  2.6443 -5.3944  1.0554
  384MPD2    H1 5797   0.437   1.546  12.459  0.6929 -0.1441  0.4095
  384MPD2    H2 5798   0.241   1.919  12.483 -1.0982 -2.2982  2.5459
  384MPD2    H3 5799   0.231   1.678  12.501 -0.2915 -1.4214  0.7927
  384MPD2     N 5800   0.662   1.635  12.376 -0.2024  0.5063  0.3239
  384MPD2    H5 5801   0.677   1.543  12.415  0.4565  0.5957  0.2790
  384MPD2    N1 5802   0.447   2.063  12.408  0.2459 -0.5669 -0.3087
  384MPD2    H7 5803   0.370   2.116  12.449 -0.2758 -1.5969  0.0284
  385TMC3    C1 5804   0.893   1.617  12.327 -0.6594  0.1018 -0.2510
  385TMC3    C2 5805   0.987   1.629  12.226 -0.2660  0.8960  0.5156
  385TMC3    C3 5806   1.120   1.640  12.255 -1.1902 -0.0932  0.7374
  385TMC3    C4 5807   0.930   1.637  12.457 -0.3213 -0.5117 -0.1223
  385TMC3    C5 5808   1.064   1.665  12.481  0.4044  0.0891  0.7257
  385TMC3    C6 5809   1.157   1.668  12.387  0.3534  0.4652 -0.4742
  385TMC3     C 5810   0.770   1.681  12.296  0.0471 -0.3122  0.2018
  385TMC3     O 5811   0.769   1.759  12.205 -0.1320 -0.1427  0.2096
  385TMC3     H 5812   0.941   1.625  12.128 -2.0636 -0.0130  1.3850
  385TMC3    H1 5813   0.858   1.658  12.535 -0.0542 -1.2123  0.3131
  385TMC3    H2 5814   1.263   1.671  12.412  0.4230  1.6156 -0.9404
  385TMC3    C7 5815   1.083   1.750  12.599 -0.3043  0.2680 -0.1453
  385TMC3    C8 5816   1.207   1.676  12.140  0.3424 -0.9693  0.1080
  385TMC3    O1 5817   1.160   1.842  12.591  0.0606 -0.8305  0.5613
  385TMC3    O2 5818   1.312   1.736  12.156 -0.3817  0.3567 -0.2504
  386TMC3    C1 5819   1.533   4.334  11.354  0.6523  0.2155  0.0382
  386TMC3    C2 5820   1.479   4.413  11.247 -0.2904 -0.1826 -0.2848
  386TMC3    C3 5821   1.373   4.491  11.281  0.0826 -0.7946 -0.5464
  386TMC3    C4 5822   1.481   4.344  11.481 -0.0673 -0.3875  0.8413
  386TMC3    C5 5823   1.376   4.423  11.502 -0.0602  0.5706 -0.0979
  386TMC3    C6 5824   1.317   4.497  11.406  0.6109  0.4857  0.1580
  386TMC3     C 5825   1.637   4.241  11.326 -0.5172 -0.0542 -0.5315
  386TMC3     O 5826   1.702   4.252  11.227  0.0691 -0.0306 -0.0638
  386TMC3     H 5827   1.529   4.402  11.151 -2.5020  2.3994 -1.7222
  386TMC3    H1 5828   1.498   4.273  11.561  1.9606 -0.7816  0.0575
  386TMC3    H2 5829   1.249   4.573  11.441 -0.8357 -1.3541  1.3624
  386TMC3    C7 5830   1.313   4.418  11.630 -0.8593 -0.4115  0.1304
  386TMC3    C8 5831   1.305   4.576  11.186  0.3976  0.1829 -1.1409
  386TMC3    O1 5832   1.195   4.437  11.628 -0.3596 -0.1391 -0.8195
  386TMC3    O2 5833   1.232   4.665  11.235  0.0373  0.6721 -0.3239
  387MPD2     C 5834   3.550   0.220   9.572  0.7458  0.6283  1.1454
  387MPD2    C1 5835   3.680   0.179   9.591  0.3398  0.5977  0.0593
  387MPD2    C2 5836   3.728   0.054   9.549  0.0667 -0.7518 -0.1770
  387MPD2    C3 5837   3.644   4.706   9.485  0.5711 -0.3248 -0.0659
  387MPD2    C4 5838   3.512   0.004   9.460  0.2709 -0.1415  0.3735
  387MPD2    C5 5839   3.474   0.129   9.508  0.3909  0.2120  0.0719
  387MPD2     H 5840   3.825   0.019   9.582  0.6624  0.2794 -0.8523
  387MPD2    H1 5841   3.428   4.689   9.425  0.5620  1.6000 -3.2516
  387MPD2    H2 5842   3.508   0.314   9.607 -1.7645 -0.4746  1.0833
  387MPD2    H3 5843   3.372   0.151   9.480 -0.4317 -3.0684  0.4148
  387MPD2     N 5844   3.698   4.580   9.468  0.6014 -0.3849  0.6502
  387MPD2    H5 5845   3.799   4.586   9.473  0.7849 -0.6841 -2.3986
  387MPD2    N1 5846   3.765   0.243   9.673 -0.1815  0.4660 -0.0657
  387MPD2    H7 5847   3.859   0.206   9.673  0.0824  1.1533  0.6849
  388TMC3    C1 5848   3.842   0.383   9.839 -0.1817 -0.3374  0.3822
  388TMC3    C2 5849   3.872   0.511   9.873  0.3193 -0.1822  0.1141
  388TMC3    C3 5850   3.996   0.539   9.927  0.3759  0.0723 -0.1967
  388TMC3    C4 5851   3.926   0.281   9.865 -0.4267  0.1874 -0.1662
  388TMC3    C5 5852   4.047   0.316   9.903  0.5546 -0.1347 -0.2669
  388TMC3    C6 5853   4.091   0.445   9.930  0.6873 -0.0636  0.5791
  388TMC3     C 5854   3.740   0.362   9.737 -0.7125  0.1808  0.3583
  388TMC3     O 5855   3.644   0.434   9.738 -0.4944  0.5555  0.0077
  388TMC3     H 5856   3.804   0.590   9.841  0.4673  0.0057  0.2606
  388TMC3    H1 5857   3.902   0.177   9.843  1.2371  0.0532 -1.3327
  388TMC3    H2 5858   4.193   0.465   9.961  0.5466 -0.0763  1.0558
  388TMC3    C7 5859   4.163   0.232   9.868  0.1767  0.9465  0.2295
  388TMC3    C8 5860   4.041   0.668   9.977  0.0998  0.9124  0.5810
  388TMC3    O1 5861   4.265   0.282   9.822  0.0345  0.5581 -0.0358
  388TMC3    O2 5862   4.161   0.687   9.997  0.1460  0.7811 -0.2038
  389MPD2     C 5863   2.163   3.279  10.621 -0.0796  0.5298  0.5981
  389MPD2    C1 5864   2.285   3.212  10.630 -0.7319  0.0171  0.2123
  389MPD2    C2 5865   2.307   3.124  10.732 -0.2566 -0.4170 -0.1964
  389MPD2    C3 5866   2.207   3.099  10.819 -0.8898 -0.3950 -0.6129
  389MPD2    C4 5867   2.093   3.172  10.823  0.3261 -0.1157 -1.0225
  389MPD2    C5 5868   2.071   3.268  10.726 -0.0223  0.6566 -0.6371
  389MPD2     H 5869   2.397   3.064  10.731  1.1446  1.6878 -0.6677
  389MPD2    H1 5870   2.024   3.152  10.905 -1.0160  1.3015 -1.8101
  389MPD2    H2 5871   2.132   3.355  10.550  0.0042  1.0097  1.0685
  389MPD2    H3 5872   1.979   3.324  10.716  0.3093  1.3963  0.4213
  389MPD2     N 5873   2.212   2.997  10.917  0.0451  0.0446 -0.5375
  389MPD2    H5 5874   2.131   2.996  10.977  1.0506 -1.2369  0.7746
  389MPD2    N1 5875   2.370   3.205  10.518 -0.5583  0.3725  0.3960
  389MPD2    H7 5876   2.457   3.159  10.546 -0.6168  1.4893  2.4642
  390TMC3    C1 5877   2.301   2.802  11.027 -0.0056 -0.2238  0.5099
  390TMC3    C2 5878   2.321   2.672  10.992 -0.3414 -0.2637  0.8978
  390TMC3    C3 5879   2.321   2.584  11.091  0.3932  0.5192 -0.4271
  390TMC3    C4 5880   2.255   2.847  11.148 -0.1150 -0.0579 -0.3127
  390TMC3    C5 5881   2.246   2.751  11.244 -0.3284  0.0664 -0.2866
  390TMC3    C6 5882   2.284   2.624  11.221 -0.1687  0.7240 -0.1870
  390TMC3     C 5883   2.315   2.902  10.924  0.5324  0.4298 -0.0030
  390TMC3     O 5884   2.391   2.865  10.832  0.3530 -0.3220 -0.5985
  390TMC3     H 5885   2.348   2.633  10.894 -1.4111  0.3013  0.3772
  390TMC3    H1 5886   2.224   2.947  11.178  1.4764  0.5266 -0.6271
  390TMC3    H2 5887   2.292   2.559  11.308  0.5356  3.2515  1.6548
  390TMC3    C7 5888   2.185   2.790  11.369 -0.5505 -1.3609 -0.4158
  390TMC3    C8 5889   2.337   2.442  11.059  0.4469 -0.1789 -1.0663
  390TMC3    O1 5890   2.188   2.909  11.402 -0.1110  0.0470  0.6349
  390TMC3    O2 5891   2.349   2.408  10.942  0.9170 -0.1357 -0.4750
  391MPD2     C 5892   2.391   4.100  11.144  0.0841  0.5484  0.4152
  391MPD2    C1 5893   2.482   4.191  11.091 -0.2208 -0.7188  0.0916
  391MPD2    C2 5894   2.444   4.286  10.993 -0.7812  0.9270  0.2710
  391MPD2    C3 5895   2.316   4.269  10.948  0.5070 -0.0957  0.6554
  391MPD2    C4 5896   2.225   4.172  10.990 -0.2869  1.2199  0.4790
  391MPD2    C5 5897   2.264   4.084  11.092 -0.0193  0.4730 -0.0347
  391MPD2     H 5898   2.504   4.371  10.963  3.4393 -1.0518  3.1349
  391MPD2    H1 5899   2.123   4.172  10.953 -0.4701  1.8153  0.9772
  391MPD2    H2 5900   2.418   4.027  11.220 -1.0994  0.2049  0.5116
  391MPD2    H3 5901   2.196   4.012  11.136  0.8214 -2.2819 -3.1821
  391MPD2     N 5902   2.287   4.355  10.848 -0.1725 -0.2993  0.0158
  391MPD2    H5 5903   2.360   4.422  10.826 -1.6110  0.9084 -1.0617
  391MPD2    N1 5904   2.601   4.187  11.157 -0.3159  0.0249  0.2586
  391MPD2    H7 5905   2.627   4.111  11.219 -1.6597 -0.9777 -0.3921
  392TMC3    C1 5906   2.202   4.484  10.678  0.0237  0.1526 -0.2557
  392TMC3    C2 5907   2.101   4.508  10.591  0.2461 -0.5623  0.1793
  392TMC3    C3 5908   2.132   4.573  10.473  0.2358 -0.4730 -0.0393
  392TMC3    C4 5909   2.333   4.510  10.650 -0.6895 -0.1422 -0.1650
  392TMC3    C5 5910   2.360   4.589  10.535 -0.6830 -0.2001  0.4788
  392TMC3    C6 5911   2.261   4.621  10.448 -0.5081 -0.0508  0.5822
  392TMC3     C 5912   2.171   4.385  10.779  0.5387 -0.1534 -0.5272
  392TMC3     O 5913   2.055   4.344  10.794 -0.8720 -0.0256 -0.6665
  392TMC3     H 5914   1.996   4.491  10.615 -0.0251 -0.1168 -0.6826
  392TMC3    H1 5915   2.414   4.506  10.722  0.4483  0.3660 -1.4309
  392TMC3    H2 5916   2.286   4.680  10.361 -1.4608 -1.7933 -0.8882
  392TMC3    C7 5917   2.462   4.690  10.546  0.3093 -0.2430  0.2292
  392TMC3    C8 5918   2.035   4.546  10.362 -0.0711  0.5271 -0.1136
  392TMC3    O1 5919   2.522   4.691  10.655  0.0832  0.0720  0.3134
  392TMC3    O2 5920   1.918   4.517  10.386  0.0684  0.5229 -0.3424
  393TMC3    C1 5921   0.747   2.255  11.006  0.3945 -0.3905  0.2681
  393TMC3    C2 5922   0.705   2.256  11.136  0.2846 -0.6125 -0.6407
  393TMC3    C3 5923   0.729   2.156  11.218 -0.0526 -0.3988 -0.1641
  393TMC3    C4 5924   0.824   2.146  10.966  0.6998  0.6133 -0.4844
  393TMC3    C5 5925   0.844   2.045  11.054 -0.4712  0.8911  0.2096
  393TMC3    C6 5926   0.802   2.046  11.178  0.5649  0.7450 -0.2559
  393TMC3     C 5927   0.821   2.379  10.983  0.0016 -0.1139 -0.2511
  393TMC3     O 5928   0.938   2.357  10.969  0.1602  0.0939 -0.2927
  393TMC3     H 5929   0.648   2.343  11.168 -0.8982 -1.5020 -0.3673
  393TMC3    H1 5930   0.853   2.144  10.862 -0.6954  0.8319 -0.8707
  393TMC3    H2 5931   0.825   1.967  11.248 -0.4883  0.3843 -0.3183
  393TMC3    C7 5932   0.966   1.978  11.033  0.0257  0.0122 -0.6136
  393TMC3    C8 5933   0.636   2.157  11.334  0.3515  0.2061  0.1364
  393TMC3    O1 5934   0.980   1.863  11.076  0.5457  0.8466 -0.1468
  393TMC3    O2 5935   0.567   2.256  11.347  0.5235 -0.0434 -0.0139
  394TMC3    C1 5936   2.451   3.219  10.294 -0.0595 -0.8174  0.0645
  394TMC3    C2 5937   2.426   3.142  10.185  0.3052 -0.0497 -0.2797
  394TMC3    C3 5938   2.527   3.129  10.091 -0.5350 -0.0704 -0.4173
  394TMC3    C4 5939   2.578   3.259  10.330  0.3643 -0.0492  0.2939
  394TMC3    C5 5940   2.678   3.232  10.237 -0.2271  0.1908 -0.1958
  394TMC3    C6 5941   2.653   3.171  10.116  0.0002 -0.5018 -0.6206
  394TMC3     C 5942   2.343   3.250  10.385 -0.6027 -0.3692  0.1970
  394TMC3     O 5943   2.239   3.292  10.339  0.5835 -0.3922 -0.0378
  394TMC3     H 5944   2.325   3.113  10.161 -1.3080  4.8794  0.4895
  394TMC3    H1 5945   2.602   3.301  10.427 -0.4253  0.8643  0.0995
  394TMC3    H2 5946   2.726   3.167  10.037  1.0230 -1.0133  0.3426
  394TMC3    C7 5947   2.802   3.306  10.243  0.6856  0.0199  0.0935
  394TMC3    C8 5948   2.523   3.005  10.020  0.0953 -0.1573  0.5275
  394TMC3    O1 5949   2.859   3.331  10.139 -0.3484 -0.2431 -0.0363
  394TMC3    O2 5950   2.629   2.946  10.008 -0.3301  0.2285 -0.0021
  395TMC3    C1 5951   3.506   4.697  15.042 -0.2412  0.2097 -0.4729
  395TMC3    C2 5952   3.455   4.654  14.929  0.4895 -0.5567 -0.1930
  395TMC3    C3 5953   3.443   4.733  14.820  0.0097 -0.5252  0.2118
  395TMC3    C4 5954   3.544   0.087  15.054  0.2687  1.0784  0.2825
  395TMC3    C5 5955   3.535   0.167  14.939 -0.0145 -0.1080  0.0489
  395TMC3    C6 5956   3.479   0.127  14.820  0.0355 -0.0107 -0.2420
  395TMC3     C 5957   3.482   4.611  15.156 -0.1350  0.4090 -0.1134
  395TMC3     O 5958   3.487   4.487  15.143 -0.1333  0.5244 -0.5648
  395TMC3     H 5959   3.414   4.555  14.915 -1.2870  0.4337 -2.1536
  395TMC3    H1 5960   3.597   0.114  15.144  2.1761 -0.5191 -0.3506
  395TMC3    H2 5961   3.451   0.198  14.743  0.1923  0.4041  0.0857
  395TMC3    C7 5962   3.603   0.292  14.935 -0.2806  0.8433  0.4694
  395TMC3    C8 5963   3.357   4.682  14.716  0.8643  0.1486 -1.2298
  395TMC3    O1 5964   3.612   0.354  15.039  0.0642  0.8847 -0.1421
  395TMC3    O2 5965   3.259   4.610  14.743 -0.1933  0.3668 -0.2135
  396MPD2     C 5966   2.843   0.825  16.800  0.1422  0.1887  0.1314
  396MPD2    C1 5967   2.920   0.894  16.894 -0.5092 -0.5087 -0.4335
  396MPD2    C2 5968   2.967   1.016  16.861  0.2009 -0.4954 -0.2390
  396MPD2    C3 5969   2.932   1.069  16.736  0.0918 -0.2102  0.1017
  396MPD2    C4 5970   2.854   0.999  16.646  0.0849 -0.1328  0.3150
  396MPD2    C5 5971   2.805   0.878  16.686 -0.2231 -0.4570  0.1451
  396MPD2     H 5972   3.029   1.079  16.924  0.0716 -0.7613  0.1596
  396MPD2    H1 5973   2.820   1.031  16.549  0.2726 -1.6676 -0.2466
  396MPD2    H2 5974   2.805   0.727  16.827  0.4558  0.3441  1.1295
  396MPD2    H3 5975   2.752   0.828  16.606  0.2592  1.5774 -1.4419
  396MPD2     N 5976   2.985   1.198  16.699  0.3262  0.5686 -0.1737
  396MPD2    H5 5977   3.046   1.243  16.766  1.6826  2.9301 -2.9699
  396MPD2    N1 5978   2.929   0.838  17.021 -0.3328  0.5530 -0.6546
  396MPD2    H7 5979   2.897   0.743  17.035 -1.2063  0.9050 -0.2488
  397TMC3    C1 5980   2.959   0.840  17.257 -0.3201  0.1003  0.3369
  397TMC3    C2 5981   3.069   0.834  17.328  0.6165 -0.3590 -0.6394
  397TMC3    C3 5982   3.127   0.719  17.367  0.5741  0.0796 -0.6554
  397TMC3    C4 5983   2.895   0.722  17.243 -0.3455 -0.5859  0.2854
  397TMC3    C5 5984   2.951   0.609  17.290  0.0155  0.5039 -0.5545
  397TMC3    C6 5985   3.071   0.597  17.353  0.3066 -0.2689 -0.3509
  397TMC3     C 5986   2.968   0.911  17.134  0.1522  0.2656 -0.3994
  397TMC3     O 5987   3.030   1.020  17.150 -0.3207 -0.4124  0.2044
  397TMC3     H 5988   3.139   0.917  17.319 -0.1599  0.4814  0.9443
  397TMC3    H1 5989   2.795   0.714  17.201  0.0757 -1.5053 -0.5316
  397TMC3    H2 5990   3.120   0.512  17.398  0.3484 -1.0914 -1.9420
  397TMC3    C7 5991   2.864   0.494  17.304 -0.2464 -0.1277  0.3878
  397TMC3    C8 5992   3.267   0.726  17.336  0.1501 -0.0022 -0.0763
  397TMC3    O1 5993   2.887   0.393  17.236 -0.0990 -0.2645 -0.1798
  397TMC3    O2 5994   3.339   0.779  17.419 -0.1426  0.1176  0.2989
  398MPD2     C 5995   1.200   2.840   0.277  0.1432  0.2568 -0.1109
  398MPD2    C1 5996   1.284   2.727   0.285  0.2829  0.8718  0.3318
  398MPD2    C2 5997   1.418   2.751   0.293  0.0010  0.0727  0.1089
  398MPD2    C3 5998   1.478   2.872   0.300 -0.0803 -0.1101  0.5501
  398MPD2    C4 5999   1.396   2.978   0.315  0.1068  0.3406 -0.2379
  398MPD2    C5 6000   1.265   2.951   0.308 -0.5153 -0.4948 -0.5320
  398MPD2     H 6001   1.484   2.665   0.302 -0.1876  0.0534  1.3467
  398MPD2    H1 6002   1.423   3.080   0.337 -1.2865  0.1304  2.3812
  398MPD2    H2 6003   1.092   2.830   0.287 -0.0711  1.2874 -1.4014
  398MPD2    H3 6004   1.199   3.037   0.318  0.9434  0.7548 -1.5862
  398MPD2     N 6005   1.621   2.885   0.280 -0.1830 -0.4280 -0.8139
  398MPD2    H5 6006   1.669   2.796   0.271  1.4738  0.2710  1.1090
  398MPD2    N1 6007   1.247   2.590   0.290 -0.0526  0.4274  0.1050
  398MPD2    H7 6008   1.308   2.517   0.256 -0.3705  0.3471 -0.2966
  399TMC3    C1 6009   1.091   2.406   0.312  0.6105  0.1217 -0.6150
  399TMC3    C2 6010   1.188   2.331   0.375 -0.0024  0.0869 -0.0107
  399TMC3    C3 6011   1.160   2.199   0.403 -0.2838  0.1132 -0.2884
  399TMC3    C4 6012   0.974   2.351   0.262  0.1099 -0.3928 -0.1104
  399TMC3    C5 6013   0.952   2.215   0.290 -0.3444  0.3242 -0.1861
  399TMC3    C6 6014   1.044   2.135   0.358  0.7432 -0.1131  0.0543
  399TMC3     C 6015   1.113   2.550   0.305 -0.2288 -0.4586  0.1483
  399TMC3     O 6016   1.006   2.611   0.300  0.3884  0.2943  0.0720
  399TMC3     H 6017   1.272   2.384   0.419  1.7697 -2.9978  0.2953
  399TMC3    H1 6018   0.904   2.422   0.221 -0.0185 -0.2716  0.3162
  399TMC3    H2 6019   1.021   2.031   0.378  0.0948 -0.2702 -1.5045
  399TMC3    C7 6020   0.846   2.146   0.223  0.9692  0.7337  0.4881
  399TMC3    C8 6021   1.278   2.116   0.434 -0.1047  0.0278 -0.5104
  399TMC3    O1 6022   0.807   2.041   0.274  0.1470 -0.1652  0.2594
  399TMC3    O2 6023   1.387   2.167   0.418 -0.3349 -0.0891  0.5390
  400TMC3    C1 6024   0.005   0.913  17.061 -0.1020 -0.4673 -0.2949
  400TMC3    C2 6025   4.641   0.868  16.984 -0.5087  0.1686  0.4737
  400TMC3    C3 6026   4.554   0.957  16.933  0.0948 -0.8436 -0.2299
  400TMC3    C4 6027   0.038   1.045  17.066 -0.4400 -0.4821  0.1073
  400TMC3    C5 6028   4.683   1.131  17.012  0.3562 -0.0084  0.3897
  400TMC3    C6 6029   4.569   1.092  16.946 -0.7405  0.2266 -0.0464
  400TMC3     C 6030   0.110   0.820  17.111  0.1738  0.2974  0.2832
  400TMC3     O 6031   0.224   0.867  17.124 -0.2496 -0.4155 -0.4870
  400TMC3     H 6032   4.636   0.769  16.941  0.3894  0.3036  0.0465
  400TMC3    H1 6033   0.123   1.084  17.120  0.2853  0.0545 -1.4476
  400TMC3    H2 6034   4.495   1.162  16.910  0.4518  0.7708 -1.4474
  400TMC3    C7 6035   4.692   1.273  17.044 -0.5395 -0.5126  0.0119
  400TMC3    C8 6036   4.431   0.906  16.878 -0.1828 -0.8414 -0.3141
  400TMC3    O1 6037   0.065   1.314  17.060  0.5055  0.1103  0.4717
  400TMC3    O2 6038   4.375   0.987  16.812  0.3402 -0.0671 -0.1767
  401MPD2     C 6039   2.583   4.132   0.671  0.6147  0.6600 -0.4334
  401MPD2    C1 6040   2.663   4.032   0.730 -0.4523 -1.1770 -0.1570
  401MPD2    C2 6041   2.614   3.904   0.711 -0.5598  0.1611 -0.1729
  401MPD2    C3 6042   2.499   3.870   0.644  0.9945  0.2963 -0.0377
  401MPD2    C4 6043   2.425   3.968   0.573 -0.3080 -0.5343  0.7438
  401MPD2    C5 6044   2.472   4.096   0.594 -0.6061  0.2095  0.2278
  401MPD2     H 6045   2.683   3.833   0.755  1.5164  3.0148  1.1127
  401MPD2    H1 6046   2.326   3.959   0.528 -0.4032  3.1756  0.2560
  401MPD2    H2 6047   2.607   4.237   0.678  1.1433  0.5411 -0.4139
  401MPD2    H3 6048   2.413   4.178   0.556  0.6177  0.6625 -0.6936
  401MPD2     N 6049   2.467   3.734   0.633 -0.1323 -0.1577  0.0002
  401MPD2    H5 6050   2.517   3.675   0.700 -1.1934  0.2240  1.1287
  401MPD2    N1 6051   2.777   4.053   0.815  0.4903 -0.1228  0.0020
  401MPD2    H7 6052   2.819   3.966   0.844  0.7104 -0.4875 -1.4285
  402TMC3    C1 6053   2.378   3.533   0.574  0.1605 -0.3833 -0.7149
  402TMC3    C2 6054   2.393   3.492   0.709  0.0697 -0.7140 -0.6757
  402TMC3    C3 6055   2.424   3.362   0.733 -0.4660 -0.1894  0.6087
  402TMC3    C4 6056   2.384   3.445   0.469  0.3879 -0.0280  0.6661
  402TMC3    C5 6057   2.422   3.312   0.497  1.3263  0.0390 -0.2523
  402TMC3    C6 6058   2.443   3.277   0.627 -0.2185  0.9874  0.0295
  402TMC3     C 6059   2.377   3.678   0.547 -0.2436  0.2073 -0.0815
  402TMC3     O 6060   2.317   3.720   0.449  0.3692 -0.4145  0.5686
  402TMC3     H 6061   2.370   3.560   0.790 -0.2538 -1.3841 -0.2077
  402TMC3    H1 6062   2.380   3.474   0.364  0.0297  0.1977  0.7449
  402TMC3    H2 6063   2.454   3.173   0.653 -0.6029  0.4911 -1.8271
  402TMC3    C7 6064   2.514   3.249   0.403  0.4456  0.3318  0.5169
  402TMC3    C8 6065   2.493   3.323   0.851  0.0918  0.0170 -0.2706
  402TMC3    O1 6066   2.508   3.278   0.286  0.7398 -0.4841  0.2328
  402TMC3    O2 6067   2.584   3.245   0.831  0.6852  0.5667 -0.1326
  403MPD2     C 6068   0.369   2.166  13.110 -0.0629  0.0584  0.1764
  403MPD2    C1 6069   0.472   2.092  13.162  0.8131  0.0349  0.1188
  403MPD2    C2 6070   0.586   2.153  13.211 -0.0380 -0.7203  0.2094
  403MPD2    C3 6071   0.590   2.292  13.217 -0.1431 -0.4441 -0.0480
  403MPD2    C4 6072   0.485   2.373  13.165 -0.1276 -1.0580 -0.1703
  403MPD2    C5 6073   0.377   2.299  13.120  0.3916 -0.3919  0.0039
  403MPD2     H 6074   0.675   2.103  13.245  1.9094  2.7748  0.2499
  403MPD2    H1 6075   0.480   2.481  13.176 -2.2867 -1.2568  0.6186
  403MPD2    H2 6076   0.283   2.117  13.067  0.6917 -0.2566 -0.9737
  403MPD2    H3 6077   0.292   2.359  13.087  0.4407 -1.1101 -1.4525
  403MPD2     N 6078   0.710   2.353  13.262 -0.0034  0.1745  0.3052
  403MPD2    H5 6079   0.773   2.285  13.303  1.0725 -0.3420 -2.1827
  403MPD2    N1 6080   0.465   1.948  13.153  0.4845  0.1964 -0.6237
  403MPD2    H7 6081   0.391   1.907  13.097 -1.0385 -1.8210  2.8608
  404TMC3    C1 6082   0.512   1.718  13.205 -0.5108  0.1262 -0.3407
  404TMC3    C2 6083   0.511   1.637  13.311 -0.9808  0.0334  0.2907
  404TMC3    C3 6084   0.469   1.506  13.293 -0.5042  0.2209  0.2879
  404TMC3    C4 6085   0.459   1.681  13.082  0.0624 -0.3140 -0.7255
  404TMC3    C5 6086   0.412   1.552  13.066 -0.0212 -0.4183  0.7037
  404TMC3    C6 6087   0.418   1.461  13.171  0.1392  0.1288 -0.0861
  404TMC3     C 6088   0.549   1.857  13.223 -0.4614  0.0136 -0.5748
  404TMC3     O 6089   0.616   1.875  13.325 -0.0406  0.4540 -0.2550
  404TMC3     H 6090   0.541   1.677  13.407  0.8511  0.4568 -0.4718
  404TMC3    H1 6091   0.462   1.750  12.998  0.9739 -2.3454 -2.3560
  404TMC3    H2 6092   0.402   1.356  13.151 -2.0711  0.3052  0.7551
  404TMC3    C7 6093   0.427   1.494  12.935 -0.1799  0.4095  0.7236
  404TMC3    C8 6094   0.521   1.406  13.393 -0.3494  0.1250 -0.1667
  404TMC3    O1 6095   0.528   1.518  12.871 -0.0576  0.1779 -0.2662
  404TMC3    O2 6096   0.516   1.290  13.367  0.2850  0.0368 -0.6553
  405MPD2     C 6097   1.379   2.808  14.381  0.2677 -0.3351  0.2330
  405MPD2    C1 6098   1.380   2.684  14.312  0.6131 -0.3605 -0.4370
  405MPD2    C2 6099   1.291   2.667  14.202 -0.1273  0.6560  0.3996
  405MPD2    C3 6100   1.215   2.775  14.154  0.0610  0.8026  0.3976
  405MPD2    C4 6101   1.223   2.900  14.218 -0.4482 -1.5093  0.0202
  405MPD2    C5 6102   1.307   2.917  14.324 -0.1212  0.0882  0.2005
  405MPD2     H 6103   1.279   2.567  14.160  2.6450  0.1623  0.7768
  405MPD2    H1 6104   1.164   2.984  14.183 -1.4283 -2.3205 -0.2768
  405MPD2    H2 6105   1.430   2.812  14.477  0.5737 -0.5795  0.0805
  405MPD2    H3 6106   1.296   3.012  14.374 -3.9349  0.1938 -0.8812
  405MPD2     N 6107   1.128   2.743  14.049  0.5248 -0.3841  0.5689
  405MPD2    H5 6108   1.141   2.645  14.026  1.0406 -0.0802 -0.4378
  405MPD2    N1 6109   1.448   2.570  14.369 -0.1263  0.4544 -0.2915
  405MPD2    H7 6110   1.466   2.579  14.469  0.3875 -2.1194 -0.1445
  406TMC3    C1 6111   0.735   2.720  13.811 -1.1322 -0.0953  0.0034
  406TMC3    C2 6112   0.776   2.611  13.739  0.2078 -0.4041 -0.4137
  406TMC3    C3 6113   0.911   2.581  13.741 -0.1610 -0.4967  0.0705
  406TMC3    C4 6114   0.824   2.801  13.870 -0.1903  0.5693  0.3826
  406TMC3    C5 6115   0.953   2.759  13.883  0.9342  0.2075  0.3042
  406TMC3    C6 6116   1.005   2.652  13.821 -0.1088  0.5651  0.7831
  406TMC3     C 6117   0.613   2.782  13.763 -0.0633  0.4354 -0.4644
  406TMC3     O 6118   0.571   2.753  13.653 -0.2770  0.2341  0.2275
  406TMC3     H 6119   0.696   2.561  13.685 -0.3309 -1.4613  1.3778
  406TMC3    H1 6120   0.787   2.888  13.924 -1.5905 -0.9452  1.8510
  406TMC3    H2 6121   1.112   2.633  13.826  0.1506  2.2955  1.5484
  406TMC3    C7 6122   1.040   2.828  13.987 -0.4074 -0.2139 -0.1583
  406TMC3    C8 6123   0.945   2.440  13.713  0.2876  0.0285 -0.6436
  406TMC3    O1 6124   1.041   2.949  13.982 -0.3552  0.7494 -0.1727
  406TMC3    O2 6125   0.846   2.374  13.673  0.0037  0.2449  0.2601
  407MPD2     C 6126   3.107   4.426   9.133  1.1282 -0.6249 -0.1371
  407MPD2    C1 6127   3.219   4.440   9.213 -0.5322 -0.1898  0.0877
  407MPD2    C2 6128   3.204   4.506   9.331  0.1483 -0.2968  0.0718
  407MPD2    C3 6129   3.083   4.559   9.368 -0.8800  0.0083 -0.0656
  407MPD2    C4 6130   2.975   4.550   9.288  0.6357  0.1494  0.7886
  407MPD2    C5 6131   2.984   4.475   9.172  0.0014  0.1710  0.4263
  407MPD2     H 6132   3.294   4.525   9.388  1.2594  0.3456 -1.9022
  407MPD2    H1 6133   2.886   4.600   9.323 -0.0202 -2.4058  2.7717
  407MPD2    H2 6134   3.119   4.381   9.035  1.3179 -0.4759 -0.1840
  407MPD2    H3 6135   2.896   4.467   9.109 -0.0176  0.9826  0.3478
  407MPD2     N 6136   3.071   4.639   9.481  0.1751  0.4551  0.4187
  407MPD2    H5 6137   2.997   4.709   9.476 -0.4082 -0.3012 -1.5754
  407MPD2    N1 6138   3.353   4.406   9.189 -0.0412 -0.5141  0.6322
  407MPD2    H7 6139   3.427   4.430   9.254  1.5019  2.0665 -2.0592
  408TMC3    C1 6140   3.523   4.406   9.040 -0.3857  0.3073  0.5188
  408TMC3    C2 6141   3.625   4.365   9.118  0.2501  0.6124  0.2755
  408TMC3    C3 6142   3.723   4.457   9.149  0.0741 -1.4226  0.2296
  408TMC3    C4 6143   3.508   4.535   9.001 -0.4231  0.3820 -0.9361
  408TMC3    C5 6144   3.604   4.624   9.046  0.3724 -0.2908  0.6483
  408TMC3    C6 6145   3.718   4.590   9.107 -0.5354  0.1769  0.3234
  408TMC3     C 6146   3.396   4.347   9.076 -0.8843  0.5935 -0.8662
  408TMC3     O 6147   3.327   4.310   8.981 -0.0751 -0.4864 -0.4638
  408TMC3     H 6148   3.638   4.258   9.135 -0.3240  1.1375  4.0704
  408TMC3    H1 6149   3.435   4.566   8.928 -0.3127  2.0544 -0.3427
  408TMC3    H2 6150   3.794   4.667   9.113 -1.0991  0.7578  0.0302
  408TMC3    C7 6151   3.551   0.013   9.068  0.8911 -0.1285 -0.4708
  408TMC3    C8 6152   3.853   4.393   9.155  0.0729  0.0826 -0.2841
  408TMC3    O1 6153   3.623   0.101   9.108 -0.6893 -0.6991  0.7326
  408TMC3    O2 6154   3.862   4.274   9.126 -0.9700  0.3953  0.6485
  409MPD2     C 6155   3.088   0.193  16.772  0.1085  0.8941  0.9289
  409MPD2    C1 6156   3.165   0.182  16.885  1.1990  0.5110 -0.4161
  409MPD2    C2 6157   3.271   0.266  16.897  0.3845 -0.7775  0.8264
  409MPD2    C3 6158   3.285   0.374  16.817 -0.0293  0.4329 -0.4700
  409MPD2    C4 6159   3.194   0.393  16.716 -0.0079 -0.0073  0.3716
  409MPD2    C5 6160   3.104   0.297  16.686  0.2857 -0.5768  0.1144
  409MPD2     H 6161   3.336   0.244  16.981  3.3196 -0.7080 -1.4638
  409MPD2    H1 6162   3.211   0.470  16.641 -0.6141 -1.1996 -1.0045
  409MPD2    H2 6163   3.004   0.127  16.750 -0.8839  2.2762  0.5652
  409MPD2    H3 6164   3.036   0.306  16.603 -0.3141 -0.0152  0.6615
  409MPD2     N 6165   3.370   0.480  16.842 -1.0019 -0.0504 -0.0942
  409MPD2    H5 6166   3.352   0.562  16.784  0.0923 -1.6114 -2.6477
  409MPD2    N1 6167   3.143   0.075  16.984  0.5034  0.4441 -0.2405
  409MPD2    H7 6168   3.211   0.070  17.059 -2.0105 -1.2476  1.9098
  410TMC3    C1 6169   3.554   0.607  16.915 -0.3463  0.1415 -0.1109
  410TMC3    C2 6170   3.661   0.619  17.001  0.1270 -0.2503  0.0856
  410TMC3    C3 6171   3.764   0.708  16.969  0.3353  0.3302 -0.7957
  410TMC3    C4 6172   3.551   0.677  16.795  0.7216 -0.4796 -0.5861
  410TMC3    C5 6173   3.655   0.759  16.767 -0.3024 -0.4108 -0.2536
  410TMC3    C6 6174   3.764   0.775  16.853 -0.1581  0.6396  0.4859
  410TMC3     C 6175   3.481   0.478  16.921 -0.1724 -0.4777 -0.5431
  410TMC3     O 6176   3.544   0.384  16.974 -0.2415 -0.2040  0.3444
  410TMC3     H 6177   3.666   0.545  17.079  1.2396 -0.3531 -0.0848
  410TMC3    H1 6178   3.476   0.680  16.717 -0.2044 -1.2427  0.2712
  410TMC3    H2 6179   3.841   0.847  16.829 -1.3717  1.3484 -1.2957
  410TMC3    C7 6180   3.666   0.786  16.632  0.0603  0.2773 -0.4845
  410TMC3    C8 6181   3.859   0.738  17.076 -0.5074  0.6094  0.1571
  410TMC3    O1 6182   3.644   0.688  16.563 -1.0288  0.2377 -0.0461
  410TMC3    O2 6183   3.959   0.804  17.038 -0.6586  0.2414  0.4518
  411MPD2     C 6184   3.918   1.539  14.455  0.7567  0.4484 -0.1689
  411MPD2    C1 6185   3.826   1.487  14.546  0.4105 -0.3951 -0.4302
  411MPD2    C2 6186   3.794   1.351  14.541  0.1579 -1.4731 -0.3518
  411MPD2    C3 6187   3.854   1.269  14.449  0.2605 -0.3640  0.4381
  411MPD2    C4 6188   3.948   1.320  14.361  0.4702 -0.4051 -1.2058
  411MPD2    C5 6189   3.985   1.451  14.375 -0.1757 -0.3653  0.2801
  411MPD2     H 6190   3.720   1.319  14.614  0.1844  0.3805  0.4756
  411MPD2    H1 6191   4.024   1.264  14.308  0.8182 -0.1007 -1.0319
  411MPD2    H2 6192   3.951   1.642  14.463  0.8006  0.4590 -0.4841
  411MPD2    H3 6193   4.063   1.493  14.312 -1.9574 -1.0657 -2.3693
  411MPD2     N 6194   3.820   1.139  14.426 -0.4481 -0.1595  0.2124
  411MPD2    H5 6195   3.849   1.109  14.334 -0.5485 -1.0328  0.4714
  411MPD2    N1 6196   3.743   1.574  14.616 -0.0956 -0.4437  0.4951
  411MPD2    H7 6197   3.747   1.675  14.603  0.2794 -0.5688 -0.3838
  412TMC3    C1 6198   3.686   0.955  14.424 -0.3503 -0.1337 -0.0988
  412TMC3    C2 6199   3.633   0.855  14.506  0.0688 -0.5710  0.0761
  412TMC3    C3 6200   3.597   0.737  14.451 -0.0501  0.4472  0.0134
  412TMC3    C4 6201   3.677   0.956  14.288  0.0890  0.3603  0.2710
  412TMC3    C5 6202   3.630   0.836  14.238  0.4520 -0.2285 -0.1808
  412TMC3    C6 6203   3.597   0.726  14.311 -0.4136 -0.6113 -0.0298
  412TMC3     C 6204   3.723   1.070  14.495  0.1621 -0.1329 -0.6675
  412TMC3     O 6205   3.675   1.086  14.608  0.2834 -0.4728 -0.0389
  412TMC3     H 6206   3.637   0.849  14.614 -0.8527  0.0493  0.1378
  412TMC3    H1 6207   3.705   1.045  14.233 -1.2563  1.2382  1.0269
  412TMC3    H2 6208   3.552   0.639  14.266  0.4397 -1.5206  0.8785
  412TMC3    C7 6209   3.521   0.867  14.143  0.3232  0.1290  0.0274
  412TMC3    C8 6210   3.491   0.663  14.513  0.5304 -0.3949  0.0076
  412TMC3    O1 6211   3.475   0.766  14.090 -0.4459  0.1400 -0.0973
  412TMC3    O2 6212   3.462   0.559  14.461 -0.4276 -0.5956 -0.4903
  413MPD2     C 6213   4.638   3.608  15.377 -0.6181  0.1908 -0.5651
  413MPD2    C1 6214   4.643   3.632  15.236  0.3319  0.7510  0.5477
  413MPD2    C2 6215   0.015   3.592  15.164 -0.3867  0.0087 -0.3385
  413MPD2    C3 6216   0.110   3.509  15.232  0.0800 -0.2244 -0.4784
  413MPD2    C4 6217   0.092   3.475  15.362 -0.3222  0.3707  0.0919
  413MPD2    C5 6218   4.734   3.537  15.436  0.0976  0.4490  0.2263
  413MPD2     H 6219   0.026   3.614  15.059  1.3326 -0.5470 -0.2763
  413MPD2    H1 6220   0.164   3.420  15.421 -1.0438 -0.3838  0.2512
  413MPD2    H2 6221   4.558   3.651  15.437 -1.8200  1.9327 -3.3977
  413MPD2    H3 6222   4.739   3.522  15.543  1.6096  1.0361  0.2433
  413MPD2     N 6223   0.221   3.450  15.176  0.0989  0.4545  0.2878
  413MPD2    H5 6224   0.239   3.490  15.084  0.2519  2.8862  1.3580
  413MPD2    N1 6225   4.540   3.718  15.181  0.2851  0.4348  0.2810
  413MPD2    H7 6226   4.466   3.735  15.248  0.1550 -3.3857  1.0985
  414TMC3    C1 6227   0.430   3.363  15.144  0.4563  0.5616 -0.3545
  414TMC3    C2 6228   0.535   3.289  15.194 -0.0416  0.1128  0.9051
  414TMC3    C3 6229   0.660   3.308  15.143 -1.4487 -0.5441  0.4466
  414TMC3    C4 6230   0.455   3.464  15.051 -0.3044 -0.0135 -0.1060
  414TMC3    C5 6231   0.584   3.480  15.001 -0.5282  0.1209 -0.1360
  414TMC3    C6 6232   0.692   3.410  15.049 -0.3624  0.0146 -0.5350
  414TMC3     C 6233   0.321   3.375  15.231  0.2765 -0.6108  0.4099
  414TMC3     O 6234   0.331   3.295  15.326  0.4742 -0.3837  0.4197
  414TMC3     H 6235   0.515   3.207  15.262 -0.1550 -1.8641 -1.5127
  414TMC3    H1 6236   0.386   3.539  15.016 -3.1793 -2.7611 -0.3715
  414TMC3    H2 6237   0.789   3.415  15.001  0.4898  0.2874  1.2033
  414TMC3    C7 6238   0.607   3.569  14.896 -0.8408  0.0451 -0.3590
  414TMC3    C8 6239   0.767   3.227  15.200  0.5133  0.6830  0.1132
  414TMC3    O1 6240   0.539   3.572  14.797  0.0786 -0.3696 -0.4849
  414TMC3    O2 6241   0.738   3.108  15.225 -0.2267 -0.2839 -0.2055
  415TMC3    C1 6242   0.668   1.695  10.610  0.0216 -0.6297  0.7963
  415TMC3    C2 6243   0.737   1.773  10.518  1.0267 -0.5822  0.9593
  415TMC3    C3 6244   0.765   1.719  10.390  0.0188  0.3789  0.8501
  415TMC3    C4 6245   0.634   1.564  10.580 -0.0003 -0.8873 -0.5662
  415TMC3    C5 6246   0.670   1.517  10.458  0.2518  0.1416  0.1794
  415TMC3    C6 6247   0.734   1.596  10.362 -0.1816 -0.1738 -0.1684
  415TMC3     C 6248   0.613   1.743  10.736 -0.5478 -0.3201 -0.7935
  415TMC3     O 6249   0.603   1.653  10.817 -0.3198 -0.5871  0.4655
  415TMC3     H 6250   0.763   1.876  10.537 -1.0080  0.1730 -0.3341
  415TMC3    H1 6251   0.568   1.510  10.647 -0.5300 -0.0879 -0.4467
  415TMC3    H2 6252   0.760   1.554  10.266  1.7440 -0.7291  0.5796
  415TMC3    C7 6253   0.608   1.392  10.409 -0.2887 -0.1560 -0.3873
  415TMC3    C8 6254   0.892   1.762  10.326  0.1990  0.5744 -0.3872
  415TMC3    O1 6255   0.624   1.361  10.290  0.5884  0.2336  0.1762
  415TMC3    O2 6256   0.957   1.665  10.283  0.1417 -0.1423 -0.4652
  416MPD2     C 6257   2.557   0.141  11.785  0.2892 -0.1114  0.2914
  416MPD2    C1 6258   2.516   0.227  11.698  0.6069  0.5279 -0.8735
  416MPD2    C2 6259   2.568   0.235  11.571 -0.1482  0.1908  0.1866
  416MPD2    C3 6260   2.650   0.136  11.530 -0.1706 -0.3451 -0.4789
  416MPD2    C4 6261   2.687   0.043  11.624  0.0160  0.1195 -0.3483
  416MPD2    C5 6262   2.660   0.059  11.754  0.0897 -0.5803 -0.2842
  416MPD2     H 6263   2.531   0.296  11.490  0.5929  0.1924 -0.1532
  416MPD2    H1 6264   2.749   4.703  11.592 -0.0235 -0.5427  1.3256
  416MPD2    H2 6265   2.517   0.144  11.886 -1.0366 -1.1448 -0.2102
  416MPD2    H3 6266   2.699   4.730  11.825 -2.7615 -2.9801 -1.1184
  416MPD2     N 6267   2.692   0.119  11.387  0.0216  0.0668 -0.1945
  416MPD2    H5 6268   2.741   0.033  11.365 -1.1125 -0.7943  0.6709
  416MPD2    N1 6269   2.415   0.313  11.738  0.7360 -0.0854  0.2162
  416MPD2    H7 6270   2.380   0.293  11.831 -1.3652 -0.8995 -0.7679
  417TMC3    C1 6271   2.225   0.460  11.731  0.1738 -0.2668  0.7270
  417TMC3    C2 6272   2.237   0.508  11.858  0.1408  0.5134 -0.1378
  417TMC3    C3 6273   2.122   0.562  11.902  0.0430 -0.1430 -0.6906
  417TMC3    C4 6274   2.125   0.492  11.643 -0.0155 -0.1728  0.8581
  417TMC3    C5 6275   2.012   0.549  11.683  0.3015 -0.8125  0.4366
  417TMC3    C6 6276   2.009   0.586  11.817  0.8834 -0.4097  0.2391
  417TMC3     C 6277   2.343   0.402  11.661 -0.4205  0.4332 -0.1746
  417TMC3     O 6278   2.340   0.427  11.540  0.3981 -0.1136 -0.4095
  417TMC3     H 6279   2.328   0.502  11.917  0.7617  0.5535 -1.0984
  417TMC3    H1 6280   2.123   0.448  11.544  1.0715 -2.1806  1.7135
  417TMC3    H2 6281   1.917   0.622  11.860  0.7270 -0.9498  0.3576
  417TMC3    C7 6282   1.916   0.604  11.592  0.8425 -0.4787  0.0412
  417TMC3    C8 6283   2.109   0.602  12.043 -0.2910 -0.3553  0.0202
  417TMC3    O1 6284   1.949   0.618  11.475 -0.0285 -0.6942 -0.0745
  417TMC3    O2 6285   2.012   0.664  12.076 -0.3521 -0.1670  0.5109
  418TMC3    C1 6286   1.996   2.849   0.157  0.2504 -0.5690 -0.5796
  418TMC3    C2 6287   1.887   2.937   0.148  0.0098 -0.1423 -0.1403
  418TMC3    C3 6288   1.841   2.993   0.272 -0.4659  0.5835 -0.5385
  418TMC3    C4 6289   2.042   2.804   0.276  0.2250 -0.2616 -0.2322
  418TMC3    C5 6290   1.988   2.851   0.394 -0.7594 -0.2590  0.2521
  418TMC3    C6 6291   1.887   2.945   0.389  0.9370 -0.1998 -0.1097
  418TMC3     C 6292   2.018   2.746   0.056  0.5625  0.4391  0.1372
  418TMC3     O 6293   1.961   2.641   0.084  0.2063 -0.0860  0.2781
  418TMC3     H 6294   1.848   2.966   0.051  1.1039 -1.0667 -0.8642
  418TMC3    H1 6295   2.123   2.732   0.273  0.0461 -0.4777  0.3325
  418TMC3    H2 6296   1.817   2.967   0.469  1.5111  0.7993  0.1234
  418TMC3    C7 6297   1.988   2.756   0.508  0.1388 -0.3056 -0.4475
  418TMC3    C8 6298   1.697   3.005   0.278 -0.2074  0.3353 -0.1815
  418TMC3    O1 6299   2.004   2.641   0.469  0.1422  0.4362 -0.6543
  418TMC3    O2 6300   1.649   3.117   0.298 -0.9441 -0.1730 -0.4097
  419MPD2     C 6301   4.724   0.436  12.632 -0.1077 -0.0283 -0.0117
  419MPD2    C1 6302   4.593   0.479  12.629  0.6180  0.6827 -0.2191
  419MPD2    C2 6303   4.544   0.579  12.713  0.0226  0.5937 -0.0642
  419MPD2    C3 6304   4.626   0.623  12.816  0.6828  0.1882  0.1135
  419MPD2    C4 6305   0.014   0.585  12.826  0.4661  0.4526 -0.2861
  419MPD2    C5 6306   0.058   0.492  12.737 -0.1457 -0.8184  0.1862
  419MPD2     H 6307   4.440   0.609  12.708 -0.8660 -2.4123  0.2163
  419MPD2    H1 6308   0.082   0.637  12.892  0.0180 -1.1205  1.4251
  419MPD2    H2 6309   0.015   0.361  12.562 -1.0047 -1.8481  1.4984
  419MPD2    H3 6310   0.155   0.447  12.756 -0.3848 -1.2155  0.4645
  419MPD2     N 6311   4.570   0.723  12.894  0.4768 -0.1623  0.9127
  419MPD2    H5 6312   4.473   0.746  12.874  0.2502 -1.6393  0.3195
  419MPD2    N1 6313   4.502   0.442  12.531 -0.2025 -0.0090  0.0444
  419MPD2    H7 6314   4.409   0.482  12.539 -0.2776  0.3487 -2.7729
  420TMC3    C1 6315   4.550   0.911  13.036 -1.1262  0.1689  0.1885
  420TMC3    C2 6316   4.419   0.928  12.989  0.3530 -0.0740 -0.5152
  420TMC3    C3 6317   4.362   1.040  13.035  0.1889 -0.4689 -0.1692
  420TMC3    C4 6318   4.615   0.995  13.119 -0.0666 -0.6954 -0.4259
  420TMC3    C5 6319   4.540   1.093  13.170 -0.9647 -0.2528  0.5515
  420TMC3    C6 6320   4.421   1.128  13.122  0.1931 -0.2064 -0.1912
  420TMC3     C 6321   4.635   0.795  12.993 -0.6044  0.6602  0.8570
  420TMC3     O 6322   0.009   0.781  13.022 -0.8826 -0.2167 -0.4981
  420TMC3     H 6323   4.364   0.849  12.940 -1.0117  1.1071 -0.8841
  420TMC3    H1 6324   4.720   0.984  13.142 -0.3096 -0.5131  0.7252
  420TMC3    H2 6325   4.353   1.204  13.158  1.2827  0.1153  1.1763
  420TMC3    C7 6326   4.554   1.114  13.314 -0.1351  0.4102 -0.5168
  420TMC3    C8 6327   4.236   1.085  12.994 -0.5273 -0.0543 -0.3900
  420TMC3    O1 6328   4.609   1.022  13.366 -0.1845 -0.5632  0.2854
  420TMC3    O2 6329   4.209   1.205  12.978  0.1863  0.5963  0.2075
  421TMC3    C1 6330   0.855   2.530  13.336  0.1549 -0.1253  0.1751
  421TMC3    C2 6331   0.860   2.658  13.375 -0.0889 -0.3271  0.2062
  421TMC3    C3 6332   0.974   2.714  13.425  0.2131  0.4325 -1.1854
  421TMC3    C4 6333   0.958   2.441  13.352  0.1516 -0.2341 -0.1388
  421TMC3    C5 6334   1.070   2.505  13.407 -0.1223 -0.8756  0.0770
  421TMC3    C6 6335   1.088   2.639  13.447 -0.4029 -0.1403 -0.1427
  421TMC3     C 6336   0.739   2.491  13.260 -0.0546 -0.2737  0.0864
  421TMC3     O 6337   0.682   2.579  13.203  0.6666  0.2624  0.1260
  421TMC3     H 6338   0.768   2.715  13.379  0.6161  0.6682  2.8535
  421TMC3    H1 6339   0.945   2.341  13.314 -1.7885  0.3143 -0.9488
  421TMC3    H2 6340   1.176   2.681  13.494 -1.5986  1.5500  0.5975
  421TMC3    C7 6341   1.188   2.419  13.433 -0.5109  0.0787 -0.0023
  421TMC3    C8 6342   0.974   2.843  13.501  0.4750  0.1371 -0.2255
  421TMC3    O1 6343   1.299   2.465  13.458 -0.7719  0.2151 -0.2467
  421TMC3    O2 6344   1.082   2.879  13.542  0.0582  0.0001 -0.5917
  422TMC3    C1 6345   3.356   3.364  12.463  0.3971  0.4534 -0.3812
  422TMC3    C2 6346   3.366   3.493  12.511  0.4905 -0.3346 -0.4195
  422TMC3    C3 6347   3.318   3.518  12.640  0.0546  0.0141  0.4274
  422TMC3    C4 6348   3.290   3.268  12.540  0.2228 -0.3884  0.1500
  422TMC3    C5 6349   3.222   3.300  12.652  0.2822 -0.2971 -0.5835
  422TMC3    C6 6350   3.231   3.431  12.705  0.9368  0.6068  0.1871
  422TMC3     C 6351   3.396   3.347  12.325 -0.6324  0.2036  0.0463
  422TMC3     O 6352   3.439   3.447  12.267 -0.2359 -0.0915  0.2845
  422TMC3     H 6353   3.436   3.561  12.464  0.5421  0.2887  0.5609
  422TMC3    H1 6354   3.288   3.162  12.520 -0.3592  0.0775 -2.1511
  422TMC3    H2 6355   3.193   3.448  12.805 -0.7826 -2.4142  0.0604
  422TMC3    C7 6356   3.149   3.202  12.729 -0.0802  0.8567 -0.1176
  422TMC3    C8 6357   3.330   3.657  12.701  0.2716 -0.2327  0.0746
  422TMC3    O1 6358   3.178   3.087  12.714 -0.9627 -0.3135  0.4533
  422TMC3    O2 6359   3.404   3.736  12.646  0.4991 -0.7038 -0.4696
  423MPD2     C 6360   0.131   4.517   0.638 -0.2861 -0.2247 -0.3550
  423MPD2    C1 6361   0.265   4.553   0.611 -0.2545  0.2694  0.2055
  423MPD2    C2 6362   0.333   4.508   0.496  0.0016  0.0204  0.3636
  423MPD2    C3 6363   0.274   4.409   0.415 -1.1861 -0.4499 -0.0134
  423MPD2    C4 6364   0.146   4.368   0.452 -0.2598  0.0701 -0.2073
  423MPD2    C5 6365   0.079   4.420   0.562  0.4185  0.0850 -0.4794
  423MPD2     H 6366   0.429   4.556   0.482  0.7768 -1.3380  0.9845
  423MPD2    H1 6367   0.095   4.283   0.407 -1.5680  0.1230  1.1573
  423MPD2    H2 6368   0.073   4.549   0.723  0.3772 -0.1567  0.0700
  423MPD2    H3 6369   4.733   4.368   0.597 -0.1946 -0.0817 -2.2602
  423MPD2     N 6370   0.334   4.361   0.290 -0.0353 -0.0082 -0.6182
  423MPD2    H5 6371   0.274   4.295   0.241 -1.3324  0.4247  0.3958
  423MPD2    N1 6372   0.338   4.651   0.687  0.5607 -0.3693  0.0945
  423MPD2    H7 6373   0.434   4.669   0.661  0.0853  2.0765  0.0002
  424TMC3    C1 6374   0.410   0.006   0.887 -0.2589 -0.1001 -0.2734
  424TMC3    C2 6375   0.534   4.682   0.879 -0.8115 -0.3756 -0.5611
  424TMC3    C3 6376   0.624   4.713   0.976 -0.1354  0.1071 -0.5013
  424TMC3    C4 6377   0.372   0.097   0.982 -0.1649  1.0497  0.2526
  424TMC3    C5 6378   0.474   0.128   1.078 -0.1447  0.4073  0.4707
  424TMC3    C6 6379   0.598   0.070   1.075 -0.5248  0.3383  0.0134
  424TMC3     C 6380   0.300   4.703   0.804  0.0103 -0.0781  0.2502
  424TMC3     O 6381   0.187   4.722   0.844  0.0802 -0.0213  0.2749
  424TMC3     H 6382   0.547   4.598   0.811 -0.6318  0.7788 -1.9548
  424TMC3    H1 6383   0.280   0.152   0.967 -1.2805 -0.6601  0.8436
  424TMC3    H2 6384   0.661   0.102   1.157 -0.5948 -0.4137  0.3593
  424TMC3    C7 6385   0.435   0.185   1.205 -0.7197 -0.2881 -0.6059
  424TMC3    C8 6386   0.748   4.635   0.967  0.3406 -0.9218  0.2016
  424TMC3    O1 6387   0.515   0.212   1.293 -0.2504 -1.0261  0.1198
  424TMC3    O2 6388   0.749   4.544   0.882 -0.2006  0.4403  0.1912
  425MPD2     C 6389   4.273   4.138  17.325 -0.5242 -0.6101  0.0382
  425MPD2    C1 6390   4.220   4.032  17.265 -0.2656 -0.2154 -0.6394
  425MPD2    C2 6391   4.082   4.026  17.251  0.1010  0.6233 -0.7287
  425MPD2    C3 6392   4.001   4.122  17.306 -0.5352 -0.0977  0.1830
  425MPD2    C4 6393   4.062   4.227  17.370 -0.2942 -0.5572  0.2285
  425MPD2    C5 6394   4.195   4.241  17.368  0.6267  0.0528  0.7701
  425MPD2     H 6395   4.029   3.939  17.214 -1.1093  0.2841  1.7971
  425MPD2    H1 6396   4.011   4.310  17.417  1.0890  0.4481 -0.0201
  425MPD2    H2 6397   4.381   4.142  17.337 -0.2901  1.6173 -2.6185
  425MPD2    H3 6398   4.231   4.334  17.410 -4.4536  1.6839  1.4600
  425MPD2     N 6399   3.865   4.089  17.310 -0.4715 -0.2525  0.0737
  425MPD2    H5 6400   3.835   4.002  17.267 -0.7078 -0.3657  0.4726
  425MPD2    N1 6401   4.297   3.924  17.215  0.0554 -0.0594  0.1595
  425MPD2    H7 6402   4.240   3.859  17.163  2.2510 -2.0568  0.2167
  426TMC3    C1 6403   4.464   3.778  17.169  0.8928 -0.1830  0.1838
  426TMC3    C2 6404   4.439   3.749  17.035 -0.3932  0.2333  0.2826
  426TMC3    C3 6405   4.480   3.627  16.981  0.7314  0.3475  0.1293
  426TMC3    C4 6406   4.509   3.686  17.251 -0.2635 -0.3903 -0.1242
  426TMC3    C5 6407   4.510   3.559  17.207 -0.2537  1.1482  0.7066
  426TMC3    C6 6408   4.518   3.532  17.070 -0.1917 -0.5914  1.0270
  426TMC3     C 6409   4.425   3.903  17.236 -0.2148  0.4805  0.1108
  426TMC3     O 6410   4.497   3.940  17.327  0.3165 -0.1771 -0.3399
  426TMC3     H 6411   4.397   3.830  16.976  0.2803 -0.8093 -1.6456
  426TMC3    H1 6412   4.534   3.715  17.352 -0.9715 -0.8342  0.1737
  426TMC3    H2 6413   4.552   3.439  17.027  1.2042  1.6861 -2.7999
  426TMC3    C7 6414   4.388   3.497  17.256  0.0486  0.6280  0.4429
  426TMC3    C8 6415   4.415   3.576  16.864  0.3650  0.8401  0.4747
  426TMC3    O1 6416   4.322   3.558  17.341 -0.6052 -0.1561  0.1592
  426TMC3    O2 6417   4.478   3.533  16.768  0.1304  0.0228 -0.4658
  427MPD2     C 6418   2.905   1.408  14.853  0.1449 -0.1772 -0.4636
  427MPD2    C1 6419   2.849   1.310  14.934 -0.5291  0.0026 -0.2019
  427MPD2    C2 6420   2.720   1.325  14.971  0.2091  0.0299  0.2361
  427MPD2    C3 6421   2.651   1.439  14.943 -0.1825  0.9627 -0.2969
  427MPD2    C4 6422   2.710   1.533  14.868  0.3072  0.5353  0.3446
  427MPD2    C5 6423   2.837   1.522  14.817  0.0957  0.1343 -0.0546
  427MPD2     H 6424   2.669   1.245  15.023 -1.2694 -0.2158 -1.5930
  427MPD2    H1 6425   2.656   1.621  14.834 -0.1816  1.0623  2.5101
  427MPD2    H2 6426   3.007   1.388  14.821  0.5904 -0.8067  1.3404
  427MPD2    H3 6427   2.883   1.594  14.750 -0.9827 -0.3989 -1.3843
  427MPD2     N 6428   2.515   1.445  14.974  0.1975 -0.1207 -0.1744
  427MPD2    H5 6429   2.457   1.512  14.923 -0.0274  0.7486  1.2415
  427MPD2    N1 6430   2.924   1.204  14.996  0.4634  0.2098  0.2315
  427MPD2    H7 6431   2.879   1.151  15.071 -0.2263  0.4874  0.0174
  428TMC3    C1 6432   3.126   1.098  15.074 -0.3059 -0.0783 -0.0704
  428TMC3    C2 6433   3.053   0.981  15.104 -0.2801  0.2170 -0.0179
  428TMC3    C3 6434   3.119   0.880  15.166  0.1660 -0.2262  0.0186
  428TMC3    C4 6435   3.255   1.121  15.114 -0.0309 -0.3125  0.5246
  428TMC3    C5 6436   3.316   1.023  15.178  0.0106  0.1563 -0.0305
  428TMC3    C6 6437   3.250   0.904  15.200  0.2697 -0.1897 -0.1636
  428TMC3     C 6438   3.065   1.201  14.988 -0.2114  0.1609 -0.4977
  428TMC3     O 6439   3.151   1.266  14.924 -0.1055 -0.3620  1.2111
  428TMC3     H 6440   2.953   0.957  15.070  0.8620 -1.5371 -2.1807
  428TMC3    H1 6441   3.301   1.218  15.096 -0.5685 -0.3857 -1.1680
  428TMC3    H2 6442   3.300   0.826  15.256 -0.2401 -1.3528 -1.3206
  428TMC3    C7 6443   3.407   1.062  15.276  0.2230 -0.0101 -0.9335
  428TMC3    C8 6444   3.049   0.775  15.241  0.0701 -0.6439 -0.0835
  428TMC3    O1 6445   3.377   1.014  15.382  0.3930 -0.0612  0.3890
  428TMC3    O2 6446   3.117   0.685  15.283 -0.3854  0.4668  0.4816
  429MPD2     C 6447   3.533   1.226  17.741 -0.7574 -0.2000  0.3022
  429MPD2    C1 6448   3.611   1.156  17.645 -0.2907 -0.5959  0.0675
  429MPD2    C2 6449   3.671   1.227  17.543  0.5314  0.6604 -0.3492
  429MPD2    C3 6450   3.663   1.367  17.528 -0.0036 -0.4184 -0.3787
  429MPD2    C4 6451   3.585   1.436  17.626 -0.2761 -0.4314  1.0988
  429MPD2    C5 6452   3.525   1.365  17.729  0.0283  0.4076 -0.2733
  429MPD2     H 6453   3.722   1.179  17.460 -3.1230 -0.5993 -1.8581
  429MPD2    H1 6454   3.561   1.542  17.632  0.8274  0.0742 -3.0816
  429MPD2    H2 6455   3.489   1.180   0.061 -1.9585 -1.2475 -0.8605
  429MPD2    H3 6456   3.467   1.415   0.039 -0.9021  0.5091 -1.0313
  429MPD2     N 6457   3.725   1.435  17.418  0.0765  0.8507  0.1125
  429MPD2    H5 6458   3.790   1.381  17.362  0.2082 -0.5289  1.5877
  429MPD2    N1 6459   3.630   1.018  17.664 -0.3168  0.0123 -0.5612
  429MPD2    H7 6460   3.707   0.982  17.608 -1.6067 -2.6968 -0.5739
  430TMC3    C1 6461   3.799   1.614  17.288  0.2107  0.5310 -0.3870
  430TMC3    C2 6462   3.763   1.727  17.225  0.2266 -0.4370 -0.3380
  430TMC3    C3 6463   3.863   1.804  17.157  0.2994  0.6551 -0.0444
  430TMC3    C4 6464   3.926   1.581  17.303  0.1059  0.2981 -0.0005
  430TMC3    C5 6465   4.024   1.657  17.247 -0.8086  0.1105  0.4939
  430TMC3    C6 6466   3.995   1.763  17.169  0.3249  0.3004  0.0617
  430TMC3     C 6467   3.704   1.566  17.390  0.4845 -0.2963  0.3017
  430TMC3     O 6468   3.619   1.644  17.441  0.3893 -0.0041  0.2758
  430TMC3     H 6469   3.659   1.754  17.210  0.8079  0.6883 -2.3263
  430TMC3    H1 6470   3.956   1.495  17.362 -1.4542 -1.7120 -2.1386
  430TMC3    H2 6471   4.068   1.809  17.104  0.0744 -0.1249 -0.5138
  430TMC3    C7 6472   4.157   1.595  17.228  0.3195  0.4323  0.6012
  430TMC3    C8 6473   3.833   1.810  17.018  0.2347 -0.3947  0.2338
  430TMC3    O1 6474   4.179   1.485  17.277  0.0713  0.7857 -0.9224
  430TMC3    O2 6475   3.745   1.740  16.980 -0.2967 -0.0615  0.3150
  431MPD2     C 6476   4.059   1.146  12.456  0.4662 -0.4556  0.7323
  431MPD2    C1 6477   4.182   1.138  12.385  0.0783 -0.7316  0.1289
  431MPD2    C2 6478   4.225   1.013  12.344  0.0716 -0.4323  0.0030
  431MPD2    C3 6479   4.154   0.901  12.391  0.0284  0.5865 -0.2502
  431MPD2    C4 6480   4.035   0.907  12.462 -0.6013  0.0815 -0.7086
  431MPD2    C5 6481   3.997   1.035  12.493 -0.2335  0.0290  0.6277
  431MPD2     H 6482   4.318   0.997  12.292  0.8182  1.2535  0.8220
  431MPD2    H1 6483   3.994   0.814  12.499 -2.3576  1.2828  0.3411
  431MPD2    H2 6484   4.021   1.244  12.479 -0.6866 -0.5835 -0.6112
  431MPD2    H3 6485   3.911   1.046  12.558 -1.5488 -0.0493 -1.0758
  431MPD2     N 6486   4.215   0.780  12.348 -0.1046  0.3791 -0.3553
  431MPD2    H5 6487   4.286   0.790  12.276  0.3389 -1.8671 -0.2506
  431MPD2    N1 6488   4.252   1.252  12.362 -0.1042  0.5162 -0.1521
  431MPD2    H7 6489   4.226   1.338  12.410  0.9161  0.9748 -0.4301
  432TMC3    C1 6490   4.253   0.552  12.308 -0.4167 -0.6593  0.0516
  432TMC3    C2 6491   4.289   0.573  12.176 -1.2200 -0.2113 -0.9286
  432TMC3    C3 6492   4.382   0.482  12.126 -0.0080 -1.1841 -0.1265
  432TMC3    C4 6493   4.303   0.451  12.385 -0.4290 -0.2186  0.0501
  432TMC3    C5 6494   4.408   0.367  12.333 -0.5857  0.1066  0.2347
  432TMC3    C6 6495   4.432   0.374  12.199  0.0011 -0.9606 -0.2698
  432TMC3     C 6496   4.182   0.655  12.385 -0.2404 -0.8810 -0.3470
  432TMC3     O 6497   4.128   0.619  12.488  0.5329 -0.1375 -0.1146
  432TMC3     H 6498   4.241   0.647  12.113  0.5586 -0.9180 -3.1359
  432TMC3    H1 6499   4.277   0.439  12.489 -3.0566  0.7193 -0.4988
  432TMC3    H2 6500   4.512   0.317  12.154 -0.3148 -1.2300 -0.4901
  432TMC3    C7 6501   4.527   0.366  12.416 -0.5470  0.4864  0.7738
  432TMC3    C8 6502   4.458   0.528  12.009  0.3826 -0.4979 -0.5994
  432TMC3    O1 6503   4.630   0.313  12.375 -0.2486 -0.0939 -0.1692
  432TMC3    O2 6504   4.416   0.597  11.916  0.5844  0.2430  0.4334
  433MPD2     C 6505   3.134   0.242  10.601 -0.2586 -0.1817  0.3238
  433MPD2    C1 6506   3.172   0.115  10.649 -0.0381  0.0919  0.6073
  433MPD2    C2 6507   3.223   0.106  10.780 -0.8029  0.1316 -0.2755
  433MPD2    C3 6508   3.232   0.223  10.858  0.0087 -0.6480 -0.5029
  433MPD2    C4 6509   3.189   0.343  10.806 -0.2890 -0.1711  0.4832
  433MPD2    C5 6510   3.134   0.353  10.679  0.0676 -0.3282  0.1104
  433MPD2     H 6511   3.265   0.018  10.828  1.6311  0.9821 -0.8761
  433MPD2    H1 6512   3.195   0.438  10.858 -1.1503  0.1056  0.0825
  433MPD2    H2 6513   3.116   0.246  10.494 -0.4795 -0.0977  0.3659
  433MPD2    H3 6514   3.119   0.459  10.658  1.4632 -0.4775 -1.6012
  433MPD2     N 6515   3.290   0.214  10.988 -0.4180 -0.3475 -0.0074
  433MPD2    H5 6516   3.316   0.120  11.016  0.9130  0.1171  0.3063
  433MPD2    N1 6517   3.170   0.007  10.555  0.0080  0.2874  0.8472
  433MPD2    H7 6518   3.131   0.019  10.462 -1.5116 -0.1426  1.4317
  434TMC3    C1 6519   3.179   4.517  10.484  0.4714  0.1434  0.2523
  434TMC3    C2 6520   3.193   4.390  10.527  0.1719 -0.0874  0.1401
  434TMC3    C3 6521   3.219   4.299  10.430  0.7553 -0.9869 -0.3486
  434TMC3    C4 6522   3.199   4.553  10.354  0.0002  0.5816 -0.1616
  434TMC3    C5 6523   3.247   4.454  10.266  0.4711 -0.1331  0.1054
  434TMC3    C6 6524   3.258   4.324  10.304 -0.1941 -0.2997  0.6494
  434TMC3     C 6525   3.206   4.618  10.583  0.7400 -0.3944  0.7059
  434TMC3     O 6526   3.234   4.569  10.694 -0.4358 -1.0253  0.4894
  434TMC3     H 6527   3.174   4.361  10.630 -1.0954  1.6811  0.4035
  434TMC3    H1 6528   3.196   4.655  10.318 -1.4062  0.4433 -0.4324
  434TMC3    H2 6529   3.290   4.238  10.246  1.8437  0.1703  1.0777
  434TMC3    C7 6530   3.187   4.469  10.136  0.2292 -0.9212 -0.3807
  434TMC3    C8 6531   3.196   4.165  10.470 -0.1154  0.2262 -0.3102
  434TMC3    O1 6532   3.193   4.578  10.078 -0.3040 -0.2824  0.9639
  434TMC3    O2 6533   3.125   4.103  10.392  0.1457  0.0871 -0.1590
  435MPD2     C 6534   1.155   0.115  15.496 -0.3539  0.2570  0.7652
  435MPD2    C1 6535   1.130   0.085  15.629  0.1211 -0.0542  0.0319
  435MPD2    C2 6536   1.227   0.021  15.701 -0.2960 -0.4542  0.1439
  435MPD2    C3 6537   1.344   4.709  15.647  0.2963  0.6013  0.3400
  435MPD2    C4 6538   1.361   0.000  15.511  0.7334  0.0806  0.0010
  435MPD2    C5 6539   1.263   0.062  15.438  0.4259  0.6554 -0.8286
  435MPD2     H 6540   1.210   4.740  15.806  2.8701  1.0595  1.0065
  435MPD2    H1 6541   1.443   4.695  15.460  0.8546 -0.7869  1.0172
  435MPD2    H2 6542   1.080   0.168  15.439 -0.5513 -0.5271  0.2964
  435MPD2    H3 6543   1.266   0.077  15.330  0.9239  1.3749 -0.7162
  435MPD2     N 6544   1.425   4.622  15.714  0.4496 -0.3572 -0.1974
  435MPD2    H5 6545   1.400   4.621  15.813  1.3627  3.8264  0.0788
  435MPD2    N1 6546   1.017   0.122  15.694 -0.3437  0.1965 -0.3774
  435MPD2    H7 6547   1.017   0.092  15.791 -2.0602 -0.5901 -0.6262
  436TMC3    C1 6548   0.725   0.258  15.961 -0.2297 -0.6776  0.2249
  436TMC3    C2 6549   0.829   0.215  15.888  0.4110  0.1125  0.4544
  436TMC3    C3 6550   0.811   0.200  15.748 -0.7429 -0.4313  0.0490
  436TMC3    C4 6551   0.596   0.277  15.911 -0.7037  0.2218  0.3143
  436TMC3    C5 6552   0.584   0.254  15.782  1.0395 -0.1049 -0.0484
  436TMC3    C6 6553   0.688   0.228  15.698  1.2227  0.0624 -0.0017
  436TMC3     C 6554   0.764   0.339  16.078 -0.3409  0.4293  1.0989
  436TMC3     O 6555   0.884   0.356  16.090  0.0826  0.3762 -0.2245
  436TMC3     H 6556   0.925   0.205  15.936 -0.9206  1.4455  3.3730
  436TMC3    H1 6557   0.522   0.304  15.985 -1.7305  0.6502 -0.8671
  436TMC3    H2 6558   0.664   0.223  15.593 -3.9203 -0.9376  1.2485
  436TMC3    C7 6559   0.447   0.245  15.725 -0.3380  0.2079 -0.0250
  436TMC3    C8 6560   0.916   0.201  15.654 -0.0293 -0.2443 -0.2033
  436TMC3    O1 6561   0.434   0.231  15.603 -0.2590  0.2682 -0.7371
  436TMC3    O2 6562   0.880   0.238  15.543  0.4864  0.0692  0.2894
  437TMC3    C1 6563   3.564   1.618  13.185  0.6011 -0.2634 -0.2320
  437TMC3    C2 6564   3.488   1.705  13.248 -1.1069 -0.2359  0.4362
  437TMC3    C3 6565   3.455   1.823  13.182  0.1188 -0.5632 -0.6827
  437TMC3    C4 6566   3.620   1.648  13.065 -0.2141  0.4136  0.3571
  437TMC3    C5 6567   3.595   1.764  13.005  1.0080 -0.4372  0.4235
  437TMC3    C6 6568   3.503   1.855  13.056  0.0904 -0.4562 -0.5803
  437TMC3     C 6569   3.525   1.482  13.214 -0.1289 -0.2017  0.0133
  437TMC3     O 6570   3.425   1.463  13.285  0.2246 -0.0973 -0.4745
  437TMC3     H 6571   3.452   1.684  13.348  1.7825 -0.0124  1.5226
  437TMC3    H1 6572   3.664   1.569  13.005  0.6837  0.5086  0.9038
  437TMC3    H2 6573   3.485   1.944  12.997 -0.5302  0.5626  1.1512
  437TMC3    C7 6574   3.663   1.796  12.877  0.2864 -0.2398 -0.0743
  437TMC3    C8 6575   3.343   1.898  13.219  0.2298 -0.0902  0.5350
  437TMC3    O1 6576   3.616   1.900  12.826  0.6864  0.1987  0.0388
  437TMC3    O2 6577   3.333   1.908  13.344 -0.2229  0.3094 -0.3437
  438MPD2     C 6578   2.105   2.745  16.769  0.2336 -0.6712  1.2857
  438MPD2    C1 6579   2.131   2.613  16.801  0.4019  0.4542  0.7536
  438MPD2    C2 6580   2.083   2.569  16.922  0.2999 -0.1302  1.1778
  438MPD2    C3 6581   2.020   2.658  17.013 -0.1336  0.3754 -0.3938
  438MPD2    C4 6582   1.993   2.789  16.973  0.0019  0.2059 -0.2523
  438MPD2    C5 6583   2.038   2.835  16.853 -0.0573 -0.2524  0.9419
  438MPD2     H 6584   2.112   2.466  16.933  2.7690  0.8110  3.5156
  438MPD2    H1 6585   1.942   2.857  17.040  0.6138 -0.3831  0.8075
  438MPD2    H2 6586   2.133   2.788  16.673  0.6173 -2.2581  0.6854
  438MPD2    H3 6587   2.023   2.940  16.834  0.9196 -0.2756 -0.0097
  438MPD2     N 6588   1.976   2.621  17.140  0.7059 -0.6527  0.1415
  438MPD2    H5 6589   1.946   2.702  17.192  1.8515  0.4922 -0.9709
  438MPD2    N1 6590   2.193   2.521  16.717  0.0931  0.1708 -0.0806
  438MPD2    H7 6591   2.201   2.424  16.748 -0.2308  0.6242  1.4064
  439TMC3    C1 6592   2.325   2.441  16.550 -0.1153 -0.5289  0.0987
  439TMC3    C2 6593   2.320   2.419  16.416 -0.0779 -0.7022 -0.0881
  439TMC3    C3 6594   2.352   2.298  16.365 -0.5752  0.0175 -0.3442
  439TMC3    C4 6595   2.376   2.352  16.636 -0.6954 -0.2377 -0.0332
  439TMC3    C5 6596   2.417   2.233  16.580  0.3197  0.5924 -0.3012
  439TMC3    C6 6597   2.400   2.201  16.448 -0.0784 -0.3245 -0.4602
  439TMC3     C 6598   2.253   2.551  16.604 -0.2680 -0.2796 -0.7853
  439TMC3     O 6599   2.239   2.648  16.530 -0.0469  0.5176  0.4996
  439TMC3     H 6600   2.273   2.493  16.352 -0.9830  0.8169  2.3589
  439TMC3    H1 6601   2.384   2.366  16.743 -0.5052  1.9078 -0.3245
  439TMC3    H2 6602   2.446   2.116  16.398  0.1673 -2.6161  3.6276
  439TMC3    C7 6603   2.496   2.152  16.673 -0.6488  0.2150  0.1622
  439TMC3    C8 6604   2.398   2.292  16.224  0.3687  0.5348 -0.3969
  439TMC3    O1 6605   2.543   2.206  16.773 -0.1981  0.2245 -0.0308
  439TMC3    O2 6606   2.500   2.231  16.218 -0.2378 -0.3634 -0.3356
  440MPD2     C 6607   0.844   2.744  14.276 -0.2257 -0.2143  0.0300
  440MPD2    C1 6608   0.876   2.864  14.340  0.7838  0.0464 -0.2867
  440MPD2    C2 6609   0.961   2.860  14.450 -0.1125  0.7233  0.0730
  440MPD2    C3 6610   1.014   2.740  14.494 -0.0819  0.3530  0.7092
  440MPD2    C4 6611   0.966   2.627  14.436  0.0100  0.3137 -0.0487
  440MPD2    C5 6612   0.883   2.619  14.326 -0.3094  0.3159 -0.3699
  440MPD2     H 6613   0.995   2.954  14.492 -1.3959  1.8453 -1.3827
  440MPD2    H1 6614   0.996   2.531  14.477  0.1461  0.7075  0.7840
  440MPD2    H2 6615   0.796   2.741  14.178  1.0746 -0.6944 -0.5990
  440MPD2    H3 6616   0.849   2.524  14.287  0.7273 -1.3417  2.7320
  440MPD2     N 6617   1.101   2.720  14.602 -0.0512  0.7443 -0.1714
  440MPD2    H5 6618   1.114   2.622  14.625 -1.3897  0.4531 -0.6525
  440MPD2    N1 6619   0.837   2.991  14.293  0.3158  0.3739  0.2059
  440MPD2    H7 6620   0.854   3.070  14.354 -3.0670  1.5396 -0.3613
  441TMC3    C1 6621   1.244   2.768  14.780  0.6137 -0.2301 -0.0080
  441TMC3    C2 6622   1.310   2.861  14.852 -1.0562  0.0629  0.0737
  441TMC3    C3 6623   1.328   2.835  14.986  0.8301 -0.4095 -0.7165
  441TMC3    C4 6624   1.224   2.639  14.832  0.1252  0.0749 -0.3732
  441TMC3    C5 6625   1.252   2.615  14.960 -0.1884  0.2287  0.0713
  441TMC3    C6 6626   1.295   2.714  15.037 -0.5367  0.7408  0.4991
  441TMC3     C 6627   1.162   2.817  14.670  0.2269  0.1833 -0.3819
  441TMC3     O 6628   1.157   2.937  14.655 -0.0150 -0.0252 -0.1176
  441TMC3     H 6629   1.344   2.956  14.814 -0.8776 -0.4460 -1.0228
  441TMC3    H1 6630   1.165   2.564  14.782  1.5427 -1.8839  0.8933
  441TMC3    H2 6631   1.304   2.702  15.145  0.1192 -2.8228  0.0396
  441TMC3    C7 6632   1.214   2.496  15.019 -0.2682  0.2347  0.0372
  441TMC3    C8 6633   1.335   2.947  15.081 -0.3253 -0.1084  0.6373
  441TMC3    O1 6634   1.238   2.396  14.952  0.2631  0.4279 -0.3158
  441TMC3    O2 6635   1.421   3.034  15.055  0.3196 -0.3203 -0.0771
  442MPD2     C 6636   3.820   3.640  16.414  0.0355  0.1275 -0.6399
  442MPD2    C1 6637   3.755   3.546  16.492 -0.1998 -0.4244  0.1850
  442MPD2    C2 6638   3.744   3.417  16.445 -0.1273 -0.0599  0.3433
  442MPD2    C3 6639   3.800   3.380  16.321 -0.0725  0.3498 -0.3938
  442MPD2    C4 6640   3.873   3.474  16.245  0.8704 -0.7260 -0.1913
  442MPD2    C5 6641   3.881   3.600  16.296 -0.2099 -0.8369  0.1132
  442MPD2     H 6642   3.690   3.340  16.498 -0.8499 -0.4610 -0.9667
  442MPD2    H1 6643   3.922   3.460  16.149 -0.5227 -1.8296 -0.7557
  442MPD2    H2 6644   3.830   3.745  16.439  0.4160  0.1534 -0.8884
  442MPD2    H3 6645   3.925   3.670  16.226  0.6678 -0.8908  0.6117
  442MPD2     N 6646   3.784   3.243  16.271  0.1735  0.0990  0.0806
  442MPD2    H5 6647   3.825   3.236  16.179  2.5549 -1.1497  1.2492
  442MPD2    N1 6648   3.693   3.578  16.619 -0.1214 -0.5532  0.1113
  442MPD2    H7 6649   3.644   3.498  16.656  1.5067 -1.6201 -0.0028
  443TMC3    C1 6650   3.575   3.719  16.770 -0.3454  0.4117 -0.5334
  443TMC3    C2 6651   3.486   3.795  16.703 -0.7002 -0.3072 -0.0320
  443TMC3    C3 6652   3.359   3.748  16.698  0.3448  0.1570  0.6346
  443TMC3    C4 6653   3.545   3.610  16.845 -0.6350  0.0780 -0.7487
  443TMC3    C5 6654   3.414   3.589  16.861  0.3481 -0.1240  0.0144
  443TMC3    C6 6655   3.319   3.657  16.791 -0.2918  0.2581  0.3508
  443TMC3     C 6656   3.693   3.700  16.680 -0.0182  0.0299 -0.4583
  443TMC3     O 6657   3.749   3.800  16.639  0.3022 -0.0839 -0.5081
  443TMC3     H 6658   3.522   3.866  16.629  2.4948  0.0190  1.8473
  443TMC3    H1 6659   3.624   3.553  16.892 -0.7234  0.9587  0.4626
  443TMC3    H2 6660   3.225   3.606  16.771 -0.4840  0.2288  1.3266
  443TMC3    C7 6661   3.370   3.477  16.931  1.8674 -0.5687  0.3652
  443TMC3    C8 6662   3.339   3.691  16.562  0.4359  0.6019 -0.1395
  443TMC3    O1 6663   3.437   3.378  16.934 -0.2940 -0.0309  0.0563
  443TMC3    O2 6664   3.320   3.575  16.565 -0.1556 -0.6180  0.1068
  444MPD2     C 6665   3.928   3.023  16.763  0.3475 -1.0188  0.5146
  444MPD2    C1 6666   3.818   2.959  16.725  0.3414  0.3500 -0.1756
  444MPD2    C2 6667   3.832   2.839  16.649 -0.1917  0.1261 -0.0869
  444MPD2    C3 6668   3.957   2.798  16.605 -0.3173  0.5897  0.4677
  444MPD2    C4 6669   4.071   2.875  16.640 -1.0101  0.0595  0.1290
  444MPD2    C5 6670   4.048   2.986  16.723  0.1462  0.6994  0.3668
  444MPD2     H 6671   3.743   2.786  16.617  0.6095 -0.5709 -1.1614
  444MPD2    H1 6672   4.166   2.840  16.603 -1.1133  1.9007 -1.8620
  444MPD2    H2 6673   3.923   3.107  16.831 -2.1450 -0.5097 -0.3119
  444MPD2    H3 6674   4.134   3.047  16.750  1.3165 -0.3565 -0.9792
  444MPD2     N 6675   3.967   2.671  16.544 -0.2876 -0.4422  0.4561
  444MPD2    H5 6676   3.880   2.619  16.548 -0.7277  0.2051 -0.6579
  444MPD2    N1 6677   3.688   2.972  16.788 -0.0201 -0.0113  0.4236
  444MPD2    H7 6678   3.625   2.898  16.759  0.2753 -0.0888 -0.0199
  445TMC3    C1 6679   4.043   2.464  16.464  0.3167 -0.6593 -0.1743
  445TMC3    C2 6680   3.934   2.446  16.383 -0.0382  0.0041 -0.3242
  445TMC3    C3 6681   3.921   2.326  16.311  0.0623  0.1518 -0.6153
  445TMC3    C4 6682   4.155   2.385  16.450  0.3616 -0.3760 -0.6034
  445TMC3    C5 6683   4.142   2.269  16.377  0.4281 -0.3860 -0.2021
  445TMC3    C6 6684   4.024   2.232  16.308  0.2708  0.0199 -0.1473
  445TMC3     C 6685   4.074   2.596  16.512  0.0748  0.3054  0.2460
  445TMC3     O 6686   4.196   2.617  16.521 -0.1740  0.1254 -0.4433
  445TMC3     H 6687   3.850   2.515  16.384  0.8945  1.1789 -3.0624
  445TMC3    H1 6688   4.241   2.405  16.513 -1.4138  0.8053  1.4513
  445TMC3    H2 6689   4.030   2.149  16.238 -1.8016  1.1859 -1.7156
  445TMC3    C7 6690   4.240   2.158  16.383  0.5516  0.5182  0.1970
  445TMC3    C8 6691   3.821   2.323  16.212  0.7933 -0.2428  1.2843
  445TMC3    O1 6692   4.193   2.045  16.395  0.8752 -0.8540 -0.0997
  445TMC3    O2 6693   3.798   2.433  16.162  0.3105  0.5749 -0.2283
  446MPD2     C 6694   3.176   4.069  11.116 -0.1932  0.6143  0.0850
  446MPD2    C1 6695   3.116   4.130  11.004 -0.4916  0.2224 -0.4918
  446MPD2    C2 6696   3.189   4.231  10.932 -0.0250 -0.2808 -0.0796
  446MPD2    C3 6697   3.322   4.262  10.977 -0.2840  0.0027  0.1650
  446MPD2    C4 6698   3.373   4.207  11.099  0.0359  0.6932 -0.0189
  446MPD2    C5 6699   3.307   4.101  11.155  0.0567 -0.0177  0.2862
  446MPD2     H 6700   3.145   4.279  10.846  0.8063  0.4073 -0.1132
  446MPD2    H1 6701   3.470   4.239  11.134 -1.0942  1.3426  2.4934
  446MPD2    H2 6702   3.128   3.995  11.179  0.7119  1.1149  1.3634
  446MPD2    H3 6703   3.348   4.041  11.235 -1.3249  0.0234  1.0237
  446MPD2     N 6704   3.403   4.338  10.896 -0.6338  0.5521 -0.4037
  446MPD2    H5 6705   3.355   4.398  10.829 -1.0855  2.4099  1.5815
  446MPD2    N1 6706   2.986   4.092  10.959  0.4511  0.6693 -1.0792
  446MPD2    H7 6707   2.945   4.158  10.894 -0.1725  0.1638 -1.2061
  447TMC3    C1 6708   3.582   4.455  10.827 -0.1113 -0.0530  0.2366
  447TMC3    C2 6709   3.530   4.500  10.704 -0.1149  0.3147 -0.2419
  447TMC3    C3 6710   3.613   4.584  10.633  0.2633 -0.5290 -0.3830
  447TMC3    C4 6711   3.705   4.499  10.873  0.4109 -0.3699 -0.9958
  447TMC3    C5 6712   3.776   4.591  10.796  0.3395  0.1701 -0.5836
  447TMC3    C6 6713   3.729   4.639  10.675 -0.7954 -0.9186  0.3303
  447TMC3     C 6714   3.539   4.339  10.894  0.4136 -0.5268  0.5730
  447TMC3     O 6715   3.616   4.290  10.972 -0.0931  0.0601  0.3042
  447TMC3     H 6716   3.442   4.463  10.652 -0.5540  1.8273 -0.5815
  447TMC3    H1 6717   3.745   4.466  10.968  0.5370  1.0963 -0.5506
  447TMC3    H2 6718   3.796   4.700  10.615  0.4677  1.0743  3.7480
  447TMC3    C7 6719   3.920   4.593  10.809 -0.1172  0.3596 -1.1067
  447TMC3    C8 6720   3.570   4.617  10.506 -0.6323  0.2226 -0.1752
  447TMC3    O1 6721   3.977   4.614  10.705  0.7832  0.2727  0.2681
  447TMC3    O2 6722   3.510   4.530  10.445  0.3137  0.0490 -0.1284
  448TMC3    C1 6723   2.212   4.205  17.011  0.0181  0.3956  0.4492
  448TMC3    C2 6724   2.162   4.094  16.950 -0.4872 -0.2372  0.1446
  448TMC3    C3 6725   2.216   3.970  16.981  0.5196  0.3619  0.0850
  448TMC3    C4 6726   2.330   4.203  17.081 -0.2781 -0.5934  0.2268
  448TMC3    C5 6727   2.383   4.075  17.107  0.2193  0.4514 -0.1896
  448TMC3    C6 6728   2.329   3.963  17.059  0.3737 -0.2581  0.5266
  448TMC3     C 6729   2.121   4.319  17.030 -0.0970 -0.2354  0.2836
  448TMC3     O 6730   2.125   4.377  17.139  0.2201  0.4420 -0.0983
  448TMC3     H 6731   2.063   4.098  16.907 -0.0832  3.4502 -0.4890
  448TMC3    H1 6732   2.363   4.293  17.132 -1.6365  0.5957 -0.9922
  448TMC3    H2 6733   2.382   3.869  17.067  1.9502  0.7938  2.3979
  448TMC3    C7 6734   2.465   4.054  17.223 -0.0709  0.0910 -0.0568
  448TMC3    C8 6735   2.189   3.846  16.918  0.1670  0.5481 -0.7929
  448TMC3    O1 6736   2.560   4.124  17.247  0.2086 -0.0223 -0.1068
  448TMC3    O2 6737   2.213   3.740  16.981 -0.6010  0.0146  0.5382
  449MPD2     C 6738   2.562   1.967  14.075 -1.2550  0.0927  0.1393
  449MPD2    C1 6739   2.596   2.097  14.116  0.6887  0.1007  0.8729
  449MPD2    C2 6740   2.502   2.176  14.185 -0.3606  0.1518  0.4421
  449MPD2    C3 6741   2.382   2.121  14.219  0.1365 -0.0463 -0.5283
  449MPD2    C4 6742   2.348   1.992  14.179 -0.5722  0.7079 -0.1883
  449MPD2    C5 6743   2.442   1.915  14.117  0.3477 -0.1707 -0.2246
  449MPD2     H 6744   2.519   2.279  14.214  1.0174  0.5956 -1.9524
  449MPD2    H1 6745   2.258   1.944  14.216  0.0059 -0.3945 -0.2087
  449MPD2    H2 6746   2.634   1.905  14.022 -0.2149  1.5048 -0.0830
  449MPD2    H3 6747   2.415   1.811  14.098  0.8309 -0.7186  2.0610
  449MPD2     N 6748   2.297   2.198  14.300  0.2772  0.4357  0.0244
  449MPD2    H5 6749   2.325   2.294  14.317 -1.2088  1.0334 -0.8898
  449MPD2    N1 6750   2.719   2.162  14.089  0.1630  0.3350 -0.1443
  449MPD2    H7 6751   2.737   2.251  14.134 -1.6911  0.5012  0.3003
  450TMC3    C1 6752   2.913   2.248  13.981  0.3356  0.0503 -0.5977
  450TMC3    C2 6753   2.925   2.307  13.857 -0.3109  0.4768  0.1687
  450TMC3    C3 6754   2.909   2.441  13.841 -0.5263  0.5419  0.8795
  450TMC3    C4 6755   2.901   2.330  14.087  1.1322  0.0186  0.2658
  450TMC3    C5 6756   2.878   2.465  14.072  0.0053  0.1773 -0.4351
  450TMC3    C6 6757   2.884   2.520  13.949 -0.2657 -0.0243  0.1670
  450TMC3     C 6758   2.819   2.133  13.995  0.2421  0.5837 -0.5750
  450TMC3     O 6759   2.814   2.051  13.903 -0.1266  0.4327  0.2857
  450TMC3     H 6760   2.932   2.243  13.769 -1.5144  1.6812 -0.7897
  450TMC3    H1 6761   2.904   2.287  14.187 -1.4596 -2.6283 -0.8126
  450TMC3    H2 6762   2.860   2.624  13.932  1.5585  0.6895  2.1054
  450TMC3    C7 6763   2.783   2.514  14.161  0.0401  0.2122  0.0532
  450TMC3    C8 6764   2.886   2.497  13.712  0.2826  0.4301  0.8341
  450TMC3    O1 6765   2.726   2.432  14.225  0.6437 -0.7815 -0.3276
  450TMC3    O2 6766   2.774   2.540  13.690  0.2162 -0.1736 -0.2575
  451MPD2     C 6767   0.475   0.742   0.885 -0.0008  0.1035 -0.0231
  451MPD2    C1 6768   0.418   0.786   0.769 -0.1329  0.8474 -0.1117
  451MPD2    C2 6769   0.502   0.791   0.661 -0.1130 -0.1430 -0.2105
  451MPD2    C3 6770   0.631   0.752   0.669 -0.2691  0.8103  0.2101
  451MPD2    C4 6771   0.679   0.695   0.783  0.3248 -0.2749 -0.5096
  451MPD2    C5 6772   0.600   0.698   0.893  0.4927  0.0840 -0.0838
  451MPD2     H 6773   0.466   0.835   0.569 -0.0828 -0.1377 -0.2198
  451MPD2    H1 6774   0.784   0.672   0.794 -0.3179 -1.4876  3.2457
  451MPD2    H2 6775   0.416   0.737   0.975  2.2873 -0.0794  1.4538
  451MPD2    H3 6776   0.636   0.665   0.990 -2.0540 -1.4794  0.3537
  451MPD2     N 6777   0.718   0.765   0.558 -0.2475  0.0479 -0.1451
  451MPD2    H5 6778   0.808   0.719   0.561  0.3523  1.2650  1.0168
  451MPD2    N1 6779   0.277   0.812   0.760  0.4473  0.8064  0.2974
  451MPD2    H7 6780   0.233   0.804   0.851 -0.6399 -0.8645 -0.3685
  452TMC3    C1 6781   0.740   0.774   0.333  0.1757  0.6014  0.1279
  452TMC3    C2 6782   0.732   0.634   0.335 -0.8102  0.4196 -0.1186
  452TMC3    C3 6783   0.636   0.576   0.262 -0.4091  0.5277  0.3170
  452TMC3    C4 6784   0.693   0.837   0.221 -0.6979  0.6633 -0.4549
  452TMC3    C5 6785   0.598   0.775   0.146 -0.9106  0.2027 -0.1648
  452TMC3    C6 6786   0.564   0.641   0.170  0.2329 -0.8132 -0.5433
  452TMC3     C 6787   0.692   0.844   0.451  0.2273 -1.0708  0.6128
  452TMC3     O 6788   0.609   0.936   0.434  0.1252  0.3464  0.0871
  452TMC3     H 6789   0.775   0.569   0.410 -0.6865  0.4904 -0.1276
  452TMC3    H1 6790   0.703   0.945   0.213 -0.0444  0.5848 -0.7070
  452TMC3    H2 6791   0.471   0.611   0.123  1.2187 -0.5226 -2.6591
  452TMC3    C7 6792   0.502   0.872   0.089 -0.1484  0.4527 -0.2184
  452TMC3    C8 6793   0.578   0.452   0.308 -0.3736  0.1398 -0.1920
  452TMC3    O1 6794   0.548   0.978   0.045  0.6142 -0.0742 -0.5380
  452TMC3    O2 6795   0.525   0.383   0.224  0.2494 -0.6615 -0.0141
  453TMC3    C1 6796   0.629   2.755  12.056  0.3405 -0.0567 -0.4584
  453TMC3    C2 6797   0.527   2.712  12.135  0.3009 -0.4753 -0.5050
  453TMC3    C3 6798   0.398   2.705  12.080  0.0571 -0.3685  0.6587
  453TMC3    C4 6799   0.612   2.790  11.926  0.0948 -0.0630  0.2777
  453TMC3    C5 6800   0.481   2.781  11.864  0.2304 -0.4953  0.0600
  453TMC3    C6 6801   0.378   2.751  11.951 -0.0372 -0.0853  0.4888
  453TMC3     C 6802   0.765   2.773  12.106 -0.5836  0.3916 -0.1431
  453TMC3     O 6803   0.827   2.866  12.061  0.1477  0.3476  0.0713
  453TMC3     H 6804   0.544   2.675  12.236 -0.9222 -1.0374 -0.5029
  453TMC3    H1 6805   0.698   2.812  11.863  0.3340  0.5585  0.8235
  453TMC3    H2 6806   0.286   2.716  11.905 -0.2492  3.2145 -1.5813
  453TMC3    C7 6807   0.467   2.743  11.721  0.0474  0.0250  0.4151
  453TMC3    C8 6808   0.299   2.605  12.128 -0.2544 -0.1380  0.0544
  453TMC3    O1 6809   0.355   2.703  11.681  0.3012  0.1378 -0.1663
  453TMC3    O2 6810   0.184   2.643  12.146  0.4434  0.6201 -0.1952
  454MPD2     C 6811   4.663   2.699  16.161  0.3168 -0.0264 -0.7986
  454MPD2    C1 6812   4.634   2.759  16.038  0.0835 -0.3920 -0.3496
  454MPD2    C2 6813   4.578   2.884  16.034 -0.4323 -0.6605 -0.1036
  454MPD2    C3 6814   4.543   2.946  16.153 -0.1997  0.6968  0.3588
  454MPD2    C4 6815   4.579   2.894  16.277  0.2634  0.8746  0.7002
  454MPD2    C5 6816   4.637   2.768  16.280  0.0641  0.0485 -0.1653
  454MPD2     H 6817   4.550   2.918  15.934 -0.2158  1.5337  0.5789
  454MPD2    H1 6818   4.559   2.943  16.371  1.5147  0.4730  1.1723
  454MPD2    H2 6819   4.708   2.601  16.165 -0.6770 -0.4065  0.9931
  454MPD2    H3 6820   4.661   2.721  16.375 -2.8474  0.5040  0.7905
  454MPD2     N 6821   4.467   3.066  16.148  0.5538 -0.4244  0.4455
  454MPD2    H5 6822   4.434   3.101  16.237 -0.2935  0.7278 -0.3242
  454MPD2    N1 6823   4.656   2.687  15.919  0.4964  0.0474 -0.1262
  454MPD2    H7 6824   4.633   2.731  15.830 -0.4819  1.5634  0.8518
  455TMC3    C1 6825   4.266   3.152  16.088 -0.2652 -0.3322 -0.3839
  455TMC3    C2 6826   4.246   3.246  16.189 -0.1795  1.0401  0.5976
  455TMC3    C3 6827   4.169   3.217  16.299  0.0156 -0.3352 -0.1996
  455TMC3    C4 6828   4.194   3.037  16.087 -0.2541 -0.3528 -0.6527
  455TMC3    C5 6829   4.114   3.009  16.199  0.5920 -0.4667 -0.0745
  455TMC3    C6 6830   4.096   3.099  16.301  0.1493 -0.2107 -0.0261
  455TMC3     C 6831   4.404   3.127  16.045  0.6045  0.7464 -0.6521
  455TMC3     O 6832   4.415   3.107  15.924  0.3455 -0.0812 -0.1990
  455TMC3     H 6833   4.323   3.320  16.210  2.4178 -1.1203 -1.2991
  455TMC3    H1 6834   4.235   2.953  16.032  0.4449  2.1616 -3.9562
  455TMC3    H2 6835   4.052   3.059  16.392 -0.1958  0.1502 -0.0370
  455TMC3    C7 6836   4.167   2.882  16.255 -0.2541  0.4366  0.3583
  455TMC3    C8 6837   4.177   3.311  16.409 -0.5963 -0.3230 -0.4127
  455TMC3    O1 6838   4.253   2.888  16.342  0.0363 -0.4011 -0.0509
  455TMC3    O2 6839   4.288   3.366  16.423  0.2900  0.4553  0.1872
  456MPD2     C 6840   2.414   2.649  16.057  0.2258  0.3887 -0.4343
  456MPD2    C1 6841   2.518   2.625  16.153  0.0384  0.9201  0.0151
  456MPD2    C2 6842   2.518   2.700  16.269 -0.9515 -0.2066  0.7144
  456MPD2    C3 6843   2.424   2.805  16.286 -0.9612 -1.1717 -0.7001
  456MPD2    C4 6844   2.344   2.835  16.181 -0.3044 -0.2076  0.1785
  456MPD2    C5 6845   2.330   2.758  16.069  0.5494  0.7913 -0.8246
  456MPD2     H 6846   2.580   2.675  16.355  0.7826  0.3566 -0.3624
  456MPD2    H1 6847   2.267   2.911  16.184 -0.0880  0.0350 -0.4330
  456MPD2    H2 6848   2.413   2.590  15.966 -1.0357  2.2159 -1.6036
  456MPD2    H3 6849   2.242   2.774  16.008 -0.0430  0.4779 -0.0455
  456MPD2     N 6850   2.421   2.877  16.408  0.5984  0.7007 -0.0147
  456MPD2    H5 6851   2.478   2.831  16.478 -0.6393 -1.3262 -0.3296
  456MPD2    N1 6852   2.617   2.526  16.122  0.7350 -0.1563  0.5733
  456MPD2    H7 6853   2.618   2.501  16.024 -3.0036 -1.4714  0.8726
  457TMC3    C1 6854   2.345   3.036  16.566  0.3761  0.1512  0.2267
  457TMC3    C2 6855   2.298   3.162  16.588  0.6360 -0.2224 -0.3251
  457TMC3    C3 6856   2.276   3.196  16.719 -0.0716  0.4774 -0.0847
  457TMC3    C4 6857   2.383   2.952  16.673 -0.6021 -0.2399 -0.5391
  457TMC3    C5 6858   2.371   3.007  16.798 -0.1235  0.5112 -0.6664
  457TMC3    C6 6859   2.325   3.122  16.831 -0.6041  0.4163 -0.4133
  457TMC3     C 6860   2.344   2.987  16.429  0.2370  0.1588  0.7838
  457TMC3     O 6861   2.267   3.055  16.360 -0.2969 -0.7795  0.3168
  457TMC3     H 6862   2.260   3.224  16.507  2.2159 -0.0844 -0.9635
  457TMC3    H1 6863   2.391   2.848  16.644 -1.4452  0.1788 -2.3396
  457TMC3    H2 6864   2.320   3.168  16.929  0.2596 -0.4322  0.0243
  457TMC3    C7 6865   2.421   2.926  16.914  0.3339 -0.5493  0.0439
  457TMC3    C8 6866   2.235   3.334  16.753  0.4880 -1.1640  0.0599
  457TMC3    O1 6867   2.414   2.986  17.023  0.1768 -0.3331  0.3123
  457TMC3    O2 6868   2.255   3.374  16.867 -0.4862  0.4332  0.3815
  458MPD2     C 6869   4.084   1.802  12.588  0.2303 -0.6163  0.1252
  458MPD2    C1 6870   4.112   1.740  12.707  0.7044  0.1637 -0.2096
  458MPD2    C2 6871   4.015   1.719  12.794 -0.3677 -0.0655 -0.0985
  458MPD2    C3 6872   3.885   1.750  12.772  0.1757 -0.0709  0.1978
  458MPD2    C4 6873   3.854   1.815  12.657 -0.4856 -0.5025 -0.3237
  458MPD2    C5 6874   3.955   1.837  12.565 -0.2841  0.1650  0.3488
  458MPD2     H 6875   4.032   1.660  12.884 -1.3938  1.8170  1.3351
  458MPD2    H1 6876   3.753   1.836  12.624 -0.8247  0.5109  1.3761
  458MPD2    H2 6877   4.168   1.824  12.523  1.0899 -0.7905  1.1699
  458MPD2    H3 6878   3.918   1.903  12.487 -0.6594 -0.4997 -0.0295
  458MPD2     N 6879   3.787   1.733  12.874  0.4980  0.0171 -0.4919
  458MPD2    H5 6880   3.811   1.678  12.956 -1.9018  2.4858  1.8975
  458MPD2    N1 6881   4.251   1.709  12.726 -0.3158 -0.2149  0.2564
  458MPD2    H7 6882   4.320   1.747  12.663 -0.4610  0.2476  0.3772
  459TMC3    C1 6883   4.442   1.642  12.845 -1.0132 -0.9495 -0.8174
  459TMC3    C2 6884   4.506   1.761  12.805 -0.6623 -0.1910 -0.2077
  459TMC3    C3 6885   4.642   1.753  12.819 -0.3696  0.2363 -0.4828
  459TMC3    C4 6886   4.498   1.527  12.887  0.1029  0.6891  0.6072
  459TMC3    C5 6887   4.635   1.526  12.897  0.6927 -0.1870  0.0285
  459TMC3    C6 6888   4.707   1.637  12.860  0.3547  0.8031 -0.2438
  459TMC3     C 6889   4.299   1.641  12.838 -0.8146 -0.4386  0.4572
  459TMC3     O 6890   4.244   1.571  12.921  0.9297 -0.4174  1.1399
  459TMC3     H 6891   4.463   1.853  12.768  0.2114  0.5303  0.5829
  459TMC3    H1 6892   4.436   1.442  12.911  2.0445 -0.7688  0.4795
  459TMC3    H2 6893   0.069   1.641  12.887  0.3165 -1.2441  0.2584
  459TMC3    C7 6894   4.691   1.470  13.021  0.2639  0.5768  0.2986
  459TMC3    C8 6895   4.732   1.868  12.820 -0.1794 -0.2784  0.8480
  459TMC3    O1 6896   0.070   1.452  13.015 -0.2402  0.0182  0.2161
  459TMC3    O2 6897   0.096   1.855  12.772 -0.4188  0.7631 -0.5736
  460MPD2     C 6898   3.664   0.157  10.311  0.0339  0.0238  0.3058
  460MPD2    C1 6899   3.595   0.044  10.334 -0.3601  0.1557  0.6839
  460MPD2    C2 6900   3.517   4.742  10.227  0.2339 -0.1125  0.1593
  460MPD2    C3 6901   3.495   0.082  10.118 -0.1635 -0.1745 -0.0424
  460MPD2    C4 6902   3.580   0.189  10.100  0.1668  0.5278 -0.3581
  460MPD2    C5 6903   3.660   0.227  10.195  0.6981 -0.4608  0.2270
  460MPD2     H 6904   3.456   4.653  10.240  0.3421 -0.2164 -0.0470
  460MPD2    H1 6905   3.576   0.251  10.011  0.9011  1.0948  0.0178
  460MPD2    H2 6906   3.732   0.195  10.387  1.0582 -0.4456 -0.3735
  460MPD2    H3 6907   3.717   0.317  10.173  1.5162 -1.2554 -0.8969
  460MPD2     N 6908   3.389   0.064  10.028  0.5100 -0.6917 -0.4162
  460MPD2    H5 6909   3.344   4.716  10.026  0.0778 -0.4673 -0.8505
  460MPD2    N1 6910   3.612   4.734  10.462 -0.4946 -0.0447 -0.2554
  460MPD2    H7 6911   3.656   0.056  10.526 -0.8482 -0.8400  0.7793
  461TMC3    C1 6912   3.223   0.144   9.856 -0.7808 -0.7176 -0.0116
  461TMC3    C2 6913   3.217   0.026   9.790  0.6377  0.3200  0.4107
  461TMC3    C3 6914   3.152   0.025   9.671 -0.0876  0.5566 -0.1853
  461TMC3    C4 6915   3.173   0.260   9.798  0.5414 -0.1753 -0.3291
  461TMC3    C5 6916   3.109   0.254   9.675  0.6975  0.1800 -1.1456
  461TMC3    C6 6917   3.101   0.135   9.608 -0.0725  0.3872  0.4051
  461TMC3     C 6918   3.332   0.170   9.958 -0.0287 -0.6737 -0.3737
  461TMC3     O 6919   3.352   0.286   9.984 -0.2328  0.6452 -0.0695
  461TMC3     H 6920   3.269   4.683   9.830  0.0102  0.4767  1.5511
  461TMC3    H1 6921   3.166   0.353   9.853 -1.4314 -1.3563  1.4654
  461TMC3    H2 6922   3.096   0.139   9.500 -0.3762 -1.7001  0.3313
  461TMC3    C7 6923   3.055   0.371   9.607  0.4698  0.1888  0.1172
  461TMC3    C8 6924   3.158   4.642   9.601  0.7209  0.4032  0.7799
  461TMC3    O1 6925   2.963   0.355   9.527 -0.0373  0.1309 -0.3438
  461TMC3    O2 6926   3.237   4.550   9.631 -0.7029 -0.0216 -0.5878
  462TMC3    C1 6927   4.170   0.994   0.609  0.2920  0.1176 -0.1391
  462TMC3    C2 6928   4.268   0.918   0.668  0.6899 -0.5920 -0.1014
  462TMC3    C3 6929   4.260   0.782   0.669 -0.4904 -0.5323  0.5657
  462TMC3    C4 6930   4.073   0.938   0.528 -0.2682  0.3083 -0.3903
  462TMC3    C5 6931   4.066   0.799   0.532 -0.2621 -0.2675  0.5933
  462TMC3    C6 6932   4.157   0.719   0.595 -0.8642  0.0051  0.6480
  462TMC3     C 6933   4.199   1.143   0.612 -0.0457 -0.2233  0.4436
  462TMC3     O 6934   4.290   1.193   0.676 -0.4491  0.4004 -0.4633
  462TMC3     H 6935   4.340   0.967   0.734 -0.3799 -0.5644  1.0445
  462TMC3    H1 6936   3.995   1.001   0.487 -0.1692 -0.0262 -1.0907
  462TMC3    H2 6937   4.135   0.617   0.623  2.3144 -0.3339  1.7944
  462TMC3    C7 6938   3.964   0.727   0.457  0.2896  0.0500 -0.8812
  462TMC3    C8 6939   4.387   0.709   0.663  0.3875  0.1731  0.2794
  462TMC3    O1 6940   3.989   0.607   0.446 -0.2402 -0.4668  0.1427
  462TMC3    O2 6941   4.480   0.771   0.710 -0.1353  0.1603  0.5024
  463MPD2     C 6942   0.900   3.595   1.049  0.4229 -0.2022 -0.0104
  463MPD2    C1 6943   0.827   3.704   1.074  0.7961  0.2845 -0.3311
  463MPD2    C2 6944   0.895   3.817   1.112 -0.4348  0.8062  0.2338
  463MPD2    C3 6945   1.034   3.808   1.144  0.1807 -0.4034  0.0211
  463MPD2    C4 6946   1.103   3.690   1.126  0.1345  0.2338  0.2102
  463MPD2    C5 6947   1.033   3.587   1.070  0.2930 -0.4184  0.0012
  463MPD2     H 6948   0.843   3.908   1.139 -0.0389  1.0967  0.0098
  463MPD2    H1 6949   1.208   3.678   1.152  0.1631 -0.8263 -0.3722
  463MPD2    H2 6950   0.853   3.502   1.018 -1.9865  0.5486  1.3480
  463MPD2    H3 6951   1.077   3.490   1.054 -0.2841 -0.6175 -0.3736
  463MPD2     N 6952   1.104   3.913   1.204  0.1063  0.7745 -0.1601
  463MPD2    H5 6953   1.201   3.893   1.228  0.9368  1.4294 -2.9916
  463MPD2    N1 6954   0.686   3.705   1.071 -0.0590  0.3631  0.1108
  463MPD2    H7 6955   0.652   3.790   1.113  0.7194  0.6906  0.0869
  464TMC3    C1 6956   0.464   3.647   1.072  0.5691  0.0993 -0.2556
  464TMC3    C2 6957   0.428   3.776   1.087  0.3933 -0.3923 -0.6337
  464TMC3    C3 6958   0.296   3.812   1.113  0.2198  0.4210  0.7574
  464TMC3    C4 6959   0.367   3.555   1.079  0.2337 -0.3199 -0.0746
  464TMC3    C5 6960   0.237   3.580   1.108 -0.1932  0.2117 -0.6387
  464TMC3    C6 6961   0.199   3.710   1.120  0.0707  0.2521  0.2942
  464TMC3     C 6962   0.602   3.604   1.068  0.7471  0.1131 -0.1443
  464TMC3     O 6963   0.621   3.488   1.058 -0.2774  0.5971  0.7241
  464TMC3     H 6964   0.502   3.852   1.063 -1.3763  1.2194 -0.9546
  464TMC3    H1 6965   0.400   3.451   1.083 -1.5759 -0.9153 -0.6745
  464TMC3    H2 6966   0.095   3.734   1.138  0.1309 -0.2394  1.3177
  464TMC3    C7 6967   0.138   3.481   1.071  0.1436  0.0987 -0.2818
  464TMC3    C8 6968   0.254   3.944   1.119  0.0993  0.7110 -0.9496
  464TMC3    O1 6969   0.185   3.379   1.018  0.1360  0.7043 -0.0352
  464TMC3    O2 6970   0.136   3.950   1.092  0.3280 -0.0876  0.0421
  465MPD2     C 6971   1.432   2.429  16.598 -0.1415  0.1495  0.0410
  465MPD2    C1 6972   1.351   2.516  16.668 -0.2207  0.2601  0.0858
  465MPD2    C2 6973   1.260   2.602  16.606 -0.1096 -0.1918 -0.1153
  465MPD2    C3 6974   1.259   2.612  16.472 -0.6326 -0.3463 -0.3176
  465MPD2    C4 6975   1.352   2.540  16.402 -0.2381  0.2249 -0.0759
  465MPD2    C5 6976   1.436   2.453  16.466  0.0071  0.3058  0.0471
  465MPD2     H 6977   1.197   2.668  16.665  0.8758 -1.1187  1.9961
  465MPD2    H1 6978   1.353   2.528  16.294  1.8058  0.9998 -0.1419
  465MPD2    H2 6979   1.495   2.352  16.641  1.7546  1.5936 -0.1558
  465MPD2    H3 6980   1.505   2.394  16.407  0.0089 -0.9485  1.3195
  465MPD2     N 6981   1.158   2.682  16.406  0.1253 -0.2896  0.6341
  465MPD2    H5 6982   1.092   2.729  16.466  0.4050 -0.6975  1.2583
  465MPD2    N1 6983   1.362   2.520  16.809  0.8740  0.4952  0.1267
  465MPD2    H7 6984   1.311   2.590  16.862  2.4389  0.7396  1.3398
  466TMC3    C1 6985   0.846   2.855  16.329  0.6057  1.0266  0.8154
  466TMC3    C2 6986   0.871   2.981  16.285  0.6102  0.3667 -0.0034
  466TMC3    C3 6987   0.975   2.999  16.196 -0.4832  0.6672 -0.1503
  466TMC3    C4 6988   0.932   2.757  16.308 -0.2068  1.0504  0.3809
  466TMC3    C5 6989   1.039   2.780  16.229 -0.1360 -0.6317  0.0445
  466TMC3    C6 6990   1.066   2.902  16.164  0.0852 -0.1919 -0.5780
  466TMC3     C 6991   0.804   2.856  16.470  0.3849 -0.4185 -0.0668
  466TMC3     O 6992   0.894   2.821  16.545 -0.5419 -0.4504 -0.1929
  466TMC3     H 6993   0.803   3.061  16.309  1.8421  1.3542  0.1778
  466TMC3    H1 6994   0.915   2.656  16.343  0.0483  1.5354  1.8645
  466TMC3    H2 6995   1.152   2.921  16.101  0.8833  0.3107  0.6754
  466TMC3    C7 6996   1.152   2.706  16.267  0.6435 -0.6622  0.5741
  466TMC3    C8 6997   1.016   3.139  16.177 -0.3246 -0.0045  0.8674
  466TMC3    O1 6998   1.221   2.673  16.174  0.0900 -0.0187  0.8279
  466TMC3    O2 6999   1.077   3.166  16.074  0.4638 -0.0927  0.4051
  467TMC3    C1 7000   1.948   1.097  13.434  0.1976 -0.4740 -0.6372
  467TMC3    C2 7001   1.989   1.105  13.301 -0.2116 -0.2874 -0.5353
  467TMC3    C3 7002   1.909   1.167  13.209 -0.1208 -0.9333 -0.5321
  467TMC3    C4 7003   1.835   1.155  13.468 -0.4797  0.2738 -0.2145
  467TMC3    C5 7004   1.755   1.217  13.377 -0.0213  0.1372 -0.7673
  467TMC3    C6 7005   1.801   1.231  13.251  0.2856 -0.4986  0.0353
  467TMC3     C 7006   2.055   1.081  13.530 -0.0771 -0.2931 -0.3200
  467TMC3     O 7007   2.161   1.044  13.483 -0.2112 -0.5467 -0.2119
  467TMC3     H 7008   2.088   1.075  13.269  0.5468  1.1373  0.4853
  467TMC3    H1 7009   1.794   1.137  13.566  0.0677  2.0355  0.3415
  467TMC3    H2 7010   1.741   1.284  13.178  2.0140 -0.4805 -1.3846
  467TMC3    C7 7011   1.621   1.257  13.409  0.1857  0.6345  0.5167
  467TMC3    C8 7012   1.986   1.219  13.103 -0.1438  0.0267  0.4197
  467TMC3    O1 7013   1.551   1.301  13.321  0.3588 -0.4898 -0.4686
  467TMC3    O2 7014   2.034   1.131  13.036  0.1761 -0.1053 -0.8721
  468MPD2     C 7015   0.263   4.518  10.995  0.2771 -0.5450 -0.4943
  468MPD2    C1 7016   0.386   4.492  10.929 -0.7505 -0.0855  0.3059
  468MPD2    C2 7017   0.444   4.368  10.946 -0.4113  0.8495 -0.3898
  468MPD2    C3 7018   0.398   4.278  11.034  1.1772 -0.1561  0.6139
  468MPD2    C4 7019   0.275   4.296  11.092  0.2680 -0.2892 -0.1177
  468MPD2    C5 7020   0.210   4.416  11.076  0.3672  0.1077 -0.1657
  468MPD2     H 7021   0.531   4.349  10.885  0.4426  3.9749 -0.1605
  468MPD2    H1 7022   0.213   4.216  11.129  0.4391 -0.3202  0.1055
  468MPD2    H2 7023   0.212   4.614  10.989  1.7622  0.0624 -3.0949
  468MPD2    H3 7024   0.111   4.420  11.120  1.4029  2.8921  1.8810
  468MPD2     N 7025   0.471   4.161  11.063 -0.1423 -0.8552 -0.1944
  468MPD2    H5 7026   0.414   4.099  11.119 -1.2779  0.4674  0.1026
  468MPD2    N1 7027   0.456   4.588  10.856 -0.4357  0.1726 -0.4047
  468MPD2    H7 7028   0.551   4.562  10.832  0.5481  2.5242  0.9350
  469TMC3    C1 7029   0.529   0.068  10.840 -0.3840  0.5854  0.6411
  469TMC3    C2 7030   0.649   0.019  10.802  0.6192  0.4473 -0.4896
  469TMC3    C3 7031   0.753   0.108  10.814  0.0830  0.0269 -0.5684
  469TMC3    C4 7032   0.516   0.182  10.916 -0.2705  0.2490 -0.0315
  469TMC3    C5 7033   0.637   0.254  10.938  0.8788 -0.0694  0.9467
  469TMC3    C6 7034   0.754   0.230  10.877 -0.3177 -0.1139 -0.4327
  469TMC3     C 7035   0.417   4.717  10.833  0.1609  0.0562  0.6252
  469TMC3     O 7036   0.311   0.026  10.858  0.2579 -0.0621 -0.0836
  469TMC3     H 7037   0.663   4.677  10.736  1.6298  0.7482 -0.6590
  469TMC3    H1 7038   0.421   0.204  10.963 -0.7297 -1.4227 -0.1779
  469TMC3    H2 7039   0.843   0.290  10.890 -0.7365 -0.0718  2.2468
  469TMC3    C7 7040   0.636   0.352  11.044 -0.5049 -0.9119  0.0372
  469TMC3    C8 7041   0.875   0.088  10.750  0.0656 -0.5251 -0.3186
  469TMC3    O1 7042   0.528   0.413  11.060 -0.5911  0.8443 -0.5437
  469TMC3    O2 7043   0.874   0.061  10.630  0.8482  0.1644 -0.0320
  470TMC3    C1 7044   3.415   0.470   0.689  0.1231  0.0792  0.0650
  470TMC3    C2 7045   3.406   0.603   0.661 -0.0397  0.3846  0.5355
  470TMC3    C3 7046   3.522   0.677   0.663  0.2140 -0.8799  0.3849
  470TMC3    C4 7047   3.532   0.405   0.716  0.4111  0.6301  0.7370
  470TMC3    C5 7048   3.649   0.471   0.713  0.1514 -0.1711 -0.0241
  470TMC3    C6 7049   3.640   0.603   0.685 -0.3783  0.1178 -0.8109
  470TMC3     C 7050   3.327   0.405   0.586 -0.2076 -0.0393  0.3265
  470TMC3     O 7051   3.300   0.469   0.485 -0.8668 -0.1263 -0.0062
  470TMC3     H 7052   3.315   0.660   0.648  1.5730  3.5241  3.0191
  470TMC3    H1 7053   3.521   0.303   0.753  0.6001  0.5061  0.4520
  470TMC3    H2 7054   3.735   0.656   0.680 -0.4422 -0.0456 -3.7939
  470TMC3    C7 7055   3.763   0.432   0.789 -0.4824 -0.0429  0.4440
  470TMC3    C8 7056   3.517   0.816   0.709  0.3740  0.5433 -0.8082
  470TMC3    O1 7057   3.853   0.509   0.818  0.5982 -0.1804  0.0536
  470TMC3    O2 7058   3.630   0.867   0.723 -0.6978  0.7557  0.0801
  471MPD2     C 7059   3.893   2.005  16.543  0.6340  0.5911  0.3606
  471MPD2    C1 7060   3.838   1.883  16.581  0.0606 -0.7509 -0.0533
  471MPD2    C2 7061   3.832   1.850  16.716 -0.2197 -0.5081 -0.1079
  471MPD2    C3 7062   3.887   1.940  16.813 -0.4146  0.3786  0.0982
  471MPD2    C4 7063   3.936   2.058  16.771 -0.9773 -0.5465  1.0208
  471MPD2    C5 7064   3.929   2.096  16.637  0.1767  0.3064 -0.2536
  471MPD2     H 7065   3.793   1.753  16.744  0.2337  0.1591  2.8733
  471MPD2    H1 7066   3.971   2.129  16.845 -0.5896 -0.6225  0.9078
  471MPD2    H2 7067   3.890   2.050  16.444  0.6609  0.3507  0.2499
  471MPD2    H3 7068   3.956   2.195  16.601  1.1279  0.8233  1.8180
  471MPD2     N 7069   3.900   1.916  16.950 -0.8254  0.3446 -0.5745
  471MPD2    H5 7070   3.941   1.980  17.017 -2.3332  1.5235 -0.7883
  471MPD2    N1 7071   3.792   1.793  16.490  0.1665  0.0314 -0.1319
  471MPD2    H7 7072   3.781   1.697  16.523  0.1018  0.1130  0.0816
  472TMC3    C1 7073   3.762   1.693  16.285  0.1062 -0.0375  0.1851
  472TMC3    C2 7074   3.713   1.708  16.157  0.0956  0.3546  0.3513
  472TMC3    C3 7075   3.731   1.597  16.071 -0.0842  0.1017 -0.5465
  472TMC3    C4 7076   3.818   1.575  16.326 -0.8680 -0.0703 -0.4650
  472TMC3    C5 7077   3.821   1.466  16.243  0.8154 -0.5134 -1.1615
  472TMC3    C6 7078   3.776   1.471  16.110  0.1481  0.0113  0.1305
  472TMC3     C 7079   3.798   1.809  16.360 -0.3289  0.1808  0.4968
  472TMC3     O 7080   3.811   1.908  16.288  0.1857 -0.0912 -0.4635
  472TMC3     H 7081   3.661   1.799  16.133 -1.0284 -0.8637 -1.7825
  472TMC3    H1 7082   3.845   1.565  16.430 -1.9426 -0.6908 -0.2434
  472TMC3    H2 7083   3.783   1.397  16.032  1.2090 -2.9275  3.0118
  472TMC3    C7 7084   3.805   1.346  16.318  0.3287  0.3567 -0.8937
  472TMC3    C8 7085   3.612   1.576  15.991 -0.4975  0.3012  0.3800
  472TMC3    O1 7086   3.798   1.347  16.439  0.2423  0.1233  0.6207
  472TMC3    O2 7087   3.563   1.665  15.924 -0.1154  0.4329 -0.0162
  473MPD2     C 7088   3.963   3.940  13.462 -0.6237 -0.1317 -0.1505
  473MPD2    C1 7089   3.846   4.008  13.500  0.6642 -0.1530  0.3201
  473MPD2    C2 7090   3.836   4.070  13.620 -0.6057 -0.0145  0.1033
  473MPD2    C3 7091   3.931   4.072  13.715 -0.4076  0.2887  0.5355
  473MPD2    C4 7092   4.044   3.997  13.683 -0.5435 -0.9584 -0.3292
  473MPD2    C5 7093   4.067   3.935  13.557  0.2538  0.4703  0.1654
  473MPD2     H 7094   3.750   4.135  13.623 -0.4115  0.2074  0.7028
  473MPD2    H1 7095   4.122   3.985  13.757 -3.0497 -1.0255  2.2722
  473MPD2    H2 7096   3.974   3.892  13.365 -1.0927 -0.9051  0.1809
  473MPD2    H3 7097   4.160   3.886  13.531 -1.4085 -2.6438  0.1141
  473MPD2     N 7098   3.914   4.126  13.843 -0.1901 -0.1120  0.4247
  473MPD2    H5 7099   3.996   4.133  13.902 -0.1419  0.3331  0.3013
  473MPD2    N1 7100   3.728   4.018  13.418  0.3001  0.0936  0.1491
  473MPD2    H7 7101   3.646   4.056  13.463 -0.0815 -0.0889 -0.3906
  474TMC3    C1 7102   3.830   4.267  14.017 -0.2217  0.1454 -0.4437
  474TMC3    C2 7103   3.746   4.371  14.043 -0.3030  0.4302  0.1367
  474TMC3    C3 7104   3.778   4.464  14.135 -0.1595  0.1697  0.4888
  474TMC3    C4 7105   3.955   4.254  14.080 -0.1512 -0.4923 -1.0140
  474TMC3    C5 7106   3.969   4.342  14.185 -0.3244  0.6683 -0.1914
  474TMC3    C6 7107   3.888   4.451  14.216 -0.7141 -0.6330  0.8701
  474TMC3     C 7108   3.806   4.196  13.892  0.1408  0.0759 -0.3999
  474TMC3     O 7109   3.704   4.214  13.833  0.4782  0.0734  0.1697
  474TMC3     H 7110   3.655   4.383  13.984 -0.0431  1.4104 -0.0653
  474TMC3    H1 7111   4.016   4.164  14.076  1.0674  0.0476  4.4884
  474TMC3    H2 7112   3.910   4.537  14.278  0.3741 -0.9691  0.9431
  474TMC3    C7 7113   4.101   4.328  14.246 -0.1798 -0.5790 -0.0587
  474TMC3    C8 7114   3.735   4.603  14.102 -0.9451  0.0407  0.4698
  474TMC3    O1 7115   4.195   4.282  14.175 -0.8697  0.3646 -0.4684
  474TMC3    O2 7116   3.805   4.691  14.152  0.4716 -0.3003 -0.2003
  475MPD2     C 7117   1.474   2.041  10.956 -0.3765 -0.4494 -0.4857
  475MPD2    C1 7118   1.416   2.167  10.967  0.0906  0.3800 -0.3107
  475MPD2    C2 7119   1.278   2.172  10.970  0.6117  0.3646 -0.5191
  475MPD2    C3 7120   1.200   2.055  10.992  0.5061  0.6598 -0.2031
  475MPD2    C4 7121   1.262   1.930  11.016  0.2783 -0.7917  0.4618
  475MPD2    C5 7122   1.398   1.929  10.989  0.0706 -0.3233 -0.0871
  475MPD2     H 7123   1.225   2.266  10.956  0.6350  0.4129 -0.2870
  475MPD2    H1 7124   1.203   1.843  11.041  0.9263 -1.1353  0.8152
  475MPD2    H2 7125   1.581   2.026  10.946 -0.2115 -0.1747  0.8762
  475MPD2    H3 7126   1.457   1.839  11.000 -0.5779 -0.7201  0.1032
  475MPD2     N 7127   1.059   2.076  11.004  0.0249 -0.0540 -0.1917
  475MPD2    H5 7128   1.025   2.169  10.983 -0.0893  0.0827  0.5806
  475MPD2    N1 7129   1.488   2.288  10.967 -0.3293  0.0341 -0.3962
  475MPD2    H7 7130   1.428   2.368  10.986  0.9406  0.8902  0.0431
  476TMC3    C1 7131   1.656   2.446  10.928  0.5099  0.5699  0.4518
  476TMC3    C2 7132   1.632   2.505  10.812  0.2936  0.7076 -0.1896
  476TMC3    C3 7133   1.551   2.615  10.805  0.3352 -0.4219 -0.3663
  476TMC3    C4 7134   1.615   2.505  11.044  0.2259  0.3102  0.5498
  476TMC3    C5 7135   1.567   2.635  11.038 -0.6967 -0.0905 -0.0738
  476TMC3    C6 7136   1.537   2.695  10.916 -0.1250 -0.2019  0.7456
  476TMC3     C 7137   1.620   2.307  10.925  0.2708  0.0038  1.1425
  476TMC3     O 7138   1.670   2.230  10.845  0.2473  0.1525 -0.1745
  476TMC3     H 7139   1.656   2.447  10.724 -1.5207 -3.2150  1.9358
  476TMC3    H1 7140   1.605   2.441  11.131 -1.4154 -1.3809 -0.8795
  476TMC3    H2 7141   1.472   2.781  10.927  1.8181  1.3787 -0.0070
  476TMC3    C7 7142   1.520   2.697  11.162 -0.0252 -0.0233  0.2942
  476TMC3    C8 7143   1.425   2.583  10.732 -0.1094 -0.1026 -0.7769
  476TMC3    O1 7144   1.509   2.628  11.259  0.1597  0.5159  0.5700
  476TMC3    O2 7145   1.339   2.668  10.712 -0.0500 -0.1216  0.4375
  477MPD2     C 7146   4.144   3.567  11.482 -0.4695 -0.1893  0.3647
  477MPD2    C1 7147   4.009   3.549  11.474 -0.3199  0.5657  0.3086
  477MPD2    C2 7148   3.960   3.456  11.561  0.1329  0.2590  0.2973
  477MPD2    C3 7149   4.039   3.383  11.643  0.4754  0.5584  0.0087
  477MPD2    C4 7150   4.174   3.404  11.647 -0.5314  0.0737  0.0909
  477MPD2    C5 7151   4.227   3.501  11.570  0.7232 -0.5696  0.0292
  477MPD2     H 7152   3.853   3.437  11.562  0.0447  0.7180 -2.6324
  477MPD2    H1 7153   4.249   3.355  11.708 -0.9075 -1.1654 -0.4321
  477MPD2    H2 7154   4.193   3.638  11.416  2.2854 -2.9931 -0.6080
  477MPD2    H3 7155   4.330   3.525  11.592 -0.1795  0.5558  3.1009
  477MPD2     N 7156   3.990   3.272  11.722 -0.3431  0.0975  0.0324
  477MPD2    H5 7157   4.064   3.227  11.775  1.7647  2.8608 -0.5552
  477MPD2    N1 7158   3.939   3.627  11.378 -0.0430 -0.7443 -0.1722
  477MPD2    H7 7159   3.995   3.697  11.330  1.6520 -1.2480  1.0699
  478TMC3    C1 7160   3.779   3.714  11.232 -0.0059 -0.0119  0.1751
  478TMC3    C2 7161   3.842   3.829  11.244 -0.5821 -0.3313 -0.3403
  478TMC3    C3 7162   3.782   3.939  11.190 -0.5490 -0.7280  0.1254
  478TMC3    C4 7163   3.665   3.692  11.159 -0.6478 -0.1996 -0.3012
  478TMC3    C5 7164   3.621   3.805  11.091 -0.1568  0.2849  0.2239
  478TMC3    C6 7165   3.679   3.927  11.105 -0.7879 -0.2361  0.0036
  478TMC3     C 7166   3.816   3.611  11.329 -0.1772 -0.1760 -0.5063
  478TMC3     O 7167   3.739   3.519  11.352  0.2562 -0.3971  1.0746
  478TMC3     H 7168   3.921   3.845  11.316 -0.2274  2.0893 -1.2640
  478TMC3    H1 7169   3.614   3.596  11.159  0.7994 -0.9783 -1.1157
  478TMC3    H2 7170   3.653   4.020  11.055 -0.9548 -0.4003 -0.2128
  478TMC3    C7 7171   3.504   3.794  11.005 -0.1897 -0.5134  0.0462
  478TMC3    C8 7172   3.843   4.059  11.224 -0.0336  0.6509 -0.4262
  478TMC3    O1 7173   3.443   3.691  11.013  0.4926  0.3930  0.0341
  478TMC3    O2 7174   3.963   4.047  11.253  0.4484  0.2848 -0.0407
  479MPD2     C 7175   3.664   1.322  15.254 -0.4081 -0.2012  0.0620
  479MPD2    C1 7176   3.596   1.219  15.322 -0.2201  0.0079 -0.2214
  479MPD2    C2 7177   3.610   1.208  15.460 -0.5797 -0.3237 -0.0655
  479MPD2    C3 7178   3.682   1.299  15.537  0.2393  0.4336  0.2166
  479MPD2    C4 7179   3.752   1.391  15.464  0.7698 -0.5152  0.4156
  479MPD2    C5 7180   3.752   1.404  15.327  0.2050  0.5298  0.3896
  479MPD2     H 7181   3.557   1.123  15.502  0.1011 -0.1810  1.0670
  479MPD2    H1 7182   3.822   1.457  15.514  0.6677 -1.2469  1.5303
  479MPD2    H2 7183   3.643   1.349  15.151 -1.4322 -0.0979  0.2918
  479MPD2    H3 7184   3.814   1.476  15.274 -0.5282  1.3992  0.7132
  479MPD2     N 7185   3.709   1.294  15.677  0.2602 -0.4454 -0.2939
  479MPD2    H5 7186   3.776   1.364  15.708 -1.6551  1.4043 -0.3638
  479MPD2    N1 7187   3.505   1.148  15.237 -0.3917 -0.0309 -0.2913
  479MPD2    H7 7188   3.523   1.166  15.138 -1.2848 -2.0259 -0.8137
  480TMC3    C1 7189   3.355   1.009  15.865 -0.1098  0.5933  0.2154
  480TMC3    C2 7190   3.258   1.075  15.790 -0.7278 -0.3400  0.1333
  480TMC3    C3 7191   3.293   1.178  15.709  0.6638 -0.0875 -0.6857
  480TMC3    C4 7192   3.484   1.050  15.841  0.3968 -0.1741 -0.3866
  480TMC3    C5 7193   3.515   1.157  15.758 -0.5583 -0.2411  0.6315
  480TMC3    C6 7194   3.417   1.229  15.696  0.0428  1.0574  0.4263
  480TMC3     C 7195   3.343   0.871  15.897 -0.3814 -0.3365  0.0751
  480TMC3     O 7196   3.438   0.823  15.957 -0.2796  0.6238 -0.9250
  480TMC3     H 7197   3.152   1.055  15.803 -0.4799 -1.7235 -0.0194
  480TMC3    H1 7198   3.573   0.998  15.875 -0.0687  0.3425  1.6011
  480TMC3    H2 7199   3.441   1.327  15.656 -2.2372  2.2623  1.9573
  480TMC3    C7 7200   3.645   1.224  15.777  0.0479 -0.5049 -0.1497
  480TMC3    C8 7201   3.189   1.221  15.622  0.7728 -0.0218  0.4262
  480TMC3    O1 7202   3.692   1.216  15.890 -0.0127  0.6906 -0.6208
  480TMC3    O2 7203   3.073   1.219  15.650  0.6041 -0.1638  0.2147
  481MPD2     C 7204   0.403   0.704  14.176  0.6514 -0.6375  0.4139
  481MPD2    C1 7205   0.276   0.725  14.228  0.2927 -0.0675 -0.2305
  481MPD2    C2 7206   0.266   0.736  14.368 -0.0173 -0.7816 -0.3567
  481MPD2    C3 7207   0.379   0.728  14.452 -0.5239  0.0750 -0.1894
  481MPD2    C4 7208   0.497   0.690  14.393 -0.1340 -0.0198 -0.1102
  481MPD2    C5 7209   0.515   0.681  14.254 -0.5836 -0.7367 -0.4838
  481MPD2     H 7210   0.167   0.757  14.406  0.3044 -0.8632  0.5399
  481MPD2    H1 7211   0.583   0.693  14.459  0.2167  3.6517 -0.7247
  481MPD2    H2 7212   0.411   0.695  14.068  1.5309  0.2339  0.3985
  481MPD2    H3 7213   0.610   0.676  14.202 -2.0900 -1.1192 -3.1898
  481MPD2     N 7214   0.378   0.751  14.594 -0.0686  0.5028 -0.2586
  481MPD2    H5 7215   0.463   0.724  14.642  0.0155 -2.6221 -2.1926
  481MPD2    N1 7216   0.161   0.727  14.143 -0.1336  0.0070 -0.9645
  481MPD2    H7 7217   0.184   0.743  14.046 -0.0929  1.0492 -0.7811
  482TMC3    C1 7218   4.673   0.727  14.074 -0.2721 -1.0076  0.6731
  482TMC3    C2 7219   4.547   0.662  14.088  0.1737  0.3990 -0.0862
  482TMC3    C3 7220   4.444   0.697  14.002  0.1826  0.4792 -0.7533
  482TMC3    C4 7221   4.680   0.836  13.985 -0.3738  0.6737  0.4696
  482TMC3    C5 7222   4.563   0.882  13.930 -0.1085 -0.2342 -0.0367
  482TMC3    C6 7223   4.446   0.811  13.925  0.2164  0.1517  0.1814
  482TMC3     C 7224   0.034   0.694  14.172  0.7294  0.7769  0.0111
  482TMC3     O 7225   4.734   0.629  14.268  0.0894  0.4125 -0.3340
  482TMC3     H 7226   4.544   0.574  14.152  1.5520 -0.3291 -1.0127
  482TMC3    H1 7227   0.021   0.904  13.980 -1.6703  1.9139 -3.9994
  482TMC3    H2 7228   4.359   0.846  13.871 -0.5458  1.4148  2.2598
  482TMC3    C7 7229   4.574   0.989  13.834  0.2098  0.4600 -0.6422
  482TMC3    C8 7230   4.363   0.585  13.959 -0.2554 -0.2098  0.0947
  482TMC3    O1 7231   4.673   1.012  13.765  0.2138  0.6884 -0.7054
  482TMC3    O2 7232   4.376   0.484  14.026 -0.2813 -0.6657 -0.5970
  483TMC3    C1 7233   2.951   4.162   0.936 -0.4635  0.3454  0.1322
  483TMC3    C2 7234   3.010   4.282   0.971 -0.2669  0.3113 -0.0194
  483TMC3    C3 7235   3.113   4.269   1.062  0.6990  0.0064  0.3654
  483TMC3    C4 7236   2.974   4.045   1.000 -0.2672  0.7296  0.6933
  483TMC3    C5 7237   3.080   4.045   1.097  0.2522 -0.1009 -0.9042
  483TMC3    C6 7238   3.158   4.158   1.121  0.6410 -0.0744 -0.0842
  483TMC3     C 7239   2.835   4.176   0.850  0.0171  0.1565  0.2955
  483TMC3     O 7240   2.797   4.291   0.832  0.2985 -0.4648 -0.0346
  483TMC3     H 7241   3.000   4.372   0.912 -0.6953  1.1347  1.3208
  483TMC3    H1 7242   2.919   3.952   0.990 -1.9881  1.8088 -0.0716
  483TMC3    H2 7243   3.241   4.159   1.191  0.4379  1.5960  0.1309
  483TMC3    C7 7244   3.143   3.917   1.126  0.3148  0.6072  0.3419
  483TMC3    C8 7245   3.198   4.382   1.080 -0.4654 -0.9400  0.1169
  483TMC3    O1 7246   3.106   3.822   1.062 -0.3619 -0.2563  0.0190
  483TMC3    O2 7247   3.246   4.406   1.191  0.6083  0.3212 -0.2116
  484MPD2     C 7248   4.658   2.193  12.971 -0.1680  0.3596  0.3549
  484MPD2    C1 7249   4.726   2.098  12.893 -0.8028  0.2879 -0.3141
  484MPD2    C2 7250   0.095   2.144  12.819 -0.5336 -0.1810  0.4488
  484MPD2    C3 7251   0.150   2.271  12.848 -0.4401 -0.0268  0.4956
  484MPD2    C4 7252   0.092   2.351  12.941  0.7705 -0.2688  1.4150
  484MPD2    C5 7253   4.713   2.317  12.993  0.3379  1.0296  0.1534
  484MPD2     H 7254   0.140   2.081  12.743  2.5889  1.7880  0.6506
  484MPD2    H1 7255   0.135   2.447  12.966 -2.0673  1.1862  0.7460
  484MPD2    H2 7256   4.560   2.174  13.012 -0.3562 -0.9116 -0.6863
  484MPD2    H3 7257   4.668   2.382  13.067  0.7963  3.1026 -1.3862
  484MPD2     N 7258   0.264   2.323  12.784  0.9700 -0.7536 -0.1157
  484MPD2    H5 7259   0.304   2.414  12.805 -0.1395  0.2156 -2.1471
  484MPD2    N1 7260   4.665   1.973  12.877  0.3321 -1.0546  0.1502
  484MPD2    H7 7261   4.584   1.949  12.934 -1.7933  4.6866 -0.4673
  485TMC3    C1 7262   0.428   2.325  12.607  0.7748 -0.0622  0.3763
  485TMC3    C2 7263   0.548   2.299  12.673  0.2363  0.3111  0.0207
  485TMC3    C3 7264   0.668   2.296  12.607  0.3248  0.5221 -0.4480
  485TMC3    C4 7265   0.426   2.298  12.474 -0.1548  0.0447  0.4578
  485TMC3    C5 7266   0.543   2.269  12.410  0.8111 -0.0382  0.4698
  485TMC3    C6 7267   0.660   2.289  12.470  0.1019  0.2853  0.2190
  485TMC3     C 7268   0.316   2.260  12.667  0.2992  0.9596  0.6627
  485TMC3     O 7269   0.252   2.186  12.591  0.0227  0.2449 -0.3003
  485TMC3     H 7270   0.555   2.316  12.779  0.6855  2.8879 -0.4189
  485TMC3    H1 7271   0.333   2.301  12.418 -0.5635 -1.4526  1.0799
  485TMC3    H2 7272   0.754   2.269  12.421 -1.2685 -0.9115 -1.9282
  485TMC3    C7 7273   0.543   2.138  12.342 -0.9477 -0.6401  0.3298
  485TMC3    C8 7274   0.778   2.209  12.652  0.3569 -0.4118  0.2868
  485TMC3    O1 7275   0.650   2.108  12.286 -0.0311 -0.5167 -0.1929
  485TMC3    O2 7276   0.865   2.179  12.574  0.3072  0.4499  0.4500
  486MPD2     C 7277   2.687   0.966  12.757 -0.7993  0.0540 -0.2300
  486MPD2    C1 7278   2.553   0.941  12.774 -0.1739  0.1394  0.1681
  486MPD2    C2 7279   2.454   1.024  12.738 -0.2812  0.4635  0.4615
  486MPD2    C3 7280   2.493   1.154  12.699  0.8422 -0.6992  0.0226
  486MPD2    C4 7281   2.628   1.187  12.680  0.7092  0.3710  0.8681
  486MPD2    C5 7282   2.722   1.090  12.706 -0.2630 -0.6697 -0.0228
  486MPD2     H 7283   2.349   1.010  12.762 -0.2247 -1.3611 -0.4004
  486MPD2    H1 7284   2.661   1.287  12.655  5.7908 -1.5599 -0.1707
  486MPD2    H2 7285   2.768   0.897  12.779 -1.5940 -0.4605  1.0770
  486MPD2    H3 7286   2.826   1.109  12.683  0.5440 -3.5799  1.3488
  486MPD2     N 7287   2.395   1.248  12.672 -0.8549  0.2418 -0.2492
  486MPD2    H5 7288   2.301   1.208  12.675 -0.6742 -0.2398 -1.0635
  486MPD2    N1 7289   2.524   0.814  12.823 -0.2968 -0.1067 -0.5504
  486MPD2    H7 7290   2.608   0.759  12.839  0.9357  1.5844 -1.2435
  487TMC3    C1 7291   2.412   0.645  12.940 -1.3058  0.0243  0.0955
  487TMC3    C2 7292   2.305   0.563  12.946  0.0693  0.1988 -0.1173
  487TMC3    C3 7293   2.322   0.460  13.035 -0.3339 -0.2299  0.7025
  487TMC3    C4 7294   2.524   0.633  13.010  0.1024  0.2007 -0.8932
  487TMC3    C5 7295   2.536   0.530  13.093  0.2474 -1.0440  0.2657
  487TMC3    C6 7296   2.434   0.442  13.107  0.5061 -0.3133  0.0083
  487TMC3     C 7297   2.399   0.757  12.848 -0.6023 -0.0743  0.5994
  487TMC3     O 7298   2.283   0.802  12.846 -0.1283  0.1162 -0.7656
  487TMC3     H 7299   2.218   0.578  12.882  0.8196 -0.3189 -1.2495
  487TMC3    H1 7300   2.608   0.700  13.021  1.4774 -1.6155 -0.2644
  487TMC3    H2 7301   2.451   0.349  13.159 -1.6677 -0.6730  0.0756
  487TMC3    C7 7302   2.610   0.548  13.216  0.6977  0.6459  0.0899
  487TMC3    C8 7303   2.206   0.428  13.108  0.1853  0.6631 -0.7910
  487TMC3    O1 7304   2.713   0.612  13.217  0.1530  0.1145  0.1307
  487TMC3    O2 7305   2.237   0.406  13.226 -0.5075 -0.1781 -0.2838
  488MPD2     C 7306   3.117   2.637  16.235  0.0824 -0.1396  0.7160
  488MPD2    C1 7307   3.204   2.721  16.295 -0.6556 -0.3944  0.4759
  488MPD2    C2 7308   3.238   2.707  16.430 -0.0470  0.7849  0.0050
  488MPD2    C3 7309   3.168   2.622  16.509  0.4958 -0.7829  0.1307
  488MPD2    C4 7310   3.085   2.530  16.451  0.3263  0.5326 -0.3150
  488MPD2    C5 7311   3.054   2.542  16.317  0.3474 -0.5584  0.1978
  488MPD2     H 7312   3.324   2.765  16.462 -0.7704  2.7253 -1.5366
  488MPD2    H1 7313   3.032   2.456  16.510 -1.2363  1.4803 -0.5301
  488MPD2    H2 7314   3.086   2.646  16.132  1.7006  4.0648  0.5953
  488MPD2    H3 7315   2.984   2.470  16.276 -0.3244  1.4339 -2.1455
  488MPD2     N 7316   3.189   2.631  16.647  0.0990 -0.4121  0.3215
  488MPD2    H5 7317   3.230   2.720  16.672  0.8209 -0.9335  1.0190
  488MPD2    N1 7318   3.271   2.825  16.226 -0.0333  0.1155  0.4917
  488MPD2    H7 7319   3.320   2.890  16.286 -1.3183  0.5708  1.0319
  489TMC3    C1 7320   3.138   2.622  16.874 -0.1811  0.0555  0.7295
  489TMC3    C2 7321   3.181   2.750  16.885  0.1855  0.2437 -0.0434
  489TMC3    C3 7322   3.166   2.821  17.003 -0.0173 -0.1653  0.3050
  489TMC3    C4 7323   3.074   2.563  16.981  0.1167  0.1420  0.6126
  489TMC3    C5 7324   3.043   2.636  17.089  0.2212 -0.0591  0.0683
  489TMC3    C6 7325   3.092   2.764  17.106 -0.4500 -0.3296  0.2040
  489TMC3     C 7326   3.124   2.557  16.743  0.0359 -0.4536  0.4349
  489TMC3     O 7327   3.078   2.440  16.729 -0.4360 -0.0718  0.6669
  489TMC3     H 7328   3.249   2.794  16.813  0.0817 -0.9979 -0.8957
  489TMC3    H1 7329   3.037   2.463  16.965  0.9690 -0.4256  2.1739
  489TMC3    H2 7330   3.071   2.811  17.201 -2.4046 -1.9221  0.5588
  489TMC3    C7 7331   2.979   2.579  17.203  0.3453  0.2662 -0.2811
  489TMC3    C8 7332   3.184   2.967  16.995 -0.3915  0.3464 -0.0145
  489TMC3    O1 7333   2.991   2.640  17.308  0.1012 -0.1808 -0.3108
  489TMC3    O2 7334   3.262   3.009  16.911 -0.2206 -0.2831  0.5749
  490MPD2     C 7335   4.014   2.541  16.942 -0.9445 -0.1171 -0.6366
  490MPD2    C1 7336   3.949   2.543  17.060 -0.3560 -0.1058 -0.6223
  490MPD2    C2 7337   3.972   2.650  17.149 -0.4768 -0.4058  0.0456
  490MPD2    C3 7338   4.065   2.746  17.116 -0.3782  0.4967 -0.0436
  490MPD2    C4 7339   4.123   2.744  16.988 -0.4973 -1.0925 -0.0183
  490MPD2    C5 7340   4.104   2.642  16.899 -0.5036  0.7577  0.5761
  490MPD2     H 7341   3.934   2.653  17.250  0.0248 -1.7786  0.2682
  490MPD2    H1 7342   4.205   2.808  16.959 -1.6382  1.0941  1.5934
  490MPD2    H2 7343   3.998   2.461  16.871 -1.1862 -1.5051  0.9619
  490MPD2    H3 7344   4.151   2.631  16.802 -0.0707  0.5350  0.8095
  490MPD2     N 7345   4.117   2.847  17.207  0.0166  0.5451 -0.7003
  490MPD2    H5 7346   4.197   2.897  17.170  1.8008 -0.8350  1.2887
  490MPD2    N1 7347   3.857   2.443  17.098 -0.1582  0.2448 -0.2612
  490MPD2    H7 7348   3.820   2.456  17.192 -1.9294 -1.2173 -0.7549
  491TMC3    C1 7349   3.724   2.246  17.080  0.2815  0.1045 -0.5058
  491TMC3    C2 7350   3.756   2.215  17.208  0.0486  0.2020 -0.6584
  491TMC3    C3 7351   3.682   2.112  17.263 -0.6372  0.0741  0.1785
  491TMC3    C4 7352   3.620   2.187  17.014  0.2970 -0.7979 -0.1711
  491TMC3    C5 7353   3.545   2.094  17.079 -0.1627 -0.3053 -0.4646
  491TMC3    C6 7354   3.580   2.049  17.202 -0.2230 -0.6362  0.5107
  491TMC3     C 7355   3.804   2.342  17.009  0.1192  0.0416  0.1520
  491TMC3     O 7356   3.805   2.334  16.889 -0.2556  0.1820  0.3122
  491TMC3     H 7357   3.841   2.255  17.264 -1.8670  0.8187  1.8131
  491TMC3    H1 7358   3.603   2.219  16.912 -3.4016  1.0550  1.0279
  491TMC3    H2 7359   3.528   1.977  17.265 -2.9889  1.2008  0.3254
  491TMC3    C7 7360   3.450   2.020  17.003 -0.1429  0.4492 -0.2444
  491TMC3    C8 7361   3.703   2.083  17.402  0.3538  0.8900  0.7688
  491TMC3    O1 7362   3.420   1.911  17.044  0.6928 -0.0839 -0.0617
  491TMC3    O2 7363   3.674   1.969  17.438  0.0660 -0.1100 -0.3087
  492MPD2     C 7364   2.998   2.549  11.464  0.5000  0.1220 -0.0183
  492MPD2    C1 7365   3.039   2.457  11.371 -0.5657 -0.0352 -0.5551
  492MPD2    C2 7366   3.077   2.329  11.415  0.4036 -0.5465  0.0940
  492MPD2    C3 7367   3.061   2.298  11.549 -1.0506 -0.4102  0.4081
  492MPD2    C4 7368   3.016   2.392  11.636  0.3938  0.1939  0.0686
  492MPD2    C5 7369   2.980   2.516  11.593  0.1975  0.3035 -0.7545
  492MPD2     H 7370   3.106   2.251  11.345 -0.8274 -0.3040 -0.6795
  492MPD2    H1 7371   3.029   2.367  11.741 -0.1484  0.5302  0.2124
  492MPD2    H2 7372   2.976   2.653  11.444  0.3225  0.0307 -0.2942
  492MPD2    H3 7373   2.945   2.596  11.657  0.2578 -1.9733  2.1377
  492MPD2     N 7374   3.098   2.173  11.608  0.2056 -0.4985 -0.1464
  492MPD2    H5 7375   3.064   2.149  11.701  0.3883  0.1509  0.0888
  492MPD2    N1 7376   3.057   2.513  11.237  0.7797 -0.0369  0.2788
  492MPD2    H7 7377   3.031   2.607  11.210 -0.0818  0.0060  1.2659
  493TMC3    C1 7378   3.138   2.534  11.023 -0.0794  0.4428 -0.2921
  493TMC3    C2 7379   3.145   2.669  11.043  0.1188 -0.2674  1.0474
  493TMC3    C3 7380   3.109   2.742  10.933  0.1995  0.5793  1.0102
  493TMC3    C4 7381   3.117   2.479  10.900 -0.0259  0.4369  0.8932
  493TMC3    C5 7382   3.095   2.560  10.794 -0.3978 -0.4936 -0.3105
  493TMC3    C6 7383   3.091   2.696  10.805  0.2749  0.0105  0.4451
  493TMC3     C 7384   3.119   2.444  11.137 -0.9073 -0.0271 -0.1240
  493TMC3     O 7385   3.134   2.325  11.126 -0.1312 -0.3316 -0.2698
  493TMC3     H 7386   3.172   2.714  11.138 -0.5923  0.9864  0.6511
  493TMC3    H1 7387   3.104   2.371  10.898  0.2785  0.3866  1.4938
  493TMC3    H2 7388   3.070   2.764  10.724  3.3898  0.6449  0.1806
  493TMC3    C7 7389   3.057   2.492  10.667  0.2218  0.0345 -0.0793
  493TMC3    C8 7390   3.089   2.883  10.967  0.0943  0.1756  0.2174
  493TMC3    O1 7391   2.984   2.549  10.587 -0.7452  0.9066 -0.9429
  493TMC3    O2 7392   3.056   2.902  11.085  0.1321 -0.3495  0.2477
  494TMC3    C1 7393   4.364   4.103   0.261 -0.5575  0.2599 -0.1876
  494TMC3    C2 7394   4.404   3.979   0.305  0.2170 -1.0986  0.6397
  494TMC3    C3 7395   4.498   3.915   0.228 -0.5047 -0.3758  0.4935
  494TMC3    C4 7396   4.415   4.161   0.145  0.0396  0.2040 -0.6179
  494TMC3    C5 7397   4.515   4.096   0.077 -0.4550 -0.1059  0.1515
  494TMC3    C6 7398   4.562   3.978   0.122 -0.5312  0.8906  0.3800
  494TMC3     C 7399   4.335   4.187   0.369  0.3296  0.4582 -0.4697
  494TMC3     O 7400   4.376   4.163   0.479  0.3796 -0.2970  0.0646
  494TMC3     H 7401   4.358   3.934   0.392 -1.6942 -0.8415 -0.2577
  494TMC3    H1 7402   4.367   4.253   0.113  1.8519  1.2168 -0.4361
  494TMC3    H2 7403   4.635   3.926   0.061 -1.0322  1.9568 -1.1473
  494TMC3    C7 7404   4.584   4.167  17.744  0.4769  0.3431  0.0297
  494TMC3    C8 7405   4.548   3.783   0.257 -0.0988 -0.3109  0.2033
  494TMC3    O1 7406   4.692   4.119  17.718  0.3573  0.8621 -0.7138
  494TMC3    O2 7407   4.667   3.757   0.232 -0.0251  0.5100 -0.1652
  495TMC3    C1 7408   3.567   1.610  14.760  0.7898  0.6569  0.6479
  495TMC3    C2 7409   3.476   1.618  14.660 -0.2855 -0.9597 -0.2245
  495TMC3    C3 7410   3.341   1.616  14.687 -0.3937 -0.0451  0.3063
  495TMC3    C4 7411   3.530   1.583  14.888 -0.4876  0.1418 -0.0447
  495TMC3    C5 7412   3.400   1.558  14.913  0.4547 -0.2656  0.1271
  495TMC3    C6 7413   3.301   1.587  14.818  0.0591  0.4935  0.1791
  495TMC3     C 7414   3.682   1.533  14.731  0.7253 -0.1182  0.2099
  495TMC3     O 7415   3.715   1.445  14.814  0.3572  0.5347 -0.1906
  495TMC3     H 7416   3.508   1.632  14.557  0.1100  0.3755  0.0820
  495TMC3    H1 7417   3.602   1.559  14.965 -0.1614 -1.7471 -0.9458
  495TMC3    H2 7418   3.194   1.577  14.827  0.0485  0.6613  0.2388
  495TMC3    C7 7419   3.363   1.529  15.055 -0.0004 -0.5446 -0.1042
  495TMC3    C8 7420   3.260   1.544  14.591 -0.5080 -0.0747 -0.1546
  495TMC3    O1 7421   3.455   1.511  15.139  0.0526 -0.6910  0.0317
  495TMC3    O2 7422   3.139   1.561  14.608 -0.2365  0.1869 -0.0583
  496MPD2     C 7423   0.485   1.774  14.934 -0.3009  0.3270  0.4156
  496MPD2    C1 7424   0.537   1.726  15.053  0.2697 -0.2050 -0.0282
  496MPD2    C2 7425   0.448   1.681  15.141  0.9443  0.5186  0.6325
  496MPD2    C3 7426   0.310   1.696  15.128  0.0939 -0.4115 -0.4324
  496MPD2    C4 7427   0.259   1.746  15.008  0.0881  0.7715 -0.1756
  496MPD2    C5 7428   0.348   1.783  14.908 -0.4406  0.1685 -0.6010
  496MPD2     H 7429   0.479   1.644  15.238 -0.8019  0.2046  1.0873
  496MPD2    H1 7430   0.156   1.736  14.976  0.8074 -0.9439 -1.9849
  496MPD2    H2 7431   0.560   1.799  14.859 -0.2984 -0.3640  0.1850
  496MPD2    H3 7432   0.306   1.807  14.811 -2.7760  2.1669  0.9217
  496MPD2     N 7433   0.227   1.649  15.235  0.0306 -0.4889 -0.1500
  496MPD2    H5 7434   0.279   1.603  15.309 -1.4876  1.1191  1.9007
  496MPD2    N1 7435   0.677   1.719  15.071 -0.2251  0.3431 -0.3631
  496MPD2    H7 7436   0.742   1.756  15.003 -0.3288  1.3986  0.0974
  497TMC3    C1 7437   0.028   1.583  15.337  0.0902 -0.3424 -0.2262
  497TMC3    C2 7438   4.655   1.529  15.306 -0.2044 -0.3817 -0.2120
  497TMC3    C3 7439   4.608   1.430  15.379 -0.5041 -0.0313 -0.3884
  497TMC3    C4 7440   0.081   1.566  15.460  0.5743  0.1139  0.5969
  497TMC3    C5 7441   0.021   1.483  15.542  0.2978  0.0963 -0.7456
  497TMC3    C6 7442   4.654   1.404  15.504  0.4772 -0.7385  0.3868
  497TMC3     C 7443   0.088   1.659  15.234  0.0333 -0.6499  0.4433
  497TMC3     O 7444   0.018   1.698  15.144  0.1349 -0.8644 -0.0944
  497TMC3     H 7445   4.618   1.520  15.205 -0.4672  1.5033 -0.2863
  497TMC3    H1 7446   0.174   1.615  15.487 -0.0813  2.5336 -1.4526
  497TMC3    H2 7447   4.610   1.336  15.576  0.3609 -0.4692  0.5692
  497TMC3    C7 7448   0.094   1.407  15.648 -0.0624 -0.2164  0.3019
  497TMC3    C8 7449   4.569   1.313  15.310 -0.6168  0.5309  0.1405
  497TMC3    O1 7450   0.069   1.285  15.647  0.2733  0.0916  0.2884
  497TMC3    O2 7451   4.507   1.317  15.204 -0.2378  0.1947 -0.2972
  498MPD2     C 7452   1.271   2.092  10.227 -0.3132  0.2294  0.1804
  498MPD2    C1 7453   1.165   2.168  10.294  0.3783 -0.5184  1.1885
  498MPD2    C2 7454   1.045   2.103  10.322  0.3914  0.0261  0.2060
  498MPD2    C3 7455   1.032   1.963  10.300 -0.6324 -0.3773  0.0099
  498MPD2    C4 7456   1.136   1.893  10.239  0.1948  0.2629 -0.5233
  498MPD2    C5 7457   1.249   1.957  10.208 -0.2937  0.3156  0.9461
  498MPD2     H 7458   0.970   2.152  10.382  2.3580  1.0410  1.8101
  498MPD2    H1 7459   1.122   1.791  10.205 -0.2338  0.8247 -2.0846
  498MPD2    H2 7460   1.363   2.138  10.194 -0.0908 -1.1375 -1.0835
  498MPD2    H3 7461   1.320   1.902  10.147 -1.2533 -2.5082  2.3784
  498MPD2     N 7462   0.916   1.901  10.337 -0.5447 -0.5077 -0.5279
  498MPD2    H5 7463   0.836   1.956  10.369 -1.1124 -0.9360 -1.2109
  498MPD2    N1 7464   1.176   2.306  10.310 -0.3535  0.4622 -0.7027
  498MPD2    H7 7465   1.092   2.362  10.316 -0.1001  0.7779 -0.0985
  499TMC3    C1 7466   1.292   2.524  10.329  0.8698  0.6368  0.1339
  499TMC3    C2 7467   1.404   2.592  10.366  0.1504 -0.6580  0.3866
  499TMC3    C3 7468   1.387   2.728  10.390  0.0057  0.8999  0.1914
  499TMC3    C4 7469   1.171   2.583  10.326  0.0286 -0.5921  0.3621
  499TMC3    C5 7470   1.161   2.715  10.359  0.4251  0.2030 -0.5165
  499TMC3    C6 7471   1.266   2.785  10.390 -0.7809 -0.2784 -0.2471
  499TMC3     C 7472   1.298   2.378  10.306  0.4306  0.4973 -0.4947
  499TMC3     O 7473   1.409   2.332  10.286 -0.0508 -0.2567  0.4473
  499TMC3     H 7474   1.499   2.541  10.355  0.6991  0.7109 -1.2104
  499TMC3    H1 7475   1.084   2.533  10.286  0.6536 -2.0610  0.8616
  499TMC3    H2 7476   1.260   2.890  10.417 -1.2257 -0.0804 -1.1248
  499TMC3    C7 7477   1.035   2.789  10.337 -0.0501  0.2383 -0.2674
  499TMC3    C8 7478   1.503   2.815  10.417 -0.1250  0.5336 -0.5975
  499TMC3    O1 7479   1.038   2.908  10.303  0.1336 -0.0988 -0.3987
  499TMC3    O2 7480   1.478   2.916  10.474 -0.1245 -0.0093 -0.6483
  500MPD2     C 7481   2.117   3.818   9.691  0.4050  0.3748 -0.5075
  500MPD2    C1 7482   2.131   3.793   9.825  0.3734  0.8220 -0.2001
  500MPD2    C2 7483   2.015   3.776   9.902  0.0964  0.2074 -0.0843
  500MPD2    C3 7484   1.891   3.759   9.845 -0.0871  0.1595  0.1389
  500MPD2    C4 7485   1.879   3.781   9.711 -1.2170 -0.6357  0.8543
  500MPD2    C5 7486   1.990   3.813   9.635 -0.3799 -0.4396 -1.2246
  500MPD2     H 7487   2.026   3.764  10.009 -0.9969 -2.6276 -0.2718
  500MPD2    H1 7488   1.780   3.788   9.667 -0.4285 -3.4787 -1.3629
  500MPD2    H2 7489   2.197   3.837   9.621  1.2344  3.5477  1.3087
  500MPD2    H3 7490   1.985   3.832   9.528  0.6920 -1.1758 -1.4022
  500MPD2     N 7491   1.772   3.722   9.915  0.6266  0.0578 -0.3939
  500MPD2    H5 7492   1.688   3.710   9.859  1.2265  2.6802 -1.8629
  500MPD2    N1 7493   2.254   3.802   9.891 -0.0547  0.4845  0.3877
  500MPD2    H7 7494   2.257   3.782   9.990 -1.2497  0.0767  0.3406
  501TMC3    C1 7495   2.474   3.845   9.940 -0.2739 -0.3453 -0.2644
  501TMC3    C2 7496   2.594   3.908   9.903  0.2997 -0.2523  0.6893
  501TMC3    C3 7497   2.702   3.883   9.982 -0.3636  0.2825 -0.0862
  501TMC3    C4 7498   2.455   3.775  10.057 -0.6796 -0.6260  0.5351
  501TMC3    C5 7499   2.569   3.750  10.128  0.2665 -0.5814  0.3790
  501TMC3    C6 7500   2.689   3.798  10.092 -0.5142 -0.6768  0.2148
  501TMC3     C 7501   2.372   3.838   9.839 -0.5535  0.1466 -0.3428
  501TMC3     O 7502   2.403   3.886   9.731 -0.4201  0.3302  0.4517
  501TMC3     H 7503   2.596   3.982   9.824  1.3382 -0.6710  0.3227
  501TMC3    H1 7504   2.377   3.705  10.085  0.2526 -1.6134  0.6872
  501TMC3    H2 7505   2.773   3.786  10.159  0.8004 -1.8334 -1.6487
  501TMC3    C7 7506   2.563   3.696  10.265  0.0033 -0.2777 -0.1125
  501TMC3    C8 7507   2.815   3.974   9.975 -0.3998  0.0395  0.2037
  501TMC3    O1 7508   2.672   3.665  10.311 -0.3665 -0.3660 -0.0201
  501TMC3    O2 7509   2.884   3.962  10.072 -0.5085  0.1192  0.4734
  502TMC3    C1 7510   2.840   2.737  15.094  0.7991  0.1414  0.2183
  502TMC3    C2 7511   2.823   2.817  14.989 -0.1253  0.4479 -0.3304
  502TMC3    C3 7512   2.691   2.861  14.975 -0.4968 -0.3142 -0.5686
  502TMC3    C4 7513   2.749   2.705  15.190 -0.4863 -0.5330  0.3071
  502TMC3    C5 7514   2.621   2.732  15.162 -0.1121 -0.0718 -0.0130
  502TMC3    C6 7515   2.591   2.824  15.059  0.4235 -0.1289  0.1412
  502TMC3     C 7516   2.975   2.677  15.106  0.3029 -0.2492 -0.3489
  502TMC3     O 7517   3.065   2.732  15.047 -0.1692 -0.3219 -0.2152
  502TMC3     H 7518   2.901   2.838  14.917  1.4008  0.2441  1.2588
  502TMC3    H1 7519   2.760   2.626  15.264  0.6055  0.7681  1.5211
  502TMC3    H2 7520   2.496   2.875  15.054  0.3888 -0.0938  1.0400
  502TMC3    C7 7521   2.514   2.662  15.229 -0.0396 -0.1598  0.9345
  502TMC3    C8 7522   2.658   2.954  14.865 -0.3395  0.0517 -0.3079
  502TMC3    O1 7523   2.538   2.609  15.335 -0.6431 -0.5441  0.0093
  502TMC3    O2 7524   2.752   3.017  14.819 -0.4302  0.1569 -0.1735
  503MPD2     C 7525   0.061   3.083  16.814  0.1446 -0.1633 -0.3244
  503MPD2    C1 7526   0.129   3.137  16.916  0.6075 -0.2118 -0.3534
  503MPD2    C2 7527   0.185   3.063  17.014 -0.3485 -0.2202  0.8482
  503MPD2    C3 7528   0.183   2.924  17.008  0.6824 -0.1115 -0.8854
  503MPD2    C4 7529   0.110   2.867  16.905 -0.1168 -0.0456 -0.1913
  503MPD2    C5 7530   0.057   2.946  16.807  0.2068  0.5333  0.2802
  503MPD2     H 7531   0.247   3.103  17.094 -1.3144  2.5473  0.1784
  503MPD2    H1 7532   0.091   2.760  16.903  0.6533 -0.1527 -1.6565
  503MPD2    H2 7533   0.021   3.144  16.734  2.1795 -0.2054 -1.3784
  503MPD2    H3 7534   0.001   2.900  16.727  1.2201  0.6681 -0.5083
  503MPD2     N 7535   0.247   2.857  17.110  0.6316  0.6893 -0.4958
  503MPD2    H5 7536   0.280   2.916  17.186 -0.5870  0.2811  0.3560
  503MPD2    N1 7537   0.162   3.276  16.914 -0.2512  0.3827 -0.4749
  503MPD2    H7 7538   0.231   3.302  16.984  0.3877  0.0902 -0.9924
  504TMC3    C1 7539   0.339   2.697  17.246  0.4051  0.2972  0.1435
  504TMC3    C2 7540   0.325   2.784  17.355  0.0622 -0.2289  0.4089
  504TMC3    C3 7541   0.414   2.773  17.454  0.2060  0.4908  0.0492
  504TMC3    C4 7542   0.447   2.616  17.234  0.1467 -0.8748  0.6865
  504TMC3    C5 7543   0.525   2.612  17.340 -0.1600  0.2611 -0.5194
  504TMC3    C6 7544   0.518   2.687  17.457 -0.0946  0.3696  0.3199
  504TMC3     C 7545   0.253   2.721  17.132  0.1316  0.4981 -0.2853
  504TMC3     O 7546   0.250   2.641  17.039  0.1333 -0.1552  0.1318
  504TMC3     H 7547   0.233   2.840  17.367  0.1043  0.3588 -2.0410
  504TMC3    H1 7548   0.458   2.567  17.138  0.3492  0.1643  0.1777
  504TMC3    H2 7549   0.585   2.676  17.541  2.0690 -2.1211 -1.7448
  504TMC3    C7 7550   0.636   2.532  17.310  0.0341  0.5659  0.4608
  504TMC3    C8 7551   0.372   2.827  17.589 -0.4163  0.1498  0.0432
  504TMC3    O1 7552   0.622   2.441  17.225 -0.2213  0.0815  0.2495
  504TMC3    O2 7553   0.298   2.919  17.572 -0.1760 -0.6441 -0.4781
  505MPD2     C 7554   4.583   1.173  11.091 -0.0893 -0.4854  0.2394
  505MPD2    C1 7555   4.702   1.125  11.149  0.3153 -0.4906 -0.3869
  505MPD2    C2 7556   0.033   1.208  11.242  0.0608 -0.5783  0.1135
  505MPD2    C3 7557   4.727   1.333  11.279  0.2022 -0.6011 -0.1130
  505MPD2    C4 7558   4.612   1.379  11.219 -0.0319  0.4083  0.5048
  505MPD2    C5 7559   4.540   1.304  11.131 -1.3002 -0.2094 -0.0613
  505MPD2     H 7560   0.125   1.177  11.292  0.0274  1.1783  1.2592
  505MPD2    H1 7561   4.575   1.477  11.245  2.4785  1.3117  0.6565
  505MPD2    H2 7562   4.538   1.127  11.004  1.7945 -0.3743 -0.8006
  505MPD2    H3 7563   4.450   1.345  11.087  0.4429  2.3615 -1.2307
  505MPD2     N 7564   0.069   1.398  11.365  0.0904  0.2906  0.3001
  505MPD2    H5 7565   0.156   1.353  11.392 -0.3260 -0.4680  0.3896
  505MPD2    N1 7566   0.003   0.995  11.107  0.1362  0.2305  0.0225
  505MPD2    H7 7567   4.681   0.938  11.053  0.8825 -0.4009 -0.2159
  506TMC3    C1 7568   0.153   0.826  11.077  0.8114 -0.0701  0.9687
  506TMC3    C2 7569   0.145   0.831  10.941  0.1283 -0.0276  0.0246
  506TMC3    C3 7570   0.255   0.790  10.868 -0.4457 -0.0683  0.0888
  506TMC3    C4 7571   0.261   0.771  11.135  0.1709  0.5432 -0.5006
  506TMC3    C5 7572   0.373   0.742  11.061  0.1407 -0.6643 -0.3387
  506TMC3    C6 7573   0.375   0.758  10.921  0.5309  0.1896  0.2921
  506TMC3     C 7574   0.123   0.947  11.149  0.1775  1.2439 -1.1305
  506TMC3     O 7575   0.215   0.985  11.224 -0.4713  0.8710 -0.3534
  506TMC3     H 7576   0.051   0.864  10.897  0.4689 -0.5593 -1.1087
  506TMC3    H1 7577   0.260   0.744  11.239  1.9164 -1.0074 -0.8801
  506TMC3    H2 7578   0.461   0.756  10.855  0.1028 -4.0069 -0.1477
  506TMC3    C7 7579   0.498   0.789  11.112 -0.1095 -0.5220  0.0048
  506TMC3    C8 7580   0.259   0.819  10.730 -0.1013 -0.3362  0.2638
  506TMC3    O1 7581   0.603   0.757  11.058 -0.3489  0.2978 -0.1676
  506TMC3    O2 7582   0.221   0.738  10.644  0.0465 -0.1183  0.0652
  507TMC3    C1 7583   1.277   2.253  14.508  0.5470  0.2040  0.3890
  507TMC3    C2 7584   1.255   2.147  14.421  0.3336  0.9808 -0.3682
  507TMC3    C3 7585   1.360   2.126  14.330  0.1249 -0.5974  0.0209
  507TMC3    C4 7586   1.372   2.345  14.491  1.0556  0.7509 -0.4277
  507TMC3    C5 7587   1.457   2.333  14.387 -0.5054 -0.2173  0.2676
  507TMC3    C6 7588   1.460   2.217  14.312  0.0663 -0.6254 -0.3458
  507TMC3     C 7589   1.156   2.292  14.570 -0.2814 -0.7002  0.3164
  507TMC3     O 7590   1.152   2.405  14.610  0.7289 -0.0168  0.6652
  507TMC3     H 7591   1.197   2.058  14.442 -0.7578  0.9784 -3.3732
  507TMC3    H1 7592   1.381   2.424  14.564 -0.2449  0.8512 -0.3716
  507TMC3    H2 7593   1.539   2.202  14.239 -0.1149 -0.4169 -0.5861
  507TMC3    C7 7594   1.468   2.449  14.304  0.3864 -0.1799  0.3594
  507TMC3    C8 7595   1.305   2.063  14.204 -0.2820  0.1085  0.4300
  507TMC3    O1 7596   1.469   2.434  14.181  0.1198 -0.6312  0.0243
  507TMC3    O2 7597   1.235   1.965  14.215  0.5439  0.3918 -0.1073
  508MPD2     C 7598   2.555   4.521  15.819  0.4789 -0.1723  0.1511
  508MPD2    C1 7599   2.491   4.608  15.908 -0.0198  0.2334 -0.0685
  508MPD2    C2 7600   2.428   4.718  15.864  0.3909 -0.5856  0.0818
  508MPD2    C3 7601   2.410   4.733  15.728 -0.5076  0.3384  0.1010
  508MPD2    C4 7602   2.459   4.647  15.635 -0.0574  0.9076  0.5520
  508MPD2    C5 7603   2.533   4.544  15.685 -0.2019 -1.2688  0.1477
  508MPD2     H 7604   2.379   0.052  15.923 -2.0951 -2.1242 -0.0190
  508MPD2    H1 7605   2.449   4.663  15.528 -0.9788 -1.2657  0.3308
  508MPD2    H2 7606   2.604   4.427  15.842 -2.5046 -1.9600 -0.8054
  508MPD2    H3 7607   2.559   4.465  15.616  1.7408  0.4129 -1.0530
  508MPD2     N 7608   2.342   0.112  15.695  0.0520 -0.5746  0.3997
  508MPD2    H5 7609   2.320   0.177  15.770 -0.0512 -0.4856  0.2919
  508MPD2    N1 7610   2.498   4.588  16.043 -0.7507 -0.2282  0.7667
  508MPD2    H7 7611   2.555   4.508  16.070  2.5655  1.4144 -1.5498
  509TMC3    C1 7612   2.181   0.471  15.449 -0.1820 -1.7589  0.0541
  509TMC3    C2 7613   2.203   0.557  15.557 -0.1813 -0.3438  0.0930
  509TMC3    C3 7614   2.296   0.506  15.648  0.1444  0.3537 -0.6139
  509TMC3    C4 7615   2.223   0.339  15.449  0.5307  0.0851  0.4505
  509TMC3    C5 7616   2.308   0.293  15.551 -1.0878 -0.9995 -0.2290
  509TMC3    C6 7617   2.348   0.379  15.652  0.1429  0.2550 -0.2887
  509TMC3     C 7618   2.088   0.523  15.344 -0.3105 -0.7429 -0.0288
  509TMC3     O 7619   2.045   0.455  15.254 -0.2082  0.2517 -0.5403
  509TMC3     H 7620   2.159   0.655  15.567 -0.1263 -0.3833  0.7046
  509TMC3    H1 7621   2.193   0.278  15.365  0.3767 -1.3031  1.5203
  509TMC3    H2 7622   2.415   0.344  15.729 -1.9512 -1.5493  0.7262
  509TMC3    C7 7623   2.311   0.149  15.569  0.9120 -0.2676 -0.0934
  509TMC3    C8 7624   2.323   0.583  15.777  0.3030 -0.2947  0.0987
  509TMC3    O1 7625   2.317   0.091  15.460  0.2557 -0.4365  0.1479
  509TMC3    O2 7626   2.365   0.513  15.866 -0.1529 -0.0241  0.1514
  510MPD2     C 7627   0.001   1.960  14.590  0.0077  0.5954 -0.5350
  510MPD2    C1 7628   0.033   1.844  14.649 -0.0095 -0.0782 -0.9147
  510MPD2    C2 7629   0.144   1.774  14.605 -0.0148  0.2344 -0.3191
  510MPD2    C3 7630   0.217   1.825  14.503  0.1000  0.4475  0.2331
  510MPD2    C4 7631   0.179   1.937  14.439 -0.8297 -0.1576  0.3082
  510MPD2    C5 7632   0.069   1.999  14.479  0.2420  0.0722 -0.0471
  510MPD2     H 7633   0.179   1.685  14.657  0.6581  0.0407 -1.0979
  510MPD2    H1 7634   0.215   1.968  14.342  1.4634 -0.7134  0.9889
  510MPD2    H2 7635   4.650   2.006  14.619  0.0791  0.6943 -0.4587
  510MPD2    H3 7636   0.042   2.093  14.432 -5.1664 -0.4539  2.1037
  510MPD2     N 7637   0.330   1.744  14.466 -0.6307  0.0000 -0.6399
  510MPD2    H5 7638   0.333   1.659  14.522  0.2852 -0.5463 -1.5254
  510MPD2    N1 7639   4.691   1.787  14.744 -0.3338  0.3870 -0.3101
  510MPD2    H7 7640   4.605   1.838  14.757 -0.7212 -0.3715  0.1766
  511TMC3    C1 7641   4.590   1.603  14.860  0.1993 -0.1057 -0.1294
  511TMC3    C2 7642   4.518   1.674  14.950  0.0837  1.2064 -0.4666
  511TMC3    C3 7643   4.413   1.607  15.016  0.0897  0.0315 -0.2204
  511TMC3    C4 7644   4.565   1.471  14.823 -0.5402  0.2174  0.2154
  511TMC3    C5 7645   4.460   1.413  14.887 -0.0957  0.0989 -0.1652
  511TMC3    C6 7646   4.386   1.477  14.985  0.4417 -0.2901  0.8896
  511TMC3     C 7647   4.709   1.660  14.802  0.2223 -0.2347 -0.4509
  511TMC3     O 7648   0.053   1.574  14.794  0.2506 -0.0568  0.5566
  511TMC3     H 7649   4.554   1.773  14.974  1.0493  0.7208  0.0671
  511TMC3    H1 7650   4.622   1.425  14.743  1.1488  2.5289  0.0725
  511TMC3    H2 7651   4.299   1.422  15.019 -1.0687  0.2652 -2.0778
  511TMC3    C7 7652   4.426   1.276  14.851  0.7073 -0.7347 -0.2580
  511TMC3    C8 7653   4.366   1.660  15.143  0.8304  0.1976  0.5330
  511TMC3    O1 7654   4.430   1.254  14.732 -0.3471  0.2079  0.1502
  511TMC3    O2 7655   4.385   1.781  15.169  0.2347  0.2272 -0.1175
  512TMC3    C1 7656   3.040   0.797  13.244  0.7913 -0.1717 -0.3045
  512TMC3    C2 7657   3.166   0.801  13.303 -0.1233  0.3420  0.0133
  512TMC3    C3 7658   3.251   0.695  13.280 -0.0524  0.7709  0.2389
  512TMC3    C4 7659   3.000   0.702  13.158 -0.2255  0.4990  0.0287
  512TMC3    C5 7660   3.094   0.605  13.121  0.2119  0.9112  0.1695
  512TMC3    C6 7661   3.220   0.602  13.181 -0.3853  0.1157  0.6477
  512TMC3     C 7662   2.968   0.928  13.245  0.3798 -0.2026 -0.0658
  512TMC3     O 7663   3.039   1.028  13.257  0.3667 -0.1070 -0.1546
  512TMC3     H 7664   3.183   0.880  13.374  0.3684  0.3764 -0.1390
  512TMC3    H1 7665   2.917   0.724  13.091  0.8187  1.4008 -0.9806
  512TMC3    H2 7666   3.297   0.531  13.154 -1.2675 -0.3391 -0.7042
  512TMC3    C7 7667   3.069   0.526  13.005 -0.0633  0.2768 -0.1328
  512TMC3    C8 7668   3.375   0.685  13.346 -0.0032 -0.4041 -0.1957
  512TMC3    O1 7669   2.973   0.562  12.937 -0.0187  0.1957  0.0098
  512TMC3    O2 7670   3.426   0.574  13.337 -0.6602 -0.4025  0.3315
  513MPD2     C 7671   0.704   0.627  13.689  0.0933  0.2644 -0.3237
  513MPD2    C1 7672   0.805   0.594  13.604 -0.2207 -0.0728 -0.0068
  513MPD2    C2 7673   0.929   0.660  13.622  0.1906 -0.8336  1.1809
  513MPD2    C3 7674   0.941   0.754  13.731  0.8052  0.0135  0.1654
  513MPD2    C4 7675   0.836   0.779  13.813 -0.2130  0.4929 -0.4231
  513MPD2    C5 7676   0.721   0.716  13.786 -0.3269 -0.5159 -0.5322
  513MPD2     H 7677   1.015   0.651  13.557 -2.2353 -0.1502 -2.0945
  513MPD2    H1 7678   0.852   0.852  13.892  0.1429  0.5538 -0.5562
  513MPD2    H2 7679   0.612   0.569  13.690 -1.2360  2.3976  0.4202
  513MPD2    H3 7680   0.638   0.737  13.853 -0.0856  0.5056 -0.5458
  513MPD2     N 7681   1.063   0.824  13.734 -0.2741 -0.2281  0.2272
  513MPD2    H5 7682   1.129   0.782  13.669 -0.2583  1.0623 -0.5852
  513MPD2    N1 7683   0.783   0.493  13.509 -0.0401 -0.1852 -0.4860
  513MPD2    H7 7684   0.693   0.446  13.511  0.0736 -0.3654  0.3416
  514TMC3    C1 7685   0.845   0.339  13.339  0.4356 -0.1684  0.2934
  514TMC3    C2 7686   0.756   0.390  13.255  0.6744 -0.6996 -0.7476
  514TMC3    C3 7687   0.778   0.380  13.120 -0.7112  0.1339  0.6038
  514TMC3    C4 7688   0.962   0.286  13.289  0.2240 -0.2824  0.3693
  514TMC3    C5 7689   0.985   0.295  13.154  0.0340 -0.3605 -0.2252
  514TMC3    C6 7690   0.894   0.337  13.061 -0.2684  0.1205 -0.0304
  514TMC3     C 7691   0.879   0.434  13.436  0.0164 -0.4116  0.3080
  514TMC3     O 7692   1.001   0.453  13.434 -0.4116 -0.3782  0.7013
  514TMC3     H 7693   0.664   0.435  13.292  0.8486 -2.2147  1.5081
  514TMC3    H1 7694   1.034   0.246  13.360  0.4827 -0.4289  0.0300
  514TMC3    H2 7695   0.918   0.332  12.956  1.3618  1.2166  0.2955
  514TMC3    C7 7696   1.124   0.324  13.122  0.3165  0.3523 -0.0102
  514TMC3    C8 7697   0.662   0.375  13.039 -0.4357  0.1855  1.0083
  514TMC3    O1 7698   1.163   0.313  13.008 -0.3462 -0.1452  0.6499
  514TMC3    O2 7699   0.552   0.369  13.102  0.2706  1.6479  0.2747
  515MPD2     C 7700   3.826   2.943  14.472  0.6490 -0.0566 -0.3917
  515MPD2    C1 7701   3.752   2.866  14.551 -0.2749  0.1105  0.1924
  515MPD2    C2 7702   3.773   2.846  14.685  0.0980 -0.2217  0.4825
  515MPD2    C3 7703   3.883   2.906  14.736  0.2256 -0.4970 -0.0166
  515MPD2    C4 7704   3.968   2.986  14.657 -0.0469 -0.1569  0.0567
  515MPD2    C5 7705   3.936   3.006  14.528 -0.4413 -0.4487  0.7901
  515MPD2     H 7706   3.708   2.781  14.743 -1.6800  0.9511 -0.1821
  515MPD2    H1 7707   4.059   3.027  14.700 -0.4298  1.3038 -0.5105
  515MPD2    H2 7708   3.795   2.961  14.370  2.6608  0.3142 -0.9515
  515MPD2    H3 7709   4.006   3.062  14.467  0.6222 -1.2625  1.2633
  515MPD2     N 7710   3.923   2.885  14.872 -0.0768 -0.0004 -0.4467
  515MPD2    H5 7711   4.003   2.940  14.902  0.7079 -0.6705 -1.2916
  515MPD2    N1 7712   3.623   2.813  14.503 -0.1932  0.0796 -0.1394
  515MPD2    H7 7713   3.564   2.771  14.575 -1.0997 -1.7783 -1.9545
  516TMC3    C1 7714   3.430   2.766  14.353  0.7277 -0.3206 -0.1442
  516TMC3    C2 7715   3.362   2.803  14.243  0.4857  0.5053 -0.6835
  516TMC3    C3 7716   3.227   2.783  14.254  0.5903 -0.3182 -0.4159
  516TMC3    C4 7717   3.373   2.719  14.469  0.2509 -0.1641  0.1733
  516TMC3    C5 7718   3.242   2.694  14.470 -0.5768 -0.1278 -0.7625
  516TMC3    C6 7719   3.161   2.723  14.361  0.5448 -0.4034 -0.6912
  516TMC3     C 7720   3.567   2.829  14.377 -0.3188 -0.6658  0.9305
  516TMC3     O 7721   3.610   2.885  14.280 -0.0963  0.4448  0.1571
  516TMC3     H 7722   3.403   2.871  14.169  1.3004  0.1867 -0.5262
  516TMC3    H1 7723   3.437   2.692  14.552  2.2031  0.6368 -1.0666
  516TMC3    H2 7724   3.056   2.698  14.364  0.7015 -0.8518  1.1462
  516TMC3    C7 7725   3.189   2.632  14.589  0.3882 -0.1830  0.1230
  516TMC3    C8 7726   3.148   2.798  14.128  0.0872 -0.6819  0.5900
  516TMC3    O1 7727   3.277   2.591  14.667 -0.0491 -0.0786 -0.5248
  516TMC3    O2 7728   3.028   2.788  14.140 -0.1307 -0.1729  0.0922
  517MPD2     C 7729   3.100   4.425  17.590 -0.0685  0.0100  0.3272
  517MPD2    C1 7730   3.237   4.416  17.607 -0.7838  0.5361 -0.8672
  517MPD2    C2 7731   3.301   4.487  17.705 -0.3967  0.1984  0.4355
  517MPD2    C3 7732   3.228   4.588  17.763 -0.1650 -0.0734  0.2138
  517MPD2    C4 7733   3.099   4.611  17.736  0.1160  0.4920  0.7465
  517MPD2    C5 7734   3.025   4.521  17.656  0.4942 -0.1084  0.1689
  517MPD2     H 7735   3.408   4.478  17.720 -0.3790 -3.2541 -1.6268
  517MPD2    H1 7736   3.050   4.691   0.023 -1.0513  0.8025 -0.7504
  517MPD2    H2 7737   3.052   4.362  17.516 -0.2034 -1.3449  1.5655
  517MPD2    H3 7738   2.918   4.539  17.649  0.7590  0.7104 -1.8937
  517MPD2     N 7739   3.292   4.675   0.085  0.1222 -0.2764  0.6261
  517MPD2    H5 7740   3.255   0.023   0.111  2.1812  0.9540 -0.7722
  517MPD2    N1 7741   3.323   4.321  17.543  0.5864 -1.4371 -0.0919
  517MPD2    H7 7742   3.423   4.324  17.559  1.1191  0.4097 -3.7187
  518TMC3    C1 7743   3.403   4.155  17.389 -0.6332 -0.3420 -0.0501
  518TMC3    C2 7744   3.371   4.024  17.364 -0.0913 -0.3324 -0.1729
  518TMC3    C3 7745   3.479   3.938  17.331  0.5494  0.1467 -0.0011
  518TMC3    C4 7746   3.529   4.198  17.390 -0.7312  0.5000  0.4758
  518TMC3    C5 7747   3.634   4.122  17.348  0.3129 -0.2637 -0.9087
  518TMC3    C6 7748   3.613   3.989  17.317 -1.1024  0.1439 -0.0245
  518TMC3     C 7749   3.288   4.231  17.443 -0.8343  0.0619 -0.4596
  518TMC3     O 7750   3.175   4.196  17.415 -0.2194  0.2215 -0.4926
  518TMC3     H 7751   3.266   4.004  17.343 -0.1790  0.9185 -0.9445
  518TMC3    H1 7752   3.537   4.307  17.387 -0.5613  0.4179 -2.3250
  518TMC3    H2 7753   3.684   3.921  17.272  0.6151  1.7785  0.2606
  518TMC3    C7 7754   3.768   4.175  17.357 -0.0044 -0.0126 -0.3039
  518TMC3    C8 7755   3.450   3.804  17.286 -0.2519  0.4256  0.2325
  518TMC3    O1 7756   3.774   4.298  17.383 -0.3109 -0.0202  0.2296
  518TMC3    O2 7757   3.533   3.753  17.211 -0.5970 -0.0379 -0.2407
  519MPD2     C 7758   0.417   2.594  14.084 -0.3073 -0.0146  0.1735
  519MPD2    C1 7759   0.360   2.566  13.955  1.0484 -0.9620 -0.9451
  519MPD2    C2 7760   0.429   2.478  13.872 -0.3862  0.2984  0.7806
  519MPD2    C3 7761   0.543   2.405  13.922  0.0368  0.8133  0.7766
  519MPD2    C4 7762   0.599   2.438  14.045 -0.7153 -0.7630 -0.1127
  519MPD2    C5 7763   0.531   2.530  14.120  0.6926 -0.6467  0.2879
  519MPD2     H 7764   0.393   2.458  13.772  1.6707  0.2685  0.0437
  519MPD2    H1 7765   0.681   2.380  14.088 -1.6401 -1.6449  0.4612
  519MPD2    H2 7766   0.363   2.655  14.156  0.2069  1.2832 -0.5519
  519MPD2    H3 7767   0.557   2.541  14.225  0.1551 -1.4527  0.5100
  519MPD2     N 7768   0.582   2.290  13.860 -0.2303  0.6769 -0.9503
  519MPD2    H5 7769   0.637   2.226  13.917 -1.6484  1.5934  1.4279
  519MPD2    N1 7770   0.234   2.620  13.923  0.3396  0.3508  0.0710
  519MPD2    H7 7771   0.193   2.666  14.004  0.8445 -1.5470  1.4009
  520TMC3    C1 7772   0.576   2.114  13.712 -0.4211 -0.2024  0.2927
  520TMC3    C2 7773   0.488   2.053  13.631  0.2686 -0.1715  0.8299
  520TMC3    C3 7774   0.471   1.914  13.639  0.8324  0.1917 -0.1411
  520TMC3    C4 7775   0.648   2.040  13.799  0.2520 -0.0376 -0.0956
  520TMC3    C5 7776   0.622   1.909  13.814  0.1458  0.0566 -0.2228
  520TMC3    C6 7777   0.540   1.840  13.730  0.8949  0.7038 -0.0050
  520TMC3     C 7778   0.559   2.257  13.732 -0.2285 -0.1104  0.4336
  520TMC3     O 7779   0.514   2.327  13.638 -0.4459  0.5150  0.2467
  520TMC3     H 7780   0.431   2.125  13.573 -1.5925  0.5438  3.5402
  520TMC3    H1 7781   0.726   2.086  13.859 -0.1182  0.5954 -0.0958
  520TMC3    H2 7782   0.531   1.733  13.740 -0.7921  0.7583 -1.0530
  520TMC3    C7 7783   0.724   1.829  13.869 -0.3919  0.0486 -0.1245
  520TMC3    C8 7784   0.362   1.841  13.579  0.1728 -0.3872 -0.3950
  520TMC3    O1 7785   0.742   1.816  13.989  0.3369 -0.3663 -0.3017
  520TMC3    O2 7786   0.360   1.719  13.591  0.0953  0.6231 -0.7887
  521MPD2     C 7787   1.415   0.790  17.499  0.1195 -0.0492  0.5922
  521MPD2    C1 7788   1.365   0.756  17.378 -0.2397 -0.0223 -0.3668
  521MPD2    C2 7789   1.460   0.754  17.273 -0.5124  0.6915  1.0702
  521MPD2    C3 7790   1.596   0.779  17.297 -0.4211  0.3779 -0.4155
  521MPD2    C4 7791   1.637   0.837  17.411 -0.2173  0.3236  0.1694
  521MPD2    C5 7792   1.544   0.835  17.515  0.0818 -0.0905  0.4858
  521MPD2     H 7793   1.433   0.714  17.176  3.5595  0.1919  0.1689
  521MPD2    H1 7794   1.739   0.871  17.427  0.4227 -1.1920 -0.6670
  521MPD2    H2 7795   1.356   0.783  17.590 -0.8340  0.3148  0.0032
  521MPD2    H3 7796   1.574   0.860  17.616  0.6399  1.0718  0.0294
  521MPD2     N 7797   1.696   0.740  17.201 -0.1013 -0.4771 -0.0871
  521MPD2    H5 7798   1.666   0.713  17.107 -0.2009  2.2749 -0.8441
  521MPD2    N1 7799   1.236   0.707  17.374  0.4983  0.1870 -0.2648
  521MPD2    H7 7800   1.185   0.713  17.462 -1.1177  0.3304 -1.1959
  522TMC3    C1 7801   1.910   0.720  17.103 -0.4633  0.0546  0.1483
  522TMC3    C2 7802   2.016   0.644  17.124  0.2618 -0.0980 -0.4424
  522TMC3    C3 7803   2.050   0.554  17.030  0.3057  0.0764 -0.1172
  522TMC3    C4 7804   1.839   0.712  16.990  0.5249 -0.8801 -0.4178
  522TMC3    C5 7805   1.877   0.627  16.892  0.8890 -0.1209 -0.7786
  522TMC3    C6 7806   1.981   0.542  16.909  0.1322  0.5892 -0.3637
  522TMC3     C 7807   1.834   0.746  17.223  0.1885 -0.1775 -0.2663
  522TMC3     O 7808   1.894   0.749  17.332  0.1652  0.3862 -0.1115
  522TMC3     H 7809   2.073   0.660  17.215  1.0531  1.2026 -1.1625
  522TMC3    H1 7810   1.762   0.787  16.975 -0.6786 -1.8165  1.0058
  522TMC3    H2 7811   2.009   0.478  16.826 -2.3357  1.0691 -1.5769
  522TMC3    C7 7812   1.848   0.656  16.749 -0.0588  0.8261  0.2607
  522TMC3    C8 7813   2.177   0.483  17.049  0.6550  0.1755 -0.0722
  522TMC3    O1 7814   1.920   0.590  16.672  0.4049 -0.1245 -0.2197
  522TMC3    O2 7815   2.246   0.516  17.147 -0.0047 -0.1075  0.1078
  523MPD2     C 7816   3.176   0.711   9.683  0.3063 -0.6179 -0.1934
  523MPD2    C1 7817   3.092   0.618   9.620  0.6563 -0.5737  0.2956
  523MPD2    C2 7818   2.981   0.661   9.546 -0.2972 -0.4726  0.4413
  523MPD2    C3 7819   2.959   0.799   9.535 -0.3711  0.2554  0.6824
  523MPD2    C4 7820   3.032   0.891   9.601 -0.3049 -0.0018 -0.0099
  523MPD2    C5 7821   3.139   0.845   9.674  0.0355 -0.5088  0.0958
  523MPD2     H 7822   2.918   0.585   9.500  0.2435 -1.1116  0.7523
  523MPD2    H1 7823   3.008   0.997   9.599  0.4854  0.2059  2.0287
  523MPD2    H2 7824   3.260   0.684   9.746  1.5617  0.2383 -1.5121
  523MPD2    H3 7825   3.205   0.911   9.728 -0.3961 -0.2929  0.3607
  523MPD2     N 7826   2.847   0.851   9.466  0.1463 -0.5900  0.3239
  523MPD2    H5 7827   2.824   0.950   9.473  1.1548 -0.4039  0.9652
  523MPD2    N1 7828   3.113   0.482   9.650  0.3063  0.4172 -0.3787
  523MPD2    H7 7829   3.193   0.462   9.709 -1.4295 -2.4367  0.9892
  524TMC3    C1 7830   2.660   0.849   9.319  0.8625  0.4316 -0.2077
  524TMC3    C2 7831   2.607   0.801   9.199 -0.0573 -0.3000 -0.2460
  524TMC3    C3 7832   2.482   0.845   9.174  0.2312 -0.3154 -0.0439
  524TMC3    C4 7833   2.620   0.963   9.384  0.2647  0.6249  0.0712
  524TMC3    C5 7834   2.495   1.008   9.353 -0.3738 -0.3008 -0.2136
  524TMC3    C6 7835   2.423   0.944   9.252  0.3192  0.7800  0.4997
  524TMC3     C 7836   2.780   0.779   9.365 -0.0962  0.2321  0.4774
  524TMC3     O 7837   2.813   0.667   9.324  0.4804 -0.0616 -0.2716
  524TMC3     H 7838   2.650   0.715   9.149  0.6712  1.1542 -2.1281
  524TMC3    H1 7839   2.661   1.002   9.477 -1.4907  0.7601  0.8039
  524TMC3    H2 7840   2.318   0.971   9.240 -0.0082  0.1041  1.8862
  524TMC3    C7 7841   2.439   1.104   9.446 -0.2967  0.3733 -0.2294
  524TMC3    C8 7842   2.420   0.805   9.059 -0.1813  0.3663  0.1354
  524TMC3    O1 7843   2.512   1.137   9.538 -0.3613  0.0494  0.1392
  524TMC3    O2 7844   2.485   0.725   8.995  0.2584  1.1757  0.0270
  525MPD2     C 7845   1.653   1.962  14.177 -0.3299  0.1440 -0.1546
  525MPD2    C1 7846   1.771   2.016  14.222 -0.1393 -0.4901  0.3425
  525MPD2    C2 7847   1.821   2.126  14.151 -0.3532 -0.0630  0.2529
  525MPD2    C3 7848   1.748   2.176  14.041 -0.3244  0.8716  0.6708
  525MPD2    C4 7849   1.633   2.113  13.995 -0.2799  0.1867  0.2645
  525MPD2    C5 7850   1.589   2.002  14.062 -0.1365  0.3264 -0.7716
  525MPD2     H 7851   1.916   2.176  14.167 -0.1658 -0.1165 -0.6746
  525MPD2    H1 7852   1.574   2.142  13.909 -0.7498 -2.2233 -0.2230
  525MPD2    H2 7853   1.605   1.887  14.239 -1.7548  1.5946  0.4940
  525MPD2    H3 7854   1.493   1.958  14.035  0.1212 -1.0259  0.4883
  525MPD2     N 7855   1.776   2.299  13.985  0.6193 -0.0358  0.1840
  525MPD2    H5 7856   1.703   2.330  13.921 -1.1086 -3.8404  0.3227
  525MPD2    N1 7857   1.831   1.970  14.345 -0.1190  0.4845 -0.0312
  525MPD2    H7 7858   1.924   2.005  14.363  0.1495 -1.2878  1.9025
  526TMC3    C1 7859   1.843   1.857  14.555  0.4376  0.2450  0.0977
  526TMC3    C2 7860   1.780   1.856  14.680 -0.4881  0.3804  0.1109
  526TMC3    C3 7861   1.855   1.824  14.787  0.8336  0.5223  0.4463
  526TMC3    C4 7862   1.982   1.836  14.541 -0.7308 -0.5148  0.9112
  526TMC3    C5 7863   2.059   1.825  14.660  0.5468  0.5408 -0.5757
  526TMC3    C6 7864   1.996   1.805  14.781  0.1973  0.0059  0.2852
  526TMC3     C 7865   1.761   1.899  14.444  0.0588  0.2545 -0.1896
  526TMC3     O 7866   1.639   1.900  14.471 -0.0501 -0.2517 -0.0046
  526TMC3     H 7867   1.674   1.875  14.686 -0.4450  1.5212 -2.3765
  526TMC3    H1 7868   2.023   1.824  14.442  1.5313  0.1136  1.7673
  526TMC3    H2 7869   2.056   1.804  14.871 -0.7847 -0.3011  0.9344
  526TMC3    C7 7870   2.182   1.753  14.663  0.6807 -0.0913  0.7765
  526TMC3    C8 7871   1.794   1.857  14.918  0.9900 -0.9442  0.4706
  526TMC3    O1 7872   2.198   1.681  14.761 -0.1162 -0.0739  0.4774
  526TMC3    O2 7873   1.880   1.896  14.993  0.2252 -0.4210 -0.1932
  527MPD2     C 7874   0.070   0.401   1.505 -0.5627 -0.0167 -0.2069
  527MPD2    C1 7875   0.013   0.364   1.388  0.5771 -0.4766  0.4435
  527MPD2    C2 7876   0.092   0.305   1.291 -0.8720  0.2334  0.0268
  527MPD2    C3 7877   0.227   0.269   1.314  0.4405 -0.2550  0.5175
  527MPD2    C4 7878   0.278   0.311   1.432  0.3430  0.0556  0.0261
  527MPD2    C5 7879   0.205   0.380   1.521  0.3215 -0.2797 -0.1862
  527MPD2     H 7880   0.046   0.286   1.195 -2.2607  0.8335  0.5699
  527MPD2    H1 7881   0.385   0.313   1.449  0.1822 -0.4080  1.0426
  527MPD2    H2 7882   0.015   0.459   1.578 -2.8444  2.0214 -3.5477
  527MPD2    H3 7883   0.249   0.432   1.605  1.0795  1.0819 -1.4236
  527MPD2     N 7884   0.301   0.203   1.208  0.3231  0.3313  0.3837
  527MPD2    H5 7885   0.237   0.180   1.132 -2.3652  4.0445  1.5043
  527MPD2    N1 7886   4.629   0.395   1.353  0.0373 -0.0003 -0.0501
  527MPD2    H7 7887   4.598   0.360   1.263  0.4817  1.6899 -0.8658
  528TMC3    C1 7888   4.430   0.520   1.330  0.6017 -0.3038  0.4112
  528TMC3    C2 7889   4.447   0.515   1.194 -0.3784  0.0008 -0.4625
  528TMC3    C3 7890   4.338   0.505   1.110  0.1399 -0.1538  1.0647
  528TMC3    C4 7891   4.302   0.539   1.382 -0.1481 -0.1684 -0.0082
  528TMC3    C5 7892   4.197   0.541   1.297 -0.3981  0.1029 -0.1372
  528TMC3    C6 7893   4.207   0.516   1.163  0.5145 -0.5117  0.8890
  528TMC3     C 7894   4.542   0.489   1.412  0.2903  0.7750  0.5068
  528TMC3     O 7895   4.547   0.540   1.523  0.2443 -0.0983 -0.0779
  528TMC3     H 7896   4.550   0.514   1.158 -0.5502 -1.0585 -0.9257
  528TMC3    H1 7897   4.293   0.552   1.489  1.6074  0.9933 -0.0136
  528TMC3    H2 7898   4.124   0.523   1.093  2.0961  2.3737 -0.7031
  528TMC3    C7 7899   4.074   0.590   1.340 -0.1896 -0.4084  0.6572
  528TMC3    C8 7900   4.360   0.463   0.973  0.5779 -0.0375 -0.2868
  528TMC3    O1 7901   3.980   0.536   1.283 -0.1978  0.0758 -0.2182
  528TMC3    O2 7902   4.475   0.436   0.941  0.1154  0.2987  0.4743
  529MPD2     C 7903   1.970   3.200   0.772  0.4004 -0.0510  0.8219
  529MPD2    C1 7904   2.065   3.146   0.690  0.1120  0.7917 -0.1278
  529MPD2    C2 7905   2.068   3.177   0.552 -0.2919  0.6359  0.0499
  529MPD2    C3 7906   1.982   3.273   0.506 -0.4663  0.0001  0.3235
  529MPD2    C4 7907   1.889   3.330   0.589 -0.0271 -0.8356 -0.9871
  529MPD2    C5 7908   1.880   3.291   0.722  0.5159  0.2096  0.4167
  529MPD2     H 7909   2.136   3.120   0.489  0.5855  0.0650  1.5212
  529MPD2    H1 7910   1.805   3.386   0.549 -1.2737 -1.0349  1.3204
  529MPD2    H2 7911   1.956   3.175   0.876  0.1986 -1.2481  0.5023
  529MPD2    H3 7912   1.811   3.344   0.787 -0.0729 -1.5774  1.2564
  529MPD2     N 7913   1.988   3.324   0.374 -1.1148  0.8866  0.4503
  529MPD2    H5 7914   1.912   3.388   0.354 -1.0402  1.1586  1.0304
  529MPD2    N1 7915   2.166   3.060   0.737  0.5307 -0.0781  0.5734
  529MPD2    H7 7916   2.220   3.015   0.664  0.9711 -0.8892  1.3888
  530TMC3    C1 7917   2.316   2.944   0.873  0.0777 -0.0122  0.1098
  530TMC3    C2 7918   2.441   2.962   0.929 -0.6721  0.0792  0.4473
  530TMC3    C3 7919   2.542   2.869   0.911 -0.0952 -0.3338  0.3231
  530TMC3    C4 7920   2.291   2.828   0.805  0.0511 -0.7399  0.0737
  530TMC3    C5 7921   2.386   2.733   0.798  0.2181 -0.0841 -0.1129
  530TMC3    C6 7922   2.513   2.755   0.844  0.0991 -0.0461  0.1244
  530TMC3     C 7923   2.211   3.048   0.866 -0.1978  0.5125  0.5942
  530TMC3     O 7924   2.188   3.111   0.970  0.2748 -0.1308  0.2556
  530TMC3     H 7925   2.471   3.058   0.971  1.2147  0.5221 -1.9367
  530TMC3    H1 7926   2.193   2.803   0.766 -0.5543 -0.3900  1.3427
  530TMC3    H2 7927   2.580   2.671   0.827 -0.8650 -0.9888  0.9917
  530TMC3    C7 7928   2.359   2.592   0.771  0.3984  0.1546  0.2820
  530TMC3    C8 7929   2.648   2.872   1.013  0.3075  0.1009 -0.4032
  530TMC3    O1 7930   2.438   2.531   0.697  0.8108 -0.0050  0.0281
  530TMC3    O2 7931   2.650   2.975   1.084 -0.1277 -0.5820  0.1540
  531MPD2     C 7932   1.545   0.586  13.284 -1.3232  0.4851 -0.4997
  531MPD2    C1 7933   1.437   0.617  13.360  0.6761 -0.5479 -0.3867
  531MPD2    C2 7934   1.320   0.554  13.333  0.3375  0.7774 -0.3483
  531MPD2    C3 7935   1.307   0.459  13.233  0.8816 -0.3467 -0.0915
  531MPD2    C4 7936   1.419   0.435  13.153  0.1055  0.3364 -0.0874
  531MPD2    C5 7937   1.533   0.496  13.182 -0.4018 -0.1426  0.7843
  531MPD2     H 7938   1.232   0.560  13.396 -0.2531  0.3148 -1.1251
  531MPD2    H1 7939   1.404   0.372  13.066  0.3254  0.2033 -0.0308
  531MPD2    H2 7940   1.645   0.625  13.301 -0.8717 -0.9310  0.1148
  531MPD2    H3 7941   1.621   0.473  13.124  0.7501  0.2756  2.3722
  531MPD2     N 7942   1.182   0.394  13.224  0.0263 -0.6341  0.2220
  531MPD2    H5 7943   1.122   0.414  13.303  2.7500  0.2479  2.0534
  531MPD2    N1 7944   1.451   0.708  13.467  0.2760  0.4455 -0.0204
  531MPD2    H7 7945   1.540   0.757  13.474 -1.0694  2.7008  1.7085
  532TMC3    C1 7946   1.388   0.861  13.637 -0.1384  0.8402 -0.2843
  532TMC3    C2 7947   1.283   0.934  13.675 -0.7538 -0.4971 -0.3553
  532TMC3    C3 7948   1.245   0.942  13.805 -0.0062  0.8757  0.5618
  532TMC3    C4 7949   1.464   0.796  13.733  0.0021  0.2642  0.3496
  532TMC3    C5 7950   1.431   0.814  13.865 -0.3066  0.0790 -0.1142
  532TMC3    C6 7951   1.324   0.890  13.905  0.2993 -1.0065  0.3450
  532TMC3     C 7952   1.347   0.771  13.535 -0.0485  0.6217  0.2438
  532TMC3     O 7953   1.226   0.768  13.512  0.4103 -0.3534  0.4004
  532TMC3     H 7954   1.225   0.979  13.595 -0.6136 -0.1307 -0.2548
  532TMC3    H1 7955   1.536   0.717  13.715  1.2006  1.1223  1.4012
  532TMC3    H2 7956   1.288   0.886  14.007 -1.3588 -0.4543 -0.2124
  532TMC3    C7 7957   1.506   0.748  13.977  0.3451  0.1568 -0.2532
  532TMC3    C8 7958   1.101   0.919  13.825  0.0488  0.6727 -0.4897
  532TMC3    O1 7959   1.564   0.812  14.066 -0.3997 -0.0597  0.3418
  532TMC3    O2 7960   1.045   0.974  13.918  0.1330 -0.1523  0.1417
  533TMC3    C1 7961   1.881   2.513  13.981 -0.4592  0.1530 -0.2710
  533TMC3    C2 7962   1.995   2.581  13.969 -0.3337 -0.1954 -0.0614
  533TMC3    C3 7963   1.996   2.711  14.020 -0.4808 -0.0843  0.3659
  533TMC3    C4 7964   1.775   2.572  14.048 -0.1912 -1.0560  0.1787
  533TMC3    C5 7965   1.776   2.702  14.102 -0.1468 -0.0167 -0.8854
  533TMC3    C6 7966   1.886   2.770  14.081 -0.3566  0.6628 -0.4333
  533TMC3     C 7967   1.895   2.371  13.991  0.2459  0.2080 -0.0468
  533TMC3     O 7968   2.006   2.324  14.015  0.3078  0.6497 -0.1311
  533TMC3     H 7969   2.077   2.533  13.918  0.4481  0.9300  0.1504
  533TMC3    H1 7970   1.690   2.510  14.076 -0.5774  0.0991  1.5828
  533TMC3    H2 7971   1.896   2.871  14.119 -1.2658  1.3170 -1.9087
  533TMC3    C7 7972   1.751   2.714  14.242  0.1533 -0.4158 -0.5177
  533TMC3    C8 7973   2.117   2.789  14.015 -0.1270 -0.7813  0.1009
  533TMC3    O1 7974   1.737   2.606  14.305  0.4374  0.1722  0.1333
  533TMC3    O2 7975   2.110   2.897  14.072  0.8168  0.1876  1.0292
  534MPD2     C 7976   4.646   3.370   0.958 -0.4061  0.5274  0.3214
  534MPD2    C1 7977   4.641   3.440   1.069 -0.6496 -0.0776 -0.5436
  534MPD2    C2 7978   4.523   3.456   1.133 -0.0014  0.4265  0.1330
  534MPD2    C3 7979   4.415   3.379   1.094 -0.4043 -0.4656 -0.0400
  534MPD2    C4 7980   4.420   3.304   0.977 -0.2194  0.4945 -0.2624
  534MPD2    C5 7981   4.540   3.301   0.905 -0.1153 -0.6168 -0.0727
  534MPD2     H 7982   4.531   3.520   1.220 -1.0330  1.0618 -0.2396
  534MPD2    H1 7983   4.331   3.259   0.937  0.6902 -1.5615  0.0036
  534MPD2    H2 7984   4.732   3.364   0.891 -0.4703 -0.8020  0.3638
  534MPD2    H3 7985   4.541   3.261   0.804  0.7561  0.9122 -0.6609
  534MPD2     N 7986   4.289   3.395   1.154  0.6474 -0.3404 -0.1383
  534MPD2    H5 7987   4.204   3.375   1.102  0.8368 -3.3468  0.7124
  534MPD2    N1 7988   0.008   3.520   1.102 -0.4582 -0.5131  0.1267
  534MPD2    H7 7989   4.741   3.596   1.168  0.0954 -1.6271  1.5105
  535TMC3    C1 7990   4.140   3.497   1.286  0.0701 -0.1537 -0.2407
  535TMC3    C2 7991   4.060   3.473   1.394  0.5448  0.4006  0.3625
  535TMC3    C3 7992   3.937   3.533   1.391  0.4465  0.3056  0.2363
  535TMC3    C4 7993   4.105   3.575   1.176  0.2384 -0.8239  1.2232
  535TMC3    C5 7994   3.979   3.640   1.184 -0.2427  0.3000 -0.2890
  535TMC3    C6 7995   3.896   3.615   1.288 -0.0186 -1.0438 -1.3088
  535TMC3     C 7996   4.270   3.440   1.278  0.8868  0.4603  0.7255
  535TMC3     O 7997   4.343   3.428   1.374  0.5407 -0.1139  0.2343
  535TMC3     H 7998   4.092   3.406   1.474  3.3157 -0.3216 -1.3581
  535TMC3    H1 7999   4.172   3.588   1.092 -1.9900 -2.0857 -0.7330
  535TMC3    H2 8000   3.807   3.676   1.302  1.6940  1.2028 -0.1652
  535TMC3    C7 8001   3.933   3.697   1.056 -0.0190  0.5213 -0.3969
  535TMC3    C8 8002   3.825   3.459   1.447 -0.3063 -0.3765  0.1423
  535TMC3    O1 8003   4.010   3.675   0.967  0.2269  0.0362  0.4633
  535TMC3    O2 8004   3.723   3.462   1.382 -0.1809 -0.0524  0.4044
  536MPD2     C 8005   3.414   1.902  16.237  0.4756  0.0533  0.2290
  536MPD2    C1 8006   3.321   1.801  16.216 -1.1561  0.6364 -1.1784
  536MPD2    C2 8007   3.236   1.805  16.101  0.2280 -1.0262 -0.4308
  536MPD2    C3 8008   3.260   1.911  16.014 -0.1281 -0.4908 -0.1658
  536MPD2    C4 8009   3.371   2.002  16.026 -0.2669  0.4760  0.3881
  536MPD2    C5 8010   3.448   1.987  16.133 -0.0464 -0.3824  0.3922
  536MPD2     H 8011   3.165   1.727  16.077 -0.7452 -0.0838 -0.6458
  536MPD2    H1 8012   3.389   2.078  15.951 -1.2813 -0.4991 -0.8518
  536MPD2    H2 8013   3.472   1.897  16.328  0.3099 -1.4324  0.2575
  536MPD2    H3 8014   3.528   2.056  16.157 -0.3566 -0.4107  1.5214
  536MPD2     N 8015   3.165   1.953  15.918 -0.5694 -0.5878  0.8660
  536MPD2    H5 8016   3.177   2.037  15.862  1.3989 -1.3023  0.2151
  536MPD2    N1 8017   3.300   1.705  16.318  0.4499  0.3605  0.1935
  536MPD2    H7 8018   3.360   1.705  16.400 -1.2170  1.0578  1.4055
  537TMC3    C1 8019   3.180   1.532  16.437  0.4052 -0.6736  0.2921
  537TMC3    C2 8020   3.211   1.598  16.556 -0.2187 -0.0321  0.8487
  537TMC3    C3 8021   3.159   1.560  16.675  0.5380  0.8158 -0.1347
  537TMC3    C4 8022   3.094   1.427  16.451  0.1845  0.1328  0.0187
  537TMC3    C5 8023   3.052   1.380  16.573  0.1180 -0.5774  0.6598
  537TMC3    C6 8024   3.085   1.452  16.695  0.2923 -0.0180  0.4028
  537TMC3     C 8025   3.210   1.594  16.314  0.1856 -0.1707  0.0305
  537TMC3     O 8026   3.126   1.563  16.228 -0.5383 -0.2707 -0.3450
  537TMC3     H 8027   3.270   1.689  16.562  0.2897 -0.3344  0.2834
  537TMC3    H1 8028   3.091   1.356  16.369 -0.4728  0.0336  0.1344
  537TMC3    H2 8029   3.040   1.439  16.793 -0.1760 -3.3355 -0.2358
  537TMC3    C7 8030   2.979   1.259  16.575 -0.1848 -0.8601 -0.2309
  537TMC3    C8 8031   3.154   1.670  16.763 -0.3533  0.3208 -0.6258
  537TMC3    O1 8032   2.936   1.227  16.463 -0.3585 -0.8214  0.4409
  537TMC3    O2 8033   3.153   1.651  16.884 -0.1115  0.9392  0.8524
  538TMC3    C1 8034   3.913   0.256  11.023 -0.3328  0.5228  0.1209
  538TMC3    C2 8035   3.950   0.213  10.900 -0.0544  0.7102 -0.0976
  538TMC3    C3 8036   3.894   0.281  10.797 -0.0229  0.3510  0.1601
  538TMC3    C4 8037   3.818   0.350  11.047  0.0579 -0.0365  0.0263
  538TMC3    C5 8038   3.766   0.417  10.941  0.0133  0.2610  0.2681
  538TMC3    C6 8039   3.809   0.385  10.815  0.0837 -0.4817 -0.1790
  538TMC3     C 8040   3.963   0.181  11.132 -0.3181  0.5903  0.0996
  538TMC3     O 8041   3.881   0.144  11.215  0.0843 -0.1920 -0.1205
  538TMC3     H 8042   4.016   0.128  10.887 -1.6534 -0.3961 -0.9302
  538TMC3    H1 8043   3.792   0.385  11.146 -0.5527 -0.2501 -0.0581
  538TMC3    H2 8044   3.768   0.438  10.730  2.3363  3.0125  0.8773
  538TMC3    C7 8045   3.662   0.514  10.964  0.3221  1.4324 -0.6797
  538TMC3    C8 8046   3.923   0.248  10.656  0.4441 -0.7109 -0.7166
  538TMC3    O1 8047   3.612   0.526  11.076 -0.2097 -0.1338 -0.6629
  538TMC3    O2 8048   3.821   0.249  10.585  0.3186  0.2025 -0.8644
  539MPD2     C 8049   3.898   4.300  11.375 -0.4627  0.1288 -0.4503
  539MPD2    C1 8050   3.803   4.298  11.272 -0.5009  0.3215  0.0477
  539MPD2    C2 8051   3.728   4.410  11.247 -0.6225 -0.3969  0.9645
  539MPD2    C3 8052   3.774   4.532  11.297  0.8337 -0.2902 -0.7168
  539MPD2    C4 8053   3.865   4.535  11.402 -0.4938  0.2231 -0.1974
  539MPD2    C5 8054   3.918   4.419  11.443  0.2619 -0.1365  0.0098
  539MPD2     H 8055   3.645   4.414  11.178  1.7236 -2.2684 -1.9808
  539MPD2    H1 8056   3.910   4.623  11.445  0.6025 -0.6353  0.4162
  539MPD2    H2 8057   3.937   4.203  11.405  0.3272  0.7765  0.6132
  539MPD2    H3 8058   3.994   4.429  11.520  0.7421  0.7097 -0.5632
  539MPD2     N 8059   3.719   4.661  11.270 -0.0427 -0.4534 -0.7010
  539MPD2    H5 8060   3.765   4.741  11.312 -1.8040  0.1445  0.0929
  539MPD2    N1 8061   3.766   4.170  11.212 -0.0031 -0.2721 -0.3799
  539MPD2    H7 8062   3.682   4.165  11.156  0.3634 -1.5399 -0.7997
  540TMC3    C1 8063   3.570   0.079  11.216  0.6018  0.2947 -0.4717
  540TMC3    C2 8064   3.500   0.144  11.125  0.3907  0.5031 -0.0337
  540TMC3    C3 8065   3.445   0.262  11.156 -0.3904  0.5809 -0.0009
  540TMC3    C4 8066   3.592   0.124  11.345 -0.1594 -0.3563  0.7192
  540TMC3    C5 8067   3.519   0.233  11.376  0.9613  0.3955  0.0047
  540TMC3    C6 8068   3.450   0.306  11.283  0.0621  0.2732 -0.1303
  540TMC3     C 8069   3.613   4.683  11.188  0.2660 -0.7263  0.0527
  540TMC3     O 8070   3.562   4.618  11.099 -0.0644 -0.1566  0.4750
  540TMC3     H 8071   3.515   0.119  11.021  1.2243  1.4473 -0.1422
  540TMC3    H1 8072   3.632   0.061  11.423 -0.3110 -1.9476 -0.4974
  540TMC3    H2 8073   3.406   0.400  11.313  1.9650  1.2256 -0.3242
  540TMC3    C7 8074   3.457   0.220  11.508 -0.1588  0.0132  0.2536
  540TMC3    C8 8075   3.332   0.313  11.072 -0.4618  0.1456  0.0076
  540TMC3    O1 8076   3.490   0.122  11.578  0.0825 -0.1378 -0.0466
  540TMC3    O2 8077   3.292   0.430  11.086  0.0082 -0.0785 -0.0181
  541MPD2     C 8078   2.206   0.708  13.437 -0.5494  0.1121  0.7667
  541MPD2    C1 8079   2.065   0.726  13.427 -0.0425  0.0244 -0.3420
  541MPD2    C2 8080   2.012   0.767  13.304  0.1487 -0.0376 -0.1811
  541MPD2    C3 8081   2.093   0.791  13.191 -0.3941 -0.0247  0.3295
  541MPD2    C4 8082   2.228   0.780  13.207  0.4738 -0.0679 -0.5096
  541MPD2    C5 8083   2.283   0.739  13.326 -0.2193  1.3720 -0.1295
  541MPD2     H 8084   1.904   0.772  13.295 -0.0941 -0.7263  2.4143
  541MPD2    H1 8085   2.296   0.782  13.122  0.2791 -0.3065 -0.6700
  541MPD2    H2 8086   2.256   0.675  13.527 -2.6601 -3.3727  0.6668
  541MPD2    H3 8087   2.391   0.726  13.327 -0.0533  2.7224 -0.9967
  541MPD2     N 8088   2.039   0.811  13.062  0.1514  0.1281  0.0562
  541MPD2    H5 8089   2.102   0.822  12.983  1.3688 -1.4234  0.8123
  541MPD2    N1 8090   1.979   0.692  13.530  0.0301 -0.5282  0.0223
  541MPD2    H7 8091   1.878   0.705  13.525  0.3164  0.8992 -2.1911
  542TMC3    C1 8092   1.898   0.881  12.887 -0.0396  0.3344  0.0474
  542TMC3    C2 8093   1.980   0.837  12.779 -0.6546 -0.6530  0.0006
  542TMC3    C3 8094   1.939   0.864  12.648  0.3460 -0.1295 -0.8197
  542TMC3    C4 8095   1.788   0.956  12.861  0.7595 -0.9727 -0.1679
  542TMC3    C5 8096   1.760   0.992  12.733  0.9255 -0.3132 -0.4404
  542TMC3    C6 8097   1.835   0.949  12.626 -0.3778  0.2592  0.4576
  542TMC3     C 8098   1.914   0.845  13.031 -0.4840 -0.4585 -0.5496
  542TMC3     O 8099   1.829   0.881  13.107  0.3521 -0.1012  0.3620
  542TMC3     H 8100   2.063   0.773  12.805  0.9633  0.0326 -3.4529
  542TMC3    H1 8101   1.712   0.972  12.937  0.5126 -0.7672 -0.4538
  542TMC3    H2 8102   1.813   0.984  12.526  1.9742  0.8108  0.1397
  542TMC3    C7 8103   1.641   1.063  12.702 -0.1603  0.2869 -0.8225
  542TMC3    C8 8104   2.003   0.806  12.534 -0.5378  0.9825  0.2950
  542TMC3    O1 8105   1.584   1.041  12.597  0.1626  0.0208  0.2390
  542TMC3    O2 8106   1.948   0.823  12.425 -0.1318 -0.7162  0.1579
  543TMC3    C1 8107   1.907   2.478  17.320 -0.3290 -0.9305 -0.5936
  543TMC3    C2 8108   1.892   2.351  17.372 -0.5689  0.7075 -0.4312
  543TMC3    C3 8109   1.845   2.345  17.502 -0.5665 -0.8356 -0.2750
  543TMC3    C4 8110   1.860   2.593  17.385 -0.2998 -0.4456  0.2598
  543TMC3    C5 8111   1.809   2.578  17.512  0.0054  0.3341 -0.1131
  543TMC3    C6 8112   1.799   2.457  17.568 -0.0739 -0.0163  0.5107
  543TMC3     C 8113   1.975   2.496  17.191  0.0642 -0.2223 -0.4318
  543TMC3     O 8114   2.005   2.392  17.135 -0.5725  0.2041  0.3856
  543TMC3     H 8115   1.942   2.267  17.325  1.3348  0.3239  2.2618
  543TMC3    H1 8116   1.860   2.691  17.339  1.5990  0.8240  3.0111
  543TMC3    H2 8117   1.758   2.452  17.668 -0.7423  2.4555  0.3602
  543TMC3    C7 8118   1.750   2.693  17.580 -0.0337 -0.5224 -0.1283
  543TMC3    C8 8119   1.822   2.212  17.555 -0.5162 -0.4140 -0.6855
  543TMC3    O1 8120   1.662   2.675  17.666 -0.3718  0.2129 -0.0011
  543TMC3    O2 8121   1.861   2.120  17.487 -0.1147  0.1672  0.2060
  544MPD2     C 8122   1.708   1.887   0.175  0.0341  0.0592  0.2526
  544MPD2    C1 8123   1.743   1.861   0.043 -0.0506 -0.1663 -0.8622
  544MPD2    C2 8124   1.779   1.974  17.728  0.6500 -0.0191 -0.8181
  544MPD2    C3 8125   1.775   2.101   0.009 -0.6355  0.2481  0.2697
  544MPD2    C4 8126   1.751   2.123   0.143  0.0396  0.0312  0.7929
  544MPD2    C5 8127   1.717   2.017   0.223 -0.3193 -0.6842  0.1030
  544MPD2     H 8128   1.787   1.950  17.622 -1.0836 -0.9774 -0.7248
  544MPD2    H1 8129   1.748   2.220   0.191  0.4118  0.7286 -0.5790
  544MPD2    H2 8130   1.702   1.808   0.249  2.5121 -0.6360 -0.2844
  544MPD2    H3 8131   1.710   2.040   0.329 -2.8337  0.6017 -0.3432
  544MPD2     N 8132   1.793   2.215  17.691 -0.2710 -0.4992  0.2897
  544MPD2    H5 8133   1.757   2.298  17.737  0.4940  0.7626 -1.4032
  544MPD2    N1 8134   1.739   1.720   0.009 -0.1996 -0.1035 -0.0318
  544MPD2    H7 8135   1.691   1.660   0.075 -0.3261 -0.2661 -0.2719
  545TMC3    C1 8136   1.788   1.522  17.648 -0.1704 -0.2917  0.6943
  545TMC3    C2 8137   1.820   1.476  17.521  0.2292  0.5624 -0.0541
  545TMC3    C3 8138   1.775   1.356  17.481 -0.4054  0.3844  0.1961
  545TMC3    C4 8139   1.713   1.441  17.735  0.0910 -0.4504 -1.0978
  545TMC3    C5 8140   1.674   1.324  17.684 -0.7479 -0.3145  0.0119
  545TMC3    C6 8141   1.704   1.273  17.565 -0.4054 -0.6929 -1.0856
  545TMC3     C 8142   1.807   1.667  17.667 -0.4590 -0.2172 -0.0440
  545TMC3     O 8143   1.864   1.735  17.577 -0.0437 -0.3386  0.2296
  545TMC3     H 8144   1.859   1.541  17.444 -0.3375  0.5377 -0.3586
  545TMC3    H1 8145   1.664   1.481   0.056  1.4275 -1.3181  0.0201
  545TMC3    H2 8146   1.662   1.179  17.532 -1.8831  0.8729 -3.7236
  545TMC3    C7 8147   1.561   1.257  17.741 -0.0501 -0.5862 -0.2377
  545TMC3    C8 8148   1.802   1.320  17.346 -0.1253 -0.5622  0.0744
  545TMC3    O1 8149   1.458   1.325  17.754  0.3903 -0.1489 -0.1867
  545TMC3    O2 8150   1.905   1.367  17.296 -0.2922 -0.6121 -0.1279
  546MPD2     C 8151   3.455   2.314  17.485 -0.2662 -1.1022  0.4021
  546MPD2    C1 8152   3.379   2.334  17.371 -0.4238  0.0547  0.2878
  546MPD2    C2 8153   3.401   2.446  17.292 -0.9495  0.3985  0.4609
  546MPD2    C3 8154   3.487   2.544  17.334  0.1307  0.4905 -0.1566
  546MPD2    C4 8155   3.554   2.521  17.454  0.4367 -0.5363  0.0319
  546MPD2    C5 8156   3.538   2.411  17.528 -0.7755  0.5053 -0.4726
  546MPD2     H 8157   3.352   2.468  17.198 -0.4085 -1.1000 -0.1694
  546MPD2    H1 8158   3.624   2.594  17.494 -0.3314  0.5942 -0.6950
  546MPD2    H2 8159   3.445   2.225  17.546 -2.2664 -0.0950  1.5236
  546MPD2    H3 8160   3.595   2.401  17.619 -0.1968 -4.0592 -1.3657
  546MPD2     N 8161   3.520   2.662  17.268  0.0418  0.4542  0.5862
  546MPD2    H5 8162   3.585   2.722  17.319  0.7138 -0.9107  1.3334
  546MPD2    N1 8163   3.288   2.235  17.333  0.2413 -0.1281  0.3031
  546MPD2    H7 8164   3.298   2.151  17.390 -2.1673 -1.1714 -0.8417
  547TMC3    C1 8165   3.139   2.097  17.206  0.1611  0.2680  0.0716
  547TMC3    C2 8166   3.074   2.071  17.087  0.5644 -0.1824  0.2250
  547TMC3    C3 8167   2.996   1.961  17.064 -0.2636 -0.0517  0.1757
  547TMC3    C4 8168   3.118   2.011  17.309  0.2260 -0.4612 -0.2211
  547TMC3    C5 8169   3.044   1.898  17.289  0.0325 -0.4076 -0.4995
  547TMC3    C6 8170   2.977   1.876  17.173  0.1713  0.1774  0.2445
  547TMC3     C 8171   3.209   2.226  17.221  0.5123  0.5886  0.0426
  547TMC3     O 8172   3.188   2.308  17.134  0.1883  0.1808  0.4933
  547TMC3     H 8173   3.066   2.153  17.016 -1.1102 -0.8400 -0.3481
  547TMC3    H1 8174   3.140   2.045  17.410 -2.6720 -3.8773  1.5518
  547TMC3    H2 8175   2.909   1.791  17.164  0.6551 -0.0454 -1.4138
  547TMC3    C7 8176   2.997   1.830  17.403  0.1814  0.1327 -0.4873
  547TMC3    C8 8177   2.887   1.973  16.968  0.0562  0.0906  0.9626
  547TMC3    O1 8178   2.981   1.887  17.509  0.2816  0.5012 -0.6398
  547TMC3    O2 8179   2.846   2.085  16.956 -0.2376  0.2463 -0.3960
  548MPD2     C 8180   2.669   2.626  12.352 -0.4552  0.8997 -0.0836
  548MPD2    C1 8181   2.623   2.532  12.443 -0.4961  0.2809 -0.4862
  548MPD2    C2 8182   2.679   2.403  12.447  1.4054 -0.1166  0.7765
  548MPD2    C3 8183   2.787   2.371  12.362 -0.1411  1.2422  0.5143
  548MPD2    C4 8184   2.829   2.463  12.268  0.7163  1.0787  0.0871
  548MPD2    C5 8185   2.773   2.592  12.274 -0.2344 -0.1894 -0.0240
  548MPD2     H 8186   2.655   2.339  12.530  0.4743 -0.5684  0.1578
  548MPD2    H1 8187   2.910   2.443  12.198 -0.4489  0.9621 -1.2368
  548MPD2    H2 8188   2.617   2.718  12.329 -1.4689  0.5382  0.7654
  548MPD2    H3 8189   2.811   2.674  12.214  0.3113  0.9337  1.8548
  548MPD2     N 8190   2.843   2.241  12.372 -0.1420 -0.2987  0.1577
  548MPD2    H5 8191   2.815   2.180  12.449  0.6430 -1.2437 -0.3096
  548MPD2    N1 8192   2.521   2.572  12.533 -0.1455 -0.0442  0.0939
  548MPD2    H7 8193   2.494   2.670  12.538 -1.0768 -0.2738 -0.3585
  549TMC3    C1 8194   2.355   2.531  12.704 -0.7799 -0.1090  0.2015
  549TMC3    C2 8195   2.297   2.658  12.691  0.9338 -0.2453 -0.2909
  549TMC3    C3 8196   2.224   2.710  12.789  0.0912  0.2574  0.1009
  549TMC3    C4 8197   2.317   2.450  12.810  0.8201  0.1648 -0.3686
  549TMC3    C5 8198   2.222   2.502  12.890 -0.0313  0.6438  0.3345
  549TMC3    C6 8199   2.182   2.635  12.892 -0.3078 -0.7022  0.0813
  549TMC3     C 8200   2.451   2.480  12.607 -0.0400  0.1147 -0.3953
  549TMC3     O 8201   2.451   2.355  12.603  0.2336  0.1789  0.1356
  549TMC3     H 8202   2.323   2.721  12.607 -0.0169  0.2379 -0.2165
  549TMC3    H1 8203   2.358   2.350  12.814  3.8147  1.5283  2.4480
  549TMC3    H2 8204   2.094   2.663  12.950 -0.8727 -1.7637 -0.2706
  549TMC3    C7 8205   2.133   2.402  12.948  0.9581  0.4850 -0.1340
  549TMC3    C8 8206   2.143   2.824  12.754  0.0926 -0.2602  0.2108
  549TMC3    O1 8207   2.050   2.435  13.032  0.6009 -0.2628 -0.0653
  549TMC3    O2 8208   2.029   2.820  12.800  0.7387  0.0722  0.8480
  550TMC3    C1 8209   1.832   0.544  12.339 -0.1121  0.1593 -0.3194
  550TMC3    C2 8210   1.796   0.548  12.469  0.2365 -0.2090 -0.1554
  550TMC3    C3 8211   1.692   0.628  12.510  0.2239  0.3282  0.6615
  550TMC3    C4 8212   1.774   0.622  12.250 -0.0061 -0.4939 -1.1179
  550TMC3    C5 8213   1.671   0.704  12.287  0.0433 -1.0356  0.4211
  550TMC3    C6 8214   1.625   0.712  12.416  0.7049  0.0989 -0.5453
  550TMC3     C 8215   1.905   0.421  12.291 -0.3487 -0.2847 -0.5838
  550TMC3     O 8216   1.958   0.351  12.377  0.4845  0.1056  0.1393
  550TMC3     H 8217   1.838   0.472  12.535  2.0592  3.0538  2.4315
  550TMC3    H1 8218   1.800   0.629  12.145  1.2497  2.1747 -0.6282
  550TMC3    H2 8219   1.560   0.796  12.440 -0.9147 -1.0710 -0.8154
  550TMC3    C7 8220   1.599   0.777  12.190 -0.0687  0.1135  0.4748
  550TMC3    C8 8221   1.643   0.624  12.654 -0.2959  0.5977  0.5268
  550TMC3    O1 8222   1.666   0.797  12.086 -0.2174 -0.2769 -0.2668
  550TMC3    O2 8223   1.712   0.565  12.740 -0.6144  0.8878  0.6270
  551TMC3    C1 8224   3.779   3.237  13.021  0.3856 -0.1312  0.4098
  551TMC3    C2 8225   3.861   3.268  12.916 -0.4642  0.6492 -0.7291
  551TMC3    C3 8226   3.950   3.373  12.929 -0.2328 -1.0236 -0.1409
  551TMC3    C4 8227   3.786   3.314  13.136 -0.4382 -0.8878  0.0461
  551TMC3    C5 8228   3.876   3.417  13.140 -0.3485  0.3003 -0.3098
  551TMC3    C6 8229   3.957   3.453  13.038 -0.4917 -0.1043 -0.0838
  551TMC3     C 8230   3.684   3.129  13.003  0.0770  0.0293 -0.5039
  551TMC3     O 8231   3.694   3.074  12.892 -0.5220  0.2938  0.0780
  551TMC3     H 8232   3.863   3.218  12.819 -1.5737 -0.3345 -0.2414
  551TMC3    H1 8233   3.717   3.299  13.219 -0.5600  1.5686  0.3979
  551TMC3    H2 8234   4.022   3.538  13.051  1.6540 -1.5770 -1.2729
  551TMC3    C7 8235   3.888   3.508  13.250 -0.0203  0.2925 -0.2624
  551TMC3    C8 8236   4.001   3.435  12.799  0.1813  0.4932  0.6230
  551TMC3    O1 8237   3.998   3.548  13.284 -0.1249  0.5096  0.2874
  551TMC3    O2 8238   4.023   3.355  12.708 -0.3158  0.3563 -0.3384
  552MPD2     C 8239   1.431   0.809  14.360  0.3520 -0.3373  1.2081
  552MPD2    C1 8240   1.408   0.678  14.398  1.1389 -0.2794  0.3320
  552MPD2    C2 8241   1.485   0.631  14.504  0.2416 -0.3442  0.4479
  552MPD2    C3 8242   1.583   0.707  14.567  0.0136  0.0277  0.5908
  552MPD2    C4 8243   1.605   0.831  14.523  0.1959 -0.5772  0.4251
  552MPD2    C5 8244   1.528   0.880  14.427  0.1143  0.6632  0.4630
  552MPD2     H 8245   1.483   0.525  14.529 -0.9794 -0.3343  0.3937
  552MPD2    H1 8246   1.670   0.904  14.570 -0.1355 -0.5090  0.7777
  552MPD2    H2 8247   1.382   0.860  14.278 -1.0703 -2.7008  0.5945
  552MPD2    H3 8248   1.559   0.977  14.389  2.7367 -0.4478 -0.2482
  552MPD2     N 8249   1.666   0.657  14.670 -0.2398  0.3743 -0.0525
  552MPD2    H5 8250   1.743   0.720  14.690 -0.2508  0.2179  0.4914
  552MPD2    N1 8251   1.317   0.597  14.328 -0.6662 -0.3469  0.4748
  552MPD2    H7 8252   1.316   0.499  14.356  0.9372 -0.8279 -1.1874
  553TMC3    C1 8253   1.152   0.526  14.180  0.0024 -0.6077 -0.2351
  553TMC3    C2 8254   1.101   0.540  14.055  0.1866  0.6892  0.2407
  553TMC3    C3 8255   1.002   0.458  14.008 -1.0014 -0.1527 -0.6469
  553TMC3    C4 8256   1.097   0.440  14.270  0.0896 -0.3478 -0.4902
  553TMC3    C5 8257   1.002   0.358  14.220  0.4248 -0.3595  0.4239
  553TMC3    C6 8258   0.952   0.367  14.097 -0.6799 -0.0847 -0.3753
  553TMC3     C 8259   1.225   0.637  14.239  1.0635  0.3027 -0.7123
  553TMC3     O 8260   1.201   0.747  14.198 -0.5657 -0.4878 -0.6452
  553TMC3     H 8261   1.137   0.618  13.988  1.0439 -1.6402 -2.0281
  553TMC3    H1 8262   1.135   0.421  14.370 -1.7545 -1.4196 -0.0025
  553TMC3    H2 8263   0.896   0.288  14.048  2.0815 -2.0299 -0.3829
  553TMC3    C7 8264   0.999   0.217  14.254  0.0599  0.1822  0.6148
  553TMC3    C8 8265   1.048   0.407  13.875 -0.3485 -0.1943 -0.0132
  553TMC3    O1 8266   0.899   0.151  14.231 -0.1759 -0.2685  0.5889
  553TMC3    O2 8267   1.162   0.440  13.847 -0.5592 -0.5169  0.5936
  554TMC3    C1 8268   2.882   4.229  11.445  1.0876 -0.4323  0.2303
  554TMC3    C2 8269   2.790   4.217  11.349  0.3578  0.2728  0.2292
  554TMC3    C3 8270   2.818   4.256  11.224  0.2875  0.1693 -0.9982
  554TMC3    C4 8271   2.993   4.297  11.422 -0.4575 -0.3522 -0.3235
  554TMC3    C5 8272   3.018   4.346  11.301 -0.3246  0.2787  0.5283
  554TMC3    C6 8273   2.934   4.324  11.201 -0.4248 -0.1512  0.1034
  554TMC3     C 8274   2.855   4.169  11.574  0.2867 -0.1000 -0.5206
  554TMC3     O 8275   2.740   4.147  11.604 -0.7335  0.4956 -0.3584
  554TMC3     H 8276   2.695   4.172  11.375  1.1752 -1.9917 -0.7379
  554TMC3    H1 8277   3.060   4.312  11.506  0.4302 -1.4655 -0.8311
  554TMC3    H2 8278   2.949   4.371  11.105  0.1391  0.1985  0.3643
  554TMC3    C7 8279   3.092   4.476  11.285 -0.1562 -0.4314 -0.1142
  554TMC3    C8 8280   2.712   4.269  11.128 -0.2972 -0.2788  0.4242
  554TMC3    O1 8281   3.125   4.515  11.175  0.1515  0.3170  0.0061
  554TMC3    O2 8282   2.722   4.352  11.038  0.2287  0.5216 -0.0135
  555TMC3    C1 8283   1.898   4.335  15.200  0.5160 -0.2346  0.1052
  555TMC3    C2 8284   1.928   4.396  15.317 -0.1592  0.8472  0.0513
  555TMC3    C3 8285   2.023   4.337  15.390  0.7482 -0.4335 -0.2382
  555TMC3    C4 8286   1.986   4.245  15.137  0.1649  0.2761  0.2633
  555TMC3    C5 8287   2.093   4.201  15.210 -0.3939  0.1277 -1.0079
  555TMC3    C6 8288   2.102   4.233  15.343  0.7079  0.3675 -0.2574
  555TMC3     C 8289   1.796   4.405  15.126  0.6235 -0.4952  0.2812
  555TMC3     O 8290   1.680   4.384  15.149 -0.5295 -0.5267  0.2319
  555TMC3     H 8291   1.864   4.472  15.362 -1.1616  0.8473 -1.3612
  555TMC3    H1 8292   1.962   4.209  15.038 -0.7624  1.3329  0.1002
  555TMC3    H2 8293   2.161   4.174  15.412 -1.2417 -0.4709  0.6775
  555TMC3    C7 8294   2.147   4.076  15.153 -0.4392 -0.3686 -0.2827
  555TMC3    C8 8295   2.025   4.358  15.530 -0.1339  0.6772 -0.0117
  555TMC3    O1 8296   2.074   4.016  15.076 -0.2210  0.1752 -0.0389
  555TMC3    O2 8297   1.943   4.423  15.590  0.2565  0.3024 -0.3459
  556MPD2     C 8298   4.404   0.715  10.974 -0.3133  0.4141  0.0628
  556MPD2    C1 8299   4.516   0.631  10.996  0.6336  0.0330  0.0666
  556MPD2    C2 8300   4.603   0.612  10.890  0.0965  0.6535  0.4316
  556MPD2    C3 8301   4.584   0.670  10.768 -0.0515 -0.4938  0.1211
  556MPD2    C4 8302   4.474   0.749  10.749 -0.3739  0.4093 -0.3151
  556MPD2    C5 8303   4.379   0.760  10.849 -0.0656 -0.0329  0.3584
  556MPD2     H 8304   4.689   0.546  10.894 -0.3817  0.0078 -0.0713
  556MPD2    H1 8305   4.443   0.798  10.658 -0.3227  0.9061 -0.0701
  556MPD2    H2 8306   4.344   0.729  11.062  3.7321  0.7873  2.7661
  556MPD2    H3 8307   4.289   0.815  10.825  0.9430  0.8287 -1.4639
  556MPD2     N 8308   4.665   0.623  10.666  0.4382 -0.0012  0.8095
  556MPD2    H5 8309   4.725   0.544  10.687  0.2760  0.5239  3.1935
  556MPD2    N1 8310   4.542   0.558  11.115  0.1157  0.1579 -0.0932
  556MPD2    H7 8311   4.637   0.524  11.119  0.1138  0.2284  0.5882
  557TMC3    C1 8312   4.717   0.584  10.440  0.4660 -0.5291 -0.2419
  557TMC3    C2 8313   4.713   0.639  10.313 -0.5958  0.0902 -0.4442
  557TMC3    C3 8314   4.660   0.559  10.219 -0.2922  0.5192  0.1245
  557TMC3    C4 8315   4.687   0.453  10.462 -0.9298  0.0603 -0.1362
  557TMC3    C5 8316   4.618   0.387  10.366 -0.0634 -0.5112 -0.4006
  557TMC3    C6 8317   4.608   0.428  10.238  0.3233 -0.1082 -0.1908
  557TMC3     C 8318   4.658   0.678  10.541 -0.2597 -0.2569  0.1478
  557TMC3     O 8319   4.606   0.776  10.495  0.8820 -0.6508  0.5370
  557TMC3     H 8320   0.008   0.740  10.300 -4.3763  2.2381  5.0327
  557TMC3    H1 8321   4.694   0.404  10.558  0.5191 -1.4407 -1.0082
  557TMC3    H2 8322   4.562   0.374  10.156 -0.6456  0.5989 -0.1060
  557TMC3    C7 8323   4.528   0.290  10.409  0.7083  0.2134 -0.0011
  557TMC3    C8 8324   4.661   0.618  10.088 -0.2770 -0.3210 -0.3221
  557TMC3    O1 8325   4.534   0.257  10.524 -0.2848 -0.0533  0.1823
  557TMC3    O2 8326   4.692   0.734  10.084  0.4537  0.6824 -0.4028
  558TMC3    C1 8327   1.622   3.656  10.084 -0.2683  0.0100 -0.2667
  558TMC3    C2 8328   1.608   3.620  10.211  0.4949 -0.0094 -0.3596
  558TMC3    C3 8329   1.502   3.538  10.250 -0.1990 -0.6157  0.1983
  558TMC3    C4 8330   1.537   3.616   9.986  0.2000 -0.0408 -0.0407
  558TMC3    C5 8331   1.437   3.526  10.027 -0.4805  0.1571  0.1320
  558TMC3    C6 8332   1.422   3.483  10.160 -1.4052 -0.5682  0.5771
  558TMC3     C 8333   1.756   3.708  10.050 -0.0504 -0.0794  0.1645
  558TMC3     O 8334   1.836   3.713  10.143 -0.3748  0.2219 -0.2376
  558TMC3     H 8335   1.682   3.646  10.286  0.3604 -2.9246  0.7709
  558TMC3    H1 8336   1.537   3.656   9.885 -2.1062 -1.7179 -0.7036
  558TMC3    H2 8337   1.341   3.422  10.198 -1.0573 -2.6443 -1.9836
  558TMC3    C7 8338   1.333   3.507   9.930 -0.0004  0.3331  0.1078
  558TMC3    C8 8339   1.522   3.450  10.368 -0.1652 -0.2441  0.1121
  558TMC3    O1 8340   1.363   3.517   9.811 -0.1037 -0.1977 -0.2031
  558TMC3    O2 8341   1.483   3.335  10.359  0.2656 -0.4410  0.6355
  559MPD2     C 8342   2.139   4.230  10.446  0.3811  0.2267 -0.0160
  559MPD2    C1 8343   2.119   4.136  10.543  0.3224  0.3357 -0.1759
  559MPD2    C2 8344   2.219   4.086  10.619  0.0833 -0.4862 -0.1313
  559MPD2    C3 8345   2.349   4.126  10.594  0.4347  0.3390 -0.5003
  559MPD2    C4 8346   2.378   4.209  10.491  0.2955 -0.3013  0.1789
  559MPD2    C5 8347   2.271   4.259  10.425 -0.0415 -0.4082  0.0357
  559MPD2     H 8348   2.193   4.022  10.703  1.1737  0.2393  0.7623
  559MPD2    H1 8349   2.480   4.239  10.471  0.9129 -1.7339  1.1473
  559MPD2    H2 8350   2.059   4.265  10.383  1.6983  1.1639 -1.1625
  559MPD2    H3 8351   2.287   4.332  10.346 -0.0616 -1.0207 -0.5380
  559MPD2     N 8352   2.441   4.062  10.680  0.2027  0.2826  0.3811
  559MPD2    H5 8353   2.402   3.992  10.742  0.4013  0.5961  0.8579
  559MPD2    N1 8354   1.982   4.098  10.557 -0.0875  0.0394  0.4694
  559MPD2    H7 8355   1.919   4.144  10.493 -0.8163  2.6336  3.0597
  560TMC3    C1 8356   2.637   3.980  10.772 -0.1098 -0.1492 -0.4365
  560TMC3    C2 8357   2.552   3.893  10.846 -0.1757  0.3424 -0.4992
  560TMC3    C3 8358   2.585   3.858  10.969 -0.3304 -0.2066  0.7894
  560TMC3    C4 8359   2.754   4.023  10.825  0.2932 -0.0321 -1.5804
  560TMC3    C5 8360   2.791   3.966  10.942 -0.3867  0.1056  0.3123
  560TMC3    C6 8361   2.705   3.892  11.027  0.7510  1.0061  0.4255
  560TMC3     C 8362   2.576   4.072  10.682 -0.0869 -0.1969 -0.6342
  560TMC3     O 8363   2.636   4.163  10.627  0.1217  0.8978 -0.3430
  560TMC3     H 8364   2.457   3.855  10.809 -1.0137  1.6519  0.3207
  560TMC3    H1 8365   2.821   4.077  10.759  1.4004 -1.3164 -1.5160
  560TMC3    H2 8366   2.736   3.850  11.122 -0.2799 -0.6029  0.0454
  560TMC3    C7 8367   2.924   3.977  10.999 -0.1970  0.4864 -0.5484
  560TMC3    C8 8368   2.486   3.779  11.041 -0.1552 -0.5715 -0.3018
  560TMC3    O1 8369   2.961   3.882  11.061  0.2130  0.3499 -0.5597
  560TMC3    O2 8370   2.372   3.803  11.008 -0.1021  0.5389 -0.2567
  561TMC3    C1 8371   0.137   2.993  11.278  0.8321  0.3801 -0.2433
  561TMC3    C2 8372   0.054   2.902  11.328  0.0560 -0.0215  0.1092
  561TMC3    C3 8373   4.714   2.941  11.431 -0.0884  0.1109  1.0700
  561TMC3    C4 8374   0.132   3.122  11.324 -0.3141 -0.3543  0.1369
  561TMC3    C5 8375   0.056   3.159  11.428 -0.6135  0.2158 -0.3956
  561TMC3    C6 8376   4.712   3.066  11.490 -0.1031  0.1735 -0.3515
  561TMC3     C 8377   0.256   2.946  11.207  0.8137 -0.0967 -0.1853
  561TMC3     O 8378   0.270   2.825  11.184 -0.0638  0.8501 -0.0869
  561TMC3     H 8379   0.065   2.798  11.300 -0.4707 -0.3330  1.0550
  561TMC3    H1 8380   0.213   3.190  11.304 -0.6748  0.7059  2.2897
  561TMC3    H2 8381   4.653   3.077  11.580 -0.3667  1.3024 -0.6499
  561TMC3    C7 8382   0.101   3.262  11.519  0.3176  0.1358 -0.5155
  561TMC3    C8 8383   4.651   2.837  11.510 -0.1981  0.1147  0.9416
  561TMC3    O1 8384   0.060   3.256  11.635 -0.0017  0.6024  0.9273
  561TMC3    O2 8385   4.705   2.729  11.486  0.5177  0.0078 -0.0597
  562TMC3    C1 8386   2.244   4.518  16.674  0.1127 -0.9419 -0.7009
  562TMC3    C2 8387   2.166   4.627  16.683 -0.8707  0.7312 -0.1509
  562TMC3    C3 8388   2.071   4.648  16.588  0.4411 -0.7200 -0.6112
  562TMC3    C4 8389   2.221   4.420  16.579 -0.2396  0.3083 -0.1317
  562TMC3    C5 8390   2.127   4.447  16.475 -0.5384 -0.5152  0.2025
  562TMC3    C6 8391   2.054   4.562  16.483  0.2583  0.2504 -0.2571
  562TMC3     C 8392   2.342   4.483  16.775 -0.6468 -0.0634  0.1955
  562TMC3     O 8393   2.394   4.374  16.763  0.2846 -0.1040 -0.1720
  562TMC3     H 8394   2.183   4.709  16.751  2.1159  0.2225 -0.3080
  562TMC3    H1 8395   2.295   4.341  16.574  2.1572  2.5446  0.1264
  562TMC3    H2 8396   1.985   4.588  16.403 -1.0289  0.2411  0.8451
  562TMC3    C7 8397   2.078   4.335  16.408 -1.1088 -0.9203  0.4884
  562TMC3    C8 8398   2.008   0.040  16.582  0.3562 -0.6113  0.0602
  562TMC3    O1 8399   1.957   4.344  16.395 -1.0178 -0.4980 -0.0343
  562TMC3    O2 8400   2.001   0.106  16.684  0.0013 -0.4488  0.0849
  563MPD2     C 8401   4.405   1.328  15.813 -0.5625 -0.5514  0.3467
  563MPD2    C1 8402   4.483   1.339  15.924  0.0088 -0.2494 -0.3032
  563MPD2    C2 8403   4.582   1.249  15.958 -0.2611 -0.1281 -0.0008
  563MPD2    C3 8404   4.603   1.144  15.873  0.8308 -0.3908  0.1252
  563MPD2    C4 8405   4.530   1.126  15.755 -1.3253  0.0509 -0.1531
  563MPD2    C5 8406   4.424   1.215  15.737  0.0207 -0.4553 -0.4652
  563MPD2     H 8407   4.621   1.255  16.059  0.6436  0.1046 -0.3649
  563MPD2    H1 8408   4.531   1.037  15.694  2.8777 -0.1859  0.2811
  563MPD2    H2 8409   4.318   1.390  15.795  0.2226 -0.2887 -2.5945
  563MPD2    H3 8410   4.353   1.190  15.659  0.7350  2.7556 -2.1233
  563MPD2     N 8411   4.681   1.032  15.931  0.9358 -0.9796  0.5453
  563MPD2    H5 8412   4.709   1.048  16.028  1.6126 -1.3862  0.4137
  563MPD2    N1 8413   4.444   1.438  16.017  0.1700  0.5144 -0.0174
  563MPD2    H7 8414   4.346   1.466  16.020  0.5037  1.6457  0.1899
  564TMC3    C1 8415   4.463   1.495  16.243  0.2059 -0.0817  0.6777
  564TMC3    C2 8416   4.326   1.487  16.244 -0.2878 -0.2878  0.1573
  564TMC3    C3 8417   4.272   1.428  16.352 -0.1558  0.4355 -0.0086
  564TMC3    C4 8418   4.532   1.436  16.338 -0.3245  0.0838 -0.1423
  564TMC3    C5 8419   4.471   1.385  16.452 -0.1496  0.6701  1.0544
  564TMC3    C6 8420   4.341   1.380  16.460 -0.9713  0.0201  0.1665
  564TMC3     C 8421   4.530   1.481  16.113 -0.3965 -0.4277 -0.0411
  564TMC3     O 8422   4.652   1.483  16.106  0.3531 -0.3453  0.0239
  564TMC3     H 8423   4.271   1.548  16.173  0.0183  0.5016  0.5893
  564TMC3    H1 8424   4.637   1.412  16.325 -0.6289 -1.7077  0.5593
  564TMC3    H2 8425   4.292   1.362  16.556 -1.4212  2.1147  0.3194
  564TMC3    C7 8426   4.533   1.265  16.495 -0.0763  0.8476 -0.0654
  564TMC3    C8 8427   4.181   1.318  16.323 -0.0361  0.4451 -0.2520
  564TMC3    O1 8428   4.651   1.246  16.486 -0.0802  0.1506  0.2375
  564TMC3    O2 8429   4.184   1.231  16.408  0.0929 -0.0236 -0.6508
  565TMC3    C1 8430   3.652   2.561  10.296  0.1463  0.1655  0.0630
  565TMC3    C2 8431   3.585   2.615  10.407  0.5038 -0.2279  0.1508
  565TMC3    C3 8432   3.527   2.536  10.497  0.2999  0.6163 -0.0468
  565TMC3    C4 8433   3.654   2.424  10.292 -0.0367  0.0012 -0.4245
  565TMC3    C5 8434   3.598   2.343  10.389 -0.4868  0.5722  0.0005
  565TMC3    C6 8435   3.540   2.404  10.496 -0.4163 -0.5336 -0.7893
  565TMC3     C 8436   3.729   2.645  10.205  0.2152  0.7240  0.6740
  565TMC3     O 8437   3.758   2.756  10.248 -0.1763  0.0155 -0.5607
  565TMC3     H 8438   3.558   2.720  10.397  0.0574 -0.4533 -0.9439
  565TMC3    H1 8439   3.726   2.379  10.225  1.9129  0.0421  1.6456
  565TMC3    H2 8440   3.483   2.349  10.570 -1.3684  0.6845 -0.6085
  565TMC3    C7 8441   3.599   2.206  10.355  0.4086  0.2212 -0.1018
  565TMC3    C8 8442   3.511   2.597  10.627 -0.8979 -0.7521  0.3449
  565TMC3    O1 8443   3.620   2.172  10.237  0.5522 -0.0294  0.2819
  565TMC3    O2 8444   3.501   2.515  10.717 -0.3599  0.3276 -0.2835
  566MPD2     C 8445   1.266   3.743  14.052 -0.7172  0.3090  0.9094
  566MPD2    C1 8446   1.351   3.662  13.979  0.9858  0.4112  0.2492
  566MPD2    C2 8447   1.304   3.573  13.891 -0.5434  0.2481  0.7053
  566MPD2    C3 8448   1.175   3.576  13.845  0.0360  0.4679 -0.0587
  566MPD2    C4 8449   1.089   3.661  13.910  0.0664  0.3276 -0.2639
  566MPD2    C5 8450   1.137   3.734  14.019  0.3861 -0.1548 -0.4123
  566MPD2     H 8451   1.362   3.496  13.842 -3.2313  0.4185 -2.7262
  566MPD2    H1 8452   0.985   3.682  13.888  0.5729  1.3837 -1.6428
  566MPD2    H2 8453   1.297   3.808  14.133 -0.1796 -0.2123  1.1221
  566MPD2    H3 8454   1.070   3.794  14.080  3.0718  0.7276  1.6397
  566MPD2     N 8455   1.130   3.489  13.744  0.3362 -0.3714 -0.3762
  566MPD2    H5 8456   1.197   3.426  13.701  1.9559  1.2577 -0.2733
  566MPD2    N1 8457   1.493   3.680  13.990  0.3052  0.0443  0.1306
  566MPD2    H7 8458   1.534   3.743  14.058  1.4833  1.3259 -1.7589
  567TMC3    C1 8459   1.700   3.714  13.900  0.1635 -0.7721 -0.0114
  567TMC3    C2 8460   1.740   3.763  13.777 -0.2917 -0.2914  0.0871
  567TMC3    C3 8461   1.846   3.849  13.779 -0.1649  0.8697  0.1317
  567TMC3    C4 8462   1.758   3.746  14.021  0.2526  0.3109  0.2877
  567TMC3    C5 8463   1.868   3.830  14.004 -0.7350 -0.1881 -0.3632
  567TMC3    C6 8464   1.917   3.889  13.891  0.6187 -0.1754  0.1442
  567TMC3     C 8465   1.576   3.640  13.889 -0.8469 -0.1769  0.6458
  567TMC3     O 8466   1.551   3.592  13.780 -0.0777  0.5946  0.0579
  567TMC3     H 8467   1.692   3.738  13.683 -1.4575  0.0165  0.5982
  567TMC3    H1 8468   1.729   3.701  14.115  0.6169 -0.5476 -0.0056
  567TMC3    H2 8469   2.006   3.951  13.884 -1.2602  2.4277 -0.8217
  567TMC3    C7 8470   1.947   3.846  14.125  0.0498  0.6176  0.0572
  567TMC3    C8 8471   1.875   3.904  13.646  0.6437  0.5378  0.4011
  567TMC3    O1 8472   2.068   3.860  14.116 -0.4221 -0.2156 -0.6342
  567TMC3    O2 8473   1.778   3.924  13.579 -0.8020 -0.2247 -0.1703
  568MPD2     C 8474   3.848   4.502  16.337  0.5169 -0.5738  0.3293
  568MPD2    C1 8475   3.889   4.560  16.453 -0.2609  0.3738 -0.3297
  568MPD2    C2 8476   3.903   4.699  16.459  0.0882 -0.3313  0.1827
  568MPD2    C3 8477   3.879   0.035  16.344 -0.2723 -0.1807 -0.2942
  568MPD2    C4 8478   3.836   4.707  16.229 -0.4872  0.2297  0.0572
  568MPD2    C5 8479   3.834   4.571  16.221  0.4288 -0.4510 -0.3846
  568MPD2     H 8480   3.929   0.001  16.554  0.6696  0.8860 -0.5423
  568MPD2    H1 8481   3.829   0.009  16.131  0.8647  0.4239  0.0557
  568MPD2    H2 8482   3.831   4.395  16.327  0.4649 -0.3716 -1.6279
  568MPD2    H3 8483   3.788   4.526  16.134  0.6940  0.0562 -0.7841
  568MPD2     N 8484   3.898   0.177  16.347 -0.9008 -0.4693 -0.0869
  568MPD2    H5 8485   3.933   0.219  16.432 -0.5430 -2.3249  0.6807
  568MPD2    N1 8486   3.932   4.473  16.563  0.1631  0.3697 -0.3559
  568MPD2    H7 8487   3.916   4.374  16.548  0.2770  0.2210  0.5320
  569TMC3    C1 8488   3.886   0.403  16.289  0.6560  0.1262  0.0758
  569TMC3    C2 8489   3.896   0.428  16.424 -0.6900 -0.1747  0.1725
  569TMC3    C3 8490   3.925   0.554  16.465  0.3552  0.0202 -0.0802
  569TMC3    C4 8491   3.903   0.503  16.203  0.6137  0.1475 -0.6131
  569TMC3    C5 8492   3.945   0.626  16.244 -0.5667 -0.3423  0.4327
  569TMC3    C6 8493   3.963   0.653  16.377  0.3446  0.0437 -0.5555
  569TMC3     C 8494   3.873   0.268  16.244 -0.3824  0.1892 -0.2399
  569TMC3     O 8495   3.865   0.234  16.126 -0.1394  0.2703  0.2303
  569TMC3     H 8496   3.883   0.350  16.498 -3.3298 -1.3108 -1.4935
  569TMC3    H1 8497   3.898   0.479  16.097  1.0610 -0.9302 -0.3857
  569TMC3    H2 8498   3.972   0.755  16.410 -2.7857  0.1959 -0.1878
  569TMC3    C7 8499   3.968   0.725  16.135 -0.2391  0.6203 -0.0904
  569TMC3    C8 8500   3.940   0.572  16.605  0.5057  0.5433  0.2319
  569TMC3    O1 8501   3.944   0.698  16.019 -0.1964 -0.0694  0.3378
  569TMC3    O2 8502   3.860   0.500  16.666 -0.3422  0.6888  0.7178
  570TMC3    C1 8503   3.350   2.963  16.063 -0.8844 -0.2923 -0.1459
  570TMC3    C2 8504   3.430   2.961  15.953  0.4596  0.6209 -0.2341
  570TMC3    C3 8505   3.507   3.075  15.930  0.0983  0.4757 -0.0538
  570TMC3    C4 8506   3.322   3.072  16.138  0.4966 -0.2228 -0.3031
  570TMC3    C5 8507   3.411   3.178  16.119  0.6599 -0.7225  0.6290
  570TMC3    C6 8508   3.511   3.177  16.023 -0.1123 -0.3169 -0.4516
  570TMC3     C 8509   3.274   2.838  16.089 -0.5365  0.4762 -0.4519
  570TMC3     O 8510   3.253   2.758  15.998  0.3611 -0.2651 -0.3421
  570TMC3     H 8511   3.448   2.870  15.897 -1.2454 -0.1681  0.4967
  570TMC3    H1 8512   3.247   3.074  16.216  0.2740 -1.9610 -0.4720
  570TMC3    H2 8513   3.578   3.262  16.014  0.6973 -1.0025 -0.9550
  570TMC3    C7 8514   3.371   3.305  16.184 -0.1481 -0.1430  0.4939
  570TMC3    C8 8515   3.586   3.084  15.811 -0.5246 -0.2462  0.7098
  570TMC3    O1 8516   3.337   3.303  16.299 -0.5944  0.5577 -0.5041
  570TMC3    O2 8517   3.691   3.147  15.829  0.5164  0.1653  0.3735
  571MPD2     C 8518   1.053   0.252   0.681  0.1717 -0.6780  0.2222
  571MPD2    C1 8519   1.184   0.206   0.684 -0.3743  0.8561  0.0466
  571MPD2    C2 8520   1.288   0.290   0.691  0.2369 -0.1529 -0.1334
  571MPD2    C3 8521   1.258   0.423   0.690 -0.9048 -0.3378 -0.0631
  571MPD2    C4 8522   1.131   0.470   0.714  0.0453 -0.0255  0.4814
  571MPD2    C5 8523   1.022   0.383   0.705  0.2461  0.0940 -0.2088
  571MPD2     H 8524   1.389   0.257   0.713  0.2484  0.1854  0.3099
  571MPD2    H1 8525   1.120   0.576   0.730 -3.1757 -0.2665 -0.2174
  571MPD2    H2 8526   0.971   0.182   0.671 -1.9132  1.6429  1.1481
  571MPD2    H3 8527   0.923   0.424   0.693 -0.3736 -1.3092  0.1531
  571MPD2     N 8528   1.355   0.527   0.692 -0.5282  0.3140  0.0034
  571MPD2    H5 8529   1.325   0.623   0.702  1.8536  1.0033  0.5870
  571MPD2    N1 8530   1.199   0.071   0.691 -0.3256 -0.2311 -1.1657
  571MPD2    H7 8531   1.126   0.002   0.674 -0.9768 -0.0796  1.0719
  572TMC3    C1 8532   1.576   0.621   0.674 -0.3701 -0.4833  0.1494
  572TMC3    C2 8533   1.701   0.607   0.725 -0.3284  0.4675  0.4456
  572TMC3    C3 8534   1.782   0.718   0.715 -0.4703 -0.6646 -0.3786
  572TMC3    C4 8535   1.538   0.736   0.606  0.6121 -0.2206 -0.1789
  572TMC3    C5 8536   1.626   0.831   0.591 -0.0551  0.4159 -0.4157
  572TMC3    C6 8537   1.748   0.832   0.655  0.6428  0.5539  1.0049
  572TMC3     C 8538   1.491   0.508   0.665  0.1214 -0.6942  0.3905
  572TMC3     O 8539   1.558   0.407   0.669  0.4291  0.0296  0.3480
  572TMC3     H 8540   1.723   0.521   0.787 -0.5213 -0.2541 -0.4890
  572TMC3    H1 8541   1.441   0.750   0.559  0.5677 -0.1053 -0.0524
  572TMC3    H2 8542   1.810   0.921   0.649  1.6955 -0.2726 -0.5475
  572TMC3    C7 8543   1.591   0.947   0.510 -0.0169  0.6424  1.1102
  572TMC3    C8 8544   1.898   0.733   0.804 -0.4626 -0.5617  0.7687
  572TMC3    O1 8545   1.471   0.979   0.512 -0.1504  0.0930  0.6646
  572TMC3    O2 8546   1.929   0.847   0.833  0.0077  0.1242  0.6146
  573MPD2     C 8547   2.200   0.127   0.797  0.5024 -0.8975  0.5668
  573MPD2    C1 8548   2.203   0.261   0.751  0.3982  0.2550  0.5952
  573MPD2    C2 8549   2.099   0.303   0.674 -0.0497 -0.4941  0.0526
  573MPD2    C3 8550   1.996   0.214   0.642 -0.0988 -0.4714 -0.8985
  573MPD2    C4 8551   1.993   0.086   0.703  0.4789  0.3562  0.7670
  573MPD2    C5 8552   2.098   0.043   0.776  0.7831 -0.4793  0.0913
  573MPD2     H 8553   2.102   0.401   0.629  2.4517 -0.4682  0.2651
  573MPD2    H1 8554   1.909   0.024   0.672  0.9549  0.1804 -0.1850
  573MPD2    H2 8555   2.277   0.083   0.861  0.5784 -0.0276  1.0744
  573MPD2    H3 8556   2.102   4.692   0.830 -1.1177  0.3038  1.6059
  573MPD2     N 8557   1.891   0.243   0.553 -0.1248 -0.2624 -0.2472
  573MPD2    H5 8558   1.822   0.169   0.548 -1.2499  0.7733  0.0539
  573MPD2    N1 8559   2.306   0.346   0.801 -0.0921 -0.1417  0.5542
  573MPD2    H7 8560   2.378   0.303   0.858  0.0704  0.2531  0.6449
  574TMC3    C1 8561   1.748   0.360   0.407  0.3710 -0.2223 -0.1838
  574TMC3    C2 8562   1.681   0.477   0.363  0.1941 -0.1731 -0.6766
  574TMC3    C3 8563   1.553   0.477   0.317  0.1571 -0.0839  0.0721
  574TMC3    C4 8564   1.683   0.245   0.382 -0.1348 -0.5279  0.1717
  574TMC3    C5 8565   1.553   0.249   0.335  0.1065 -0.3237  0.0817
  574TMC3    C6 8566   1.484   0.361   0.311  0.4896  0.2807 -0.1056
  574TMC3     C 8567   1.855   0.370   0.507 -0.1483 -0.1296  0.0001
  574TMC3     O 8568   1.896   0.483   0.531  0.8802 -0.4063  0.0136
  574TMC3     H 8569   1.719   0.574   0.391 -2.0776  0.2467  0.9964
  574TMC3    H1 8570   1.737   0.152   0.380  0.3714 -0.2879  2.3108
  574TMC3    H2 8571   1.381   0.373   0.281  0.3399 -2.4789 -0.6590
  574TMC3    C7 8572   1.493   0.119   0.327 -0.1152 -0.7798 -0.2570
  574TMC3    C8 8573   1.483   0.604   0.301  0.4176 -0.0390  0.4660
  574TMC3    O1 8574   1.557   0.026   0.374  0.3251 -0.4167  0.3842
  574TMC3    O2 8575   1.364   0.598   0.327  0.0392  0.0575 -0.1581
  575TMC3    C1 8576   3.332   2.732  11.511 -0.2059  0.0709 -0.2849
  575TMC3    C2 8577   3.349   2.606  11.568 -1.1668 -0.4700 -0.1350
  575TMC3    C3 8578   3.401   2.505  11.497 -0.2600 -0.7963 -0.1487
  575TMC3    C4 8579   3.372   2.755  11.381  0.3444  0.4319  0.9161
  575TMC3    C5 8580   3.425   2.650  11.313 -0.3052 -1.2617  0.1406
  575TMC3    C6 8581   3.447   2.525  11.368 -0.3610  0.4414  0.2627
  575TMC3     C 8582   3.249   2.827  11.583  0.1806  0.7741 -0.4415
  575TMC3     O 8583   3.215   2.795  11.699  0.3587  0.0390  0.9516
  575TMC3     H 8584   3.303   2.579  11.663  0.7890  0.2722  1.0132
  575TMC3    H1 8585   3.335   2.841  11.327 -1.4846 -0.0009  1.4628
  575TMC3    H2 8586   3.471   2.440  11.305  1.7218  0.5232  0.9336
  575TMC3    C7 8587   3.460   2.664  11.166 -0.6381 -0.3039 -0.3077
  575TMC3    C8 8588   3.447   2.390  11.568 -0.7211 -0.0018 -0.7266
  575TMC3    O1 8589   3.458   2.561  11.102 -0.3122  0.0972  0.6035
  575TMC3    O2 8590   3.412   2.389  11.686  0.2889 -0.5981  0.1261
  576MPD2     C 8591   3.641   3.057  12.404  0.5145 -0.2444  0.2948
  576MPD2    C1 8592   3.685   3.149  12.316 -0.6497  0.8324  0.3610
  576MPD2    C2 8593   3.722   3.279  12.345 -0.6408 -0.2916 -0.7335
  576MPD2    C3 8594   3.710   3.322  12.478 -1.4076 -0.0542  1.0290
  576MPD2    C4 8595   3.672   3.225  12.573 -0.3440  0.1890 -0.0508
  576MPD2    C5 8596   3.628   3.101  12.531  0.4934 -0.3213 -0.4607
  576MPD2     H 8597   3.740   3.357  12.272 -1.4459  0.5674 -0.0222
  576MPD2    H1 8598   3.670   3.249  12.678  0.5426 -0.8461  0.2001
  576MPD2    H2 8599   3.603   2.957  12.387  0.4813 -0.2884  0.6341
  576MPD2    H3 8600   3.589   3.030  12.603 -0.1567  1.4889  0.9796
  576MPD2     N 8601   3.734   3.460  12.513 -0.8520 -0.1345  0.0683
  576MPD2    H5 8602   3.766   3.515  12.434  2.0986 -0.5430  0.9770
  576MPD2    N1 8603   3.704   3.120  12.177  0.2767 -0.7531 -0.4461
  576MPD2    H7 8604   3.749   3.190  12.120 -0.2418  1.8593  2.3328
  577TMC3    C1 8605   3.743   2.985  11.982  0.6595  0.0471  0.2389
  577TMC3    C2 8606   3.817   2.875  11.960  0.0494 -0.5984 -0.3379
  577TMC3    C3 8607   3.904   2.880  11.857  0.3331 -0.1497  0.4549
  577TMC3    C4 8608   3.747   3.102  11.915  0.8610  0.1777 -0.2963
  577TMC3    C5 8609   3.856   3.109  11.826 -0.4836 -0.2303  0.4306
  577TMC3    C6 8610   3.930   3.000  11.794  0.0878 -0.1944 -0.0172
  577TMC3     C 8611   3.690   2.993  12.121 -0.0233 -0.4354  0.0156
  577TMC3     O 8612   3.676   2.885  12.180  0.3290 -0.2642 -0.1925
  577TMC3     H 8613   3.817   2.789  12.025  0.8328  0.5086  1.1348
  577TMC3    H1 8614   3.679   3.181  11.944 -0.2612  0.0196 -2.4789
  577TMC3    H2 8615   3.972   3.014  11.695  3.1547 -1.9167  1.0384
  577TMC3    C7 8616   3.862   3.220  11.732 -0.2331 -0.0912  0.4284
  577TMC3    C8 8617   4.010   2.784  11.846  0.3478 -0.4373 -0.0957
  577TMC3    O1 8618   3.756   3.268  11.690 -0.0001 -0.4533  0.1349
  577TMC3    O2 8619   4.005   2.688  11.922  0.4556  0.3146  0.2299
  578MPD2     C 8620   2.506   3.507   1.164  0.3478 -0.3778 -0.5833
  578MPD2    C1 8621   2.526   3.396   1.082  0.9772  0.5326 -0.9950
  578MPD2    C2 8622   2.626   3.302   1.115 -0.2002 -0.3745  0.2060
  578MPD2    C3 8623   2.686   3.304   1.241  0.5664  0.6951  0.3791
  578MPD2    C4 8624   2.643   3.408   1.327 -0.2193 -0.1239 -0.0960
  578MPD2    C5 8625   2.561   3.509   1.287  0.2959  0.2131  0.0578
  578MPD2     H 8626   2.660   3.230   1.042  1.1235  0.7369 -0.2671
  578MPD2    H1 8627   2.686   3.429   1.424  2.5144  0.5700 -1.4698
  578MPD2    H2 8628   2.437   3.589   1.144  1.7875  0.2431 -2.9150
  578MPD2    H3 8629   2.535   3.598   1.342  1.9782  1.0578 -0.5040
  578MPD2     N 8630   2.780   3.206   1.280 -0.4005 -0.3569 -0.0283
  578MPD2    H5 8631   2.794   3.134   1.210 -2.5404 -0.3789 -0.4569
  578MPD2    N1 8632   2.462   3.402   0.958  0.1700 -0.1629  0.1861
  578MPD2    H7 8633   2.405   3.485   0.946 -2.5521 -2.4785 -2.7884
  579TMC3    C1 8634   2.964   3.123   1.397 -0.2326 -0.1162 -0.0725
  579TMC3    C2 8635   3.055   3.141   1.503  0.3357  0.0635 -0.0020
  579TMC3    C3 8636   3.188   3.110   1.490 -0.5701 -0.0438 -0.1350
  579TMC3    C4 8637   3.012   3.063   1.281  0.1724  0.1680  0.6167
  579TMC3    C5 8638   3.144   3.021   1.276  0.9096  0.2307 -0.6578
  579TMC3    C6 8639   3.233   3.039   1.382 -0.6938  0.3540 -0.4984
  579TMC3     C 8640   2.843   3.203   1.400 -0.6459  0.9536  0.4703
  579TMC3     O 8641   2.827   3.274   1.497  0.4587  0.3138  0.2161
  579TMC3     H 8642   3.022   3.205   1.583  0.5749  1.4054 -0.9792
  579TMC3    H1 8643   2.936   3.043   1.207 -0.2889  0.1248  1.1058
  579TMC3    H2 8644   3.338   3.016   1.372 -0.9826 -2.3939  2.7934
  579TMC3    C7 8645   3.175   2.902   1.198 -0.5204  0.0703 -0.0084
  579TMC3    C8 8646   3.275   3.149   1.600  1.0740  0.7330 -0.2630
  579TMC3    O1 8647   3.282   2.844   1.227 -0.0771 -0.1044 -0.2815
  579TMC3    O2 8648   3.234   3.142   1.714  0.4346  0.5565 -0.3387
  580TMC3    C1 8649   1.561   2.209  11.778 -1.0485 -0.9952 -0.9941
  580TMC3    C2 8650   1.682   2.264  11.752 -0.0301  0.4612  0.7307
  580TMC3    C3 8651   1.768   2.259  11.858  0.3114  0.8325 -0.4201
  580TMC3    C4 8652   1.527   2.135  11.893  0.4310  0.0771 -0.3702
  580TMC3    C5 8653   1.626   2.107  11.984 -0.4744  0.2302 -0.4436
  580TMC3    C6 8654   1.744   2.178  11.973  0.2948 -0.8134  0.4265
  580TMC3     C 8655   1.454   2.293  11.746 -0.6960  0.8168 -0.3551
  580TMC3     O 8656   1.468   2.341  11.635 -0.2810 -0.4583  0.1929
  580TMC3     H 8657   1.706   2.313  11.658  1.6328 -0.2798  0.7773
  580TMC3    H1 8658   1.428   2.093  11.912 -0.5448  1.3129 -2.7232
  580TMC3    H2 8659   1.825   2.172  12.045  0.9376  0.9298 -0.1621
  580TMC3    C7 8660   1.644   1.962  11.977  0.2923  0.3669  0.3652
  580TMC3    C8 8661   1.843   2.387  11.874 -0.3845 -0.6129 -0.5050
  580TMC3    O1 8662   1.567   1.899  11.903 -0.1753  0.1800 -0.2723
  580TMC3    O2 8663   1.863   2.432  11.989 -0.0169  0.2568  0.3208
  581MPD2     C 8664   0.357   2.296  14.615  0.5474 -0.5516  0.3517
  581MPD2    C1 8665   0.229   2.288  14.665  0.1966  0.4982  0.3454
  581MPD2    C2 8666   0.132   2.372  14.623  0.7162 -0.3231  0.4674
  581MPD2    C3 8667   0.149   2.453  14.512  0.0395 -0.2170  0.0186
  581MPD2    C4 8668   0.276   2.449  14.448 -0.3138 -0.0708 -0.7625
  581MPD2    C5 8669   0.376   2.369  14.502  0.3681 -0.6875 -0.0053
  581MPD2     H 8670   0.034   2.367  14.668  0.4749  0.4951  0.0360
  581MPD2    H1 8671   0.293   2.522  14.369  1.7384  1.4722  1.1197
  581MPD2    H2 8672   0.439   2.232  14.644 -0.8483 -2.7340 -0.5539
  581MPD2    H3 8673   0.469   2.369  14.446  0.4482 -0.0528  0.1236
  581MPD2     N 8674   0.036   2.517  14.458  0.0789 -0.0988 -0.2177
  581MPD2    H5 8675   4.698   2.508  14.519 -1.0252 -0.6381 -1.7511
  581MPD2    N1 8676   0.192   2.204  14.769  0.1935 -0.4178  0.1659
  581MPD2    H7 8677   0.094   2.203  14.795  0.0810 -4.4576 -0.3019
  582TMC3    C1 8678   0.201   2.071  14.960 -0.1277  0.8745 -0.2240
  582TMC3    C2 8679   0.267   2.049  15.081  0.2039 -0.1479  0.3079
  582TMC3    C3 8680   0.187   2.041  15.191 -0.2209 -0.1408  0.7474
  582TMC3    C4 8681   0.064   2.065  14.952  0.4497 -0.4535 -0.2031
  582TMC3    C5 8682   4.728   2.041  15.063  0.2787 -0.4931 -0.1255
  582TMC3    C6 8683   0.050   2.034  15.184  0.1264 -0.0681  0.4427
  582TMC3     C 8684   0.276   2.125  14.850  1.1841  0.8675  0.0817
  582TMC3     O 8685   0.394   2.098  14.854  0.2837 -0.3869 -0.0206
  582TMC3     H 8686   0.373   2.048  15.103  0.5690 -1.5608 -1.4222
  582TMC3    H1 8687   0.005   2.099  14.868 -1.4992  0.3591  1.4829
  582TMC3    H2 8688   4.733   2.016  15.272  0.8948 -1.8806  0.5836
  582TMC3    C7 8689   4.608   2.124  15.067 -0.5105 -0.4383 -0.3769
  582TMC3    C8 8690   0.245   2.024  15.327 -0.2106 -0.6933 -0.5673
  582TMC3    O1 8691   4.521   2.083  14.990  0.5569 -0.3082  0.1662
  582TMC3    O2 8692   0.171   2.032  15.426 -0.2555 -0.1568  0.1697
  583MPD2     C 8693   0.620   3.809  16.754 -0.3213  0.3583  0.2017
  583MPD2    C1 8694   0.584   3.918  16.687 -0.2837 -0.1085 -0.0855
  583MPD2    C2 8695   0.527   4.022  16.749 -0.0947 -0.4005 -0.1459
  583MPD2    C3 8696   0.497   4.015  16.881 -0.2498  0.6984 -0.0518
  583MPD2    C4 8697   0.530   3.903  16.950 -0.1992 -0.2375 -0.0758
  583MPD2    C5 8698   0.595   3.797  16.886  0.9494  0.3116  1.5431
  583MPD2     H 8699   0.507   4.118  16.702 -0.7775 -0.7998 -0.6622
  583MPD2    H1 8700   0.513   3.902  17.057 -2.6566  1.0413 -0.4449
  583MPD2    H2 8701   0.658   3.719  16.706 -0.9068  1.2926 -2.0371
  583MPD2    H3 8702   0.624   3.708  16.941 -0.9393 -2.4704 -1.9730
  583MPD2     N 8703   0.437   4.124  16.935  0.1939 -0.3054 -0.6754
  583MPD2    H5 8704   0.402   4.196  16.873 -0.9275 -0.2915 -0.0175
  583MPD2    N1 8705   0.625   3.939  16.554  0.4951  0.8200 -0.5194
  583MPD2    H7 8706   0.578   4.021  16.517 -1.2322 -0.2181 -0.6666
  584TMC3    C1 8707   0.345   4.274  17.102 -0.1804 -0.5485  0.0793
  584TMC3    C2 8708   0.346   4.377  17.009  0.3699 -0.3367  0.2020
  584TMC3    C3 8709   0.309   4.501  17.046  0.2617 -0.2476  0.1811
  584TMC3    C4 8710   0.322   4.302  17.234 -0.2987 -0.0551  0.0358
  584TMC3    C5 8711   0.277   4.427  17.263  0.7194  1.2621 -0.4179
  584TMC3    C6 8712   0.268   4.527  17.175  0.8364 -0.1416 -1.0135
  584TMC3     C 8713   0.406   4.146  17.071 -0.9240 -0.3758 -0.6056
  584TMC3     O 8714   0.406   4.069  17.164  0.5604  0.3892  0.5201
  584TMC3     H 8715   0.382   4.369  16.907  0.6476  0.4861  0.2426
  584TMC3    H1 8716   0.311   4.224  17.308  1.1423 -2.0289 -1.8516
  584TMC3    H2 8717   0.224   4.622  17.201 -0.0797 -1.2458  1.4834
  584TMC3    C7 8718   0.196   4.428  17.383  0.2347 -0.1585  0.0092
  584TMC3    C8 8719   0.347   4.612  16.959  0.0530 -0.0367 -0.1260
  584TMC3    O1 8720   0.225   4.359  17.478  0.1229  0.4893  0.3665
  584TMC3    O2 8721   0.351   4.589  16.843  0.7488  0.3041 -0.0323
  585MPD2     C 8722   4.037   3.261   0.451 -0.3073  0.1463 -0.0461
  585MPD2    C1 8723   3.990   3.292   0.322  0.6620 -0.3269 -0.5878
  585MPD2    C2 8724   4.024   3.219   0.214  0.2353  0.4953 -0.8874
  585MPD2    C3 8725   4.104   3.103   0.231  0.0885  0.5577 -0.0174
  585MPD2    C4 8726   4.156   3.073   0.360 -0.6882 -0.0265 -0.2341
  585MPD2    C5 8727   4.116   3.148   0.470 -0.0568 -0.2051  0.5097
  585MPD2     H 8728   3.978   3.252   0.122 -0.6663  0.7144 -0.3482
  585MPD2    H1 8729   4.233   2.998   0.374 -0.5287  0.6907  2.9507
  585MPD2    H2 8730   4.009   3.313   0.542  0.8363 -1.4641  1.2247
  585MPD2    H3 8731   4.148   3.128   0.572 -0.3275 -3.4086 -0.0354
  585MPD2     N 8732   4.145   3.023   0.119  0.2536  0.2721  0.2462
  585MPD2    H5 8733   4.187   2.931   0.132  0.3661  0.2706 -0.1411
  585MPD2    N1 8734   3.921   3.418   0.308  0.4839 -0.3319 -0.6749
  585MPD2    H7 8735   3.920   3.475   0.392 -1.3288  0.9679 -1.5929
  586TMC3    C1 8736   4.176   2.970  17.644  0.3788 -0.2757  0.9676
  586TMC3    C2 8737   4.302   2.924  17.659 -0.4862  0.7597  0.2229
  586TMC3    C3 8738   4.363   2.883  17.543 -0.2470  0.1264  0.4979
  586TMC3    C4 8739   4.114   2.992  17.523  0.3771  0.1908 -0.4193
  586TMC3    C5 8740   4.176   2.942  17.413  0.0431  0.2030 -0.4857
  586TMC3    C6 8741   4.302   2.887  17.426  0.9104  0.6653  0.0633
  586TMC3     C 8742   4.128   3.058  17.749  0.3201  0.7600 -0.5226
  586TMC3     O 8743   4.092   3.167  17.704  0.7143  0.1700 -0.2231
  586TMC3     H 8744   4.351   2.904  17.754 -1.1648 -0.9187  0.2148
  586TMC3    H1 8745   4.020   3.046  17.522  0.5186  0.4214 -1.7978
  586TMC3    H2 8746   4.354   2.854  17.337  0.9369 -1.8932  1.0401
  586TMC3    C7 8747   4.085   2.860  17.339 -0.2596 -0.1829  0.2964
  586TMC3    C8 8748   4.485   2.793  17.547 -0.3943 -0.1916 -1.0805
  586TMC3    O1 8749   3.989   2.826  17.405  0.4597  0.3678  0.6994
  586TMC3    O2 8750   4.494   2.723  17.444  0.2048  0.7926 -0.2143
  587TMC3    C1 8751   1.762   1.875  15.905  0.4200 -0.4316 -0.9749
  587TMC3    C2 8752   1.743   1.897  16.037  0.0828  0.2829 -0.1783
  587TMC3    C3 8753   1.833   1.825  16.119 -0.6123 -0.7430  0.2343
  587TMC3    C4 8754   1.859   1.794  15.854  0.1573 -0.2437 -0.1158
  587TMC3    C5 8755   1.939   1.726  15.938 -0.2339 -0.4378  0.0782
  587TMC3    C6 8756   1.922   1.737  16.071 -0.1091  0.3937 -0.3065
  587TMC3     C 8757   1.657   1.911  15.820  0.2396  0.8305 -0.1625
  587TMC3     O 8758   1.682   1.909  15.703 -0.1148 -0.3894 -0.7357
  587TMC3     H 8759   1.670   1.970  16.070  0.0501 -0.3680  1.1883
  587TMC3    H1 8760   1.861   1.762  15.750  0.3643 -0.4243 -0.0565
  587TMC3    H2 8761   2.006   1.711  16.134  1.6651 -0.1483 -2.8616
  587TMC3    C7 8762   2.005   1.612  15.888 -0.0617  0.8273  0.1298
  587TMC3    C8 8763   1.849   1.858  16.263 -0.2562  0.2521 -0.0734
  587TMC3    O1 8764   2.037   1.605  15.770  0.1352  0.0204 -0.2282
  587TMC3    O2 8765   1.950   1.820  16.322 -0.0436 -0.0015 -0.5824
  588TMC3    C1 8766   3.695   4.354   9.508  0.0184  0.2928 -0.2118
  588TMC3    C2 8767   3.611   4.262   9.548 -0.5822 -0.1166 -0.4736
  588TMC3    C3 8768   3.644   4.198   9.661  0.2408  0.0930  0.0390
  588TMC3    C4 8769   3.814   4.376   9.567  0.3466  0.5866 -0.8722
  588TMC3    C5 8770   3.843   4.309   9.680  0.3952  0.4203  0.0057
  588TMC3    C6 8771   3.754   4.221   9.740 -0.2333  0.1356 -1.0574
  588TMC3     C 8772   3.628   4.463   9.451 -0.5623 -0.5112 -0.7707
  588TMC3     O 8773   3.517   4.450   9.410  0.5562  0.8872 -0.3109
  588TMC3     H 8774   3.516   4.243   9.499 -0.2781 -2.5643 -0.0998
  588TMC3    H1 8775   3.886   4.439   9.515  0.8267  0.6762 -0.0978
  588TMC3    H2 8776   3.785   4.169   9.829  0.4655 -1.9364 -2.5152
  588TMC3    C7 8777   3.945   4.359   9.767  0.4719 -0.0890  0.4861
  588TMC3    C8 8778   3.565   4.072   9.681  0.7034 -0.3594 -0.0031
  588TMC3    O1 8779   3.931   4.358   9.890  0.0844  0.1401  0.3324
  588TMC3    O2 8780   3.477   4.050   9.599  0.4992  0.0173 -0.2704
  589TMC3    C1 8781   3.712   1.565   1.174 -0.1417 -0.4879 -0.9305
  589TMC3    C2 8782   3.842   1.546   1.209  0.1419 -0.8291 -0.1872
  589TMC3    C3 8783   3.903   1.440   1.148 -0.1944  0.2861 -0.1632
  589TMC3    C4 8784   3.643   1.468   1.102 -0.1119 -0.5487 -0.2765
  589TMC3    C5 8785   3.709   1.358   1.059  0.6534  0.2542 -0.4288
  589TMC3    C6 8786   3.843   1.345   1.073 -0.4725  0.0919 -0.4714
  589TMC3     C 8787   3.627   1.673   1.234 -0.8860 -0.0679 -0.0305
  589TMC3     O 8788   3.505   1.656   1.224  0.5100  0.6382  0.6653
  589TMC3     H 8789   3.910   1.598   1.276  0.9080 -0.2201 -1.4474
  589TMC3    H1 8790   3.539   1.486   1.077  0.2567  1.5591 -0.3366
  589TMC3    H2 8791   3.881   1.256   1.025  0.7687  0.3736 -0.0291
  589TMC3    C7 8792   3.638   1.272   0.964 -0.0040 -0.3621 -0.3616
  589TMC3    C8 8793   4.036   1.418   1.197 -0.4036 -0.1700 -0.1276
  589TMC3    O1 8794   3.697   1.195   0.888 -0.1842  0.1370 -0.0617
  589TMC3    O2 8795   4.049   1.426   1.319  1.0234  0.2942 -0.0670
  590MPD2     C 8796   3.029   4.511  16.673  0.1142 -0.1133 -0.4930
  590MPD2    C1 8797   2.983   4.556  16.552  0.5179  0.0041 -0.0063
  590MPD2    C2 8798   3.068   4.586  16.455 -0.2390  0.3787 -0.3041
  590MPD2    C3 8799   3.207   4.570  16.466 -0.1966 -0.1080  0.5592
  590MPD2    C4 8800   3.245   4.527  16.586  0.0230 -0.0654 -0.2822
  590MPD2    C5 8801   3.164   4.499  16.691  0.1606 -0.1950 -0.0742
  590MPD2     H 8802   3.046   4.638  16.362  0.9305 -0.4681 -1.0592
  590MPD2    H1 8803   3.349   4.498  16.598 -0.3587 -0.3789  2.4230
  590MPD2    H2 8804   2.967   4.485  16.758 -0.9957 -0.3020 -1.3500
  590MPD2    H3 8805   3.207   4.474  16.788 -0.9613  1.6428  0.8896
  590MPD2     N 8806   3.284   4.616  16.355 -0.1095  0.4404 -0.4920
  590MPD2    H5 8807   3.236   4.655  16.275  1.4026  4.4946  0.5791
  590MPD2    N1 8808   2.845   4.552  16.519 -0.1156  0.0409  1.0778
  590MPD2    H7 8809   2.782   4.527  16.594 -0.2260 -0.3731  0.8476
  591TMC3    C1 8810   3.459   4.737  16.266 -0.0654 -0.5687 -0.4964
  591TMC3    C2 8811   3.519   4.691  16.146  0.2818 -0.8798 -0.4402
  591TMC3    C3 8812   3.524   0.029  16.033  0.9539  0.0740 -0.5905
  591TMC3    C4 8813   3.387   0.110  16.260 -0.4785  0.1185  0.5182
  591TMC3    C5 8814   3.392   0.185  16.144  0.3566 -0.1973 -0.2398
  591TMC3    C6 8815   3.456   0.144  16.031 -0.2095 -0.1052  0.5111
  591TMC3     C 8816   3.417   4.635  16.360 -0.8297  0.4605  0.6387
  591TMC3     O 8817   3.479   4.623  16.463  0.1497 -0.0967  0.1176
  591TMC3     H 8818   3.578   4.600  16.149  0.9925 -0.3921  0.1882
  591TMC3    H1 8819   3.328   0.142  16.345 -1.4207  0.9238 -0.4298
  591TMC3    H2 8820   3.440   0.200  15.939  3.2871  0.1608  0.0695
  591TMC3    C7 8821   3.275   0.262  16.120 -0.0457 -0.5241 -0.2863
  591TMC3    C8 8822   3.574   4.712  15.914  0.1987  0.2539  0.6724
  591TMC3    O1 8823   3.174   0.213  16.172  0.5118  0.5782  0.4483
  591TMC3    O2 8824   3.584   4.588  15.907 -0.2492  0.2934 -0.1970
  592MPD2     C 8825   2.909   1.906  11.220 -0.2276 -0.2073  0.5617
  592MPD2    C1 8826   2.831   1.914  11.335 -0.0942  0.1707 -0.6476
  592MPD2    C2 8827   2.792   1.799  11.399  0.2011  0.3494 -0.0669
  592MPD2    C3 8828   2.827   1.675  11.355 -0.0841 -0.0242  0.1287
  592MPD2    C4 8829   2.907   1.667  11.245  0.4602  0.6342  0.3085
  592MPD2    C5 8830   2.953   1.780  11.181  0.3192 -0.0719 -0.0607
  592MPD2     H 8831   2.731   1.814  11.487  0.1782  0.7795 -0.1562
  592MPD2    H1 8832   2.936   1.570  11.207 -0.7236  1.0260 -1.6123
  592MPD2    H2 8833   2.947   1.998  11.177 -0.9178  1.1472  2.8691
  592MPD2    H3 8834   3.019   1.770  11.095  0.3569 -1.0406  0.0832
  592MPD2     N 8835   2.795   1.550  11.410 -0.1461 -0.1784  0.5264
  592MPD2    H5 8836   2.841   1.475  11.360  0.7488  0.8970 -0.2640
  592MPD2    N1 8837   2.796   2.046  11.370 -0.3916 -0.1685  0.2738
  592MPD2    H7 8838   2.826   2.121  11.308  3.3471  0.2257  2.5712
  593TMC3    C1 8839   2.712   2.219  11.498 -0.5737  0.0278  0.1491
  593TMC3    C2 8840   2.696   2.273  11.626 -0.9777  0.4938  0.2695
  593TMC3    C3 8841   2.672   2.408  11.636 -0.1617 -0.8374  0.1232
  593TMC3    C4 8842   2.703   2.294  11.385 -0.2929 -0.2812 -0.4520
  593TMC3    C5 8843   2.668   2.425  11.400  0.1467  0.7355 -0.9469
  593TMC3    C6 8844   2.650   2.482  11.523  0.7051 -0.1647  0.0740
  593TMC3     C 8845   2.731   2.080  11.485 -0.4644 -0.4475 -0.4189
  593TMC3     O 8846   2.707   2.012  11.588 -0.1548 -0.6184 -0.1227
  593TMC3     H 8847   2.700   2.209  11.713  1.1744  0.9090  0.4771
  593TMC3    H1 8848   2.676   2.245  11.293 -0.7804  1.2573 -1.1211
  593TMC3    H2 8849   2.600   2.577  11.533  1.5168  0.0762  1.6998
  593TMC3    C7 8850   2.663   2.520  11.281  0.0739  0.7987 -0.4160
  593TMC3    C8 8851   2.698   2.468  11.767 -0.1298  0.3893  0.0420
  593TMC3    O1 8852   2.614   2.626  11.313  0.0738  0.0701  0.2745
  593TMC3    O2 8853   2.755   2.399  11.855  0.1470 -0.5796  0.2993
  594MPD2     C 8854   2.375   0.571  15.134 -0.5022  0.2010 -0.2366
  594MPD2    C1 8855   2.302   0.614  15.019 -0.5867  0.1031 -0.5730
  594MPD2    C2 8856   2.363   0.712  14.937 -0.4368 -0.0471 -0.1910
  594MPD2    C3 8857   2.487   0.756  14.964  0.7149 -0.0609 -0.0459
  594MPD2    C4 8858   2.566   0.707  15.066  0.6519 -0.0749 -0.3589
  594MPD2    C5 8859   2.507   0.616  15.147 -0.6680 -0.1290  0.0079
  594MPD2     H 8860   2.314   0.750  14.848  0.4398 -0.6996 -0.9435
  594MPD2    H1 8861   2.659   0.756  15.090  1.1811 -1.7013  0.8727
  594MPD2    H2 8862   2.338   0.499  15.206  1.2564 -0.3768  0.0949
  594MPD2    H3 8863   2.564   0.575  15.230  1.1511  2.7429  0.1828
  594MPD2     N 8864   2.525   0.872  14.890 -0.4517 -0.2766 -0.6334
  594MPD2    H5 8865   2.454   0.908  14.826  1.1075  4.5456  0.3227
  594MPD2    N1 8866   2.178   0.549  14.987 -0.2977  0.1400 -0.3869
  594MPD2    H7 8867   2.139   0.492  15.062  0.6132  0.2681  0.1804
  595TMC3    C1 8868   2.775   1.083  14.586  0.6604  0.9068 -0.6399
  595TMC3    C2 8869   2.766   1.027  14.708 -0.3335 -0.0199  0.3296
  595TMC3    C3 8870   2.654   1.038  14.789  0.0293  0.6777 -0.4218
  595TMC3    C4 8871   2.670   1.166  14.546 -0.1198  0.0401 -0.2683
  595TMC3    C5 8872   2.570   1.192  14.640 -0.1739  0.8991 -0.7320
  595TMC3    C6 8873   2.550   1.123  14.756 -0.1332 -0.0607  0.0362
  595TMC3     C 8874   2.889   1.156  14.545  0.1956  0.3688 -0.9991
  595TMC3     O 8875   2.878   1.275  14.514 -0.2192  0.1366 -0.2496
  595TMC3     H 8876   2.854   0.976  14.744 -0.3042 -0.1745  0.0412
  595TMC3    H1 8877   2.664   1.216  14.450  0.0848 -2.3772 -1.5324
  595TMC3    H2 8878   2.478   1.158  14.828 -0.8299  0.4450 -0.8994
  595TMC3    C7 8879   2.501   1.315  14.636 -0.5077 -0.4008  0.5389
  595TMC3    C8 8880   2.648   0.928  14.885 -0.2466 -0.0810  0.3070
  595TMC3    O1 8881   2.401   1.325  14.698  0.0878  0.1128  0.7585
  595TMC3    O2 8882   2.755   0.876  14.923  0.0229 -0.0255 -0.0515
  596MPD2     C 8883   1.337   3.705  16.790  1.1455  0.0538 -0.2529
  596MPD2    C1 8884   1.336   3.823  16.716  0.0371 -0.1521  0.4719
  596MPD2    C2 8885   1.328   3.812  16.576  0.5906  0.3042 -0.5656
  596MPD2    C3 8886   1.345   3.688  16.517 -0.3356 -0.1071  0.3981
  596MPD2    C4 8887   1.350   3.573  16.599  0.5897  0.1192  0.6713
  596MPD2    C5 8888   1.344   3.585  16.735 -0.1914  0.4566 -0.5357
  596MPD2     H 8889   1.309   3.901  16.517  0.5982  0.2534 -0.6441
  596MPD2    H1 8890   1.360   3.480  16.544 -0.6652  0.8593 -0.8340
  596MPD2    H2 8891   1.330   3.690  16.897  1.6871 -2.9619 -0.6183
  596MPD2    H3 8892   1.327   3.498  16.798 -3.0220  0.3925 -1.3830
  596MPD2     N 8893   1.358   3.684  16.370 -0.3167 -0.1699 -0.5296
  596MPD2    H5 8894   1.365   3.594  16.324  0.5959 -1.0220  1.3166
  596MPD2    N1 8895   1.334   3.961  16.765  0.1866 -0.5230  0.1498
  596MPD2    H7 8896   1.345   4.038  16.700 -1.3156 -0.6605 -0.2853
  597TMC3    C1 8897   1.291   4.136  16.906  0.5187 -0.4527  0.5358
  597TMC3    C2 8898   1.326   4.218  16.806 -0.4227  0.0400 -0.5544
  597TMC3    C3 8899   1.273   4.350  16.803  0.0553  0.9093 -0.1600
  597TMC3    C4 8900   1.186   4.175  16.990 -0.2096  0.3047 -0.0544
  597TMC3    C5 8901   1.129   4.299  16.975  0.8628 -0.2774  0.0825
  597TMC3    C6 8902   1.173   4.393  16.887 -0.6186  0.2845  0.3988
  597TMC3     C 8903   1.298   3.990  16.890  0.5866  0.1707 -0.6462
  597TMC3     O 8904   1.260   3.923  16.980  0.4286 -0.7170  0.1742
  597TMC3     H 8905   1.421   4.206  16.756  0.6086  2.8210  0.7139
  597TMC3    H1 8906   1.147   4.111  17.068  0.6843  1.0594  1.0160
  597TMC3    H2 8907   1.105   4.474  16.863 -1.2651 -0.9577 -2.0342
  597TMC3    C7 8908   1.040   4.342  17.088 -0.0101  0.0317  0.8513
  597TMC3    C8 8909   1.341   4.457  16.749  0.0923  0.1607  0.4232
  597TMC3    O1 8910   0.992   4.248  17.152 -0.1071 -0.3126 -0.4272
  597TMC3    O2 8911   1.326   4.562  16.805  0.2641  0.4852 -0.0156
  598TMC3    C1 8912   4.157   0.690  15.568  0.4817 -0.2949  0.3052
  598TMC3    C2 8913   4.043   0.622  15.611  0.3063  0.1537 -0.2602
  598TMC3    C3 8914   3.957   0.581  15.513  0.3733  0.1854 -0.3383
  598TMC3    C4 8915   4.163   0.739  15.442 -0.9727 -0.3791  0.9913
  598TMC3    C5 8916   4.077   0.688  15.346 -0.0860  0.3696 -0.4518
  598TMC3    C6 8917   3.968   0.612  15.382 -0.0880  0.3555  0.8415
  598TMC3     C 8918   4.219   0.780  15.654 -0.0965  0.2658  0.2995
  598TMC3     O 8919   4.198   0.900  15.641  0.1586 -0.6470  0.3673
  598TMC3     H 8920   4.020   0.609  15.716 -0.4350  0.9221 -0.3323
  598TMC3    H1 8921   4.248   0.804  15.421 -1.9982  1.0988  1.4294
  598TMC3    H2 8922   3.893   0.593  15.306 -0.7023 -0.3474  1.6310
  598TMC3    C7 8923   4.085   0.736  15.208  0.6004  0.1127 -0.4981
  598TMC3    C8 8924   3.834   0.516  15.562 -0.0852 -0.0651 -0.5366
  598TMC3    O1 8925   4.008   0.686  15.127 -0.2195  0.2497  0.4806
  598TMC3    O2 8926   3.812   0.500  15.684  0.5460  0.0996  0.2290
  599MPD2     C 8927   4.212   2.961  15.648  0.2878 -0.7611 -0.3836
  599MPD2    C1 8928   4.179   2.841  15.698  0.4623  0.4376  0.4156
  599MPD2    C2 8929   4.061   2.825  15.771 -0.7414 -0.2132 -0.7811
  599MPD2    C3 8930   3.982   2.938  15.796  0.6504  0.1168  0.0090
  599MPD2    C4 8931   4.015   3.053  15.736 -0.4765 -1.1131  0.0120
  599MPD2    C5 8932   4.128   3.071  15.664 -0.2359  0.1251 -0.3793
  599MPD2     H 8933   4.025   2.731  15.811 -0.5665  1.1356  2.5729
  599MPD2    H1 8934   3.943   3.130  15.760  1.0314 -0.0453  1.1351
  599MPD2    H2 8935   4.301   2.978  15.590  0.4874 -0.2968  0.0528
  599MPD2    H3 8936   4.163   3.168  15.628  2.2376 -0.2749  0.9715
  599MPD2     N 8937   3.871   2.941  15.883  0.0665  0.2527 -0.0146
  599MPD2    H5 8938   3.807   3.021  15.876  0.6862  0.5686 -2.0069
  599MPD2    N1 8939   4.271   2.735  15.677 -0.3653  0.1611  0.2374
  599MPD2    H7 8940   4.351   2.753  15.617 -0.5527 -0.9053 -0.3317
  600TMC3    C1 8941   3.757   2.873  16.074 -0.0634  0.1180  0.0567
  600TMC3    C2 8942   3.709   2.762  16.140  0.2541  0.2675 -0.1562
  600TMC3    C3 8943   3.669   2.779  16.270 -0.3802 -0.1426 -0.3174
  600TMC3    C4 8944   3.762   3.001  16.132  0.1781 -0.4667 -0.9613
  600TMC3    C5 8945   3.706   3.017  16.257 -0.2104 -0.7421 -0.3643
  600TMC3    C6 8946   3.664   2.902  16.329 -0.5481 -0.0570  0.0528
  600TMC3     C 8947   3.840   2.839  15.968  0.3575  0.5648 -0.2465
  600TMC3     O 8948   3.897   2.729  15.985  0.3010  0.3497 -0.6752
  600TMC3     H 8949   3.706   2.664  16.095  1.6915  1.0673 -2.0267
  600TMC3    H1 8950   3.792   3.090  16.078  0.4160 -0.2387 -0.4568
  600TMC3    H2 8951   3.629   2.897  16.432 -0.1257  1.8837  0.2939
  600TMC3    C7 8952   3.719   3.139  16.339 -0.2969 -0.2380  0.4339
  600TMC3    C8 8953   3.607   2.668  16.341  0.1595  0.0486  0.2967
  600TMC3    O1 8954   3.672   3.136  16.453 -0.2324  0.4163  0.5250
  600TMC3    O2 8955   3.599   2.683  16.465  0.0511  0.3277 -0.0071
  601MPD2     C 8956   1.713   1.405   0.309  0.1093  0.4632  0.0753
  601MPD2    C1 8957   1.590   1.359   0.334  0.0980 -0.3986  0.3872
  601MPD2    C2 8958   1.580   1.231   0.390  0.7476  0.1205  0.6760
  601MPD2    C3 8959   1.692   1.152   0.418  0.3287  0.2805  0.0604
  601MPD2    C4 8960   1.817   1.205   0.395  0.3400 -0.4754  1.1287
  601MPD2    C5 8961   1.830   1.321   0.333  0.2334 -0.1372  0.2535
  601MPD2     H 8962   1.481   1.187   0.400  0.3002  0.7909 -0.7198
  601MPD2    H1 8963   1.908   1.162   0.435 -0.7156 -2.9478  0.8832
  601MPD2    H2 8964   1.726   1.504   0.267  0.8499  0.2366 -0.2212
  601MPD2    H3 8965   1.931   1.358   0.322  0.0175  0.0077 -1.2082
  601MPD2     N 8966   1.700   1.025   0.473  0.1344  0.4531  0.0718
  601MPD2    H5 8967   1.786   0.973   0.456 -0.1590 -0.0860  0.2331
  601MPD2    N1 8968   1.465   1.420   0.308 -0.2963  0.5410 -0.5933
  601MPD2    H7 8969   1.384   1.365   0.335  0.9217 -0.3651  1.1984
  602TMC3    C1 8970   1.299   1.556   0.229 -0.0666  0.1731  1.0734
  602TMC3    C2 8971   1.266   1.686   0.217 -0.1976 -0.1149 -0.6046
  602TMC3    C3 8972   1.190   1.722   0.110 -1.1815  0.6318 -0.2685
  602TMC3    C4 8973   1.229   1.464   0.162  0.0682 -0.2629  0.5112
  602TMC3    C5 8974   1.140   1.501   0.072  0.4684 -0.2576  0.2731
  602TMC3    C6 8975   1.127   1.632   0.035 -0.6850  0.0060  0.2239
  602TMC3     C 8976   1.441   1.537   0.247  0.4333 -0.1562 -0.0479
  602TMC3     O 8977   1.515   1.616   0.186  0.3956 -0.1935 -0.2089
  602TMC3     H 8978   1.338   1.761   0.250 -1.7541  0.2017  1.9971
  602TMC3    H1 8979   1.245   1.359   0.182 -1.0097 -1.0322 -2.6420
  602TMC3    H2 8980   1.045   1.664  17.739 -0.2578  1.0206  0.1788
  602TMC3    C7 8981   1.103   1.410  17.732  0.4800  0.1560  0.4014
  602TMC3    C8 8982   1.201   1.856   0.057 -0.0967  0.2698 -0.5727
  602TMC3    O1 8983   1.077   1.290  17.750 -0.2564 -0.0412 -0.0193
  602TMC3    O2 8984   1.194   1.955   0.136 -0.4557 -0.0047  0.4318
  603TMC3    C1 8985   3.865   0.936  11.012  0.5089 -0.6756 -0.2479
  603TMC3    C2 8986   3.944   0.964  11.118 -0.2207  0.2242  0.1210
  603TMC3    C3 8987   3.906   1.065  11.210  0.1590 -1.0225  0.1356
  603TMC3    C4 8988   3.770   1.025  10.974 -0.5085 -0.7875  0.2379
  603TMC3    C5 8989   3.740   1.132  11.060  0.7178 -0.4919 -0.3948
  603TMC3    C6 8990   3.792   1.145  11.187 -0.5941 -1.0041  0.0099
  603TMC3     C 8991   3.919   0.847  10.912  0.6753 -0.2003 -0.3990
  603TMC3     O 8992   3.905   0.889  10.799 -0.5159  0.0967 -0.5723
  603TMC3     H 8993   4.021   0.894  11.151  0.2824  1.5963  1.8532
  603TMC3    H1 8994   3.718   1.015  10.879 -0.7590  0.5804  0.2429
  603TMC3    H2 8995   3.771   1.234  11.246  2.0347 -0.8570  0.7560
  603TMC3    C7 8996   3.662   1.240  11.004  0.1856  0.2976  0.2156
  603TMC3    C8 8997   3.944   1.060  11.352 -0.5093 -0.3590 -0.6980
  603TMC3    O1 8998   3.692   1.358  11.026 -0.2261  0.0349  0.0039
  603TMC3    O2 8999   3.983   0.950  11.397  0.9007 -0.2807 -0.3183
  604MPD2     C 9000   0.704   0.557  16.540 -0.1560 -0.7605  0.4080
  604MPD2    C1 9001   0.588   0.493  16.514 -0.3156  0.7226  0.3777
  604MPD2    C2 9002   0.577   0.426  16.390 -0.9477  1.2198 -0.2354
  604MPD2    C3 9003   0.683   0.418  16.299 -0.0473  0.2603 -1.5574
  604MPD2    C4 9004   0.801   0.478  16.335  0.0299  0.2002  0.0063
  604MPD2    C5 9005   0.811   0.537  16.457 -0.6499  0.1628  0.1309
  604MPD2     H 9006   0.481   0.379  16.370  0.6483 -1.7472 -0.9863
  604MPD2    H1 9007   0.890   0.480  16.274 -0.2014 -0.3194 -0.3536
  604MPD2    H2 9008   0.717   0.619  16.628  1.2749  0.2342 -0.4906
  604MPD2    H3 9009   0.903   0.580  16.496 -0.5660 -0.0465  0.1596
  604MPD2     N 9010   0.665   0.364  16.169  0.8938 -0.2177  0.7953
  604MPD2    H5 9011   0.577   0.317  16.154  1.3085 -1.4881  2.4265
  604MPD2    N1 9012   0.484   0.503  16.611  0.8980  0.7337  0.4888
  604MPD2    H7 9013   0.499   0.559  16.694  1.3637 -1.4112  1.8647
  605TMC3    C1 9014   0.265   0.524  16.700 -0.3110 -0.1845  0.4114
  605TMC3    C2 9015   0.341   0.549  16.811 -0.0726 -0.3644  0.3616
  605TMC3    C3 9016   0.330   0.671  16.869  0.3260  0.5653  0.5743
  605TMC3    C4 9017   0.173   0.609  16.650 -0.0106 -0.6925  0.3742
  605TMC3    C5 9018   0.166   0.732  16.708 -0.2778  0.0372  0.3922
  605TMC3    C6 9019   0.247   0.768  16.808  0.3297 -0.7071  0.5584
  605TMC3     C 9020   0.352   0.467  16.594  0.4070 -0.8829 -0.0204
  605TMC3     O 9021   0.293   0.410  16.505  0.6788  0.4216  0.3803
  605TMC3     H 9022   0.396   0.467  16.856  1.2167  1.1410  1.5187
  605TMC3    H1 9023   0.139   0.592  16.549  2.3187  1.4762 -0.7518
  605TMC3    H2 9024   0.230   0.862  16.860  1.5851  0.4769 -1.1749
  605TMC3    C7 9025   0.060   0.833  16.677 -0.5680 -0.0638 -0.2639
  605TMC3    C8 9026   0.458   0.729  16.880 -0.3059  0.5166  0.7919
  605TMC3    O1 9027   0.070   0.950  16.717 -0.3891 -0.0392 -0.0184
  605TMC3    O2 9028   0.557   0.671  16.833  0.2868 -0.3987 -0.6492
  606TMC3    C1 9029   1.733   3.713  16.897 -0.1533 -0.9644 -0.3455
  606TMC3    C2 9030   1.699   3.722  17.026 -0.5986  0.4632  0.1938
  606TMC3    C3 9031   1.652   3.615  17.091  0.4211 -0.1034 -0.1514
  606TMC3    C4 9032   1.724   3.605  16.824  0.3898 -0.4504  0.2529
  606TMC3    C5 9033   1.676   3.497  16.898 -0.5624 -0.5170 -0.9806
  606TMC3    C6 9034   1.638   3.496  17.028  0.9047  1.0862  0.1001
  606TMC3     C 9035   1.745   3.837  16.830  0.0366  0.1579 -0.1881
  606TMC3     O 9036   1.781   3.931  16.897  0.2049  0.3423 -0.4741
  606TMC3     H 9037   1.722   3.814  17.079 -0.8186  0.2798  0.6031
  606TMC3    H1 9038   1.759   3.596  16.722  0.7081 -2.6153  0.5544
  606TMC3    H2 9039   1.595   3.412  17.082  0.0443  0.7906 -1.0530
  606TMC3    C7 9040   1.645   3.373  16.830  0.5608 -0.1070 -0.0697
  606TMC3    C8 9041   1.676   3.611  17.232  0.1876  0.2392 -0.9190
  606TMC3    O1 9042   1.682   3.361  16.714 -0.2509 -0.4787  0.3316
  606TMC3    O2 9043   1.781   3.667  17.263 -0.3537 -0.0841  0.4887
  607MPD2     C 9044   3.049   1.282  11.729  0.4493 -0.0291 -0.3668
  607MPD2    C1 9045   3.034   1.395  11.812  0.5963  0.3246  0.2589
  607MPD2    C2 9046   2.995   1.374  11.942 -0.2075  0.0054  0.1784
  607MPD2    C3 9047   2.948   1.246  11.985 -0.5995  0.4964 -1.0534
  607MPD2    C4 9048   2.954   1.142  11.894  0.0507  0.3047 -0.2367
  607MPD2    C5 9049   3.007   1.159  11.771 -0.2203 -0.7332  0.1873
  607MPD2     H 9050   2.997   1.462  12.005 -0.3100 -0.4221  0.7762
  607MPD2    H1 9051   2.915   1.046  11.926  0.6936  0.5801  1.3774
  607MPD2    H2 9052   3.072   1.292  11.623 -2.5538  1.4357 -0.8973
  607MPD2    H3 9053   2.995   1.079  11.698 -1.8812 -0.2070 -0.1247
  607MPD2     N 9054   2.885   1.231  12.113 -1.0112 -0.0685 -0.4716
  607MPD2    H5 9055   2.895   1.311  12.175 -0.2924  0.4757 -1.2771
  607MPD2    N1 9056   3.064   1.527  11.773 -0.2060 -0.6632  0.4028
  607MPD2    H7 9057   3.035   1.593  11.844  1.2417  0.7823 -0.3572
  608TMC3    C1 9058   3.168   1.720  11.687 -0.4555 -0.4771  0.1937
  608TMC3    C2 9059   3.200   1.749  11.817 -0.1659  0.7737 -0.0802
  608TMC3    C3 9060   3.204   1.874  11.857 -0.1317 -0.6151  0.4490
  608TMC3    C4 9061   3.142   1.821  11.597 -0.6402 -0.8039 -0.2502
  608TMC3    C5 9062   3.149   1.953  11.644 -0.2705 -0.0464  0.1734
  608TMC3    C6 9063   3.183   1.981  11.772 -0.1859  0.1116  0.2099
  608TMC3     C 9064   3.129   1.586  11.663 -0.7207 -0.0539  0.0318
  608TMC3     O 9065   3.205   1.526  11.587  0.4236 -0.2546 -0.0879
  608TMC3     H 9066   3.223   1.666  11.882 -0.1167  0.6352 -0.2748
  608TMC3    H1 9067   3.116   1.806  11.493 -1.3325 -0.1774 -0.1673
  608TMC3    H2 9068   3.220   2.077  11.807  2.6696 -1.3456  1.2139
  608TMC3    C7 9069   3.142   2.058  11.545  0.1586  0.7440 -0.3938
  608TMC3    C8 9070   3.230   1.900  11.995 -0.0362 -0.0389  0.5874
  608TMC3    O1 9071   3.164   2.037  11.426  0.2212 -0.0172 -0.6851
  608TMC3    O2 9072   3.302   1.992  12.025 -0.3562 -0.3444  0.1350
  609TMC3    C1 9073   1.751   0.575   8.956 -0.6376 -0.3629 -0.0734
  609TMC3    C2 9074   1.734   0.538   8.828  0.1032  0.3293 -0.4828
  609TMC3    C3 9075   1.848   0.505   8.753  0.3701 -0.9853 -0.5289
  609TMC3    C4 9076   1.872   0.573   9.018 -0.4060 -0.3051  0.6057
  609TMC3    C5 9077   1.976   0.545   8.939  0.4581  0.1486 -0.6133
  609TMC3    C6 9078   1.971   0.502   8.807 -0.2374  0.6178 -0.3558
  609TMC3     C 9079   1.633   0.582   9.032  0.3222  0.0810  0.2942
  609TMC3     O 9080   1.534   0.509   9.007 -0.1427 -0.6324  0.1098
  609TMC3     H 9081   1.635   0.555   8.789  1.3944  1.9590 -3.0849
  609TMC3    H1 9082   1.872   0.574   9.126 -2.2014 -1.1398  0.6162
  609TMC3    H2 9083   2.056   0.473   8.747  0.7374 -0.3369  1.5115
  609TMC3    C7 9084   2.102   0.555   9.003  0.7576  0.1721  0.4568
  609TMC3    C8 9085   1.833   0.436   8.626  0.8162  0.6524  0.5124
  609TMC3    O1 9086   2.103   0.610   9.115 -0.0077  0.1531  0.2629
  609TMC3    O2 9087   1.927   0.390   8.563 -0.3671  0.1395 -0.7147
  610TMC3    C1 9088   3.460   1.401  12.662 -0.0223  0.0969  0.0178
  610TMC3    C2 9089   3.475   1.494  12.565 -0.8871 -0.8295  0.4940
  610TMC3    C3 9090   3.603   1.535  12.544  0.0469  0.7461  0.0806
  610TMC3    C4 9091   3.566   1.367  12.746  0.1101 -0.1380  0.1191
  610TMC3    C5 9092   3.689   1.428  12.728  0.3348  0.2434 -0.4495
  610TMC3    C6 9093   3.710   1.511  12.627  0.0614 -0.1818  0.3267
  610TMC3     C 9094   3.321   1.360  12.696  0.4349 -0.4439 -0.5230
  610TMC3     O 9095   3.222   1.436  12.686  0.2357 -0.3826 -0.8033
  610TMC3     H 9096   3.393   1.503  12.493 -0.2255 -0.1825 -0.1767
  610TMC3    H1 9097   3.550   1.309  12.835 -1.9866 -1.2934 -0.9962
  610TMC3    H2 9098   3.810   1.539  12.597 -0.7520  0.7530 -1.5135
  610TMC3    C7 9099   3.798   1.342  12.767 -0.1575 -0.6502 -0.2040
  610TMC3    C8 9100   3.640   1.595  12.418  0.1763  0.2795 -0.1599
  610TMC3    O1 9101   3.906   1.391  12.794  0.1351  0.1935  0.3315
  610TMC3    O2 9102   3.706   1.702  12.421  0.1699 -0.0035  0.1493
  611MPD2     C 9103   2.219   1.229  10.378  0.5294 -0.2410  0.1199
  611MPD2    C1 9104   2.270   1.111  10.325  0.1239  1.1826  0.0039
  611MPD2    C2 9105   2.410   1.095  10.327 -0.0885  0.5937 -0.1190
  611MPD2    C3 9106   2.493   1.191  10.395  0.0485 -0.0161  0.8839
  611MPD2    C4 9107   2.438   1.309  10.444  0.4999  0.2506  0.1785
  611MPD2    C5 9108   2.305   1.336  10.428  0.0948 -0.0140 -0.0941
  611MPD2     H 9109   2.453   1.009  10.277  0.5102 -0.2901  1.9435
  611MPD2    H1 9110   2.500   1.382  10.496  1.1062  0.6890 -1.1449
  611MPD2    H2 9111   2.112   1.242  10.362  0.3002 -0.7285  1.2069
  611MPD2    H3 9112   2.267   1.427  10.473 -1.5178 -0.2692 -0.9326
  611MPD2     N 9113   2.631   1.155  10.410  0.1413 -0.3492  0.0175
  611MPD2    H5 9114   2.697   1.224  10.446  1.8362 -1.3696 -1.1574
  611MPD2    N1 9115   2.173   1.025  10.255  0.3349 -0.1185  0.2707
  611MPD2    H7 9116   2.076   1.048  10.242  0.6415  1.0095  0.0368
  612TMC3    C1 9117   2.825   1.010  10.415 -0.0016 -0.3820  0.0377
  612TMC3    C2 9118   2.909   1.118  10.436 -0.4230 -0.0484 -0.2770
  612TMC3    C3 9119   3.037   1.086  10.474 -0.5573  0.2726 -0.2609
  612TMC3    C4 9120   2.867   0.880  10.411 -0.3077 -0.0526 -0.4737
  612TMC3    C5 9121   2.998   0.854  10.436 -0.1558 -1.0997  0.1144
  612TMC3    C6 9122   3.083   0.952  10.482  0.8331  0.4534 -0.3267
  612TMC3     C 9123   2.677   1.021  10.409 -0.1755  0.3101 -0.0231
  612TMC3     O 9124   2.616   0.919  10.421 -0.0012  0.3689  0.2259
  612TMC3     H 9125   2.884   1.224  10.436  2.5371  0.6482  2.1194
  612TMC3    H1 9126   2.796   0.799  10.398 -1.3387  0.7585  0.1047
  612TMC3    H2 9127   3.185   0.918  10.484  0.8286  0.4890  0.6151
  612TMC3    C7 9128   3.052   0.720  10.391 -0.0657  0.1004  0.7430
  612TMC3    C8 9129   3.118   1.196  10.510 -0.9693 -0.6889 -0.1782
  612TMC3    O1 9130   2.986   0.661  10.306  0.3363 -0.3348 -0.5282
  612TMC3    O2 9131   3.094   1.310  10.475 -0.1136  0.1012 -0.4616
  613MPD2     C 9132   3.029   3.772  16.336 -0.3698  0.7038  0.9440
  613MPD2    C1 9133   2.902   3.824  16.321 -0.9832  1.0279  0.4994
  613MPD2    C2 9134   2.790   3.751  16.373 -0.3512 -0.2968 -0.1908
  613MPD2    C3 9135   2.807   3.626  16.422 -0.1867  0.6856  0.0594
  613MPD2    C4 9136   2.939   3.577  16.425 -0.1421 -0.2792 -0.2115
  613MPD2    C5 9137   3.047   3.650  16.395 -0.7722  0.4361  0.1801
  613MPD2     H 9138   2.697   3.795  16.340 -0.7454  0.6821  2.1796
  613MPD2    H1 9139   2.955   3.481  16.473  0.0588  0.5265  1.3339
  613MPD2    H2 9140   3.115   3.829  16.304 -1.2166  0.4329 -1.8186
  613MPD2    H3 9141   3.145   3.606  16.406 -1.1510 -0.2601  0.7956
  613MPD2     N 9142   2.700   3.546  16.462  0.5539  0.3152 -0.3097
  613MPD2    H5 9143   2.725   3.448  16.475  0.7381  0.3759 -0.2041
  613MPD2    N1 9144   2.879   3.941  16.241 -0.2005 -0.6843 -0.6756
  613MPD2    H7 9145   2.781   3.962  16.231 -0.4099 -2.0119 -1.4371
  614TMC3    C1 9146   2.894   4.053  16.049  0.2775  0.0563  0.6388
  614TMC3    C2 9147   2.910   3.973  15.944  0.2922 -0.5154 -0.3876
  614TMC3    C3 9148   2.801   3.939  15.865 -0.1517 -0.4138 -0.3809
  614TMC3    C4 9149   2.772   4.103  16.082  0.1895 -0.8130  0.0462
  614TMC3    C5 9150   2.663   4.075  16.011  0.0152 -0.2337 -0.1814
  614TMC3    C6 9151   2.682   4.007  15.888  0.3268 -0.4087  0.5463
  614TMC3     C 9152   2.973   4.008  16.164 -0.7622  0.3567 -0.4477
  614TMC3     O 9153   3.094   4.008  16.152 -0.1627 -0.0801  0.4761
  614TMC3     H 9154   3.010   3.935  15.931 -0.0129 -0.4879 -2.8323
  614TMC3    H1 9155   2.762   4.167  16.169  0.7499  0.3255 -0.7355
  614TMC3    H2 9156   2.593   3.963  15.846  0.3912 -0.0658  0.0576
  614TMC3    C7 9157   2.540   4.160  16.026 -0.7221  0.3719  0.2729
  614TMC3    C8 9158   2.774   3.789  15.862 -0.7122 -0.1795 -0.6141
  614TMC3    O1 9159   2.530   4.207  16.137 -0.2587 -0.0183  0.4359
  614TMC3    O2 9160   2.658   3.752  15.851  0.8176 -0.4595  0.2925
  615MPD2     C 9161   1.945   0.378  15.706 -0.4509 -0.3665  0.4544
  615MPD2    C1 9162   1.968   0.490  15.777  0.7081 -0.1476 -0.5003
  615MPD2    C2 9163   1.925   0.617  15.737  0.8340  0.3943 -0.0011
  615MPD2    C3 9164   1.866   0.634  15.613  0.1178  0.2185 -0.3456
  615MPD2    C4 9165   1.830   0.520  15.555 -0.7812  1.1616 -1.0691
  615MPD2    C5 9166   1.865   0.398  15.594 -0.4729 -0.3646 -0.3888
  615MPD2     H 9167   1.948   0.705  15.797  0.5121  0.7741 -0.4295
  615MPD2    H1 9168   1.780   0.521  15.459  1.6179 -0.8188 -2.3407
  615MPD2    H2 9169   1.966   0.279  15.744  1.3157  0.8515  2.6006
  615MPD2    H3 9170   1.831   0.315  15.533 -1.2408  0.0357 -0.5045
  615MPD2     N 9171   1.827   0.761  15.561 -0.2175 -0.0865  0.1945
  615MPD2    H5 9172   1.768   0.776  15.480  2.7584 -1.6476 -2.2717
  615MPD2    N1 9173   2.036   0.487  15.903 -0.0838  0.4143  0.4292
  615MPD2    H7 9174   2.039   0.572  15.959  0.8974  0.6542  0.0092
  616TMC3    C1 9175   2.149   0.406  16.082  0.1302  0.9706 -0.5132
  616TMC3    C2 9176   2.266   0.330  16.113 -0.9542 -0.3021 -0.0282
  616TMC3    C3 9177   2.341   0.378  16.218  0.4821 -0.6249 -0.3072
  616TMC3    C4 9178   2.108   0.515  16.148  0.0764 -0.3320 -0.0215
  616TMC3    C5 9179   2.180   0.540  16.265 -0.1215  0.0501 -0.5487
  616TMC3    C6 9180   2.298   0.481  16.293  0.4990 -0.2436  1.0824
  616TMC3     C 9181   2.109   0.380  15.949 -0.2065  0.4187 -0.3222
  616TMC3     O 9182   2.139   0.272  15.896  0.0363  0.4123 -0.3838
  616TMC3     H 9183   2.311   0.253  16.052 -0.9532 -2.5734  2.8242
  616TMC3    H1 9184   2.009   0.555  16.129  0.8473  0.3979 -2.4775
  616TMC3    H2 9185   2.374   0.532  16.351  0.6297 -0.3212  0.9807
  616TMC3    C7 9186   2.151   0.672  16.324  0.4088  0.5412 -0.2263
  616TMC3    C8 9187   2.478   0.335  16.223 -0.2207  0.1560  0.5581
  616TMC3    O1 9188   2.105   0.763  16.254 -0.1004 -0.3524  0.0896
  616TMC3    O2 9189   2.498   0.227  16.174 -0.1431 -0.0391  0.2386
  617MPD2     C 9190   4.375   3.109  12.827  0.2234  0.1482  0.5024
  617MPD2    C1 9191   4.320   3.209  12.912  0.3597  0.1288  0.1459
  617MPD2    C2 9192   4.232   3.181  13.019  0.1768  0.4513  0.0111
  617MPD2    C3 9193   4.201   3.045  13.043  0.1315  0.8182  0.0971
  617MPD2    C4 9194   4.254   2.949  12.966  0.4309  0.3288 -0.7079
  617MPD2    C5 9195   4.329   2.977  12.852  0.0213 -0.0065 -0.3805
  617MPD2     H 9196   4.192   3.259  13.082 -1.7948 -0.8196  0.3277
  617MPD2    H1 9197   4.241   2.844  12.992  1.7758  1.0971  3.1557
  617MPD2    H2 9198   4.444   3.125  12.746  0.0510  0.3484  0.3944
  617MPD2    H3 9199   4.361   2.896  12.787  0.8879 -1.1985  1.5247
  617MPD2     N 9200   4.111   3.014  13.147 -0.4202 -0.2281 -0.7602
  617MPD2    H5 9201   4.086   2.917  13.160  0.2854 -0.3900 -0.5806
  617MPD2    N1 9202   4.366   3.341  12.879  0.0323 -0.2977  0.5411
  617MPD2    H7 9203   4.426   3.342  12.797 -2.0933 -1.5950 -1.0391
  618TMC3    C1 9204   4.420   3.557  12.875 -0.1699  0.0527  0.1584
  618TMC3    C2 9205   4.510   3.626  12.955 -0.0179 -0.0666 -0.2193
  618TMC3    C3 9206   4.611   3.697  12.897  0.0889 -0.4077 -0.2601
  618TMC3    C4 9207   4.433   3.552  12.739 -0.4195  0.2381  0.0645
  618TMC3    C5 9208   4.551   3.598  12.688 -0.3025 -0.6130 -0.2481
  618TMC3    C6 9209   4.627   3.683  12.765 -0.4623  0.7574 -0.2287
  618TMC3     C 9210   4.335   3.461  12.937  0.1292 -0.2547  0.2855
  618TMC3     O 9211   4.290   3.497  13.044 -0.2029 -0.1772 -0.4442
  618TMC3     H 9212   4.489   3.620  13.062  1.5601  0.9194  0.1317
  618TMC3    H1 9213   4.369   3.482  12.687  1.0568 -1.6121  0.7160
  618TMC3    H2 9214   4.724   3.718  12.734 -0.8154  3.0847  1.3473
  618TMC3    C7 9215   4.618   3.482  12.636 -0.1520  0.1219 -0.2640
  618TMC3    C8 9216   4.739   3.703  12.963 -0.7589 -0.5659 -0.1448
  618TMC3    O1 9217   4.556   3.378  12.633  0.5020 -0.1300  0.0413
  618TMC3    O2 9218   0.033   3.814  12.993 -0.5604 -0.0608 -0.2757
  619MPD2     C 9219   1.117   4.199  13.973  0.6045  0.3001 -0.0490
  619MPD2    C1 9220   1.094   4.336  13.951 -0.4359 -0.7444 -0.9233
  619MPD2    C2 9221   0.968   4.378  13.921  0.1475 -0.2518  0.5100
  619MPD2    C3 9222   0.865   4.290  13.905 -0.3142 -0.1108  0.1234
  619MPD2    C4 9223   0.887   4.156  13.930 -0.3504  0.2593 -0.0828
  619MPD2    C5 9224   1.008   4.111  13.965 -0.1186  0.2370 -0.2845
  619MPD2     H 9225   0.963   4.482  13.892 -0.7951 -0.7628 -1.2072
  619MPD2    H1 9226   0.807   4.085  13.912 -0.4579  0.9668 -2.4026
  619MPD2    H2 9227   1.217   4.161  13.987  0.7479  0.1205 -1.6543
  619MPD2    H3 9228   1.018   4.007  13.992  1.8858  0.3187 -0.7200
  619MPD2     N 9229   0.738   4.328  13.856 -0.1791 -0.1357 -0.0681
  619MPD2    H5 9230   0.673   4.251  13.859 -0.3636  0.0747  1.1129
  619MPD2    N1 9231   1.198   4.433  13.955 -0.6829  0.2405  0.7683
  619MPD2    H7 9232   1.176   4.529  13.930  0.1138 -0.1292 -1.3355
  620TMC3    C1 9233   1.419   4.505  13.935  0.5070  0.0196  0.1792
  620TMC3    C2 9234   1.378   4.565  13.819  0.0671 -0.6057 -0.6481
  620TMC3    C3 9235   1.456   4.670  13.784 -0.1917  0.0057  0.2790
  620TMC3    C4 9236   1.511   4.554  14.019  0.6210  0.0818 -0.8442
  620TMC3    C5 9237   1.579   4.669  13.982  0.0679  0.5214 -0.1414
  620TMC3    C6 9238   1.554   4.727  13.859 -0.3634  0.2668 -0.4586
  620TMC3     C 9239   1.329   4.412  13.993  0.2267  0.4878  0.1962
  620TMC3     O 9240   1.372   4.323  14.067  0.5341  0.1263  0.3535
  620TMC3     H 9241   1.305   4.510  13.761 -2.0698  0.5538  0.9798
  620TMC3    H1 9242   1.536   4.512  14.116  1.8433 -1.6915 -1.9134
  620TMC3    H2 9243   1.615   0.065  13.820 -1.0865  0.3249 -1.4481
  620TMC3    C7 9244   1.593   0.022  14.088  0.0500  0.1002  0.3664
  620TMC3    C8 9245   1.376   0.029  13.733  0.3222  0.5915  0.5796
  620TMC3    O1 9246   1.655   0.001  14.190 -0.4339 -0.4732  0.4334
  620TMC3    O2 9247   1.394   0.136  13.791  0.6948  0.2158 -0.3434
  621MPD2     C 9248   1.150   4.584   9.882  0.2119  0.1095 -0.1870
  621MPD2    C1 9249   1.099   4.598   9.754  0.5006  0.7520  0.5345
  621MPD2    C2 9250   1.157   4.681   9.664 -0.1320  1.4044  0.0938
  621MPD2    C3 9251   1.262   0.019   9.707  0.1308  0.6159  0.1771
  621MPD2    C4 9252   1.305   0.017   9.839 -0.0635  0.1219  0.6260
  621MPD2    C5 9253   1.249   4.672   9.924  0.0470  0.3884  0.2588
  621MPD2     H 9254   1.119   4.682   9.562  0.7151 -0.9677 -0.2385
  621MPD2    H1 9255   1.387   0.080   9.871  1.2949 -0.9819 -0.7098
  621MPD2    H2 9256   1.127   4.501   9.948 -0.5590 -1.2196 -2.1072
  621MPD2    H3 9257   1.295   4.679  10.022  0.5322  0.2870  0.0368
  621MPD2     N 9258   1.328   0.108   9.614 -0.2174  0.3223  0.6614
  621MPD2    H5 9259   1.384   0.178   9.661  1.3248  0.3017 -1.1565
  621MPD2    N1 9260   0.988   4.512   9.711 -0.2804 -0.3941 -0.0550
  621MPD2    H7 9261   0.930   4.545   9.634  0.1314  2.4005  0.8329
  622TMC3    C1 9262   0.835   4.343   9.721  0.4120  0.1197  0.2045
  622TMC3    C2 9263   0.761   4.264   9.811  0.8182 -0.0902 -0.4421
  622TMC3    C3 9264   0.661   4.187   9.756  1.1058  1.0664  0.6057
  622TMC3    C4 9265   0.806   4.346   9.586 -0.6406 -0.0354 -0.1346
  622TMC3    C5 9266   0.705   4.272   9.542 -0.1671 -0.1023  0.0979
  622TMC3    C6 9267   0.627   4.192   9.625 -0.1662 -0.3104  0.1554
  622TMC3     C 9268   0.935   4.414   9.788 -0.0080 -0.2054  0.7034
  622TMC3     O 9269   0.967   4.370   9.898 -0.7266 -0.2837 -0.6034
  622TMC3     H 9270   0.799   4.228   9.906  0.2125  0.7076  0.0923
  622TMC3    H1 9271   0.864   4.403   9.513 -1.6405  1.1982  0.0260
  622TMC3    H2 9272   0.534   4.145   9.592 -0.9513  0.4244  1.3282
  622TMC3    C7 9273   0.659   4.276   9.403  0.4457  0.3336 -0.2526
  622TMC3    C8 9274   0.547   4.156   9.844  0.4784  0.6719 -0.4276
  622TMC3    O1 9275   0.590   4.179   9.372  0.3501  0.2908  0.2803
  622TMC3    O2 9276   0.458   4.081   9.813 -1.0217 -0.2531  0.2972
  623MPD2     C 9277   0.636   0.666  15.836 -0.7944  0.1878 -0.1184
  623MPD2    C1 9278   0.568   0.651  15.960  0.5021 -0.1991 -0.4375
  623MPD2    C2 9279   0.636   0.676  16.075  0.8019 -0.7625  0.0609
  623MPD2    C3 9280   0.771   0.723  16.070 -0.3395 -0.2984  0.1212
  623MPD2    C4 9281   0.836   0.717  15.949  0.5489  0.4060 -0.0274
  623MPD2    C5 9282   0.771   0.693  15.832  0.7363 -0.3554 -0.1035
  623MPD2     H 9283   0.584   0.670  16.171  0.7681 -1.8466 -0.0324
  623MPD2    H1 9284   0.944   0.715  15.939  0.6361  1.3326  0.7381
  623MPD2    H2 9285   0.591   0.644  15.740  1.3193 -2.1299 -0.5549
  623MPD2    H3 9286   0.822   0.685  15.736 -0.1113 -0.7458 -0.5179
  623MPD2     N 9287   0.835   0.766  16.187 -0.2349  0.0305 -0.1307
  623MPD2    H5 9288   0.780   0.777  16.272  1.9930  0.5718  1.2441
  623MPD2    N1 9289   0.432   0.626  15.971 -0.2477  0.6445 -0.8055
  623MPD2    H7 9290   0.396   0.614  16.065 -1.8628  0.4644 -1.4428
  624TMC3    C1 9291   1.152   0.943  16.478  0.1204 -0.4733  0.6268
  624TMC3    C2 9292   1.062   0.995  16.556  0.0151 -0.2758 -0.0451
  624TMC3    C3 9293   0.933   1.006  16.513  0.2841 -0.2077 -0.6028
  624TMC3    C4 9294   1.130   0.898  16.352 -0.2798  0.1144  0.0712
  624TMC3    C5 9295   1.000   0.881  16.325  0.6246 -0.6214 -0.2828
  624TMC3    C6 9296   0.901   0.943  16.391  0.1431  0.0415 -0.5391
  624TMC3     C 9297   1.286   0.932  16.535 -0.6351 -0.2769  0.7427
  624TMC3     O 9298   1.297   0.941  16.660 -0.2425 -0.1948  0.0003
  624TMC3     H 9299   1.085   1.031  16.655 -1.6284  2.4625 -0.6396
  624TMC3    H1 9300   1.199   0.841  16.290  2.0864  1.5623  1.3591
  624TMC3    H2 9301   0.807   0.964  16.341 -0.5173 -2.1533 -0.2258
  624TMC3    C7 9302   0.962   0.820  16.192 -0.1060 -0.4615  0.3888
  624TMC3    C8 9303   0.819   0.990  16.601  0.2270 -0.4179  0.0730
  624TMC3    O1 9304   1.056   0.823  16.111 -0.1108 -0.4655  0.8256
  624TMC3    O2 9305   0.725   0.927  16.555 -0.0867  0.0218  0.0962
  625MPD2     C 9306   1.003   2.054   0.759  0.2174 -0.1139 -0.3989
  625MPD2    C1 9307   1.066   2.177   0.765  0.2578  0.0379 -0.0334
  625MPD2    C2 9308   1.194   2.180   0.816 -0.5104  0.2995 -0.2772
  625MPD2    C3 9309   1.259   2.065   0.853  0.5113 -0.4284 -0.6666
  625MPD2    C4 9310   1.183   1.946   0.864  0.0261 -0.9442  0.0662
  625MPD2    C5 9311   1.059   1.939   0.802 -0.4169  0.7929  0.4362
  625MPD2     H 9312   1.257   2.267   0.801  2.3773 -1.7954 -0.4100
  625MPD2    H1 9313   1.220   1.847   0.889  1.1812 -0.6810 -0.5970
  625MPD2    H2 9314   0.907   2.040   0.710 -0.6076 -0.5499  1.3672
  625MPD2    H3 9315   1.018   1.840   0.787 -0.5222  0.7568  0.9533
  625MPD2     N 9316   1.401   2.068   0.875 -0.0904 -0.3302 -0.0856
  625MPD2    H5 9317   1.461   2.150   0.866  0.7891 -1.0639 -0.9440
  625MPD2    N1 9318   0.999   2.296   0.730  0.2309 -0.0964  0.1556
  625MPD2    H7 9319   1.057   2.379   0.741 -1.5353  1.1364  0.2447
  626TMC3    C1 9320   0.858   2.454   0.621 -0.3107 -0.3990  0.7474
  626TMC3    C2 9321   0.771   2.458   0.517  0.2757  0.0350 -0.6868
  626TMC3    C3 9322   0.686   2.565   0.513  0.2486  0.0273  0.7375
  626TMC3    C4 9323   0.853   2.539   0.724 -0.5265 -0.4258  0.8335
  626TMC3    C5 9324   0.766   2.647   0.720 -0.0517  0.5184  0.2608
  626TMC3    C6 9325   0.681   2.659   0.619  0.3524 -0.2799 -0.3068
  626TMC3     C 9326   0.885   2.310   0.649  0.3690 -0.0250  0.8198
  626TMC3     O 9327   0.807   2.230   0.599  0.7846 -0.3127  0.3883
  626TMC3     H 9328   0.766   2.385   0.436 -0.9253 -0.4365 -0.1967
  626TMC3    H1 9329   0.921   2.526   0.808 -2.0587  0.2472  2.1581
  626TMC3    H2 9330   0.620   2.748   0.614 -1.1365 -1.2133  1.1912
  626TMC3    C7 9331   0.713   2.684   0.849 -0.8547  0.2551 -0.0416
  626TMC3    C8 9332   0.616   2.601   0.386  0.2751  0.5329  0.8112
  626TMC3    O1 9333   0.789   2.672   0.943 -0.0362 -0.1109  0.3954
  626TMC3    O2 9334   0.637   2.531   0.287  0.1319  0.7341  0.2407
  627MPD2     C 9335   4.083   2.344  14.391  0.1126 -0.1720 -0.1508
  627MPD2    C1 9336   4.209   2.320  14.352  0.2693 -0.1924  0.2376
  627MPD2    C2 9337   4.237   2.196  14.298 -0.3589 -0.3507 -0.1360
  627MPD2    C3 9338   4.142   2.095  14.292  0.3070  0.5693  0.6383
  627MPD2    C4 9339   4.009   2.124  14.339 -0.4099  0.3850 -0.9431
  627MPD2    C5 9340   3.984   2.252  14.381 -0.2430 -0.1211  0.0083
  627MPD2     H 9341   4.339   2.169  14.275 -0.0123 -0.6236  1.6961
  627MPD2    H1 9342   3.932   2.049  14.327  0.9656 -0.9652 -1.2534
  627MPD2    H2 9343   4.045   2.429  14.446 -0.8586  0.4729 -1.8241
  627MPD2    H3 9344   3.885   2.286  14.408 -0.5093 -2.2457  1.7086
  627MPD2     N 9345   4.178   1.970  14.238  0.2553  0.3298  0.4362
  627MPD2    H5 9346   4.273   1.970  14.203  0.4079  0.4858  0.8517
  627MPD2    N1 9347   4.311   2.424  14.353  0.6413  0.8239 -0.1709
  627MPD2    H7 9348   4.404   2.389  14.332 -0.4300 -1.4542 -1.0603
  628TMC3    C1 9349   4.411   2.624  14.328  0.0564  0.1667  0.5897
  628TMC3    C2 9350   4.532   2.589  14.381  0.0166 -0.2869 -0.4012
  628TMC3    C3 9351   4.641   2.658  14.331 -0.1774 -0.4460  0.0671
  628TMC3    C4 9352   4.393   2.733  14.244 -0.7345 -0.6428  0.1406
  628TMC3    C5 9353   4.507   2.801  14.203 -0.4507  0.3149  0.5310
  628TMC3    C6 9354   4.634   2.755  14.237  0.8969 -0.0492  1.3418
  628TMC3     C 9355   4.294   2.556  14.360 -0.6288 -0.2594  0.1099
  628TMC3     O 9356   4.189   2.618  14.375  0.6506 -0.1155 -0.2288
  628TMC3     H 9357   4.541   2.524  14.467  0.5407  0.7703  0.3485
  628TMC3    H1 9358   4.291   2.759  14.219  0.1886  2.1001 -0.8393
  628TMC3    H2 9359   4.721   2.798  14.189  1.1174 -1.8393  0.1450
  628TMC3    C7 9360   4.501   2.905  14.101  0.7841  0.2775 -0.3689
  628TMC3    C8 9361   0.031   2.601  14.343  0.0207  0.2052  0.0178
  628TMC3    O1 9362   4.601   2.968  14.072  0.1324  0.2421  0.0481
  628TMC3    O2 9363   0.117   2.644  14.267 -0.1012 -0.3467  0.1093
  629MPD2     C 9364   2.968   0.403  16.348 -0.1227 -0.2835 -0.2466
  629MPD2    C1 9365   2.906   0.526  16.347 -0.5163 -0.4988 -0.2539
  629MPD2    C2 9366   2.780   0.531  16.298  0.8840 -0.3028  0.2500
  629MPD2    C3 9367   2.706   0.418  16.269  0.2981  0.3876  0.2710
  629MPD2    C4 9368   2.771   0.293  16.270 -0.0601 -0.5105  0.1459
  629MPD2    C5 9369   2.905   0.289  16.307  0.1537 -0.5209  0.2356
  629MPD2     H 9370   2.739   0.630  16.284  0.3191 -0.8912 -2.2693
  629MPD2    H1 9371   2.724   0.199  16.243 -0.5496  0.1536 -1.3753
  629MPD2    H2 9372   3.071   0.395  16.382  0.2127  1.1140 -0.9209
  629MPD2    H3 9373   2.947   0.189  16.309 -0.7864 -0.9434 -0.6293
  629MPD2     N 9374   2.564   0.433  16.257 -0.3686  0.2000  0.1523
  629MPD2    H5 9375   2.527   0.528  16.267 -0.0752  0.2833  0.4497
  629MPD2    N1 9376   2.976   0.636  16.380  0.4963 -0.9782 -0.0267
  629MPD2    H7 9377   3.062   0.627  16.434 -1.4767 -0.9180  3.1607
  630TMC3    C1 9378   3.061   0.849  16.407 -0.3547 -0.4534 -0.6409
  630TMC3    C2 9379   3.108   0.960  16.340  0.2292  0.3030 -0.4608
  630TMC3    C3 9380   3.212   1.021  16.391  0.9324 -0.3620 -0.5481
  630TMC3    C4 9381   3.112   0.803  16.527  0.9635 -0.3313 -0.0950
  630TMC3    C5 9382   3.204   0.887  16.589  0.3921 -0.2751  0.6107
  630TMC3    C6 9383   3.256   0.993  16.515 -0.5790  0.4006 -0.3334
  630TMC3     C 9384   2.964   0.766  16.338 -0.1902  0.6687  0.0516
  630TMC3     O 9385   2.900   0.813  16.242  0.4706 -0.2764 -0.4494
  630TMC3     H 9386   3.071   0.984  16.241  0.3633 -1.2807 -0.8958
  630TMC3    H1 9387   3.054   0.733  16.585 -0.7831  2.1109  1.1174
  630TMC3    H2 9388   3.343   1.044  16.555 -1.7940  0.9057  1.6890
  630TMC3    C7 9389   3.249   0.842  16.713  0.1946  0.5418  0.3365
  630TMC3    C8 9390   3.271   1.135  16.323  0.1890  0.2624 -0.2289
  630TMC3    O1 9391   3.237   0.717  16.733  0.6926 -0.7336  0.2917
  630TMC3    O2 9392   3.340   1.209  16.394 -0.2878  0.1490  0.1415
  631MPD2     C 9393   1.012   1.285  15.382  0.0674  0.3799  0.3610
  631MPD2    C1 9394   1.102   1.386  15.422 -1.1142 -0.0846 -0.1193
  631MPD2    C2 9395   1.235   1.356  15.438  0.0689 -0.0170 -0.5487
  631MPD2    C3 9396   1.282   1.231  15.424  0.3811  0.1602 -0.3069
  631MPD2    C4 9397   1.198   1.129  15.382  0.9775 -0.2366  0.6183
  631MPD2    C5 9398   1.062   1.161  15.359  0.1455  0.5005 -0.2152
  631MPD2     H 9399   1.315   1.425  15.463 -0.7127  0.5993  0.2471
  631MPD2    H1 9400   1.218   1.023  15.374  0.3009 -0.2691 -0.5321
  631MPD2    H2 9401   0.911   1.299  15.348  1.0012  3.5436 -1.0385
  631MPD2    H3 9402   0.993   1.087  15.320  0.6553 -0.4607  0.6884
  631MPD2     N 9403   1.419   1.204  15.443 -0.6365 -0.2521  0.1812
  631MPD2    H5 9404   1.481   1.283  15.459  0.8414 -1.5192  0.7092
  631MPD2    N1 9405   1.055   1.520  15.402  0.1103 -0.1350  0.0499
  631MPD2    H7 9406   0.960   1.532  15.367  0.7203 -2.3575 -2.4046
  632TMC3    C1 9407   1.084   1.728  15.303 -0.5048 -0.4542 -0.2667
  632TMC3    C2 9408   0.947   1.732  15.300  0.1627  0.0471  0.0385
  632TMC3    C3 9409   0.879   1.714  15.183  0.8227  0.7777  0.1462
  632TMC3    C4 9410   1.153   1.701  15.188  0.0730  0.3847 -0.0184
  632TMC3    C5 9411   1.083   1.691  15.070 -0.2897 -0.2406 -0.4195
  632TMC3    C6 9412   0.942   1.700  15.066  0.1244 -0.4633  0.1204
  632TMC3     C 9413   1.136   1.629  15.396  0.1388 -0.4737  0.7619
  632TMC3     O 9414   1.251   1.646  15.435  0.1095  0.4397 -0.0997
  632TMC3     H 9415   0.900   1.755  15.395  0.1871  0.5790 -0.0779
  632TMC3    H1 9416   1.260   1.687  15.194  0.0721 -1.4610 -4.1636
  632TMC3    H2 9417   0.893   1.703  14.970  0.2407 -0.9257  0.0470
  632TMC3    C7 9418   1.145   1.644  14.948 -0.9093  0.4169  0.5232
  632TMC3    C8 9419   0.736   1.699  15.193  0.8193  0.7198  0.2211
  632TMC3    O1 9420   1.072   1.619  14.851 -0.0317 -0.1993  0.0428
  632TMC3    O2 9421   0.691   1.684  15.306  0.0690  0.1380 -0.8036
  633MPD2     C 9422   0.993   3.578  17.372 -0.6168 -0.3856 -0.4476
  633MPD2    C1 9423   0.960   3.528  17.248 -0.4111 -0.2778  0.4471
  633MPD2    C2 9424   0.944   3.389  17.241  0.1093  0.6523  0.0094
  633MPD2    C3 9425   0.981   3.304  17.354 -0.1627  0.4194  0.7253
  633MPD2    C4 9426   1.033   3.361  17.464 -0.6064 -0.4350 -0.2892
  633MPD2    C5 9427   1.029   3.496  17.477  0.5635 -0.5256  0.4895
  633MPD2     H 9428   0.893   3.348  17.154  1.0078 -0.6666  0.0937
  633MPD2    H1 9429   1.073   3.302  17.546 -1.5219  0.2500  0.6446
  633MPD2    H2 9430   0.992   3.686  17.384 -0.2958 -0.5369  1.0033
  633MPD2    H3 9431   1.064   3.546  17.567  0.6669 -1.9031  1.2125
  633MPD2     N 9432   0.965   3.163  17.347  0.7583  0.5781  0.1647
  633MPD2    H5 9433   0.991   3.093  17.416 -0.0177 -0.5145 -0.6695
  633MPD2    N1 9434   0.933   3.603  17.135 -0.5082  0.8016  0.2897
  633MPD2    H7 9435   0.885   3.554  17.060  0.4392  0.6999 -0.2422
  634TMC3    C1 9436   0.926   3.771  16.975 -0.3615 -0.2094 -0.2431
  634TMC3    C2 9437   0.948   3.668  16.887  0.9235 -0.6735  0.5513
  634TMC3    C3 9438   0.979   3.697  16.752 -1.0947 -0.1053  0.5702
  634TMC3    C4 9439   0.933   3.903  16.924  0.2425  0.3496  0.7656
  634TMC3    C5 9440   0.952   3.929  16.790  0.3706 -0.4712 -0.0166
  634TMC3    C6 9441   0.984   3.828  16.702  0.4304  0.1573 -0.9407
  634TMC3     C 9442   0.937   3.741  17.120  0.1858  0.2043 -0.2439
  634TMC3     O 9443   0.966   3.831  17.192 -0.2797  0.1939 -0.1412
  634TMC3     H 9444   0.942   3.560  16.901 -0.5422 -1.1309 -3.5956
  634TMC3    H1 9445   0.939   3.987  16.993 -0.0580  0.5374  0.5617
  634TMC3    H2 9446   0.981   3.851  16.596  1.1892  1.4580 -0.6830
  634TMC3    C7 9447   0.935   4.066  16.742 -0.3931  0.3365  0.1701
  634TMC3    C8 9448   0.968   3.585  16.661 -0.1250  1.2728  0.0523
  634TMC3    O1 9449   0.990   4.095  16.637 -0.1387 -0.2421  0.1943
  634TMC3    O2 9450   0.931   3.475  16.695  0.3335 -0.2131  0.2448
  635TMC3    C1 9451   1.310   4.608   0.699  0.0117  0.0132 -0.5958
  635TMC3    C2 9452   1.222   4.558   0.607  0.9703 -0.3758 -0.3112
  635TMC3    C3 9453   1.231   4.420   0.577  0.4239 -0.8361 -0.1370
  635TMC3    C4 9454   1.411   4.537   0.753  0.1879  0.5875  0.3467
  635TMC3    C5 9455   1.427   4.409   0.711  0.2518 -0.1283 -0.4131
  635TMC3    C6 9456   1.334   4.345   0.634  0.0397 -0.1455  0.8055
  635TMC3     C 9457   1.314   0.004   0.728 -0.6265  0.0549  1.2263
  635TMC3     O 9458   1.408   0.044   0.794  0.1262 -0.3035  0.6398
  635TMC3     H 9459   1.153   4.617   0.548  1.4932  0.1084 -0.4452
  635TMC3    H1 9460   1.485   4.574   0.824  2.0132  0.3818 -1.4322
  635TMC3    H2 9461   1.343   4.239   0.611 -2.1251 -0.3078  0.7007
  635TMC3    C7 9462   1.497   4.323   0.803 -0.0852  0.0471  0.2444
  635TMC3    C8 9463   1.126   4.340   0.509  0.4746 -1.2939  0.1201
  635TMC3    O1 9464   1.471   4.333   0.921  0.6056  0.1340 -0.2395
  635TMC3    O2 9465   1.148   4.237   0.453  0.2363 -0.2971 -0.2192
  636MPD2     C 9466   2.016   4.121  16.236 -0.1342 -0.2387 -0.0999
  636MPD2    C1 9467   2.128   4.120  16.317  0.1085  0.0110 -0.4898
  636MPD2    C2 9468   2.202   4.000  16.331 -0.2345 -0.4672 -0.0188
  636MPD2    C3 9469   2.155   3.881  16.273  0.1145 -0.0032  0.9384
  636MPD2    C4 9470   2.040   3.878  16.201  0.2829  0.5551 -0.3989
  636MPD2    C5 9471   1.976   4.003  16.179  0.2195  0.0603  0.3831
  636MPD2     H 9472   2.294   3.998  16.387  0.2606  0.4831 -0.8004
  636MPD2    H1 9473   2.000   3.790  16.152  1.2443  0.2125 -0.5578
  636MPD2    H2 9474   1.953   4.208  16.219  0.1555  0.2375  1.2877
  636MPD2    H3 9475   1.893   4.004  16.109 -0.8254 -0.0386  1.6165
  636MPD2     N 9476   2.224   3.763  16.313  0.6855  0.3041 -0.1826
  636MPD2    H5 9477   2.302   3.766  16.376  1.1695  0.2013 -0.7767
  636MPD2    N1 9478   2.166   4.233  16.383 -0.6960  0.3026  0.1259
  636MPD2    H7 9479   2.261   4.240  16.418 -1.2111 -0.3969  1.6688
  637TMC3    C1 9480   2.297   3.537  16.302 -0.3617 -0.4719 -0.1243
  637TMC3    C2 9481   2.358   3.549  16.418 -0.0587  0.4168 -0.8963
  637TMC3    C3 9482   2.469   3.482  16.453  0.6809  0.0852  0.3858
  637TMC3    C4 9483   2.337   3.437  16.213 -0.1736  0.7471  0.1120
  637TMC3    C5 9484   2.449   3.365  16.240  0.0424 -0.1823 -0.1944
  637TMC3    C6 9485   2.515   3.389  16.363  0.7778 -0.2491  0.4453
  637TMC3     C 9486   2.200   3.634  16.260 -0.2730  0.4634  0.3858
  637TMC3     O 9487   2.131   3.600  16.165 -0.5018  0.3020  0.3234
  637TMC3     H 9488   2.314   3.619  16.489 -3.5361  1.3763 -3.9864
  637TMC3    H1 9489   2.288   3.422  16.117  0.1580  0.9855 -0.0951
  637TMC3    H2 9490   2.595   3.326  16.400 -0.0159 -2.4537 -1.5747
  637TMC3    C7 9491   2.539   3.393  16.125  0.2634 -0.0877  0.3439
  637TMC3    C8 9492   2.567   3.585  16.476  0.2217  0.0518  0.1173
  637TMC3    O1 9493   2.500   3.462  16.035 -0.3173 -0.1745 -0.1199
  637TMC3    O2 9494   2.526   3.701  16.475  0.4199 -0.1295 -0.4708
  638MPD2     C 9495   1.699   3.007  14.457  0.1491  0.4770  0.2492
  638MPD2    C1 9496   1.708   2.876  14.422  0.6204 -0.2045 -0.6998
  638MPD2    C2 9497   1.699   2.785  14.530 -0.4457  0.3998  0.1317
  638MPD2    C3 9498   1.681   2.832  14.658 -0.0287 -0.4075  0.1496
  638MPD2    C4 9499   1.685   2.963  14.689 -0.0209  0.1426 -0.1582
  638MPD2    C5 9500   1.699   3.051  14.587 -0.0538  0.0591  0.3334
  638MPD2     H 9501   1.719   2.679  14.517 -1.6587  0.2309 -0.3835
  638MPD2    H1 9502   1.672   3.004  14.789 -2.3119  1.1765 -0.8624
  638MPD2    H2 9503   1.700   3.081  14.378 -0.2873 -0.2926 -0.4770
  638MPD2    H3 9504   1.699   3.156  14.616  2.3908  0.0703  0.3116
  638MPD2     N 9505   1.663   2.739  14.766 -0.2994  0.5793  0.4584
  638MPD2    H5 9506   1.669   2.773  14.861  2.9383  0.3169  0.3616
  638MPD2    N1 9507   1.745   2.838  14.294  0.1808 -0.2047 -0.0047
  638MPD2    H7 9508   1.750   2.921  14.236  2.2575 -0.5897 -0.3715
  639TMC3    C1 9509   1.621   2.539  14.879  0.2204  0.0163  0.1744
  639TMC3    C2 9510   1.530   2.434  14.873  0.1644 -0.1736  0.6109
  639TMC3    C3 9511   1.561   2.312  14.924 -0.0227 -0.0660  0.2251
  639TMC3    C4 9512   1.740   2.523  14.942 -0.4608  0.1164 -0.0971
  639TMC3    C5 9513   1.766   2.397  14.990 -0.2066  0.0257 -0.4092
  639TMC3    C6 9514   1.684   2.293  14.976  0.8111 -0.4193 -0.1918
  639TMC3     C 9515   1.614   2.610  14.755  0.6503  0.8135  0.1184
  639TMC3     O 9516   1.552   2.566  14.660 -0.0894 -0.6167  0.6396
  639TMC3     H 9517   1.436   2.444  14.820  0.0187  0.5269  1.0025
  639TMC3    H1 9518   1.809   2.607  14.947  1.2121 -1.3045  0.2357
  639TMC3    H2 9519   1.710   2.195  15.014  2.1225 -0.5483 -1.4124
  639TMC3    C7 9520   1.858   2.396  15.101  0.2815  0.5376  0.2736
  639TMC3    C8 9521   1.530   2.203  14.840 -0.2068 -0.3012  1.2784
  639TMC3    O1 9522   1.856   2.303  15.183 -0.1418 -0.9146 -0.3980
  639TMC3    O2 9523   1.622   2.149  14.781 -0.2284 -0.1514 -0.4632
  640MPD2     C 9524   1.791   1.629  10.208 -0.5872 -0.2218  0.8425
  640MPD2    C1 9525   1.684   1.544  10.189 -0.2141  0.4058 -0.4275
  640MPD2    C2 9526   1.574   1.550  10.261  0.6134 -0.6293  0.3743
  640MPD2    C3 9527   1.559   1.649  10.357  0.3823  0.1970 -1.1542
  640MPD2    C4 9528   1.669   1.738  10.374  0.1839 -0.3044  0.1562
  640MPD2    C5 9529   1.779   1.729  10.296  0.4511  0.3224  0.2553
  640MPD2     H 9530   1.501   1.470  10.263 -1.3658  1.2205  2.0985
  640MPD2    H1 9531   1.655   1.812  10.452  0.3008 -1.1925  1.0138
  640MPD2    H2 9532   1.882   1.640  10.150 -0.3193 -0.8907  1.1397
  640MPD2    H3 9533   1.864   1.796  10.302  0.3814  0.4203  0.1448
  640MPD2     N 9534   1.443   1.662  10.431  0.0991 -0.9576 -0.5855
  640MPD2    H5 9535   1.442   1.741  10.494  1.4406 -1.2264 -0.2400
  640MPD2    N1 9536   1.709   1.448  10.094  0.2837  0.4874 -1.1371
  640MPD2    H7 9537   1.805   1.450  10.062  0.7173 -0.3698  0.1154
  641TMC3    C1 9538   1.669   1.282   9.936 -0.0108 -0.3971 -0.4352
  641TMC3    C2 9539   1.802   1.256   9.910 -0.1539 -0.3929  0.1007
  641TMC3    C3 9540   1.829   1.183   9.797 -0.0123  0.7847  0.4343
  641TMC3    C4 9541   1.567   1.235   9.849 -0.2591  0.3627 -0.5167
  641TMC3    C5 9542   1.605   1.180   9.728 -0.1883  0.3393  0.7290
  641TMC3    C6 9543   1.736   1.141   9.709  0.2830 -0.0304 -0.1652
  641TMC3     C 9544   1.616   1.364  10.040  0.5250 -0.4673  0.6889
  641TMC3     O 9545   1.500   1.361  10.059 -0.1529  0.0714  0.4432
  641TMC3     H 9546   1.865   1.272   9.996 -3.2139 -1.5246  2.5578
  641TMC3    H1 9547   1.462   1.258   9.866 -0.0784 -0.0274  1.1566
  641TMC3    H2 9548   1.769   1.096   9.616 -1.8179 -2.2660  0.1827
  641TMC3    C7 9549   1.526   1.187   9.613  0.4649 -0.8059 -0.1717
  641TMC3    C8 9550   1.963   1.132   9.787 -0.4033  0.3311 -0.5203
  641TMC3    O1 9551   1.583   1.218   9.510  0.5560 -0.1191 -0.2780
  641TMC3    O2 9552   1.983   1.046   9.703  0.1656  0.2867  0.4720
  642TMC3    C1 9553   2.932   2.041  12.320  0.2823 -0.2756 -0.2317
  642TMC3    C2 9554   2.967   2.012  12.449 -0.1570 -0.8088  0.0274
  642TMC3    C3 9555   2.918   1.892  12.497 -0.3120  0.3315 -0.6736
  642TMC3    C4 9556   2.847   1.965  12.239  0.3312  0.6609 -0.2808
  642TMC3    C5 9557   2.800   1.849  12.293 -0.4943  0.4654 -0.4663
  642TMC3    C6 9558   2.834   1.810  12.421  0.0577 -0.4369  0.1259
  642TMC3     C 9559   2.933   2.181  12.291 -0.4452 -0.5291  0.1926
  642TMC3     O 9560   2.981   2.228  12.189  0.1444  0.0967 -0.3508
  642TMC3     H 9561   3.031   2.075  12.509 -0.2818  0.9361 -1.6558
  642TMC3    H1 9562   2.832   1.998  12.137  2.4380 -1.4608 -1.2731
  642TMC3    H2 9563   2.829   1.702  12.432  2.4205 -0.3911  1.6059
  642TMC3    C7 9564   2.708   1.763  12.209  0.1630 -0.1341 -1.3774
  642TMC3    C8 9565   2.950   1.854  12.635 -0.0096  0.3716 -0.5006
  642TMC3    O1 9566   2.714   1.785  12.087 -0.8770 -0.0519  0.1289
  642TMC3    O2 9567   3.056   1.895  12.686 -0.2596 -0.3706  0.2688
  643TMC3    C1 9568   2.647   1.704   0.426 -0.1672 -0.0820 -0.7079
  643TMC3    C2 9569   2.529   1.771   0.437 -0.6820 -0.7866  0.1962
  643TMC3    C3 9570   2.484   1.834   0.327  0.3252 -0.2001  0.1483
  643TMC3    C4 9571   2.701   1.663   0.311 -0.0080 -0.0881  0.3475
  643TMC3    C5 9572   2.638   1.718   0.203  0.3195 -0.2041  0.1892
  643TMC3    C6 9573   2.529   1.800   0.204  0.4160  1.1600 -0.9501
  643TMC3     C 9574   2.691   1.647   0.552 -0.0377 -0.1662 -0.0819
  643TMC3     O 9575   2.612   1.619   0.642 -0.0295 -0.0938  0.2963
  643TMC3     H 9576   2.483   1.786   0.535 -0.6639  1.3384 -0.1090
  643TMC3    H1 9577   2.789   1.600   0.307 -0.2689 -0.4093 -0.2510
  643TMC3    H2 9578   2.483   1.841   0.114 -2.0134 -0.8452 -0.6225
  643TMC3    C7 9579   2.706   1.707   0.069  0.7337  0.1676 -0.1103
  643TMC3    C8 9580   2.394   1.943   0.342  0.2837 -0.1946 -0.3950
  643TMC3    O1 9581   2.700   1.803  17.761 -1.1313 -0.1236 -0.4417
  643TMC3    O2 9582   2.333   1.944   0.450  0.1361  0.1893 -0.4425
  644MPD2     C 9583   1.007   1.680   9.510 -0.2377 -0.0069  0.2302
  644MPD2    C1 9584   1.130   1.698   9.565 -0.7068  0.9223 -0.3224
  644MPD2    C2 9585   1.143   1.801   9.655 -0.4329  0.1685  0.1614
  644MPD2    C3 9586   1.034   1.880   9.688 -0.7893  0.2236  0.1829
  644MPD2    C4 9587   0.909   1.857   9.627  0.4610  0.2407  0.0846
  644MPD2    C5 9588   0.894   1.747   9.539 -0.3551  0.0869 -0.1083
  644MPD2     H 9589   1.233   1.817   9.713 -0.5721 -1.8099  0.9407
  644MPD2    H1 9590   0.827   1.928   9.639  1.1014  1.3057 -1.9549
  644MPD2    H2 9591   1.000   1.587   9.455 -2.4809  0.5970 -0.4916
  644MPD2    H3 9592   0.794   1.727   9.504 -1.1407 -1.2996  2.8804
  644MPD2     N 9593   1.041   1.991   9.776  0.2843  0.1538  0.3693
  644MPD2    H5 9594   1.132   2.010   9.817 -0.2237  0.6388  1.2944
  644MPD2    N1 9595   1.234   1.625   9.517 -0.2774 -0.1488  0.1089
  644MPD2    H7 9596   1.208   1.561   9.442 -2.1084  1.9848 -1.0723
  645TMC3    C1 9597   0.977   2.159   9.924  0.3965 -0.4379  0.4475
  645TMC3    C2 9598   1.077   2.245   9.886  0.3373  0.2032  0.1473
  645TMC3    C3 9599   1.084   2.362   9.948  1.0339  0.2625 -0.0877
  645TMC3    C4 9600   0.880   2.196  10.010 -0.1173 -0.4926 -0.1436
  645TMC3    C5 9601   0.889   2.321  10.079  0.1488  0.4968  0.3669
  645TMC3    C6 9602   0.994   2.400  10.047  0.5802  0.8412  0.8318
  645TMC3     C 9603   0.938   2.047   9.845  0.3545  0.2343 -0.8763
  645TMC3     O 9604   0.830   1.989   9.868  0.2266 -0.1344 -0.2018
  645TMC3     H 9605   1.161   2.215   9.825 -0.2343  0.9578 -1.0171
  645TMC3    H1 9606   0.798   2.132  10.040  0.0024 -0.2338  0.7507
  645TMC3    H2 9607   1.004   2.497  10.094  1.6595  0.7295  0.8420
  645TMC3    C7 9608   0.837   2.342  10.216 -0.5263 -0.9766 -0.2757
  645TMC3    C8 9609   1.200   2.445   9.919  0.3603  0.0396  0.1680
  645TMC3    O1 9610   0.912   2.397  10.296 -0.3363  0.6029 -0.2751
  645TMC3    O2 9611   1.299   2.391   9.879  0.0942 -0.9582 -0.2184
  646MPD2     C 9612   2.167   1.459  14.491  0.2361  0.3411 -0.4950
  646MPD2    C1 9613   2.074   1.444  14.590  0.6127 -0.9407 -0.8266
  646MPD2    C2 9614   1.942   1.470  14.558  0.3677  0.5307  0.5238
  646MPD2    C3 9615   1.906   1.529  14.438 -0.4053 -0.1044 -0.4116
  646MPD2    C4 9616   2.004   1.555  14.345 -0.5564  0.3619  0.3373
  646MPD2    C5 9617   2.138   1.521  14.373 -0.1652 -0.5087 -0.2257
  646MPD2     H 9618   1.863   1.448  14.630 -0.3752  0.2662 -0.3657
  646MPD2    H1 9619   1.991   1.597  14.246 -4.3714 -1.3933  0.0928
  646MPD2    H2 9620   2.270   1.431  14.512 -0.1744 -0.8451 -0.0303
  646MPD2    H3 9621   2.213   1.538  14.296  0.2350  2.3951  0.8026
  646MPD2     N 9622   1.769   1.540  14.411 -0.0896 -0.3689  0.4904
  646MPD2    H5 9623   1.699   1.487  14.461 -1.7428 -1.8358 -3.3517
  646MPD2    N1 9624   2.121   1.381  14.712 -0.4449  0.5556 -0.8159
  646MPD2    H7 9625   2.220   1.359  14.722 -0.3600  0.9069 -0.9022
  647TMC3    C1 9626   2.105   1.366  14.948  0.0203 -0.3496 -0.1040
  647TMC3    C2 9627   2.035   1.317  15.057 -0.0747 -0.2593 -0.3477
  647TMC3    C3 9628   2.114   1.281  15.164 -0.3182 -0.0319  0.2810
  647TMC3    C4 9629   2.236   1.410  14.962  0.1850  0.1545  0.0349
  647TMC3    C5 9630   2.300   1.391  15.080 -0.6270 -0.1997 -0.5802
  647TMC3    C6 9631   2.242   1.329  15.180 -0.1173 -0.5207  0.4839
  647TMC3     C 9632   2.040   1.364  14.822 -0.0372  0.2506  0.0632
  647TMC3     O 9633   1.917   1.359  14.819 -0.3311 -0.7527  0.4617
  647TMC3     H 9634   1.932   1.284  15.047  0.4073 -0.8331 -3.3464
  647TMC3    H1 9635   2.291   1.449  14.878 -1.2961  1.2032 -0.4453
  647TMC3    H2 9636   2.295   1.306  15.272 -0.0105  0.4599  0.6760
  647TMC3    C7 9637   2.449   1.383  15.076  1.0069  1.2138  0.0298
  647TMC3    C8 9638   2.088   1.156  15.223  0.4825 -0.2200 -0.1339
  647TMC3    O1 9639   2.501   1.309  15.156  0.4233 -0.7352  0.1804
  647TMC3    O2 9640   2.154   1.111  15.316 -0.1826 -0.0108 -0.2868
  648TMC3    C1 9641   1.360   3.767  16.141  0.2487  0.0254 -0.6040
  648TMC3    C2 9642   1.355   3.648  16.075  0.2501  0.0580  0.3296
  648TMC3    C3 9643   1.345   3.641  15.938  0.4778 -0.8364 -0.0895
  648TMC3    C4 9644   1.356   3.878  16.058 -0.7134  0.0512 -0.0472
  648TMC3    C5 9645   1.349   3.873  15.924  0.0121 -0.0246  0.2960
  648TMC3    C6 9646   1.350   3.752  15.853 -0.7012  0.1040 -0.6916
  648TMC3     C 9647   1.364   3.794  16.282  0.1964  0.0875 -0.1882
  648TMC3     O 9648   1.369   3.914  16.312  0.0514  0.1239 -0.1147
  648TMC3     H 9649   1.351   3.556  16.132 -0.7141  1.7297  2.9098
  648TMC3    H1 9650   1.365   3.975  16.105 -0.6864 -0.1091  0.2763
  648TMC3    H2 9651   1.326   3.758  15.748 -2.2581 -0.3850 -0.3630
  648TMC3    C7 9652   1.332   4.000  15.849 -0.9415  0.6738 -0.4379
  648TMC3    C8 9653   1.352   3.509  15.877  0.3552 -0.0822  0.1156
  648TMC3    O1 9654   1.379   3.997  15.734 -0.2061  0.0580 -0.5644
  648TMC3    O2 9655   1.332   3.412  15.951  0.7609  0.1509  0.0200
  649TMC3    C1 9656   4.517   0.193  12.985  0.0250 -0.5702  0.8149
  649TMC3    C2 9657   4.647   0.203  12.940  0.7018  0.4355  0.6858
  649TMC3    C3 9658   0.001   0.160  13.027  0.4849 -0.5573  0.3594
  649TMC3    C4 9659   4.487   0.142  13.109 -0.8883 -0.5662 -0.5844
  649TMC3    C5 9660   4.581   0.094  13.191 -0.0341 -0.2241  0.2785
  649TMC3    C6 9661   4.718   0.112  13.158 -0.2693  0.4624 -0.0370
  649TMC3     C 9662   4.408   0.192  12.894  0.6130  0.0329 -0.3667
  649TMC3     O 9663   4.296   0.213  12.941  0.0996  0.2074 -0.0228
  649TMC3     H 9664   4.678   0.262  12.854  0.2566  0.0938  0.2882
  649TMC3    H1 9665   4.382   0.120  13.122 -0.5259 -0.5527  2.3030
  649TMC3    H2 9666   0.051   0.082  13.230 -2.7285 -1.7355  1.6332
  649TMC3    C7 9667   4.535   0.001  13.295 -0.5654 -0.1526 -0.0280
  649TMC3    C8 9668   0.135   0.143  12.975  0.0601  0.6441 -0.0021
  649TMC3    O1 9669   4.417   0.008  13.326 -0.8458  0.7915 -0.1903
  649TMC3    O2 9670   0.151   0.151  12.852  0.2399 -0.0732 -0.1021
  650TMC3    C1 9671   2.301   1.465  12.613 -0.7649  0.0082 -0.5205
  650TMC3    C2 9672   2.307   1.593  12.660 -0.2558  0.0258 -0.2878
  650TMC3    C3 9673   2.193   1.667  12.656  0.2466  0.0551 -0.3777
  650TMC3    C4 9674   2.194   1.425  12.543  0.4766  0.1228  0.5069
  650TMC3    C5 9675   2.086   1.512  12.535  0.3661 -0.9480  0.2461
  650TMC3    C6 9676   2.076   1.630  12.596  0.3858  0.5651  0.4228
  650TMC3     C 9677   2.421   1.382  12.633 -0.0097 -0.0800 -0.3580
  650TMC3     O 9678   2.520   1.450  12.655 -0.3881  0.0186 -0.3026
  650TMC3     H 9679   2.387   1.622  12.728  0.9201 -0.9032 -1.2790
  650TMC3    H1 9680   2.199   1.327  12.498  2.4353 -0.0366  1.0948
  650TMC3    H2 9681   1.984   1.687  12.605  0.0943 -0.1949  2.1894
  650TMC3    C7 9682   1.987   1.483  12.432 -0.3460  0.4177  0.0377
  650TMC3    C8 9683   2.199   1.785  12.733  0.5178  0.1395  0.5185
  650TMC3    O1 9684   1.978   1.369  12.389 -0.1461  0.6614  0.9001
  650TMC3    O2 9685   2.310   1.835  12.739 -0.1296  0.1558  0.4102
  651MPD2     C 9686   1.245   3.814  11.303  0.2594 -0.0769  0.4460
  651MPD2    C1 9687   1.175   3.856  11.191 -0.2163 -0.5631  0.4781
  651MPD2    C2 9688   1.246   3.881  11.075  0.2579 -0.3712 -0.2567
  651MPD2    C3 9689   1.370   3.850  11.058 -0.3841 -0.1264 -0.4609
  651MPD2    C4 9690   1.437   3.803  11.162 -0.0029  0.7177 -1.0963
  651MPD2    C5 9691   1.378   3.788  11.287 -0.9290  1.1802  0.4594
  651MPD2     H 9692   1.198   3.919  10.986 -0.7095 -0.0412  0.4119
  651MPD2    H1 9693   1.541   3.773  11.163  0.1105  1.1923  1.4367
  651MPD2    H2 9694   1.197   3.795  11.399  0.4839  1.2098  0.8081
  651MPD2    H3 9695   1.439   3.750  11.368  0.9635 -1.0917 -2.0196
  651MPD2     N 9696   1.427   3.865  10.929  0.0111 -0.7113  0.2695
  651MPD2    H5 9697   1.364   3.897  10.856  0.3940  1.6551  0.9690
  651MPD2    N1 9698   1.041   3.894  11.194  0.3999  0.0918 -0.2882
  651MPD2    H7 9699   1.006   3.938  11.109  1.6694  1.2373 -0.2248
  652TMC3    C1 9700   1.787   4.024  10.685  0.1741  0.2483  0.4650
  652TMC3    C2 9701   1.730   3.906  10.734 -0.5670  0.9577  0.3980
  652TMC3    C3 9702   1.591   3.913  10.760  0.4547 -0.5255  0.5289
  652TMC3    C4 9703   1.717   4.132  10.643 -0.5872  0.0871 -0.2335
  652TMC3    C5 9704   1.578   4.115  10.641  0.6533 -0.0464 -0.4676
  652TMC3    C6 9705   1.511   4.012  10.702  0.1476  0.2337  0.0535
  652TMC3     C 9706   1.932   4.018  10.663 -0.3847  0.5732  0.7808
  652TMC3     O 9707   1.990   3.957  10.751  0.4281  0.2325  0.4212
  652TMC3     H 9708   1.781   3.820  10.775 -1.3364  0.8325  1.0900
  652TMC3    H1 9709   1.765   4.218  10.598  0.1681 -0.2136 -0.0002
  652TMC3    H2 9710   1.403   4.009  10.699  0.1144  1.5201 -0.0045
  652TMC3    C7 9711   1.484   4.210  10.572 -0.3959 -0.0207 -0.2828
  652TMC3    C8 9712   1.562   3.852  10.897 -0.0893  0.9384  0.3603
  652TMC3    O1 9713   1.365   4.183  10.569  0.5968  0.2870 -0.8632
  652TMC3    O2 9714   1.651   3.800  10.962 -0.6172 -0.3659 -0.1066
  653MPD2     C 9715   0.650   3.782  17.573  0.1903 -0.3273  1.0080
  653MPD2    C1 9716   0.546   3.865  17.537  0.3817 -0.3115  0.8909
  653MPD2    C2 9717   0.477   3.838  17.422 -0.5491 -0.3840  0.0062
  653MPD2    C3 9718   0.502   3.726  17.343  0.5768  0.3084  0.4011
  653MPD2    C4 9719   0.597   3.639  17.386 -0.8969 -0.1346 -0.4254
  653MPD2    C5 9720   0.676   3.675  17.492 -0.5049 -0.7188  0.2267
  653MPD2     H 9721   0.396   3.909  17.414  0.4940  0.8585  0.4097
  653MPD2    H1 9722   0.611   3.543  17.338 -0.0244  0.2935 -1.0125
  653MPD2    H2 9723   0.727   3.795  17.648 -0.8933 -0.3656  2.1186
  653MPD2    H3 9724   0.761   3.611  17.510 -1.0857 -1.5644 -0.0686
  653MPD2     N 9725   0.414   3.708  17.234 -0.2321 -0.6117  0.2478
  653MPD2    H5 9726   0.344   3.781  17.232 -0.5282 -0.9187 -0.3558
  653MPD2    N1 9727   0.516   3.988  17.600 -0.3580  0.0371  0.2859
  653MPD2    H7 9728   0.446   4.047  17.556 -2.6897 -2.2180  0.9303
  654TMC3    C1 9729   0.320   3.614  17.029  0.6403 -0.2597  0.0996
  654TMC3    C2 9730   0.245   3.728  17.010 -0.1295 -0.0237 -0.3236
  654TMC3    C3 9731   0.132   3.722  16.928 -0.1571  0.1810 -0.4392
  654TMC3    C4 9732   0.295   3.506  16.952 -0.7577 -0.6526  0.0943
  654TMC3    C5 9733   0.182   3.503  16.879  0.0048  0.0800 -0.0866
  654TMC3    C6 9734   0.097   3.610  16.868  0.0426  0.2705 -0.0172
  654TMC3     C 9735   0.418   3.608  17.139 -0.0255  0.5207  0.2149
  654TMC3     O 9736   0.494   3.508  17.131  0.3899  0.1282  0.7175
  654TMC3     H 9737   0.269   3.818  17.065  2.3836 -0.9291  0.0662
  654TMC3    H1 9738   0.365   3.424  16.943 -1.4592 -1.1577 -0.8056
  654TMC3    H2 9739   0.002   3.611  16.815 -0.3536  1.0116  0.7111
  654TMC3    C7 9740   0.123   3.377  16.834 -0.1979 -0.3942 -0.4578
  654TMC3    C8 9741   0.033   3.833  16.919  0.8334  0.7783  0.5054
  654TMC3    O1 9742   0.039   3.375  16.742  0.5569  0.1118 -0.3738
  654TMC3    O2 9743   4.698   3.828  16.825 -1.0117 -0.2348  0.2553
  655MPD2     C 9744   1.923   3.998  15.545  0.4901 -0.2931 -0.0212
  655MPD2    C1 9745   1.811   4.077  15.529 -0.0998  0.8050  0.1649
  655MPD2    C2 9746   1.747   4.079  15.406  0.1481  0.6267 -0.0063
  655MPD2    C3 9747   1.787   3.991  15.304  0.5078 -0.3318 -0.3683
  655MPD2    C4 9748   1.893   3.907  15.332 -0.1399  0.0455 -0.0699
  655MPD2    C5 9749   1.970   3.927  15.443  0.1722  0.1129 -0.4098
  655MPD2     H 9750   1.658   4.140  15.393  1.0003  1.4195 -2.0322
  655MPD2    H1 9751   1.924   3.829  15.264 -0.2456 -0.6419  0.6693
  655MPD2    H2 9752   1.980   4.006  15.637  1.0733  0.5823 -0.4659
  655MPD2    H3 9753   2.062   3.872  15.460 -0.0645 -0.5556 -1.3154
  655MPD2     N 9754   1.718   3.971  15.183 -0.6626  0.3549 -0.3128
  655MPD2    H5 9755   1.766   3.912  15.116 -2.5636 -1.5550  0.0236
  655MPD2    N1 9756   1.755   4.156  15.626  0.2876 -0.0346 -0.0766
  655MPD2    H7 9757   1.678   4.219  15.606  0.0534 -0.6785 -1.2160
  656TMC3    C1 9758   1.724   4.287  15.818  0.0487  0.7265  0.4023
  656TMC3    C2 9759   1.669   4.267  15.938 -0.2586 -0.3680  0.3212
  656TMC3    C3 9760   1.556   4.345  15.973  0.1103  0.3144 -0.4097
  656TMC3    C4 9761   1.667   4.373  15.724  0.5260 -0.6848 -0.1375
  656TMC3    C5 9762   1.559   4.447  15.766  0.4217 -0.2999 -0.5357
  656TMC3    C6 9763   1.496   4.437  15.891 -0.1348 -0.2503 -0.2437
  656TMC3     C 9764   1.793   4.171  15.754 -0.1695  0.2198 -0.3041
  656TMC3     O 9765   1.862   4.106  15.828 -0.6743 -0.0897 -0.0310
  656TMC3     H 9766   1.693   4.187  16.006 -1.1205 -0.3188  0.6750
  656TMC3    H1 9767   1.714   4.396  15.629  2.0384  0.1843  0.8185
  656TMC3    H2 9768   1.395   4.465  15.917 -0.1938 -1.9568  1.3664
  656TMC3    C7 9769   1.509   4.532  15.662 -1.6379  0.8868 -0.4633
  656TMC3    C8 9770   1.476   4.301  16.080  0.1557 -0.3162  0.7014
  656TMC3    O1 9771   1.538   4.504  15.550  0.7165 -0.1898  0.4916
  656TMC3    O2 9772   1.494   4.186  16.121  0.2446 -0.0049  0.0743
  657TMC3    C1 9773   0.673   3.141  14.211 -0.0990  1.6494  0.2362
  657TMC3    C2 9774   0.632   3.164  14.340  0.6733  0.0298  0.4826
  657TMC3    C3 9775   0.518   3.227  14.356 -0.2763  0.4285 -0.2837
  657TMC3    C4 9776   0.603   3.191  14.104 -0.6197 -0.5751 -0.3726
  657TMC3    C5 9777   0.497   3.271  14.129  0.1688  0.4508  0.3763
  657TMC3    C6 9778   0.455   3.289  14.254  0.0857 -0.0918  0.5653
  657TMC3     C 9779   0.734   3.013  14.202  0.3397 -0.6127  0.6479
  657TMC3     O 9780   0.682   2.936  14.121 -0.1999 -0.0085 -0.7130
  657TMC3     H 9781   0.664   3.101  14.422  1.0086  2.2339  2.0462
  657TMC3    H1 9782   0.623   3.170  14.000  0.8817 -3.2588  0.4525
  657TMC3    H2 9783   0.364   3.345  14.271 -0.4601 -0.1365 -2.1162
  657TMC3    C7 9784   0.409   3.293  14.014  0.7173  0.3084 -0.1310
  657TMC3    C8 9785   0.433   3.226  14.479  0.4525  0.7756 -0.6909
  657TMC3    O1 9786   0.463   3.302  13.905 -0.0517  0.0233 -0.3992
  657TMC3    O2 9787   0.318   3.268  14.474 -0.1151  0.3173  0.7929
  658MPD2     C 9788   1.999   3.884  14.638 -0.8029  0.1981 -0.1330
  658MPD2    C1 9789   1.869   3.880  14.611  0.3729 -0.3049 -0.1560
  658MPD2    C2 9790   1.835   3.857  14.479  0.4502  0.2988 -0.1019
  658MPD2    C3 9791   1.930   3.850  14.375 -0.9823 -0.7780 -0.6482
  658MPD2    C4 9792   2.062   3.859  14.410 -0.1984 -0.1121  0.1945
  658MPD2    C5 9793   2.102   3.881  14.542  0.3784  0.6399  0.0078
  658MPD2     H 9794   1.733   3.864  14.442 -0.2153  1.6102  2.0025
  658MPD2    H1 9795   2.141   3.856  14.334  0.4863  1.6679  0.8419
  658MPD2    H2 9796   2.029   3.904  14.740 -0.0546 -0.1199 -0.2902
  658MPD2    H3 9797   2.204   3.896  14.576  0.1950  0.2875  0.7264
  658MPD2     N 9798   1.881   3.834  14.241 -0.9462  0.3215 -0.0109
  658MPD2    H5 9799   1.780   3.826  14.242 -0.6773 -3.0706 -1.6298
  658MPD2    N1 9800   1.770   3.891  14.714 -0.0316  0.2774 -0.0615
  658MPD2    H7 9801   1.817   3.886  14.805 -0.4010 -0.2356  0.1007
  659TMC3    C1 9802   1.562   3.892  14.825 -1.1344  0.3010 -0.0927
  659TMC3    C2 9803   1.620   3.962  14.928  0.0914 -0.8819  0.5170
  659TMC3    C3 9804   1.543   3.983  15.034 -0.1730 -0.3718  0.2745
  659TMC3    C4 9805   1.437   3.852  14.819 -0.1797  0.5786  0.2145
  659TMC3    C5 9806   1.360   3.887  14.927 -0.6635 -0.2457  0.4421
  659TMC3    C6 9807   1.415   3.947  15.040 -0.3019  0.0247 -0.4034
  659TMC3     C 9808   1.635   3.886  14.703  0.4232  0.0171  0.7279
  659TMC3     O 9809   1.570   3.890  14.598  0.1852  0.2413 -0.3077
  659TMC3     H 9810   1.723   3.997  14.928 -0.6305  1.3049 -2.3357
  659TMC3    H1 9811   1.408   3.781  14.742 -0.8810 -0.6517  1.6028
  659TMC3    H2 9812   1.350   3.969  15.124 -0.8982  0.8281 -1.0850
  659TMC3    C7 9813   1.216   3.844  14.929 -0.1040 -0.6948 -0.8591
  659TMC3    C8 9814   1.588   4.018  15.162 -0.4703  0.0254  0.2495
  659TMC3    O1 9815   1.158   3.843  15.038 -0.0344  0.6046  0.5730
  659TMC3    O2 9816   1.513   4.079  15.238 -0.5357 -0.0934 -0.0422
  660MPD2     C 9817   3.547   2.137  12.305 -0.8797 -1.0855  0.2291
  660MPD2    C1 9818   3.490   2.247  12.368  0.1228  0.8361 -0.1695
  660MPD2    C2 9819   3.468   2.238  12.506 -0.5979 -0.0681  0.5424
  660MPD2    C3 9820   3.510   2.130  12.578  0.5204  0.3675  0.4336
  660MPD2    C4 9821   3.567   2.024  12.512  0.1288 -0.1377 -0.0313
  660MPD2    C5 9822   3.578   2.023  12.374  0.4856  0.3008 -0.2500
  660MPD2     H 9823   3.423   2.323  12.557 -2.4302 -0.9411  0.3685
  660MPD2    H1 9824   3.591   1.935  12.568  1.1963 -0.2287 -0.6356
  660MPD2    H2 9825   3.563   2.138  12.197 -2.4239  2.4237  0.0253
  660MPD2    H3 9826   3.622   1.935  12.327  0.6595  0.1286  0.2334
  660MPD2     N 9827   3.505   2.122  12.724 -0.6269 -0.3630  0.1787
  660MPD2    H5 9828   3.562   2.048  12.764 -0.2393 -0.2968 -0.2456
  660MPD2    N1 9829   3.444   2.353  12.292  0.3352  0.3245 -0.9834
  660MPD2    H7 9830   3.467   2.351  12.193 -0.0590 -0.7471 -1.0616
  661TMC3    C1 9831   3.392   2.581  12.235 -0.1793 -0.5409 -1.0793
  661TMC3    C2 9832   3.460   2.568  12.118  0.1177  0.5678  0.3334
  661TMC3    C3 9833   3.423   2.644  12.007 -0.4843 -0.0083 -0.3481
  661TMC3    C4 9834   3.290   2.672  12.246 -0.0039  0.2207  0.2476
  661TMC3    C5 9835   3.257   2.749  12.138  0.7524 -0.0465  0.5648
  661TMC3    C6 9836   3.315   2.735  12.015 -0.1938 -0.0540 -0.1526
  661TMC3     C 9837   3.397   2.471  12.336 -0.0815 -0.7982 -0.9943
  661TMC3     O 9838   3.353   2.500  12.447 -0.7856 -0.2206 -0.1855
  661TMC3     H 9839   3.548   2.507  12.102 -2.1856 -2.6669  0.1053
  661TMC3    H1 9840   3.226   2.673  12.333 -1.3753 -0.1155 -0.7663
  661TMC3    H2 9841   3.285   2.792  11.928 -0.1664  0.0966 -0.0623
  661TMC3    C7 9842   3.117   2.781  12.134  0.6018 -0.6130 -0.3497
  661TMC3    C8 9843   3.530   2.663  11.905 -0.0882 -0.7487  0.7136
  661TMC3    O1 9844   3.074   2.839  12.235 -0.3675 -0.4971 -0.4174
  661TMC3    O2 9845   3.609   2.570  11.897  0.3706 -0.1927  0.0852
  662MPD2     C 9846   0.105   2.533   0.013  0.1761 -0.3668 -0.7585
  662MPD2    C1 9847   0.019   2.502  17.676  0.0742 -0.4254  0.1331
  662MPD2    C2 9848   4.665   2.588  17.639  0.4651 -0.1873 -0.8547
  662MPD2    C3 9849   4.650   2.703  17.706  1.0798  0.1687 -0.1688
  662MPD2    C4 9850   4.726   2.730   0.053  0.1209  0.4710 -0.1464
  662MPD2    C5 9851   0.082   2.644   0.088 -0.8577 -0.2598 -0.2576
  662MPD2     H 9852   4.601   2.565  17.554 -1.4052  0.1424  0.4618
  662MPD2    H1 9853   4.716   2.819   0.115 -0.9681  0.1329  0.1559
  662MPD2    H2 9854   0.182   2.466   0.048  0.3018 -0.4747 -1.2437
  662MPD2    H3 9855   0.149   2.661   0.171  0.2268 -1.6547 -0.8397
  662MPD2     N 9856   4.551   2.794  17.668 -0.4359 -0.2704 -0.2414
  662MPD2    H5 9857   4.539   2.872  17.731 -1.9671 -0.0480 -0.8043
  662MPD2    N1 9858   0.014   2.378  17.612 -0.2960  0.1989 -0.0164
  662MPD2    H7 9859   4.687   2.371  17.539  0.4694  0.6030 -0.7794
  663TMC3    C1 9860   0.036   2.140  17.593 -0.1870  0.7147  0.1953
  663TMC3    C2 9861   4.642   2.126  17.579 -0.1269  0.7258  0.4859
  663TMC3    C3 9862   4.593   1.998  17.555 -0.1180  0.7471 -0.4892
  663TMC3    C4 9863   0.122   2.039  17.561  0.1031  0.3163  0.2512
  663TMC3    C5 9864   0.071   1.917  17.532  0.4369 -0.0153  0.2672
  663TMC3    C6 9865   4.682   1.898  17.519  0.2056 -0.4419  0.7033
  663TMC3     C 9866   0.094   2.269  17.639 -0.9664  0.2603 -0.0033
  663TMC3     O 9867   0.207   2.265  17.692 -0.0770 -0.4058 -0.0011
  663TMC3     H 9868   4.571   2.197  17.620 -0.9488  0.5300 -0.6133
  663TMC3    H1 9869   0.226   2.061  17.584 -0.4544  1.8101  1.4251
  663TMC3    H2 9870   4.646   1.810  17.467 -0.0927  0.0436  0.0941
  663TMC3    C7 9871   0.161   1.801  17.516 -0.6154 -0.0368  0.7750
  663TMC3    C8 9872   4.462   2.007  17.493 -0.4749 -0.0635  0.6344
  663TMC3    O1 9873   0.276   1.828  17.544 -0.6357  0.1735  0.4429
  663TMC3    O2 9874   4.420   2.114  17.451  0.0749 -0.3756  0.7348
  664MPD2     C 9875   2.643   0.300  17.386 -0.0495 -0.1386  0.1391
  664MPD2    C1 9876   2.688   0.414  17.461  0.6524 -0.4645  0.0245
  664MPD2    C2 9877   2.648   0.424  17.592 -1.5585 -0.3410  0.2634
  664MPD2    C3 9878   2.566   0.326  17.649  0.1407  0.0246  0.0393
  664MPD2    C4 9879   2.512   0.222  17.577 -0.5903  1.0355  0.4403
  664MPD2    C5 9880   2.550   0.211  17.443  0.3473 -0.5427 -0.0819
  664MPD2     H 9881   2.685   0.506  17.652 -0.8152 -0.8896  0.5516
  664MPD2    H1 9882   2.433   0.159  17.617  0.5098 -0.1451  0.7659
  664MPD2    H2 9883   2.670   0.278  17.284  1.4521  0.4284  0.4212
  664MPD2    H3 9884   2.505   0.129  17.389 -2.2946 -0.3088  1.7553
  664MPD2     N 9885   2.528   0.354   0.013 -0.5367  0.3223  0.0422
  664MPD2    H5 9886   2.583   0.425   0.059  2.1688 -0.2888 -2.2937
  664MPD2    N1 9887   2.776   0.511  17.405 -0.3634 -0.2652  0.8412
  664MPD2    H7 9888   2.786   0.599  17.456  2.2196  0.4323 -0.9025
  665TMC3    C1 9889   2.457   0.326   0.224  0.7243  0.2768  0.2525
  665TMC3    C2 9890   2.457   0.240   0.335  0.6622  0.0086 -0.5206
  665TMC3    C3 9891   2.491   0.297   0.452  0.2206 -0.1698  1.1344
  665TMC3    C4 9892   2.477   0.464   0.238  0.3911  0.0161  0.2700
  665TMC3    C5 9893   2.509   0.509   0.362 -0.6552  0.0163  0.2732
  665TMC3    C6 9894   2.506   0.432   0.475 -0.0565  0.1394  0.3752
  665TMC3     C 9895   2.463   0.264   0.094 -0.2152 -0.1206 -0.2017
  665TMC3     O 9896   2.418   0.149   0.078  0.1322 -0.0746  0.0814
  665TMC3     H 9897   2.468   0.134   0.317  1.9488  0.0438  0.0724
  665TMC3    H1 9898   2.454   0.525   0.152  1.8470  0.5624  0.2769
  665TMC3    H2 9899   2.517   0.471   0.575 -1.3196  2.1007 -0.2302
  665TMC3    C7 9900   2.503   0.654   0.381 -0.8622 -0.1836 -0.5706
  665TMC3    C8 9901   2.522   0.217   0.561  0.7650 -0.4206 -0.0970
  665TMC3    O1 9902   2.416   0.714   0.313 -0.0777 -0.6297  0.4072
  665TMC3    O2 9903   2.579   0.275   0.651 -0.0135  0.0978 -0.1297
  666TMC3    C1 9904   1.416   0.207   9.435  0.3897 -0.4656  1.1408
  666TMC3    C2 9905   1.513   0.181   9.340 -0.0958 -0.2853 -0.0406
  666TMC3    C3 9906   1.599   0.282   9.301 -0.6781  0.5376  0.2682
  666TMC3    C4 9907   1.395   0.329   9.493 -0.2213  0.1842  0.2167
  666TMC3    C5 9908   1.491   0.422   9.462 -0.9129  0.5641 -0.8175
  666TMC3    C6 9909   1.581   0.408   9.356  0.0741  0.6345 -0.5489
  666TMC3     C 9910   1.325   0.103   9.474 -0.3172 -0.0464  0.0857
  666TMC3     O 9911   1.296   0.007   9.401  0.5495  0.2866 -0.7172
  666TMC3     H 9912   1.517   0.082   9.294  2.6779  0.6028 -1.6906
  666TMC3    H1 9913   1.313   0.345   9.561 -0.0498 -1.9154  0.9170
  666TMC3    H2 9914   1.635   0.492   9.313  1.0057 -0.1993 -1.0081
  666TMC3    C7 9915   1.499   0.540   9.549  0.1367 -0.9083 -0.2343
  666TMC3    C8 9916   1.685   0.256   9.192  0.1825 -0.1566 -0.1694
  666TMC3    O1 9917   1.403   0.565   9.619  0.1985 -0.5441 -0.0765
  666TMC3    O2 9918   1.645   0.173   9.110  0.5092 -0.3022 -0.5140
  667MPD2     C 9919   3.851   0.646  14.648  0.1310  0.2899  0.4421
  667MPD2    C1 9920   3.785   0.665  14.770  0.1542  0.3333 -0.8586
  667MPD2    C2 9921   3.714   0.560  14.820 -0.9214  0.1560  0.5256
  667MPD2    C3 9922   3.706   0.441  14.752 -1.1881 -0.3825  0.3356
  667MPD2    C4 9923   3.767   0.429  14.631 -0.1805 -0.3163  0.1702
  667MPD2    C5 9924   3.842   0.532  14.576  0.1128 -0.7903 -0.0392
  667MPD2     H 9925   3.671   0.571  14.919 -1.7054  0.7823  0.1127
  667MPD2    H1 9926   3.748   0.338  14.575  0.9713 -0.0668 -0.6248
  667MPD2    H2 9927   3.915   0.719  14.600 -1.5145  0.2890 -1.7425
  667MPD2    H3 9928   3.881   0.522  14.475 -1.2568 -3.6889 -0.2846
  667MPD2     N 9929   3.648   0.319  14.801 -0.1274 -0.3829  0.2410
  667MPD2    H5 9930   3.650   0.247  14.730  0.8534 -0.8554  0.7364
  667MPD2    N1 9931   3.785   0.785  14.842 -0.0814 -0.1830 -0.5878
  667MPD2    H7 9932   3.725   0.789  14.925 -0.7806  0.5778 -1.1207
  668TMC3    C1 9933   3.844   1.010  14.912 -0.7558 -0.1512  0.0322
  668TMC3    C2 9934   3.900   1.134  14.877 -0.6026  0.7841 -0.0788
  668TMC3    C3 9935   3.943   1.217  14.980  0.1718  0.6690  0.5519
  668TMC3    C4 9936   3.836   0.977  15.045 -0.2618 -0.7361 -0.1053
  668TMC3    C5 9937   3.879   1.070  15.141 -0.0612 -1.1224  0.1403
  668TMC3    C6 9938   3.932   1.187  15.116  0.0534  0.2604  0.6125
  668TMC3     C 9939   3.844   0.907  14.807  0.5726 -0.1840  0.0609
  668TMC3     O 9940   3.901   0.945  14.703 -0.2172 -0.2624  0.5629
  668TMC3     H 9941   3.895   1.178  14.778  3.0790  1.7501  0.1501
  668TMC3    H1 9942   3.817   0.876  15.077 -0.7589 -0.2331  1.1881
  668TMC3    H2 9943   3.963   1.256  15.194 -0.2835  1.0305  0.0676
  668TMC3    C7 9944   3.879   1.024  15.278  0.0553 -0.8148  0.0965
  668TMC3    C8 9945   3.980   1.354  14.953  0.1966  0.4088 -0.0882
  668TMC3    O1 9946   3.958   1.070  15.354  0.6180 -0.2896 -0.0493
  668TMC3    O2 9947   3.963   1.439  15.042 -0.1453 -0.2312 -0.2044
  669TMC3    C1 9948   1.837   0.336  14.959 -0.3716  0.1054  0.5110
  669TMC3    C2 9949   1.722   0.398  14.907 -0.0179  0.5080  0.3105
  669TMC3    C3 9950   1.741   0.511  14.838  0.3167 -0.2533 -0.3965
  669TMC3    C4 9951   1.964   0.374  14.942 -0.2495  0.6456 -0.1881
  669TMC3    C5 9952   1.975   0.500  14.884  0.1137  0.7906  0.3089
  669TMC3    C6 9953   1.867   0.564  14.827  0.3232 -0.1385 -0.3381
  669TMC3     C 9954   1.796   0.249  15.071  0.3380 -0.6216 -0.1341
  669TMC3     O 9955   1.683   0.262  15.118 -0.2130 -0.3894  0.7146
  669TMC3     H 9956   1.622   0.357  14.919 -0.7520  2.2368  0.0580
  669TMC3    H1 9957   2.048   0.321  14.984 -1.3288 -1.7204 -1.0105
  669TMC3    H2 9958   1.887   0.664  14.788  1.7274 -0.1061  0.4823
  669TMC3    C7 9959   2.099   0.573  14.879  0.0816  0.3678 -0.1174
  669TMC3    C8 9960   1.634   0.544  14.738  0.2052  0.1183  0.5222
  669TMC3    O1 9961   2.117   0.650  14.789  0.0720 -0.2610 -0.1478
  669TMC3    O2 9962   1.550   0.461  14.722  0.5342  0.0955  0.6857
  670MPD2     C 9963   4.390   2.561  13.127  0.3939  0.0514  0.2331
  670MPD2    C1 9964   4.496   2.657  13.132  0.4214 -0.0036 -0.4960
  670MPD2    C2 9965   4.539   2.698  13.259 -0.1601 -0.1476 -0.6480
  670MPD2    C3 9966   4.480   2.653  13.377  0.2525 -0.6753 -0.3309
  670MPD2    C4 9967   4.384   2.553  13.361  0.0683  0.2124  0.3286
  670MPD2    C5 9968   4.342   2.509  13.240  0.3549 -0.1587  0.0179
  670MPD2     H 9969   4.628   2.760  13.268  0.6284 -1.4023  0.1887
  670MPD2    H1 9970   4.339   2.509  13.449  1.3319  0.5425  1.1386
  670MPD2    H2 9971   4.354   2.523  13.033  2.1849  2.3295 -1.3830
  670MPD2    H3 9972   4.263   2.434  13.242 -0.9322  1.2318  1.7289
  670MPD2     N 9973   4.527   2.686  13.508  0.0422  0.2664 -0.1843
  670MPD2    H5 9974   4.600   2.757  13.510 -0.4033  0.6892  0.7136
  670MPD2    N1 9975   4.568   2.693  13.019  0.2293 -0.6592 -0.1799
  670MPD2    H7 9976   4.653   2.748  13.023 -0.0534 -0.2659  0.3002
  671TMC3    C1 9977   4.564   2.666  13.739  0.4547  0.0744 -0.0339
  671TMC3    C2 9978   4.697   2.657  13.720 -0.5315  0.2164  0.7107
  671TMC3    C3 9979   0.024   2.642  13.833  0.0586  0.3415 -0.3281
  671TMC3    C4 9980   4.493   2.634  13.849 -0.0630 -0.6245  0.1007
  671TMC3    C5 9981   4.566   2.588  13.957 -0.1505 -0.1220 -0.0093
  671TMC3    C6 9982   4.707   2.598  13.953  0.1472  0.1693 -0.0047
  671TMC3     C 9983   4.497   2.614  13.626  0.1917 -0.0935  0.2929
  671TMC3     O 9984   4.426   2.522  13.651 -0.2949  0.2526 -0.0461
  671TMC3     H 9985   0.004   2.703  13.635 -2.4200  0.5716 -0.1813
  671TMC3    H1 9986   4.385   2.627  13.848 -0.2111  1.8057 -1.7314
  671TMC3    H2 9987   0.020   2.557  14.037 -0.1831  1.9810  1.0984
  671TMC3    C7 9988   4.529   2.461  14.003 -0.3087 -0.9780 -0.2059
  671TMC3    C8 9989   0.161   2.603  13.807 -0.3300 -0.2352  0.4619
  671TMC3    O1 9990   4.580   2.417  14.101  0.1448 -0.9431  0.6104
  671TMC3    O2 9991   0.194   2.550  13.705  0.3988 -0.1963  0.5356
  672MPD2     C 9992   0.476   3.857   0.731 -0.2124  0.5710  0.2875
  672MPD2    C1 9993   0.569   3.745   0.726 -0.0669  0.0781 -0.2595
  672MPD2    C2 9994   0.702   3.773   0.733  0.4474 -1.0628 -0.1571
  672MPD2    C3 9995   0.752   3.906   0.732 -0.3725  0.2902 -0.4352
  672MPD2    C4 9996   0.658   4.014   0.726 -0.0498  0.1713  0.5671
  672MPD2    C5 9997   0.523   3.985   0.730 -0.0731 -0.2995 -0.0835
  672MPD2     H 9998   0.773   3.694   0.753  1.1843 -0.6670 -1.1732
  672MPD2    H1 9999   0.686   4.118   0.727 -1.3784  0.5286  0.1814
  672MPD2    H210000   0.372   3.842   0.703 -0.9945  1.1941  2.9349
  672MPD2    H310001   0.443   4.057   0.720  0.6660  0.8521  2.3306
  672MPD2     N10002   0.883   3.938   0.740  0.0835  0.3022 -0.5816
  672MPD2    H510003   0.906   4.037   0.741  0.1590  0.2643  1.8018
  672MPD2    N110004   0.520   3.609   0.713 -0.2626 -0.5877  0.1254
  672MPD2    H710005   0.591   3.538   0.699 -1.5331 -2.0295  0.9822
  673TMC3    C110006   0.357   3.436   0.692  0.1991  0.9134  0.3782
  673TMC3    C210007   0.452   3.347   0.663  0.7651  0.0858 -0.3137
  673TMC3    C310008   0.411   3.220   0.621 -0.2613  0.2305  0.0953
  673TMC3    C410009   0.226   3.410   0.666  0.0503  0.1886  0.7942
  673TMC3    C510010   0.198   3.296   0.605 -0.0799  0.0344  0.2179
  673TMC3    C610011   0.282   3.191   0.588 -0.0829 -0.3466  0.2154
  673TMC3     C10012   0.390   3.572   0.728  0.1982  0.5304  0.7089
  673TMC3     O10013   0.294   3.647   0.744  0.0551  0.1182 -0.1663
  673TMC3     H10014   0.555   3.364   0.692  1.6152 -2.5686 -1.8064
  673TMC3    H110015   0.156   3.492   0.680  0.9074  1.6682 -3.7403
  673TMC3    H210016   0.251   3.095   0.550 -1.2873 -0.0543  0.4695
  673TMC3    C710017   0.064   3.278   0.546 -0.1176 -0.2356 -0.2060
  673TMC3    C810018   0.508   3.127   0.568  0.0845  0.2217  0.0111
  673TMC3    O110019   0.029   3.168   0.501  0.1180  0.2139 -0.5338
  673TMC3    O210020   0.483   3.071   0.462  0.0711 -0.3769  0.0669
  674MPD2     C10021   4.427   3.829  17.627 -0.5212 -0.3159 -0.1939
  674MPD2    C110022   4.398   3.712  17.706 -0.0785 -0.3947  0.2851
  674MPD2    C210023   4.277   3.712  17.757 -0.8854 -0.0106 -0.8387
  674MPD2    C310024   4.179   3.816  17.729 -0.0823  1.2815 -0.2441
  674MPD2    C410025   4.200   3.919  17.644 -0.5775  0.1645  0.0352
  674MPD2    C510026   4.327   3.925  17.607  0.2860  0.3492  0.3838
  674MPD2     H10027   4.246   3.640   0.064 -1.2869  1.5013  0.4524
  674MPD2    H110028   4.124   3.988  17.608 -1.6546 -1.0315  0.0372
  674MPD2    H210029   4.524   3.841  17.580  1.0514 -1.0275  2.9227
  674MPD2    H310030   4.350   4.019  17.556  0.6184  1.2681  2.2368
  674MPD2     N10031   4.054   3.798   0.027  0.3961  0.5758 -0.1365
  674MPD2    H510032   4.052   3.705   0.069  0.1941  0.4638 -0.3939
  674MPD2    N110033   4.503   3.617  17.734 -0.3361 -0.7976 -0.5822
  674MPD2    H710034   4.598   3.651  17.722 -1.3408  2.8943  1.8236
  675TMC3    C110035   4.580   3.404   0.041  0.7959  0.7533  0.1755
  675TMC3    C210036   4.545   3.276   0.070  0.1379  0.4506 -0.7155
  675TMC3    C310037   4.633   3.202   0.149  0.2161  0.4402  0.1460
  675TMC3    C410038   4.693   3.463   0.075 -0.0463  0.4042 -0.3114
  675TMC3    C510039   0.031   3.391   0.161  0.9133 -0.1096  0.3496
  675TMC3    C610040   0.002   3.260   0.197 -0.0753 -0.2420 -0.4896
  675TMC3     C10041   4.471   3.487  17.755  0.3080 -0.4860 -0.9501
  675TMC3     O10042   4.358   3.441  17.741 -0.0726 -0.5617  0.1080
  675TMC3     H10043   4.444   3.243   0.051 -0.1268  0.0251  1.3930
  675TMC3    H110044   4.725   3.563   0.049  0.6975  0.5695  1.2369
  675TMC3    H210045   0.063   3.202   0.265 -0.8601  0.4056  0.7656
  675TMC3    C710046   0.151   3.447   0.228 -0.1150 -0.4599  0.1574
  675TMC3    C810047   4.587   3.067   0.176 -0.0030 -0.2515  0.1934
  675TMC3    O110048   0.222   3.365   0.288  0.0973  0.5464  0.0778
  675TMC3    O210049   4.521   3.007   0.091  0.2460  0.1872 -0.3683
  676MPD2     C10050   2.691   1.343  10.738 -0.1181  0.0276 -0.3780
  676MPD2    C110051   2.565   1.301  10.774 -0.5065 -1.3949 -0.5286
  676MPD2    C210052   2.547   1.167  10.796 -0.3234 -0.2404 -0.1262
  676MPD2    C310053   2.652   1.078  10.786 -0.9386  0.0346  0.7589
  676MPD2    C410054   2.776   1.124  10.754 -0.2114 -0.0209 -0.3371
  676MPD2    C510055   2.797   1.253  10.726 -0.0361  0.5358  0.5270
  676MPD2     H10056   2.447   1.139  10.826  0.2387 -1.3176  0.7662
  676MPD2    H110057   2.862   1.060  10.766 -2.7888 -3.2705  0.7241
  676MPD2    H210058   2.722   1.443  10.708  0.9426 -0.7645 -1.8919
  676MPD2    H310059   2.898   1.282  10.703  0.6186 -0.3987  2.2604
  676MPD2     N10060   2.627   0.941  10.805 -0.2074 -0.1425  0.2383
  676MPD2    H510061   2.704   0.884  10.771 -0.8004 -0.6812 -0.2096
  676MPD2    N110062   2.447   1.375  10.782 -0.5313 -0.2828 -0.7092
  676MPD2    H710063   2.365   1.328  10.820 -0.2751  0.2907  0.5721
  677TMC3    C110064   2.311   1.565  10.807 -0.0756  0.2402  0.2376
  677TMC3    C210065   2.209   1.474  10.806 -0.4064  0.3437  0.1667
  677TMC3    C310066   2.104   1.491  10.892 -0.3932  0.0646 -0.3823
  677TMC3    C410067   2.301   1.687  10.862  0.1837  0.1995 -0.1801
  677TMC3    C510068   2.194   1.701  10.942  0.4631  0.5011  0.3771
  677TMC3    C610069   2.096   1.611  10.963 -0.3408  0.5301 -0.4338
  677TMC3     C10070   2.441   1.511  10.769 -0.4270 -0.0519  0.7004
  677TMC3     O10071   2.537   1.587  10.757 -0.8356 -0.2665  0.6580
  677TMC3     H10072   2.210   1.385  10.744 -1.6489 -0.9020  1.9254
  677TMC3    H110073   2.388   1.751  10.875 -0.1830  0.7795 -0.6043
  677TMC3    H210074   2.014   1.629  11.033  2.1576 -1.3381  2.9584
  677TMC3    C710075   2.226   1.775  11.063 -0.0947 -0.3878 -0.1175
  677TMC3    C810076   2.105   1.366  10.973 -0.3510  1.0794 -0.0750
  677TMC3    O110077   2.218   1.710  11.170  0.1140  0.7194  0.0007
  677TMC3    O210078   2.185   1.273  10.949 -0.0784 -0.2255 -0.4216
  678MPD2     C10079   4.516   1.217   1.162  0.0070  0.6446 -0.2842
  678MPD2    C110080   4.460   1.222   1.035 -0.1548  0.3371  0.5451
  678MPD2    C210081   4.332   1.274   1.016  0.2925  0.6222 -0.2365
  678MPD2    C310082   4.265   1.327   1.127  0.2129  0.2441 -0.2443
  678MPD2    C410083   4.326   1.341   1.252  0.5396 -0.0640 -0.3955
  678MPD2    C510084   4.449   1.278   1.268 -0.1591 -0.1036  0.1179
  678MPD2     H10085   4.294   1.288   0.916 -1.6542 -0.0269  0.4190
  678MPD2    H110086   4.288   1.400   1.334  0.7876  1.1020 -1.1114
  678MPD2    H210087   4.610   1.166   1.177 -0.1736 -0.2743 -2.2916
  678MPD2    H310088   4.505   1.288   1.359  0.5842  1.1453 -0.4855
  678MPD2     N10089   4.128   1.377   1.102 -0.1042  0.0286 -0.0358
  678MPD2    H510090   4.090   1.371   1.008  0.0664 -0.3849 -0.0749
  678MPD2    N110091   4.530   1.166   0.925 -0.3836 -0.2460 -0.1395
  678MPD2    H710092   4.484   1.185   0.836  0.0545 -0.5632 -0.4324
  679TMC3    C110093   0.084   0.906   0.661 -0.5261 -0.0129  0.2269
  679TMC3    C210094   0.040   0.945   0.790  0.5462  0.0640  1.0843
  679TMC3    C310095   4.692   1.051   0.786 -0.3940 -0.0912  0.3414
  679TMC3    C410096   0.019   0.940   0.543 -0.3261 -0.5384 -0.1064
  679TMC3    C510097   4.680   1.049   0.557 -0.0746  0.4978 -0.0200
  679TMC3    C610098   4.646   1.114   0.672 -0.1311 -0.8393 -0.2017
  679TMC3     C10099   0.210   0.834   0.641  0.0087  0.1900 -0.1560
  679TMC3     O10100   0.238   0.805   0.523 -0.5751  0.3721  0.0891
  679TMC3     H10101   0.077   0.905   0.884 -0.3532  0.1062  1.4577
  679TMC3    H110102   0.054   0.909   0.446  0.4392  2.0806 -0.6708
  679TMC3    H210103   4.570   1.191   0.668  0.2470 -0.5152 -1.1149
  679TMC3    C710104   4.578   1.064   0.450  0.2660  0.7226  0.0059
  679TMC3    C810105   4.656   1.111   0.918 -0.4030 -0.0362  0.1040
  679TMC3    O110106   4.532   1.171   0.446 -0.0692  0.1115  0.1182
  679TMC3    O210107   4.739   1.096   1.008 -0.2925 -0.6775 -0.2021
  680MPD2     C10108   3.992   0.314  13.743  0.0926 -0.2775 -0.5721
  680MPD2    C110109   4.102   0.277  13.815 -0.6744  0.1670 -0.1528
  680MPD2    C210110   4.208   0.367  13.843 -0.2482 -0.6911  0.1281
  680MPD2    C310111   4.186   0.504  13.811 -0.3787  0.4849 -0.4001
  680MPD2    C410112   4.080   0.543  13.735 -0.8988  0.1997 -0.2558
  680MPD2    C510113   3.988   0.447  13.701  0.0854  0.2323  0.2276
  680MPD2     H10114   4.301   0.335  13.889  0.7610  0.0520 -1.3968
  680MPD2    H110115   4.057   0.644  13.703 -1.0130  0.4675  0.6616
  680MPD2    H210116   3.905   0.254  13.722 -0.6142 -0.3065  2.4212
  680MPD2    H310117   3.910   0.484  13.636  0.9102 -0.3231 -1.0959
  680MPD2     N10118   4.271   0.606  13.855  0.5615  0.1766 -0.4490
  680MPD2    H510119   4.246   0.696  13.816  1.9853  0.2778 -1.1326
  680MPD2    N110120   4.120   0.148  13.866  0.4244  0.0176 -0.3684
  680MPD2    H710121   4.206   0.131  13.918  1.4483 -0.5083 -2.2479
  681TMC3    C110122   4.075   4.678  13.944  0.3083  0.8779 -0.0400
  681TMC3    C210123   4.079   4.725  14.070  0.4049  0.0847 -0.1687
  681TMC3    C310124   4.176   4.673  14.148  0.6023 -0.2038  0.6705
  681TMC3    C410125   4.170   4.607  13.880  0.6424  0.2846 -0.1093
  681TMC3    C510126   4.277   4.568  13.961  0.0894 -0.7454 -0.2526
  681TMC3    C610127   4.277   4.588  14.097 -0.1430  0.2597 -0.4595
  681TMC3     C10128   4.031   0.042  13.861 -0.2159 -1.1218 -0.5079
  681TMC3     O10129   3.944   0.011  13.779  0.3930 -0.3519 -0.0550
  681TMC3     H10130   4.010   0.055  14.112 -1.5476 -0.6216 -2.2040
  681TMC3    H110131   4.161   4.574  13.777 -2.6457 -0.9900  0.6016
  681TMC3    H210132   4.355   4.539  14.154 -0.6828 -1.7588 -1.4416
  681TMC3    C710133   4.393   4.503  13.898 -0.0624  0.0870 -0.2692
  681TMC3    C810134   4.176   4.717  14.288  0.3992 -0.4080  0.3118
  681TMC3    O110135   4.476   4.446  13.971  0.1305  0.0007  0.0705
  681TMC3    O210136   4.084   0.041  14.325 -0.3118  0.2810  0.3188
  682MPD2     C10137   1.411   1.339  10.655 -0.2010 -0.7227  0.1394
  682MPD2    C110138   1.355   1.215  10.675 -0.1583  0.3938  0.6115
  682MPD2    C210139   1.286   1.191  10.789 -0.7500  0.7187  0.3468
  682MPD2    C310140   1.287   1.281  10.895 -0.3714  0.1491 -0.5229
  682MPD2    C410141   1.352   1.398  10.880  0.0719  0.7482  0.1508
  682MPD2    C510142   1.408   1.428  10.758 -0.6136  0.0366  0.1343
  682MPD2     H10143   1.226   1.101  10.791  0.0918  0.2026  2.9549
  682MPD2    H110144   1.361   1.469  10.962 -1.3212  0.3585  0.6440
  682MPD2    H210145   1.436   1.376  10.556  1.8723 -1.0951  0.5247
  682MPD2    H310146   1.461   1.523  10.752  1.9868 -1.5535 -1.7898
  682MPD2     N10147   1.236   1.245  11.026 -0.1951  0.1658  0.7358
  682MPD2    H510148   1.259   1.316  11.095 -1.4485 -1.4901  2.8506
  682MPD2    N110149   1.346   1.122  10.566  0.1291  0.9397 -0.3513
  682MPD2    H710150   1.293   1.037  10.584 -0.1608  1.5013  1.3681
  683TMC3    C110151   1.140   1.264  11.408  0.0140  0.5695  1.0077
  683TMC3    C210152   1.134   1.152  11.488 -0.0532 -0.3374  0.3750
  683TMC3    C310153   1.143   1.034  11.424 -0.4942 -0.2257 -0.5582
  683TMC3    C410154   1.141   1.256  11.272 -0.5668  0.4018 -0.5011
  683TMC3    C510155   1.141   1.131  11.209  0.6732 -0.6773 -0.5099
  683TMC3    C610156   1.137   1.018  11.285 -0.1685 -0.5466 -0.4411
  683TMC3     C10157   1.163   1.399  11.468 -0.0537 -0.6325  0.5314
  683TMC3     O10158   1.220   1.484  11.401  0.1204  0.7907  0.3577
  683TMC3     H10159   1.133   1.158  11.596  1.2559 -1.9678  0.4911
  683TMC3    H110160   1.136   1.351  11.220  1.9535  1.3435  0.9676
  683TMC3    H210161   1.130   0.922  11.236 -0.3554 -0.7549 -0.0098
  683TMC3    C710162   1.178   1.126  11.070 -0.2726 -0.6908  0.3898
  683TMC3    C810163   1.114   0.916  11.511 -0.5990  0.0301 -0.4482
  683TMC3    O110164   1.169   1.018  11.012 -0.1873 -0.7566  0.4515
  683TMC3    O210165   1.056   0.944  11.614 -0.1166 -0.0582 -0.0114
  684MPD2     C10166   0.322   0.866  16.451 -0.4678  0.0709 -0.9063
  684MPD2    C110167   0.257   0.911  16.342  0.0515  0.0507 -0.1174
  684MPD2    C210168   0.264   1.044  16.312  0.3756 -0.4610 -0.2500
  684MPD2    C310169   0.325   1.140  16.387 -0.3856 -1.0314  0.6778
  684MPD2    C410170   0.405   1.092  16.491 -0.0633  0.3976 -0.3965
  684MPD2    C510171   0.400   0.959  16.529 -0.2401  0.0375  0.0782
  684MPD2     H10172   0.214   1.078  16.222  0.6000 -1.7047 -0.8398
  684MPD2    H110173   0.453   1.159  16.561 -0.7853 -2.1591  2.5391
  684MPD2    H210174   0.331   0.764  16.485  1.1400 -1.0622 -4.8012
  684MPD2    H310175   0.447   0.926  16.621  1.5008  2.2153 -0.0263
  684MPD2     N10176   0.324   1.279  16.371  0.3054  0.5186 -0.3979
  684MPD2    H510177   0.390   1.327  16.431  0.8093 -2.2538  1.2539
  684MPD2    N110178   0.184   0.841  16.251  0.5981 -0.1340 -1.0939
  684MPD2    H710179   0.129   0.895  16.186 -0.5670  1.0608  0.8900
  685TMC3    C110180   0.101   0.674  16.116  0.3516  0.2794 -0.2484
  685TMC3    C210181   0.045   0.788  16.072  0.3835  0.0714  0.2137
  685TMC3    C310182   0.067   0.831  15.945  0.5791  0.6718  0.2315
  685TMC3    C410183   0.173   0.584  16.042 -0.4743  0.0771  1.3096
  685TMC3    C510184   0.201   0.631  15.920 -0.1650 -0.4020 -0.1126
  685TMC3    C610185   0.149   0.748  15.869  0.2700 -0.1134 -0.0040
  685TMC3     C10186   0.175   0.707  16.238 -0.0239 -0.2770  0.5693
  685TMC3     O10187   0.249   0.617  16.279  0.0821  0.8191  0.1667
  685TMC3     H10188   4.715   0.846  16.127 -1.3506 -0.5913 -1.3603
  685TMC3    H110189   0.214   0.494  16.086 -0.0698  0.7576  2.3213
  685TMC3    H210190   0.173   0.773  15.766 -0.4086  1.7138  0.2744
  685TMC3    C710191   0.340   0.617  15.871  0.3535 -0.4637  0.4477
  685TMC3    C810192   4.711   0.909  15.877 -0.5042  0.1124 -0.2085
  685TMC3    O110193   0.362   0.626  15.747 -0.1607 -0.0764 -0.2459
  685TMC3    O210194   4.681   0.859  15.768 -0.1337  1.1636 -0.1971
  686MPD2     C10195   1.409   1.488  15.706 -0.0011  0.3912  0.6541
  686MPD2    C110196   1.480   1.371  15.735  0.8479 -0.1337  1.1955
  686MPD2    C210197   1.615   1.374  15.706 -0.5359 -0.1174  0.6394
  686MPD2    C310198   1.668   1.472  15.624 -0.0034 -0.7357 -0.1130
  686MPD2    C410199   1.597   1.584  15.605 -0.2230 -0.4268  0.4475
  686MPD2    C510200   1.471   1.598  15.658  0.4869  0.3335  0.2443
  686MPD2     H10201   1.680   1.290  15.730  1.4371  1.0937 -0.4316
  686MPD2    H110202   1.648   1.666  15.556  0.3510 -1.3788 -0.5502
  686MPD2    H210203   1.306   1.502  15.738  0.5438  0.1470  2.5245
  686MPD2    H310204   1.416   1.691  15.647 -0.8355 -0.1241  2.9910
  686MPD2     N10205   1.795   1.461  15.556  0.5401 -0.0273 -0.1230
  686MPD2    H510206   1.831   1.552  15.528 -0.1710 -0.1790 -1.5016
  686MPD2    N110207   1.412   1.257  15.790 -0.1661 -0.1461 -0.2190
  686MPD2    H710208   1.311   1.260  15.798 -0.3094 -0.8722 -1.6540
  687TMC3    C110209   1.807   1.226  15.523 -0.1983 -0.2799  0.0503
  687TMC3    C210210   1.688   1.214  15.460 -0.3483  0.5135 -0.2241
  687TMC3    C310211   1.620   1.089  15.469 -0.3476  0.1775 -0.7747
  687TMC3    C410212   1.881   1.118  15.558  0.9885  0.2005  0.3009
  687TMC3    C510213   1.821   0.996  15.543 -0.7313  0.1069 -0.5792
  687TMC3    C610214   1.691   0.981  15.514 -0.0787  0.2202  0.0220
  687TMC3     C10215   1.874   1.353  15.533  0.1555 -0.3783  0.0786
  687TMC3     O10216   1.992   1.343  15.504 -0.3047  0.0088  0.3768
  687TMC3     H10217   1.639   1.296  15.409 -1.5581  0.9510  1.6224
  687TMC3    H110218   1.982   1.133  15.596  0.7271  3.5328 -0.3311
  687TMC3    H210219   1.629   0.894  15.531 -1.2280  1.3792  1.8069
  687TMC3    C710220   1.887   0.882  15.600  0.0580 -0.1220  0.1066
  687TMC3    C810221   1.477   1.077  15.445  0.1819 -0.3858  0.2696
  687TMC3    O110222   1.990   0.904  15.666  0.4737 -0.1961 -0.1482
  687TMC3    O210223   1.427   0.964  15.439  0.0569  0.1151 -0.7306
  688MPD2     C10224   0.705   4.639  17.327  1.4109  0.0109 -0.0157
  688MPD2    C110225   0.724   4.505  17.338  0.5062 -0.3353  1.2337
  688MPD2    C210226   0.818   4.439  17.260 -0.2633 -0.1240  0.0282
  688MPD2    C310227   0.892   4.518  17.167  0.3308 -0.0984  0.1158
  688MPD2    C410228   0.865   4.652  17.157 -0.2091 -0.4086  0.1170
  688MPD2    C510229   0.769   4.710  17.236 -0.6845  0.3303 -0.2051
  688MPD2     H10230   0.835   4.334  17.282  1.6105  0.5098  1.6280
  688MPD2    H110231   0.914   4.717  17.085 -1.9729 -0.6605 -1.3075
  688MPD2    H210232   0.640   4.699  17.390  0.9700  0.8581 -1.2733
  688MPD2    H310233   0.755   0.075  17.232  0.5384  0.3421 -4.0798
  688MPD2     N10234   0.996   4.471  17.084 -0.0750  0.2913 -0.6314
  688MPD2    H510235   1.045   4.542  17.030  0.3825  2.3742  2.5285
  688MPD2    N110236   0.654   4.434  17.441  0.3285  0.2345  0.0337
  688MPD2    H710237   0.684   4.337  17.451 -0.5520  0.1170  1.4320
  689TMC3    C110238   0.552   4.386  17.652 -0.4545  0.3744 -0.5136
  689TMC3    C210239   0.509   4.438   0.007  0.8466  0.1526 -0.4266
  689TMC3    C310240   0.466   4.356   0.101 -0.3670 -0.5645  0.1405
  689TMC3    C410241   0.572   4.249  17.640 -0.7508 -0.3283 -0.3379
  689TMC3    C510242   0.531   4.166  17.741  0.0337 -0.1362  0.0989
  689TMC3    C610243   0.484   4.220   0.087 -0.1014  0.0791  0.1010
  689TMC3     C10244   0.573   4.482  17.542 -0.2452 -0.1114  0.3670
  689TMC3     O10245   0.528   4.593  17.547 -0.0867  0.1992  0.3339
  689TMC3     H10246   0.495   4.545   0.021  0.5297 -0.1853  1.7690
  689TMC3    H110247   0.621   4.210  17.552  0.4527 -1.6070  0.9019
  689TMC3    H210248   0.461   4.164   0.176  1.5535 -2.3095 -0.9539
  689TMC3    C710249   0.561   4.029  17.720 -0.1919  0.3621  0.3556
  689TMC3    C810250   0.437   4.424   0.222  0.5590  0.0121 -0.8186
  689TMC3    O110251   0.583   3.966   0.056  0.5986 -0.0191 -0.2217
  689TMC3    O210252   0.489   4.532   0.244 -0.7937  0.0798  0.5127
  690MPD2     C10253   2.980   1.576  15.667  0.2180 -0.0888  0.8732
  690MPD2    C110254   2.878   1.648  15.611 -0.3471 -0.1797  0.4499
  690MPD2    C210255   2.905   1.746  15.513  0.4404  0.2230  0.4096
  690MPD2    C310256   3.040   1.779  15.476  0.0123  0.1982  0.0832
  690MPD2    C410257   3.139   1.708  15.545  0.3777  0.3163 -0.0542
  690MPD2    C510258   3.103   1.609  15.631  0.4224  0.1381  0.8573
  690MPD2     H10259   2.819   1.799  15.473 -0.0617 -0.9629 -0.0798
  690MPD2    H110260   3.244   1.723  15.522  0.5024 -2.3812 -1.2454
  690MPD2    H210261   2.972   1.491  15.735 -0.5813 -1.3664 -0.8234
  690MPD2    H310262   3.186   1.554  15.674 -0.1807  0.0900  1.9639
  690MPD2     N10263   3.053   1.862  15.365 -0.0974 -0.2417 -0.5872
  690MPD2    H510264   2.968   1.897  15.321  0.1513 -0.5734 -1.3208
  690MPD2    N110265   2.743   1.625  15.639 -0.0447  0.7109 -0.4282
  690MPD2    H710266   2.670   1.678  15.592 -0.5538  0.0893 -0.3229
  691TMC3    C110267   2.561   1.536  15.760  0.5957 -0.9682 -0.2116
  691TMC3    C210268   2.518   1.654  15.819 -0.0863 -0.8223 -0.1405
  691TMC3    C310269   2.433   1.638  15.928 -1.0411  0.0621  0.2884
  691TMC3    C410270   2.516   1.406  15.795 -0.2483  0.3387  0.5157
  691TMC3    C510271   2.435   1.402  15.904 -0.0684 -0.0957 -0.2680
  691TMC3    C610272   2.392   1.514  15.969 -0.5666 -0.6568  0.0660
  691TMC3     C10273   2.701   1.527  15.720  0.6369  0.9140 -0.2889
  691TMC3     O10274   2.760   1.431  15.764  0.1750 -0.0937  0.1671
  691TMC3     H10275   2.551   1.749  15.779 -0.2083 -0.4707  0.5872
  691TMC3    H110276   2.554   1.320  15.742 -1.1862  0.1969  0.0767
  691TMC3    H210277   2.335   1.506  16.060  1.6057  0.7479  1.5563
  691TMC3    C710278   2.415   1.279  15.970  0.6035 -0.4471 -0.2749
  691TMC3    C810279   2.374   1.743  16.006 -0.3690 -0.0631 -0.1131
  691TMC3    O110280   2.347   1.281  16.071 -0.2718  0.8340  0.2017
  691TMC3    O210281   2.372   1.721  16.126 -0.5271 -0.0096 -0.0149
  692TMC3    C110282   4.377   2.528  15.713 -0.5477  0.1239 -0.5523
  692TMC3    C210283   4.496   2.590  15.745 -0.4081 -0.1764  0.4330
  692TMC3    C310284   4.604   2.509  15.776 -0.0090 -0.8902 -0.3324
  692TMC3    C410285   4.367   2.392  15.697 -0.5216 -0.6693 -0.3001
  692TMC3    C510286   4.478   2.315  15.723 -0.0668 -0.0525 -0.4973
  692TMC3    C610287   4.590   2.371  15.779 -0.1809 -0.0720 -0.1451
  692TMC3     C10288   4.258   2.605  15.715  0.0075  0.4043  0.0375
  692TMC3     O10289   4.165   2.544  15.762  0.3297  0.0430  0.4921
  692TMC3     H10290   4.494   2.696  15.766  1.6340  0.1668 -1.1076
  692TMC3    H110291   4.267   2.354  15.682  0.0755 -2.0401 -0.8369
  692TMC3    H210292   4.683   2.317  15.768 -0.7802 -1.1463  0.0331
  692TMC3    C710293   4.467   2.168  15.730  0.2771 -0.0271  0.8040
  692TMC3    C810294   4.666   2.546  15.907 -0.4583 -0.0499  0.0837
  692TMC3    O110295   4.373   2.126  15.665 -0.0911 -0.1341  0.3938
  692TMC3    O210296   4.682   2.458  15.997  0.0037  0.5903  0.1878
  693MPD2     C10297   3.328   0.812  10.727  0.7645 -0.5637 -0.2958
  693MPD2    C110298   3.317   0.740  10.846  0.1297  0.6801  0.1885
  693MPD2    C210299   3.426   0.681  10.893  0.1313  0.7041 -0.0196
  693MPD2    C310300   3.549   0.688  10.829 -0.2340 -0.0404 -0.5342
  693MPD2    C410301   3.568   0.773  10.725  0.3230  0.3454 -0.4059
  693MPD2    C510302   3.455   0.842  10.678  0.7530  0.3955 -0.0135
  693MPD2     H10303   3.413   0.623  10.984  0.8059  0.5031 -0.0526
  693MPD2    H110304   3.668   0.793  10.686 -1.1044 -0.3572 -4.4167
  693MPD2    H210305   3.241   0.861  10.684  0.5858 -1.8485 -1.3869
  693MPD2    H310306   3.469   0.912  10.596 -1.3260 -1.8670 -2.3131
  693MPD2     N10307   3.655   0.604  10.858 -0.1847 -0.6787 -0.3333
  693MPD2    H510308   3.739   0.615  10.801  1.3224 -0.3998  1.9570
  693MPD2    N110309   3.196   0.698  10.899 -0.7195  0.5487  0.1692
  693MPD2    H710310   3.202   0.642  10.984  0.7522 -0.6307 -0.6976
  694TMC3    C110311   2.965   0.624  10.887  0.7826 -0.2089 -0.2753
  694TMC3    C210312   2.897   0.555  10.790 -0.1387 -0.3706  0.0505
  694TMC3    C310313   2.843   0.430  10.833  0.2930  0.6201 -0.2044
  694TMC3    C410314   3.000   0.561  11.005 -0.2532 -0.7394  0.9529
  694TMC3    C510315   2.967   0.434  11.031 -1.2030  0.3696  0.8258
  694TMC3    C610316   2.876   0.374  10.956  0.5215 -0.1335  0.3719
  694TMC3     C10317   3.081   0.700  10.828 -0.4444 -0.3276 -0.4078
  694TMC3     O10318   3.055   0.749  10.720 -0.2118 -0.2345  0.9075
  694TMC3     H10319   2.868   0.603  10.697 -2.1789 -1.4008  0.1569
  694TMC3    H110320   3.059   0.614  11.079  1.1918 -0.4408 -0.4221
  694TMC3    H210321   2.829   0.280  10.983 -1.1039  1.0636  1.6985
  694TMC3    C710322   3.001   0.376  11.158  0.1937 -0.2463 -0.2101
  694TMC3    C810323   2.751   0.350  10.756 -0.0050 -0.3580  0.2780
  694TMC3    O110324   3.033   0.460  11.244 -0.7723 -0.1201  0.7058
  694TMC3    O210325   2.677   0.275  10.822 -0.6093 -0.4393 -0.2887
  695MPD2     C10326   0.179   1.762  13.358 -0.4943 -0.1195 -0.3876
  695MPD2    C110327   0.159   1.879  13.435  0.0823  0.0384 -0.0019
  695MPD2    C210328   0.057   1.961  13.396  0.0868 -0.4759  0.9482
  695MPD2    C310329   4.712   1.932  13.290 -0.5616 -0.4335 -0.7525
  695MPD2    C410330   4.726   1.814  13.223 -0.0948 -0.5939 -0.3099
  695MPD2    C510331   0.090   1.739  13.258 -0.1314  0.3071  0.1593
  695MPD2     H10332   0.024   2.044  13.456 -1.1518 -1.0379  1.0421
  695MPD2    H110333   4.671   1.778  13.136 -0.5858  0.5982 -0.4886
  695MPD2    H210334   0.250   1.683  13.379 -0.8537 -0.3125  0.1136
  695MPD2    H310335   0.105   1.649  13.201  0.2936  0.7946 -0.4914
  695MPD2     N10336   4.598   2.000  13.282  0.0664  0.7541  0.0586
  695MPD2    H510337   4.588   2.074  13.351  0.2694 -0.3384  1.2519
  695MPD2    N110338   0.252   1.921  13.535 -0.6077  0.0466 -0.2601
  695MPD2    H710339   0.243   2.017  13.568  0.4741  0.0483  0.0234
  696TMC3    C110340   4.373   2.066  13.253 -0.5399 -0.1870  0.4985
  696TMC3    C210341   4.331   2.037  13.382 -0.3927 -0.1608 -0.0970
  696TMC3    C310342   4.216   2.089  13.426  0.2749  0.4523  0.0919
  696TMC3    C410343   4.290   2.121  13.166 -0.0685  0.2372  0.1567
  696TMC3    C510344   4.167   2.167  13.211  0.0433  0.0541 -0.1000
  696TMC3    C610345   4.139   2.166  13.345 -0.7975 -0.7819 -0.3060
  696TMC3     C10346   4.486   1.983  13.200  0.7705  0.8296  0.2437
  696TMC3     O10347   4.484   1.911  13.103  0.1855 -0.2600 -0.7071
  696TMC3     H10348   4.390   1.985  13.457 -0.6856 -0.0735  0.1935
  696TMC3    H110349   4.320   2.148  13.066 -0.3704  0.5085  0.1397
  696TMC3    H210350   4.048   2.205  13.389  0.4285 -0.8024  2.2323
  696TMC3    C710351   4.092   2.254  13.120  0.1949 -0.7894 -0.0308
  696TMC3    C810352   4.196   2.129  13.562  0.3038  0.7707 -0.4542
  696TMC3    O110353   4.123   2.268  13.003 -0.1409  0.4230  0.7121
  696TMC3    O210354   4.148   2.239  13.589 -0.3141 -0.6041  0.1453
  697MPD2     C10355   3.915   4.142  15.605 -0.4223  0.3323 -0.2912
  697MPD2    C110356   3.988   4.095  15.498  0.2736 -0.0033 -0.0951
  697MPD2    C210357   4.049   4.183  15.416  0.1387  0.0090 -0.2747
  697MPD2    C310358   4.048   4.320  15.434 -0.0042 -1.0077  0.9093
  697MPD2    C410359   3.990   4.368  15.547 -0.6314  0.0898  0.3458
  697MPD2    C510360   3.920   4.281  15.624 -0.1014  0.0899 -0.0250
  697MPD2     H10361   4.097   4.154  15.323  0.7201  1.0265 -0.2939
  697MPD2    H110362   3.979   4.473  15.571  2.2033  0.9132 -2.0415
  697MPD2    H210363   3.848   4.076  15.659 -0.9045  0.9771 -0.0990
  697MPD2    H310364   3.875   4.324  15.713 -0.0818  1.7455 -0.8156
  697MPD2     N10365   4.102   4.409  15.337 -0.5932  0.3204  0.4491
  697MPD2    H510366   4.137   4.380  15.246 -0.5261 -2.3128  1.3289
  697MPD2    N110367   3.997   3.958  15.464  0.0373  0.2407  0.4199
  697MPD2    H710368   4.039   3.928  15.376 -0.2747  3.0115 -0.6542
  698TMC3    C110369   4.170   4.596  15.223 -0.0876  0.2841 -0.0175
  698TMC3    C210370   4.244   4.702  15.238 -0.8179 -0.1801  0.0632
  698TMC3    C310371   4.316   0.011  15.131 -0.4053  0.5530 -0.3308
  698TMC3    C410372   4.167   4.524  15.104 -0.1521  0.3838  0.1317
  698TMC3    C510373   4.231   4.583  15.000 -0.2095 -0.5748  0.3682
  698TMC3    C610374   4.312   4.694  15.003 -0.9964 -0.0871  0.2954
  698TMC3     C10375   4.108   4.548  15.340  0.5261 -0.8341  0.5754
  698TMC3     O10376   4.087   4.629  15.434 -0.3542 -0.4144  0.2745
  698TMC3     H10377   4.230   0.025  15.323 -0.4069 -1.7772  1.3651
  698TMC3    H110378   4.118   4.428  15.092 -0.1662  0.5500 -1.1722
  698TMC3    H210379   4.355   4.734  14.912 -2.1266  1.9147  0.6279
  698TMC3    C710380   4.194   4.522  14.872 -0.0691  0.0957  0.1977
  698TMC3    C810381   4.316   0.155  15.123  0.0408  0.1038  0.1211
  698TMC3    O110382   4.089   4.466  14.847 -0.0596 -0.5891  0.0313
  698TMC3    O210383   4.226   0.210  15.189 -0.3464  0.0896  0.2688
  699TMC3    C110384   3.473   2.233  12.945 -0.3907 -0.0422 -0.1621
  699TMC3    C210385   3.587   2.173  12.988 -0.4307 -0.4817  0.3590
  699TMC3    C310386   3.629   2.204  13.111 -0.4309 -0.1461  0.1624
  699TMC3    C410387   3.400   2.316  13.026  0.8307  0.1212 -0.5253
  699TMC3    C510388   3.455   2.359  13.146 -0.3924  0.6418  0.1310
  699TMC3    C610389   3.565   2.295  13.190  0.5716 -0.2044 -0.6877
  699TMC3     C10390   3.433   2.213  12.804  0.6534 -0.0075 -1.0832
  699TMC3     O10391   3.345   2.292  12.769 -0.2494 -0.3227  0.3719
  699TMC3     H10392   3.647   2.108  12.924 -1.5975 -0.7689 -0.4564
  699TMC3    H110393   3.300   2.346  12.997 -0.2131 -1.6023  1.2833
  699TMC3    H210394   3.607   2.320  13.287 -1.6929  2.7191 -0.4714
  699TMC3    C710395   3.371   2.400  13.255  0.5097 -0.1654 -0.0508
  699TMC3    C810396   3.735   2.136  13.184  0.0138  0.6209  0.6787
  699TMC3    O110397   3.403   2.374  13.367 -0.6125 -0.6699 -0.0756
  699TMC3    O210398   3.740   2.140  13.302 -0.6834  0.2341  0.2871
  700TMC3    C110399   3.046   4.647  17.116 -0.1557  0.4655  0.2280
  700TMC3    C210400   3.132   4.548  17.078 -0.3231  0.0304 -0.8182
  700TMC3    C310401   3.211   4.501  17.182 -0.1343  0.6979 -0.3207
  700TMC3    C410402   3.044   4.714  17.238 -0.8011  0.1601  0.4967
  700TMC3    C510403   3.148   4.675  17.328 -0.4766 -0.2607  1.1848
  700TMC3    C610404   3.238   4.578  17.301 -0.0939 -0.9252 -0.4621
  700TMC3     C10405   3.029   4.735  17.001  0.4431 -0.2678 -0.3151
  700TMC3     O10406   2.921   4.729  16.942  0.1587  0.2524 -0.5982
  700TMC3     H10407   3.144   4.523  16.973 -0.3513 -0.8075 -0.6197
  700TMC3    H110408   2.985   0.059  17.257 -0.0967  0.3575  1.7126
  700TMC3    H210409   3.326   4.551  17.359 -1.8213 -0.6049  2.3253
  700TMC3    C710410   3.191   0.042  17.416  0.6390  0.2385  0.2349
  700TMC3    C810411   3.333   4.438  17.130 -0.1629 -0.2209  0.8954
  700TMC3    O110412   3.311   0.062  17.418 -0.4987 -0.3285 -0.2344
  700TMC3    O210413   3.439   4.495  17.156  0.1858  0.4599 -0.3308
  701TMC3    C110414   3.100   3.179  15.194  0.2537 -0.0587  0.1669
  701TMC3    C210415   3.127   3.125  15.071  0.0653  0.2669  0.8876
  701TMC3    C310416   3.254   3.155  15.024 -0.1545 -0.2431  0.4519
  701TMC3    C410417   3.181   3.263  15.266  0.8113  0.1570 -1.0922
  701TMC3    C510418   3.305   3.286  15.215  0.4765  0.3984 -0.1947
  701TMC3    C610419   3.349   3.222  15.100  0.0298  0.3520  0.0842
  701TMC3     C10420   2.975   3.151  15.248 -0.4183 -0.0676 -0.8344
  701TMC3     O10421   2.954   3.146  15.369 -0.0380 -0.3714  0.0517
  701TMC3     H10422   3.065   3.066  15.005  0.4672 -1.4917  2.0796
  701TMC3    H110423   3.139   3.298  15.359  1.3275 -0.4469 -0.6336
  701TMC3    H210424   3.440   3.250  15.048 -0.0205  1.4645  0.5866
  701TMC3    C710425   3.373   3.408  15.252 -0.3467 -0.2626 -0.1575
  701TMC3    C810426   3.306   3.104  14.896 -0.0149 -0.3725 -0.0184
  701TMC3    O110427   3.456   3.448  15.172  0.3718 -0.2153 -0.2898
  701TMC3    O210428   3.422   3.063  14.885 -0.3915 -0.1986 -0.0842
  702MPD2     C10429   2.590   0.549  10.193 -0.1912  0.7529 -0.1796
  702MPD2    C110430   2.463   0.556  10.248  0.8205  0.0270  0.2221
  702MPD2    C210431   2.358   0.526  10.166  0.4596  0.0593  0.6225
  702MPD2    C310432   2.373   0.492  10.031  0.1737 -0.6146  0.7491
  702MPD2    C410433   2.501   0.462   9.987 -0.3375  0.0930  0.0512
  702MPD2    C510434   2.606   0.506  10.065 -0.3800 -0.2249 -0.1754
  702MPD2     H10435   2.255   0.522  10.200  0.7860 -1.0878  1.5160
  702MPD2    H110436   2.520   0.429   9.885 -0.3573 -0.1606  0.1281
  702MPD2    H210437   2.683   0.572  10.244  1.0869  0.1251 -2.2076
  702MPD2    H310438   2.706   0.488  10.026  0.1502 -0.5779  1.3484
  702MPD2     N10439   2.272   0.486   9.934  0.3550 -0.0868  0.7943
  702MPD2    H510440   2.299   0.436   9.850 -1.9062 -0.2630  0.1598
  702MPD2    N110441   2.438   0.585  10.386  0.1346 -0.2019  0.6571
  702MPD2    H710442   2.344   0.605  10.418 -0.4589 -3.5427  0.9972
  703TMC3    C110443   2.099   0.620  10.046 -0.3989  0.0250 -0.7405
  703TMC3    C210444   1.971   0.609  10.096  0.0241  0.1080 -0.8842
  703TMC3    C310445   1.919   0.718  10.158  0.0428 -0.9099 -0.0150
  703TMC3    C410446   2.168   0.733  10.059  0.1883 -0.6350 -0.7765
  703TMC3    C510447   2.110   0.844  10.120 -0.1857 -0.1059  0.2859
  703TMC3    C610448   1.984   0.841  10.167  0.3011 -0.0869  0.0907
  703TMC3     C10449   2.139   0.517   9.948  0.5468  0.4245  0.3986
  703TMC3     O10450   2.041   0.483   9.877 -0.3950  0.1975 -0.3302
  703TMC3     H10451   1.912   0.519  10.083  0.0769  0.0388 -0.6370
  703TMC3    H110452   2.266   0.735  10.013  1.1824  0.8921  1.4197
  703TMC3    H210453   1.950   0.917  10.236  0.2623 -0.0476  0.0295
  703TMC3    C710454   2.211   0.913  10.197  0.5618 -0.1813  0.3420
  703TMC3    C810455   1.796   0.695  10.234 -0.4682 -0.5531  0.1101
  703TMC3    O110456   2.316   0.856  10.203  0.2969 -0.4368 -0.1265
  703TMC3    O210457   1.728   0.595  10.216  0.5561 -0.3458  0.1204
  704TMC3    C110458   0.263   4.088  12.186 -0.5083 -0.8722  0.6053
  704TMC3    C210459   0.397   4.080  12.182  0.3144 -0.4080  0.0061
  704TMC3    C310460   0.457   3.977  12.252  0.9581 -0.0952 -0.2631
  704TMC3    C410461   0.186   4.002  12.268  0.2489 -0.4764 -0.1410
  704TMC3    C510462   0.251   3.908  12.344  0.7704  0.6419  0.9225
  704TMC3    C610463   0.388   3.899  12.339 -0.1266  0.4262 -0.0257
  704TMC3     C10464   0.201   4.192  12.116 -0.3891  1.1588 -0.1142
  704TMC3     O10465   0.106   4.249  12.165 -0.1706 -0.3628  0.2348
  704TMC3     H10466   0.457   4.156  12.134  0.8012  0.0439  1.3398
  704TMC3    H110467   0.079   4.009  12.279  0.3114 -1.3360  1.0387
  704TMC3    H210468   0.433   3.824  12.403 -0.2218  1.8011  1.6447
  704TMC3    C710469   0.210   3.772  12.307 -0.1582  0.2443  0.0632
  704TMC3    C810470   0.583   3.935  12.188 -0.4653 -0.2962  0.1170
  704TMC3    O110471   0.293   3.683  12.306 -0.3910  0.6466 -0.6462
  704TMC3    O210472   0.617   3.998  12.088 -0.5838 -0.3875 -0.2863
  705MPD2     C10473   4.707   1.972  16.353  0.2042  0.3365  0.7212
  705MPD2    C110474   4.714   2.110  16.325  1.1787  0.1401  0.2116
  705MPD2    C210475   4.601   2.197  16.342  0.8126 -0.1029 -0.2647
  705MPD2    C310476   4.484   2.133  16.361  0.1262 -0.7355  0.0541
  705MPD2    C410477   4.477   1.998  16.376  0.4409 -0.3234  0.0052
  705MPD2    C510478   4.590   1.918  16.389 -0.5580  0.0482 -0.0676
  705MPD2     H10479   4.618   2.303  16.327  1.6587 -0.0110  1.3810
  705MPD2    H110480   4.382   1.949  16.398  0.8338 -2.5538 -3.1185
  705MPD2    H210481   0.046   1.902  16.359 -0.1475 -0.0838  0.6487
  705MPD2    H310482   4.578   1.812  16.408 -0.5299  0.3125  1.4428
  705MPD2     N10483   4.364   2.212  16.374  0.5616 -0.0238 -0.8582
  705MPD2    H510484   4.380   2.312  16.371  1.3164 -0.1535 -1.0459
  705MPD2    N110485   0.096   2.171  16.299 -0.5607  0.2116  0.1378
  705MPD2    H710486   0.084   2.270  16.281  0.4549  0.6127  1.7245
  706TMC3    C110487   0.415   2.211  16.012 -0.1938  0.6962  0.6790
  706TMC3    C210488   0.384   2.345  15.989 -1.0489 -0.0751 -0.3197
  706TMC3    C310489   0.319   2.413  16.094  0.5320  0.2262  0.2406
  706TMC3    C410490   0.401   2.151  16.131  0.6581 -0.1872 -0.1269
  706TMC3    C510491   0.320   2.210  16.224  0.0004 -1.1023  0.3214
  706TMC3    C610492   0.276   2.338  16.202  0.4065 -0.0124  0.6972
  706TMC3     C10493   0.499   2.143  15.913  0.3926 -0.8923  0.1841
  706TMC3     O10494   0.591   2.070  15.958 -0.2188 -0.2862 -0.1419
  706TMC3     H10495   0.423   2.394  15.900  0.0071 -0.4935 -0.0879
  706TMC3    H110496   0.429   2.046  16.139 -1.8263 -0.8713 -0.3115
  706TMC3    H210497   0.202   2.379  16.269 -0.8947  0.2437 -0.9225
  706TMC3    C710498   0.222   2.119  16.287 -0.3711  0.5846  0.9748
  706TMC3    C810499   0.304   2.554  16.085 -1.1978 -0.8964  0.5401
  706TMC3    O110500   0.268   2.011  16.326 -0.5413  0.4022 -0.8736
  706TMC3    O210501   0.319   2.593  15.968 -0.6971  0.3247 -0.6818
  707TMC3    C110502   2.328   1.125   1.557  0.7429 -0.6369  0.4420
  707TMC3    C210503   2.404   1.025   1.615 -0.3305 -0.2429 -0.1141
  707TMC3    C310504   2.483   1.060   1.719  0.9387 -0.2846 -0.3033
  707TMC3    C410505   2.318   1.247   1.608 -0.3835 -0.1037  0.3138
  707TMC3    C510506   2.393   1.278   1.718  0.5454  0.7946 -0.5152
  707TMC3    C610507   2.479   1.187   1.769  0.1151 -0.3805  0.1954
  707TMC3     C10508   2.288   1.095   1.423 -0.2434  0.2333  0.0906
  707TMC3     O10509   2.258   0.982   1.391 -0.0960 -0.2522 -0.0506
  707TMC3     H10510   2.408   0.927   1.569  0.4542 -0.5328  0.5753
  707TMC3    H110511   2.254   1.325   1.568 -0.5053 -0.8842 -1.0077
  707TMC3    H210512   2.550   1.217   1.845  0.3648  0.0586 -0.2056
  707TMC3    C710513   2.387   1.414   1.765 -0.7713 -0.3308  0.5677
  707TMC3    C810514   2.599   0.973   1.764 -0.5438  0.2817  0.3694
  707TMC3    O110515   2.326   1.494   1.694 -0.8438 -0.0587  0.1774
  707TMC3    O210516   2.659   1.003   1.863 -0.5400 -0.1515 -0.5489
  708MPD2     C10517   3.089   1.146  14.057  0.0914  0.4474  0.5800
  708MPD2    C110518   3.120   1.010  14.049 -0.2872  0.5570 -1.0180
  708MPD2    C210519   3.249   0.962  14.073  0.1497 -0.1491 -0.5565
  708MPD2    C310520   3.351   1.053  14.095 -0.6840  0.5392 -0.1983
  708MPD2    C410521   3.323   1.191  14.099 -0.4435 -0.3206  0.1526
  708MPD2    C510522   3.194   1.236  14.081  0.2404  0.0831  0.1797
  708MPD2     H10523   3.260   0.855  14.081  2.6374 -0.0579 -2.6279
  708MPD2    H110524   3.404   1.258  14.126  0.7446 -0.5409 -2.8937
  708MPD2    H210525   2.993   1.188  14.030  1.2390  0.6328 -3.2170
  708MPD2    H310526   3.179   1.343  14.093  0.7502  0.5776 -3.5182
  708MPD2     N10527   3.474   1.003  14.142  0.4289 -0.3766 -0.1896
  708MPD2    H510528   3.530   1.072  14.190  1.7127 -1.6536  0.1685
  708MPD2    N110529   3.024   0.909  14.017  0.4876 -0.1917  0.3211
  708MPD2    H710530   3.057   0.815  13.996  2.2416  0.1968  1.3541
  709TMC3    C110531   2.838   0.790  14.018  0.0152 -0.7042 -0.5089
  709TMC3    C210532   2.851   0.717  13.908 -0.2359  0.4537 -0.1237
  709TMC3    C310533   2.871   0.582  13.937  0.3052 -0.2794 -0.4459
  709TMC3    C410534   2.841   0.746  14.148  0.4679  0.4550 -0.5492
  709TMC3    C510535   2.884   0.613  14.169  0.6487  0.3801 -1.0596
  709TMC3    C610536   2.899   0.535  14.057  0.2096  0.2173 -0.0912
  709TMC3     C10537   2.890   0.924  14.018 -0.4447  0.1469  0.5798
  709TMC3     O10538   2.815   1.014  14.060  0.3794  0.0753 -0.6678
  709TMC3     H10539   2.861   0.766  13.811  3.0368  2.4796  1.2398
  709TMC3    H110540   2.844   0.822  14.225  2.2104 -0.2616  0.0800
  709TMC3    H210541   2.915   0.428  14.066  0.2593  0.2618  0.3417
  709TMC3    C710542   2.989   0.600  14.271  0.1361  0.0045 -0.0497
  709TMC3    C810543   2.785   0.501  13.861 -0.4148 -0.3613  0.1825
  709TMC3    O110544   3.087   0.535  14.234  0.2281  0.1149  0.3397
  709TMC3    O210545   2.723   0.408  13.910 -0.1793  0.7741  0.2580
  710TMC3    C110546   3.786   1.390   0.145 -0.2547  0.8136 -0.3481
  710TMC3    C210547   3.860   1.476   0.074  0.7551 -0.0429 -0.1252
  710TMC3    C310548   3.988   1.438   0.027 -0.1403 -0.4187  0.9690
  710TMC3    C410549   3.824   1.262   0.172  0.3137 -0.2515  0.0904
  710TMC3    C510550   3.952   1.232   0.129 -0.9651 -0.4468  0.0665
  710TMC3    C610551   4.041   1.321   0.067  0.0344 -0.4874 -0.0283
  710TMC3     C10552   3.667   1.428   0.218  0.5822  0.6246  0.4114
  710TMC3     O10553   3.594   1.338   0.263  0.1945 -0.1276  0.1399
  710TMC3     H10554   3.809   1.563   0.034  1.7842 -1.1482 -3.9215
  710TMC3    H110555   3.763   1.192   0.228 -1.2375  0.2178 -1.0097
  710TMC3    H210556   4.136   1.291   0.024  1.2073 -1.2973  3.0512
  710TMC3    C710557   4.000   1.107   0.176  0.0407 -0.1798 -0.0168
  710TMC3    C810558   4.070   1.533  17.720 -0.4773  0.5518  0.7994
  710TMC3    O110559   3.924   1.027   0.228 -0.1724  0.1382 -0.1043
  710TMC3    O210560   4.183   1.489  17.698  0.4944 -0.3181  0.4749
  711TMC3    C110561   3.921   2.816  15.096  0.3396  0.4745 -0.8337
  711TMC3    C210562   3.968   2.706  15.161  0.2797 -0.0017  0.4227
  711TMC3    C310563   4.029   2.731  15.286 -0.3908 -0.3687  0.1954
  711TMC3    C410564   3.934   2.942  15.137  0.6634 -0.6561 -0.1343
  711TMC3    C510565   3.987   2.969  15.260  0.2029  0.2254 -0.0968
  711TMC3    C610566   4.019   2.857  15.338 -0.0213  0.4306 -0.0416
  711TMC3     C10567   3.870   2.790  14.962 -0.5537  0.1168  0.2557
  711TMC3     O10568   3.776   2.713  14.954 -0.3128 -0.0462 -0.2357
  711TMC3     H10569   3.974   2.604  15.124 -1.2343  0.9716 -2.4987
  711TMC3    H110570   3.885   3.023  15.084  2.2980  0.2014 -0.3230
  711TMC3    H210571   4.071   2.875  15.431  1.5724 -1.2303 -0.6115
  711TMC3    C710572   4.093   3.068  15.257  0.0022  0.1536  0.0602
  711TMC3    C810573   4.162   2.666  15.291 -0.4450  0.3959  1.1944
  711TMC3    O110574   4.184   3.051  15.337 -0.1884 -0.7192  0.5352
  711TMC3    O210575   4.173   2.547  15.278  0.3817 -0.1260  0.0968
  712MPD2     C10576   0.385   3.775  13.364 -0.3302 -0.6263  0.1478
  712MPD2    C110577   0.278   3.859  13.374  0.4610  0.0157  0.4401
  712MPD2    C210578   0.301   3.983  13.414 -0.2768  0.4014 -0.0597
  712MPD2    C310579   0.423   4.028  13.462 -0.2729 -0.1182  0.1011
  712MPD2    C410580   0.526   3.938  13.456  0.0214 -0.4622  0.5838
  712MPD2    C510581   0.514   3.817  13.399 -0.3965 -0.0492  0.3110
  712MPD2     H10582   0.213   4.044  13.433 -0.2050  0.6349 -0.4681
  712MPD2    H110583   0.630   3.957  13.480  0.9852 -1.9854 -2.3772
  712MPD2    H210584   0.384   3.685  13.303 -0.8108 -0.6972  0.2644
  712MPD2    H310585   0.605   3.760  13.386 -0.1863  0.2185  0.5965
  712MPD2     N10586   0.441   4.149  13.536  0.3157  0.1373  0.0125
  712MPD2    H510587   0.536   4.175  13.558 -0.7096  0.7389  3.7262
  712MPD2    N110588   0.147   3.824  13.350 -0.0240 -0.6301 -0.4378
  712MPD2    H710589   0.077   3.897  13.345  0.4522 -0.0346  1.5621
  713TMC3    C110590   0.400   4.361  13.623  0.3956 -0.9030 -0.1087
  713TMC3    C210591   0.515   4.343  13.697 -0.0332  0.5831  0.4611
  713TMC3    C310592   0.578   4.459  13.748 -0.3961  0.7585 -0.1588
  713TMC3    C410593   0.346   4.487  13.606 -0.0916  0.1405  0.1074
  713TMC3    C510594   0.421   4.597  13.639 -0.0787 -0.9067  0.8663
  713TMC3    C610595   0.535   4.578  13.712 -0.2898  0.1735 -0.2515
  713TMC3     C10596   0.349   4.247  13.550  0.6314  0.4967  0.3291
  713TMC3     O10597   0.233   4.245  13.510  0.2628 -0.5346  0.1239
  713TMC3     H10598   0.550   4.242  13.718  1.8988  0.9400 -1.0734
  713TMC3    H110599   0.274   4.498  13.526 -0.5100  0.8557  0.5731
  713TMC3    H210600   0.584   4.667  13.749 -0.8622  0.9865 -1.4443
  713TMC3    C710601   0.392   4.725  13.576 -0.2098 -0.0391  0.8250
  713TMC3    C810602   0.701   4.457  13.815 -0.6821 -0.5278  0.4692
  713TMC3    O110603   0.492   0.050  13.550 -0.1760  0.0420 -0.0041
  713TMC3    O210604   0.761   4.564  13.822  0.5002  0.0626 -0.4286
  714MPD2     C10605   2.923   2.651   1.382 -0.6623  0.0963 -0.3226
  714MPD2    C110606   2.953   2.586   1.264 -0.3439 -0.4564  0.0648
  714MPD2    C210607   2.877   2.613   1.155 -0.5525 -0.5856 -1.0150
  714MPD2    C310608   2.784   2.715   1.156  0.0682 -0.0378 -0.4323
  714MPD2    C410609   2.758   2.782   1.267  0.6890  0.8170  0.2671
  714MPD2    C510610   2.822   2.743   1.386 -0.2422  0.3155  0.5617
  714MPD2     H10611   2.907   2.566   1.063 -0.2428  0.8262 -1.6344
  714MPD2    H110612   2.684   2.860   1.282 -2.0735 -1.8986  0.7312
  714MPD2    H210613   2.971   2.615   1.473  0.0670  1.0689 -0.3164
  714MPD2    H310614   2.798   2.803   1.473  0.5886  0.8984  0.3900
  714MPD2     N10615   2.716   2.746   1.036 -0.3511  0.4253  0.3394
  714MPD2    H510616   2.728   2.685   0.956 -2.1084  0.7250 -0.1466
  714MPD2    N110617   3.061   2.492   1.272  0.2132  0.1133 -0.0407
  714MPD2    H710618   3.127   2.495   1.349 -0.8682 -0.0154  0.8909
  715TMC3    C110619   3.240   2.377   1.201  0.4741  0.0850  0.0796
  715TMC3    C210620   3.286   2.259   1.149  0.2026  0.3008 -0.4782
  715TMC3    C310621   3.422   2.237   1.162 -0.5036  0.0766 -0.7643
  715TMC3    C410622   3.327   2.464   1.265 -0.1527  0.4842  0.3096
  715TMC3    C510623   3.466   2.437   1.271 -0.6193 -0.4866 -0.4666
  715TMC3    C610624   3.515   2.322   1.219  0.1237  0.3296 -0.1454
  715TMC3     C10625   3.111   2.416   1.172  0.8915 -0.3316 -0.3630
  715TMC3     O10626   3.062   2.375   1.071 -0.4237  0.4910 -0.0897
  715TMC3     H10627   3.214   2.184   1.119  0.6985 -0.7020  0.8457
  715TMC3    H110628   3.292   2.564   1.289 -0.8094  0.4954 -0.6800
  715TMC3    H210629   3.622   2.310   1.222 -0.0627 -1.3586 -0.3334
  715TMC3    C710630   3.551   2.548   1.289  0.3844  0.1338 -0.6400
  715TMC3    C810631   3.478   2.123   1.085  0.0984 -0.1446 -0.9988
  715TMC3    O110632   3.660   2.545   1.230  0.7307 -1.1575  0.0344
  715TMC3    O210633   3.394   2.057   1.028 -0.0226  0.2851 -0.1035
  716MPD2     C10634   2.259   1.210   9.983 -0.3475 -0.1327  0.0953
  716MPD2    C110635   2.183   1.137   9.896  0.4074  0.2981 -0.0184
  716MPD2    C210636   2.238   1.029   9.842 -0.0039  0.2058  0.6214
  716MPD2    C310637   2.374   1.004   9.851  0.4826 -0.3720  0.5297
  716MPD2    C410638   2.445   1.076   9.941 -0.2907 -0.6213  0.0185
  716MPD2    C510639   2.383   1.173  10.012 -0.3056  0.3036  0.3035
  716MPD2     H10640   2.178   0.964   9.778  0.0945  0.8017 -0.0730
  716MPD2    H110641   2.551   1.060   9.952 -0.2925  1.3621  2.7031
  716MPD2    H210642   2.212   1.290  10.041 -0.9808 -1.0390  0.8266
  716MPD2    H310643   2.443   1.227  10.084 -1.6639  1.2609  0.7166
  716MPD2     N10644   2.415   0.893   9.770 -0.0973  0.0927  0.0568
  716MPD2    H510645   2.352   0.847   9.705  1.5879 -0.8314 -0.9348
  716MPD2    N110646   2.057   1.188   9.879  0.0635  0.1838  0.0141
  716MPD2    H710647   2.029   1.273   9.926  0.3759  0.4751 -0.3329
  717TMC3    C110648   2.543   0.707   9.717  0.3344 -0.2618  0.6656
  717TMC3    C210649   2.468   0.684   9.602 -0.0538 -0.8511  0.0720
  717TMC3    C310650   2.511   0.570   9.535 -0.4031 -0.1671 -0.2060
  717TMC3    C410651   2.657   0.640   9.743 -0.8803  0.0177 -0.2858
  717TMC3    C510652   2.673   0.515   9.688 -0.1322 -0.6474  0.0608
  717TMC3    C610653   2.599   0.477   9.582 -0.2226  0.3302 -0.0281
  717TMC3     C10654   2.539   0.836   9.776  0.1076 -0.4974 -0.1134
  717TMC3     O10655   2.628   0.880   9.849  0.3666 -0.2109  0.1790
  717TMC3     H10656   2.389   0.745   9.561  0.5655 -0.9438 -1.2577
  717TMC3    H110657   2.716   0.667   9.830 -2.1108 -1.5844  1.0530
  717TMC3    H210658   2.613   0.384   9.528 -0.0270 -0.1967  0.9499
  717TMC3    C710659   2.759   0.420   9.764 -0.0182  0.0264 -0.6223
  717TMC3    C810660   2.429   0.545   9.410 -0.1665 -0.2437 -0.7427
  717TMC3    O110661   2.840   0.462   9.845 -0.4236  0.1755  0.1397
  717TMC3    O210662   2.344   0.629   9.382 -0.3874  0.1252 -0.7956
  718MPD2     C10663   1.774   3.699  12.193  0.5763  0.1296 -0.4246
  718MPD2    C110664   1.761   3.823  12.247  0.0143 -0.0499 -1.0019
  718MPD2    C210665   1.662   3.852  12.334 -0.0031 -0.0661  0.4685
  718MPD2    C310666   1.563   3.757  12.363 -0.0450  0.4620 -0.3072
  718MPD2    C410667   1.572   3.632  12.307 -0.2791 -0.8774  0.2874
  718MPD2    C510668   1.673   3.603  12.215  0.3647 -0.5917  0.8015
  718MPD2     H10669   1.658   3.949  12.382  1.0005 -0.1315  0.6906
  718MPD2    H110670   1.495   3.558  12.330  1.7772 -2.1629  3.0449
  718MPD2    H210671   1.845   3.675  12.114 -0.8742 -1.2745 -1.3125
  718MPD2    H310672   1.686   3.503  12.174  1.6007 -0.9525  2.0451
  718MPD2     N10673   1.460   3.801  12.447 -0.1414  0.3081  0.2854
  718MPD2    H510674   1.493   3.874  12.508 -1.2254  0.8547  0.2198
  718MPD2    N110675   1.831   3.933  12.203  0.0354 -0.0270 -0.3939
  718MPD2    H710676   1.805   4.020  12.247  0.5771  0.7574 -1.6286
  719TMC3    C110677   1.939   4.078  12.063 -0.1903  0.6673 -0.0317
  719TMC3    C210678   1.833   4.164  12.073  0.2309 -0.7110  0.5057
  719TMC3    C310679   1.845   4.283  12.142 -1.2071 -0.0694 -0.0803
  719TMC3    C410680   2.062   4.120  12.105 -0.1401  0.3889  0.6919
  719TMC3    C510681   2.073   4.238  12.164 -0.2406 -0.4350 -0.4871
  719TMC3    C610682   1.971   4.323  12.183  0.0515 -0.3253  0.4540
  719TMC3     C10683   1.917   3.941  12.100  0.0422  0.0511  0.2543
  719TMC3     O10684   1.994   3.855  12.056  0.2517  0.7443 -0.7203
  719TMC3     H10685   1.736   4.123  12.048  0.3244 -0.6911  0.1059
  719TMC3    H110686   2.148   4.055  12.098  0.3163  1.0175  0.4729
  719TMC3    H210687   1.992   4.418  12.233 -1.0777 -0.2144  0.7056
  719TMC3    C710688   2.205   4.279  12.199 -0.1002  0.2106  0.3062
  719TMC3    C810689   1.767   4.280  12.265  0.3784  0.0875 -0.1670
  719TMC3    O110690   2.289   4.247  12.117 -0.0792 -0.4651 -0.1510
  719TMC3    O210691   1.762   4.170  12.316  0.3128  0.0286  0.2744
  720MPD2     C10692   0.591   0.989  14.118 -0.1292  0.0673 -0.3503
  720MPD2    C110693   0.673   1.037  14.026  0.1874  1.0440 -0.0360
  720MPD2    C210694   0.802   1.078  14.054  0.3296  0.0790 -0.0867
  720MPD2    C310695   0.854   1.066  14.179  0.2417  0.0962  0.0928
  720MPD2    C410696   0.767   1.018  14.277 -0.0141 -0.2276 -0.5232
  720MPD2    C510697   0.634   0.982  14.251 -0.8622 -0.1872  0.7391
  720MPD2     H10698   0.862   1.119  13.974  2.4024  0.8768  1.8411
  720MPD2    H110699   0.797   1.019  14.381 -1.7077 -2.8914 -0.0277
  720MPD2    H210700   0.492   0.949  14.098 -0.7786  1.3486  0.3531
  720MPD2    H310701   0.565   0.947  14.327  0.8050 -4.9493  0.0771
  720MPD2     N10702   0.992   1.107  14.197 -0.2917  0.1946 -0.2209
  720MPD2    H510703   1.034   1.131  14.107  1.0966  0.2147  0.4391
  720MPD2    N110704   0.633   1.027  13.889  0.9093  0.2322  0.2014
  720MPD2    H710705   0.690   1.085  13.828  0.7953  1.9368  1.7180
  721TMC3    C110706   1.209   1.137  14.299 -0.1373 -0.3386  0.2165
  721TMC3    C210707   1.279   1.184  14.403  0.4096  0.0783 -0.9286
  721TMC3    C310708   1.403   1.230  14.379  0.5256 -0.2980 -0.1900
  721TMC3    C410709   1.257   1.134  14.173 -0.3585  0.0625  0.0241
  721TMC3    C510710   1.392   1.162  14.157 -0.0406  0.3558 -0.0079
  721TMC3    C610711   1.459   1.208  14.259  0.2709 -0.0798  0.6708
  721TMC3     C10712   1.062   1.114  14.314  0.4936  0.7301  0.2232
  721TMC3     O10713   1.027   1.101  14.430  0.1250 -0.3566 -0.1361
  721TMC3     H10714   1.227   1.190  14.499 -1.6064  0.3486 -2.0364
  721TMC3    H110715   1.205   1.073  14.101 -0.7817 -0.3433  0.6782
  721TMC3    H210716   1.561   1.241  14.245 -0.5462  1.5328 -1.4546
  721TMC3    C710717   1.434   1.181  14.023  0.1434  0.3270 -0.1975
  721TMC3    C810718   1.472   1.304  14.477 -0.2665  0.5165  0.0773
  721TMC3    O110719   1.553   1.153  14.002 -0.0190 -0.9775  0.1253
  721TMC3    O210720   1.589   1.323  14.452  0.5802  0.1593  0.6734
  722MPD2     C10721   4.013   4.497  13.507  0.1975  0.6064 -0.3855
  722MPD2    C110722   3.979   4.608  13.433  0.0135 -0.2648  0.2800
  722MPD2    C210723   3.886   4.599  13.339 -0.4085  0.2328  0.6948
  722MPD2    C310724   3.846   4.481  13.294 -0.0112  0.2499 -0.4136
  722MPD2    C410725   3.893   4.368  13.351  0.5885 -0.0079  0.5369
  722MPD2    C510726   3.967   4.381  13.459 -0.2491 -0.5477 -0.3631
  722MPD2     H10727   3.862   4.691  13.289 -1.2550 -0.3337  0.0684
  722MPD2    H110728   3.878   4.264  13.326 -1.1533  0.6067 -0.9653
  722MPD2    H210729   4.064   4.495  13.602 -2.7248 -1.3192  1.1522
  722MPD2    H310730   3.968   4.295  13.525  0.7294  0.8465  1.4516
  722MPD2     N10731   3.761   4.480  13.181  0.1694 -0.1523 -0.4894
  722MPD2    H510732   3.738   4.573  13.150 -1.1874 -1.3358 -3.0707
  722MPD2    N110733   4.042   4.738  13.453 -0.5615 -0.1674 -0.3081
  722MPD2    H710734   4.013   0.069  13.390  2.8758  0.3266 -1.3087
  723TMC3    C110735   3.616   4.407  13.009 -0.7399 -0.4270  0.1037
  723TMC3    C210736   3.514   4.320  12.985 -0.0785 -0.1086  0.1146
  723TMC3    C310737   3.391   4.362  12.944 -0.6393  0.1596  0.4505
  723TMC3    C410738   3.586   4.543  13.011 -0.2722  0.3297  0.3012
  723TMC3    C510739   3.463   4.582  12.973 -0.5337 -0.0745 -0.4231
  723TMC3    C610740   3.363   4.496  12.943  0.3369  0.0837  0.2068
  723TMC3     C10741   3.719   4.370  13.108  0.0259  0.2281 -0.1395
  723TMC3     O10742   3.706   4.260  13.160 -0.2353 -0.0431  0.2571
  723TMC3     H10743   3.526   4.217  13.018 -1.9871 -0.7393 -1.1356
  723TMC3    H110744   3.667   4.614  13.005 -1.6776  1.8689 -0.4233
  723TMC3    H210745   3.266   4.519  12.901 -0.5883 -1.5044  1.5045
  723TMC3    C710746   3.432   4.723  12.965  0.0523  0.0507 -0.1107
  723TMC3    C810747   3.277   4.270  12.936 -0.0295  0.2443 -1.1135
  723TMC3    O110748   3.463   0.056  13.055  0.4960 -0.4093  0.6250
  723TMC3    O210749   3.168   4.317  12.962  0.2036 -0.3314  0.2217
  724TMC3    C110750   3.570   3.061  10.254 -0.6079 -0.6866  0.0218
  724TMC3    C210751   3.593   3.090  10.126  0.2207  0.0029 -0.4063
  724TMC3    C310752   3.679   3.194  10.092 -0.1376  0.1648  1.4181
  724TMC3    C410753   3.633   3.127  10.358 -0.4142  0.9673  0.5510
  724TMC3    C510754   3.720   3.230  10.321  1.2456  1.0281  0.3301
  724TMC3    C610755   3.748   3.263  10.194 -0.1457  0.3014 -0.0376
  724TMC3     C10756   3.474   2.963  10.284 -0.4595  0.2352  0.8487
  724TMC3     O10757   3.455   2.943  10.405  0.6551 -0.2303 -0.1234
  724TMC3     H10758   3.520   3.068  10.050  0.0102 -0.2044 -0.1441
  724TMC3    H110759   3.608   3.114  10.463  0.3255 -2.3875  0.3249
  724TMC3    H210760   3.829   3.332  10.174  0.4607 -0.1633  0.8316
  724TMC3    C710761   3.775   3.323  10.420 -0.4721  0.2884 -0.3665
  724TMC3    C810762   3.648   3.269   9.973  0.3420 -0.5822  0.6026
  724TMC3    O110763   3.816   3.425  10.369 -0.5632 -0.4111 -0.1824
  724TMC3    O210764   3.570   3.220   9.891  0.0907 -0.0054  0.1666
  725TMC3    C110765   0.933   1.193  12.799  0.1254 -0.3805  0.9390
  725TMC3    C210766   0.887   1.179  12.668 -0.2264  0.3673 -0.1528
  725TMC3    C310767   0.864   1.055  12.616  0.3932  0.6547  0.2300
  725TMC3    C410768   0.987   1.075  12.859 -0.0520  0.4912  0.2583
  725TMC3    C510769   0.966   0.950  12.801  0.2328 -0.1525 -0.2514
  725TMC3    C610770   0.895   0.941  12.686 -0.8455  0.4173  0.7816
  725TMC3     C10771   0.946   1.320  12.863 -0.4271  0.8882 -0.0069
  725TMC3     O10772   0.957   1.421  12.795 -0.0414 -0.1051 -0.0885
  725TMC3     H10773   0.853   1.267  12.614  0.4950  0.1170 -1.0036
  725TMC3    H110774   1.065   1.090  12.933 -0.9875 -0.7445  1.4905
  725TMC3    H210775   0.882   0.842  12.644 -1.3399  0.1410  1.5907
  725TMC3    C710776   1.061   0.840  12.823 -0.1076  1.6864  0.2148
  725TMC3    C810777   0.774   1.035  12.502  0.4459 -0.1871 -0.2266
  725TMC3    O110778   1.063   0.749  12.739  0.4780  0.2776  0.2598
  725TMC3    O210779   0.697   0.937  12.502  0.0713 -0.0839  0.4269
  726MPD2     C10780   3.142   3.631  10.467  0.2986  0.1727 -0.1923
  726MPD2    C110781   3.097   3.621  10.332  0.2636  0.3907  0.7359
  726MPD2    C210782   2.993   3.539  10.300 -0.7128 -0.3261  0.7538
  726MPD2    C310783   2.926   3.460  10.393  0.5032  0.2877  0.5111
  726MPD2    C410784   2.969   3.474  10.527 -0.5956  0.4977  0.4083
  726MPD2    C510785   3.074   3.558  10.556 -0.4800  0.1674  0.2711
  726MPD2     H10786   2.957   3.543  10.198  3.7814 -1.2052 -0.8397
  726MPD2    H110787   2.927   3.410  10.603 -0.5054  1.0315  0.9057
  726MPD2    H210788   3.232   3.683  10.497  2.2596 -0.5958 -4.7126
  726MPD2    H310789   3.099   3.583  10.658 -0.7730  2.2342 -0.1494
  726MPD2     N10790   2.823   3.370  10.367  0.0401  0.3289 -0.3280
  726MPD2    H510791   2.763   3.336  10.442 -0.1357 -1.7543 -1.3904
  726MPD2    N110792   3.155   3.687  10.222 -0.1309  0.4030  0.1668
  726MPD2    H710793   3.105   3.676  10.134  1.1716  3.3012 -0.9287
  727TMC3    C110794   3.229   3.889  10.118 -0.4273  0.0188  0.5174
  727TMC3    C210795   3.297   4.003  10.121  0.4581 -0.3006 -0.3699
  727TMC3    C310796   3.317   4.082  10.011 -0.5354 -0.0121  0.1078
  727TMC3    C410797   3.174   3.846  10.000  0.0458  0.4803 -0.2625
  727TMC3    C510798   3.181   3.933   9.894 -0.1974  0.1401 -0.7579
  727TMC3    C610799   3.256   4.048   9.890 -0.4652  0.4739 -0.6039
  727TMC3     C10800   3.231   3.804  10.228 -0.0879  0.1900 -0.8640
  727TMC3     O10801   3.298   3.834  10.326  0.1193  0.2997 -0.2086
  727TMC3     H10802   3.341   4.029  10.217 -0.2511 -2.0205  0.4280
  727TMC3    H110803   3.116   3.755   9.988 -1.2557  1.5103 -1.6443
  727TMC3    H210804   3.254   4.123   9.812  0.3393  0.7624 -0.3505
  727TMC3    C710805   3.107   3.894   9.776  0.1852 -0.3656  0.1125
  727TMC3    C810806   3.427   4.161  10.009 -0.0581  0.1858  0.4451
  727TMC3    O110807   3.036   3.795   9.780 -0.0193  0.5792 -0.0882
  727TMC3    O210808   3.491   4.151  10.111  0.2190 -0.0752 -0.1835
  728TMC3    C110809   3.173   1.939  15.171 -0.5410  0.1611 -0.3586
  728TMC3    C210810   3.282   1.926  15.095 -0.1630 -0.2815 -0.4079
  728TMC3    C310811   3.275   1.982  14.969  0.1882  0.3165 -0.6957
  728TMC3    C410812   3.073   2.026  15.144  0.6441  0.8921  0.7335
  728TMC3    C510813   3.072   2.080  15.020  0.3544 -0.5221  0.1969
  728TMC3    C610814   3.162   2.047  14.923 -0.5984 -0.7504 -0.8262
  728TMC3     C10815   3.174   1.874  15.305  0.0485 -0.0991  0.0926
  728TMC3     O10816   3.292   1.849  15.341  0.3122  0.1142 -0.1305
  728TMC3     H10817   3.359   1.858  15.127  1.6861  0.9569 -2.2561
  728TMC3    H110818   3.005   2.048  15.225 -0.2173 -3.1622  1.1115
  728TMC3    H210819   3.172   2.097  14.828 -3.8396 -2.7034 -2.1924
  728TMC3    C710820   2.977   2.194  15.000  0.1579  0.2334 -0.9833
  728TMC3    C810821   3.382   1.962  14.876 -0.0679  0.9718  0.0417
  728TMC3    O110822   2.867   2.190  15.060 -0.0226  0.0360  0.1641
  728TMC3    O210823   3.359   1.981  14.759 -0.2595  0.0470  0.4623
  729MPD2     C10824   0.509   3.025  16.599 -0.1968 -0.0787 -0.2819
  729MPD2    C110825   0.627   2.954  16.606  0.0542  0.6075 -0.2987
  729MPD2    C210826   0.664   2.894  16.721  0.5383  0.3260 -0.4383
  729MPD2    C310827   0.607   2.938  16.840  0.0525 -0.3477  0.3499
  729MPD2    C410828   0.502   3.022  16.838  0.5360  0.1162 -0.6413
  729MPD2    C510829   0.456   3.068  16.714  0.0831 -0.1518  0.1205
  729MPD2     H10830   0.738   2.815  16.720  0.5480  0.3479 -1.6117
  729MPD2    H110831   0.466   3.075  16.925  1.6571  1.4043 -0.9485
  729MPD2    H210832   0.474   3.066  16.505 -0.4043 -0.1648 -0.2416
  729MPD2    H310833   0.398   3.159  16.713 -1.1269 -0.9164  0.9763
  729MPD2     N10834   0.641   2.890  16.969 -0.6107 -0.1261 -0.6345
  729MPD2    H510835   0.595   2.931  17.050 -0.1927 -2.4424  0.7588
  729MPD2    N110836   0.689   2.930  16.489 -0.4128  0.0279 -0.8664
  729MPD2    H710837   0.647   2.954  16.400 -0.4298 -0.0676 -0.8851
  730TMC3    C110838   0.825   2.795  17.100 -0.4219 -0.2974  0.2716
  730TMC3    C210839   0.957   2.759  17.057 -0.1052  0.2599  0.2868
  730TMC3    C310840   1.063   2.826  17.102 -0.3146 -0.5845  0.7915
  730TMC3    C410841   0.804   2.898  17.191  0.5834  0.4409 -0.8501
  730TMC3    C510842   0.913   2.962  17.239 -0.2347  0.2303 -0.3549
  730TMC3    C610843   1.042   2.924  17.196 -0.2127 -0.0419  0.8841
  730TMC3     C10844   0.733   2.790  16.984 -0.3285  0.3987  0.1093
  730TMC3     O10845   0.761   2.710  16.896  0.3818 -0.6239  0.0577
  730TMC3     H10846   0.978   2.682  16.983  1.4989  0.2287  0.7566
  730TMC3    H110847   0.705   2.924  17.227  1.6074  1.6563  1.0961
  730TMC3    H210848   1.130   2.978  17.228  0.8952 -1.0052 -0.5793
  730TMC3    C710849   0.899   3.109  17.239  0.2368  0.6521 -0.3343
  730TMC3    C810850   1.162   2.845  16.995  0.2699 -0.3612 -0.0935
  730TMC3    O110851   0.806   3.143  17.166 -0.2950  0.0357 -0.1415
  730TMC3    O210852   1.196   2.744  16.938 -0.0995  0.1568  0.0729
  731MPD2     C10853   0.423   0.394  12.590  0.4366 -0.1462 -0.0730
  731MPD2    C110854   0.549   0.448  12.573  0.0428 -0.5472  0.2040
  731MPD2    C210855   0.638   0.441  12.680  0.4695 -0.0180  0.5944
  731MPD2    C310856   0.602   0.384  12.805 -0.0511  0.6812 -0.5692
  731MPD2    C410857   0.481   0.322  12.818 -0.1568 -0.2590 -0.1355
  731MPD2    C510858   0.397   0.327  12.710  0.0205 -0.2990  0.1627
  731MPD2     H10859   0.735   0.489  12.669 -0.2630  1.2146 -0.5697
  731MPD2    H110860   0.438   0.265  12.899  0.1235 -0.5370 -0.1830
  731MPD2    H210861   0.348   0.390  12.511  0.0551  0.7828  0.2443
  731MPD2    H310862   0.312   0.260  12.719 -0.6494  0.5245 -0.0418
  731MPD2     N10863   0.691   0.395  12.911 -0.3252 -0.5051  0.0271
  731MPD2    H510864   0.784   0.426  12.884 -1.0200  0.9235 -0.7141
  731MPD2    N110865   0.570   0.514  12.446 -0.0346 -0.2370  0.4077
  731MPD2    H710866   0.504   0.504  12.370  4.4476 -4.2817 -2.9626
  732TMC3    C110867   0.661   0.649  12.286 -0.1066  0.5308 -0.2177
  732TMC3    C210868   0.541   0.667  12.232  0.0077 -0.1694  0.3169
  732TMC3    C310869   0.535   0.733  12.113  0.3122  0.9777  0.3063
  732TMC3    C410870   0.778   0.673  12.215  0.0911 -0.3479  0.8972
  732TMC3    C510871   0.772   0.766  12.114  0.2964 -0.3478  0.6733
  732TMC3    C610872   0.648   0.795  12.070 -0.5589  0.1017 -0.1105
  732TMC3     C10873   0.681   0.586  12.412 -0.0962  0.1147 -0.5398
  732TMC3     O10874   0.791   0.602  12.467  0.0035  0.3545 -0.2309
  732TMC3     H10875   0.453   0.658  12.294  2.5163 -2.5493  3.5101
  732TMC3    H110876   0.872   0.659  12.268  0.5253 -0.2871  0.1513
  732TMC3    H210877   0.633   0.865  11.988  1.7447 -0.2069 -0.8127
  732TMC3    C710878   0.890   0.830  12.059 -0.0397 -0.0690 -0.7588
  732TMC3    C810879   0.412   0.752  12.033 -0.3129 -0.4772  0.2099
  732TMC3    O110880   0.871   0.941  12.011  0.0674  0.0648 -0.7230
  732TMC3    O210881   0.404   0.848  11.962 -0.3443  0.1523 -0.5652
  733TMC3    C110882   1.090   3.857  12.730 -0.0492  0.1965 -0.0756
  733TMC3    C210883   1.164   3.771  12.645  0.2406  0.3271  0.5100
  733TMC3    C310884   1.264   3.823  12.564 -0.0249  0.6794 -0.9325
  733TMC3    C410885   1.115   3.993  12.731  0.2222  0.3886 -0.0338
  733TMC3    C510886   1.215   4.039  12.657 -0.4232 -0.0291  0.7224
  733TMC3    C610887   1.283   3.961  12.561 -0.4336  0.3512 -0.2395
  733TMC3     C10888   0.952   3.821  12.779 -0.2471 -0.4507 -0.4534
  733TMC3     O10889   0.908   3.906  12.857 -0.1320  0.8917  0.3210
  733TMC3     H10890   1.140   3.665  12.645  1.2441  0.1079 -0.9872
  733TMC3    H110891   1.056   4.064  12.788 -0.5012  0.0968 -0.4142
  733TMC3    H210892   1.331   4.006  12.476 -1.1748 -1.5735 -1.6756
  733TMC3    C710893   1.255   4.176  12.673 -0.5417 -0.1661 -0.5814
  733TMC3    C810894   1.356   3.735  12.494 -0.2541  0.5988 -0.3667
  733TMC3    O110895   1.180   4.261  12.722 -0.5309 -0.3947  0.4331
  733TMC3    O210896   1.318   3.619  12.487  0.4669 -0.3014  0.1501
  734MPD2     C10897   3.217   1.701  12.468 -0.6572 -0.3675 -0.6885
  734MPD2    C110898   3.132   1.628  12.387 -0.5345 -0.5840  0.5283
  734MPD2    C210899   3.119   1.674  12.258 -0.7897  0.0291  0.5046
  734MPD2    C310900   3.185   1.781  12.204  0.0329  1.0254  0.3652
  734MPD2    C410901   3.270   1.849  12.289 -0.4039 -0.9168  0.0520
  734MPD2    C510902   3.294   1.801  12.413 -0.6850 -1.0063  0.3024
  734MPD2     H10903   3.065   1.617  12.183  1.0441 -1.2451  0.1817
  734MPD2    H110904   3.342   1.917  12.244  0.6526 -3.1608 -1.6612
  734MPD2    H210905   3.231   1.667  12.570 -0.9640  1.2517 -0.1077
  734MPD2    H310906   3.381   1.850  12.456 -0.3337 -2.0857  0.8185
  734MPD2     N10907   3.168   1.806  12.068  0.3462 -0.0557 -0.1561
  734MPD2    H510908   3.091   1.760  12.021  0.0060 -1.1095  1.4263
  734MPD2    N110909   3.067   1.513  12.431 -0.3600 -0.4160  0.7123
  734MPD2    H710910   3.093   1.481  12.524  1.2204  1.2572  0.8677
  735TMC3    C110911   2.923   1.321  12.418  0.0137 -0.5104  0.1313
  735TMC3    C210912   2.816   1.268  12.345 -0.3646 -0.4448  0.9633
  735TMC3    C310913   2.821   1.133  12.313 -0.5277  0.3032  0.9634
  735TMC3    C410914   3.024   1.244  12.463  0.4414 -0.1138  0.2082
  735TMC3    C510915   3.013   1.110  12.445 -0.9179  0.7877 -0.2391
  735TMC3    C610916   2.912   1.052  12.375  0.2395 -0.6149 -0.3204
  735TMC3     C10917   2.976   1.446  12.362  0.2747  0.1306  0.0169
  735TMC3     O10918   2.918   1.477  12.258 -0.0043 -0.0385  0.3878
  735TMC3     H10919   2.749   1.330  12.286  0.8874 -0.2057 -0.1970
  735TMC3    H110920   3.108   1.276  12.524 -0.6489 -0.8160  2.0869
  735TMC3    H210921   2.922   0.951  12.338  1.1285 -0.7972  0.4158
  735TMC3    C710922   3.141   1.047  12.461  0.4633  0.1441  0.6248
  735TMC3    C810923   2.831   1.119  12.166 -0.0519  0.5397 -0.5265
  735TMC3    O110924   3.239   1.116  12.461  0.3676 -0.0724  0.5625
  735TMC3    O210925   2.834   1.003  12.120 -0.0270 -0.1392 -0.0533
  736MPD2     C10926   3.220   0.690  12.517 -0.7215 -0.0171 -0.9209
  736MPD2    C110927   3.245   0.818  12.467 -0.1013 -0.1881 -0.7664
  736MPD2    C210928   3.379   0.845  12.435  0.5161 -0.1268 -0.0531
  736MPD2    C310929   3.480   0.752  12.431  0.7378 -0.1653 -0.7186
  736MPD2    C410930   3.451   0.621  12.475  0.7615 -0.2575 -0.3814
  736MPD2    C510931   3.320   0.596  12.512 -0.4224 -0.0262  0.3634
  736MPD2     H10932   3.402   0.941  12.390 -0.0965 -1.4249 -3.1296
  736MPD2    H110933   3.521   0.539  12.489  2.5450  1.5654  1.5690
  736MPD2    H210934   3.126   0.662  12.563  1.1729 -0.9502  2.3262
  736MPD2    H310935   3.294   0.495  12.542 -1.3239  0.4088  1.0570
  736MPD2     N10936   3.612   0.777  12.392  0.0213 -0.0659  0.5039
  736MPD2    H510937   3.671   0.694  12.391 -1.9977 -1.5142  1.0972
  736MPD2    N110938   3.136   0.912  12.472  0.8493 -0.0511 -0.5148
  736MPD2    H710939   3.042   0.876  12.490  0.7057 -0.5507 -2.2357
  737TMC3    C110940   3.749   0.860  12.225 -0.0264  0.1463 -0.0530
  737TMC3    C210941   3.840   0.961  12.195 -0.7000 -0.4492 -0.0988
  737TMC3    C310942   3.937   0.945  12.100 -0.2531 -0.1419 -0.2489
  737TMC3    C410943   3.762   0.734  12.169 -0.1076  0.7116  0.9341
  737TMC3    C510944   3.860   0.714  12.079  0.1219 -0.3664 -0.5032
  737TMC3    C610945   3.945   0.815  12.045 -0.4310  0.4371  0.1197
  737TMC3     C10946   3.649   0.890  12.321 -0.1191  0.1454 -0.1235
  737TMC3     O10947   3.622   1.009  12.341  0.0532 -0.2978 -0.5267
  737TMC3     H10948   3.835   1.054  12.250  4.0643 -0.9540  1.1946
  737TMC3    H110949   3.696   0.655  12.204  0.1776  0.3220  0.5932
  737TMC3    H210950   4.034   0.796  11.987  0.5869 -0.9591  2.1640
  737TMC3    C710951   3.895   0.576  12.045 -0.2753  0.2557  0.2140
  737TMC3    C810952   3.979   1.059  12.024 -0.3546 -0.0723  0.0098
  737TMC3    O110953   3.853   0.493  12.125 -0.1600  0.7759  0.2412
  737TMC3    O210954   4.008   1.164  12.080 -0.5589  0.1858  0.3035
  738MPD2     C10955   4.328   0.414  15.014 -0.4346 -0.2381 -0.5881
  738MPD2    C110956   4.442   0.347  15.054 -0.1030 -0.2285  0.0933
  738MPD2    C210957   4.569   0.410  15.063 -0.4252 -0.0691  0.3704
  738MPD2    C310958   4.572   0.543  15.022 -0.5068 -0.2183 -1.1501
  738MPD2    C410959   4.457   0.608  14.988  0.2266 -0.2568  0.6092
  738MPD2    C510960   4.331   0.549  14.994 -0.4479  0.2171 -0.0083
  738MPD2     H10961   4.654   0.348  15.085 -0.7280 -0.0102  1.6899
  738MPD2    H110962   4.460   0.710  14.953  1.0809 -0.8099 -0.9300
  738MPD2    H210963   4.233   0.363  15.000  0.3407 -1.9696  0.4502
  738MPD2    H310964   4.255   0.603  14.939 -1.6153  0.8510  2.2366
  738MPD2     N10965   4.691   0.620  15.007  0.0585 -0.5698  0.4286
  738MPD2    H510966   4.697   0.712  14.966  1.4118  0.1240  2.1878
  738MPD2    N110967   4.429   0.210  15.076  0.1377 -0.0544 -0.6346
  738MPD2    H710968   4.515   0.157  15.078 -0.8380 -1.5997  0.8219
  739TMC3    C110969   0.173   0.664  15.009  0.2709 -0.5988  0.1142
  739TMC3    C210970   0.165   0.700  14.878 -0.1136 -0.0742  0.4733
  739TMC3    C310971   0.274   0.745  14.807 -0.2917  0.7716 -0.5142
  739TMC3    C410972   0.294   0.655  15.065  0.3519 -0.0551  0.0511
  739TMC3    C510973   0.405   0.701  15.001 -0.4322 -0.5517 -0.3277
  739TMC3    C610974   0.394   0.747  14.871 -0.0877  0.0371 -0.4856
  739TMC3     C10975   0.067   0.583  15.065 -0.1603  0.5202  0.2997
  739TMC3     O10976   0.088   0.496  15.148  0.0873 -0.3688  0.6806
  739TMC3     H10977   0.067   0.718  14.835  0.3213  1.5794  0.1681
  739TMC3    H110978   0.298   0.610  15.164 -0.7710  1.0830  0.6114
  739TMC3    H210979   0.480   0.781  14.815  1.1280 -0.9208  0.7976
  739TMC3    C710980   0.525   0.725  15.083 -1.0100  0.6227 -0.5617
  739TMC3    C810981   0.268   0.776  14.670  0.5897  0.2962 -0.2896
  739TMC3    O110982   0.515   0.719  15.204 -0.0188 -0.1884  0.3849
  739TMC3    O210983   0.157   0.790  14.629  0.2554  0.1212 -0.1357
  740TMC3    C110984   0.526   1.682  14.354 -0.1945 -0.5402  0.1151
  740TMC3    C210985   0.570   1.633  14.474 -0.6684  0.0056 -0.6232
  740TMC3    C310986   0.667   1.539  14.468 -0.1056  0.0851 -0.0927
  740TMC3    C410987   0.558   1.637  14.226  0.5057  0.0453  0.3340
  740TMC3    C510988   0.652   1.540  14.226 -0.0702  0.7495 -0.8439
  740TMC3    C610989   0.711   1.497  14.344  0.6010  0.0598 -0.1239
  740TMC3     C10990   0.422   1.779  14.366 -0.0284 -0.0345  0.5756
  740TMC3     O10991   0.434   1.889  14.316  0.7125 -0.6586 -0.3297
  740TMC3     H10992   0.539   1.683  14.565  0.2360 -0.6513  0.0507
  740TMC3    H110993   0.514   1.686  14.140 -1.5117  1.9103  2.4376
  740TMC3    H210994   0.780   1.413  14.340  0.3754 -0.0691 -1.1234
  740TMC3    C710995   0.712   1.485  14.105  0.0880 -0.4358  0.2197
  740TMC3    C810996   0.718   1.464  14.578 -0.1168 -0.1287 -0.2683
  740TMC3    O110997   0.824   1.439  14.108 -0.6042  0.2748 -0.1625
  740TMC3    O210998   0.816   1.398  14.553 -0.1651 -0.1244 -0.3746
  741TMC3    C110999   4.625   0.915  14.440 -0.3256  0.2909  1.4030
  741TMC3    C211000   4.528   0.821  14.427  0.1415 -0.3621  0.4131
  741TMC3    C311001   4.485   0.756  14.539 -0.2169  0.1084 -0.4154
  741TMC3    C411002   4.673   0.962  14.559  1.0582  0.5296  0.0822
  741TMC3    C511003   4.623   0.902  14.673 -0.4815 -0.1145  0.6598
  741TMC3    C611004   4.534   0.797  14.665  0.1721  0.4224 -0.0096
  741TMC3     C11005   4.652   0.996  14.322 -0.4023  0.3021 -0.1183
  741TMC3     O11006   4.564   1.012  14.239  0.3084  0.3584 -0.4033
  741TMC3     H11007   4.507   0.781  14.329  0.6545  0.0692  0.1258
  741TMC3    H111008   0.005   1.040  14.561 -0.3676  1.8944  0.5258
  741TMC3    H211009   4.485   0.757  14.754  0.3781  2.6093  1.0913
  741TMC3    C711010   4.665   0.952  14.807  0.6055 -0.4751  0.8273
  741TMC3    C811011   4.375   0.662  14.538 -0.0289 -0.8078 -0.3857
  741TMC3    O111012   4.644   0.873  14.897  0.0937  0.7146 -0.2948
  741TMC3    O211013   4.348   0.605  14.647 -0.4630 -0.2220  0.1235
  742TMC3    C111014   4.338   4.065  15.119  1.6111 -0.5817  0.2243
  742TMC3    C211015   4.275   4.076  14.998 -0.1730  0.6283 -0.6647
  742TMC3    C311016   4.299   3.988  14.897 -0.6779  0.0966 -0.2692
  742TMC3    C411017   4.418   3.960  15.142 -0.3190 -0.1524 -0.9170
  742TMC3    C511018   4.431   3.867  15.044 -0.0909 -0.3975  0.1716
  742TMC3    C611019   4.377   3.883  14.920 -0.0233 -0.0177  0.5568
  742TMC3     C11020   4.346   4.180  15.203  0.0732 -0.2362 -0.0636
  742TMC3     O11021   4.296   4.278  15.159  0.1784  0.4507  0.1235
  742TMC3     H11022   4.225   4.169  14.975 -1.2225 -0.6550 -3.5415
  742TMC3    H111023   4.475   3.947  15.233 -3.9947  2.8289  1.8559
  742TMC3    H211024   4.399   3.814  14.840 -1.5358 -0.9928  0.9831
  742TMC3    C711025   4.535   3.775  15.057 -0.8409  0.6035  0.2550
  742TMC3    C811026   4.250   4.008  14.759 -0.4122  1.1317 -0.3713
  742TMC3    O111027   4.591   3.731  14.956 -0.4033 -0.5207  0.1274
  742TMC3    O211028   4.312   3.950  14.674 -0.3088 -0.3798 -0.2449
  743MPD2     C11029   3.213   0.003   1.650 -0.0501 -0.5620  0.4909
  743MPD2    C111030   3.160   4.704   1.526  0.5323  0.6797  0.8196
  743MPD2    C211031   3.231   4.607   1.460  0.0168  0.4365  0.5416
  743MPD2    C311032   3.355   4.562   1.504 -0.4990 -0.6155  0.0348
  743MPD2    C411033   3.402   4.609   1.621 -0.3556 -0.2158  0.6154
  743MPD2    C511034   3.334   4.704   1.697  0.1549  1.0774  1.0510
  743MPD2     H11035   3.200   4.565   1.365  0.7501  0.8896  0.1075
  743MPD2    H111036   3.490   4.575   1.672  0.0308  1.6043  1.1801
  743MPD2    H211037   3.157   0.069   1.715  1.0685  0.0224  0.8702
  743MPD2    H311038   3.367   4.731   1.797  0.8398  1.0591  0.8324
  743MPD2     N11039   3.427   4.480   1.422  0.1655 -0.6421 -1.0117
  743MPD2    H511040   3.376   4.438   1.345  0.0809 -2.4235  0.0224
  743MPD2    N111041   3.037   0.019   1.478  0.0953 -0.2714  0.3520
  743MPD2    H711042   2.989   0.086   1.537  1.4397  0.3732  0.7306
  744TMC3    C111043   2.857   0.075   1.335  0.3348 -0.3907 -0.5911
  744TMC3    C211044   2.845   0.200   1.394 -0.3545 -0.2882 -0.6442
  744TMC3    C311045   2.743   0.284   1.358  0.5272 -0.5583  0.2975
  744TMC3    C411046   2.774   0.037   1.232  0.2137 -0.2769 -0.3811
  744TMC3    C511047   2.675   0.121   1.199 -0.3919 -0.2693  0.3809
  744TMC3    C611048   2.661   0.248   1.250  0.0996 -0.9742  0.5108
  744TMC3     C11049   2.963   4.730   1.365  0.0491  0.2682 -0.5760
  744TMC3     O11050   2.988   4.649   1.275 -0.1025 -0.3676 -0.0756
  744TMC3     H11051   2.920   0.239   1.461 -1.5030  0.2539  0.3273
  744TMC3    H111052   2.789   4.679   1.195 -1.3305  0.5870 -3.3653
  744TMC3    H211053   2.571   0.309   1.243  0.9568  0.4467  1.9561
  744TMC3    C711054   2.587   0.100   1.086  0.3553 -0.4552  0.2721
  744TMC3    C811055   2.716   0.405   1.440 -0.3264  0.0641  0.4982
  744TMC3    O111056   2.524   0.188   1.035  0.0386 -0.3196 -0.1948
  744TMC3    O211057   2.633   0.473   1.385  0.5069  0.6073 -0.0647
  745TMC3    C111058   4.700   3.682  13.371  0.4175 -0.3394  0.7472
  745TMC3    C211059   4.656   3.627  13.489  0.4010 -0.2782 -0.1951
  745TMC3    C311060   4.536   3.663  13.542 -0.3270 -0.1493  0.8862
  745TMC3    C411061   4.632   3.774  13.303  0.4966  0.2090 -0.3601
  745TMC3    C511062   4.519   3.815  13.367  0.5218  0.3384 -0.3394
  745TMC3    C611063   4.462   3.757  13.475 -0.2842 -0.3916  0.8719
  745TMC3     C11064   0.102   3.694  13.362  0.3036 -0.0894 -0.4975
  745TMC3     O11065   0.165   3.593  13.398 -0.4830 -0.4228  0.2709
  745TMC3     H11066   4.720   3.561  13.548 -0.7661 -0.8433  0.4406
  745TMC3    H111067   4.678   3.832  13.223  0.5404  0.9392  0.1957
  745TMC3    H211068   4.369   3.790  13.519 -0.9299  0.8576 -1.4512
  745TMC3    C711069   4.427   3.893  13.281 -0.9036  0.2729 -1.3173
  745TMC3    C811070   4.542   3.682  13.684  0.5712 -0.3795  0.7774
  745TMC3    O111071   4.308   3.868  13.299  0.2454  0.5512 -0.3166
  745TMC3    O211072   4.479   3.599  13.751  0.1222  0.9115 -0.0491
  746TMC3    C111073   2.496   0.733  10.814  0.6498 -0.1038 -0.2178
  746TMC3    C211074   2.546   0.699  10.691  0.1001  0.3337  0.0891
  746TMC3    C311075   2.472   0.628  10.604  0.2337 -0.3376 -0.9727
  746TMC3    C411076   2.376   0.678  10.844  0.1745 -0.4046  0.4647
  746TMC3    C511077   2.305   0.605  10.755 -0.6314 -0.1095 -0.1007
  746TMC3    C611078   2.352   0.581  10.632 -0.1284 -0.4397  0.0196
  746TMC3     C11079   2.510   0.876  10.850  0.3528  0.1441 -0.7326
  746TMC3     O11080   2.428   0.909  10.930  0.4444 -0.2012  0.9128
  746TMC3     H11081   2.637   0.738  10.648  0.7847 -1.6334 -0.2362
  746TMC3    H111082   2.326   0.696  10.939  1.8674 -3.2139  1.8756
  746TMC3    H211083   2.289   0.521  10.567  0.4266 -0.1283 -0.8145
  746TMC3    C711084   2.167   0.557  10.782 -0.3707  1.0797 -0.2642
  746TMC3    C811085   2.533   0.599  10.477 -0.1658 -0.1367  0.1889
  746TMC3    O111086   2.104   0.534  10.680  0.9942  0.1692  0.0003
  746TMC3    O211087   2.654   0.590  10.465 -0.1477 -0.0022 -0.1880
  747TMC3    C111088   4.519   0.457  11.330 -0.1852 -0.7020  0.0791
  747TMC3    C211089   4.439   0.402  11.427  0.3936 -0.9002 -0.0012
  747TMC3    C311090   4.504   0.345  11.534 -0.6338  0.2182  0.7494
  747TMC3    C411091   4.654   0.452  11.335 -1.0738 -0.0922  0.3434
  747TMC3    C511092   4.716   0.398  11.445 -0.1776  0.4933  0.0380
  747TMC3    C611093   4.639   0.331  11.541 -0.1645 -0.5455 -0.2805
  747TMC3     C11094   4.459   0.544  11.227 -0.1965  0.0856 -0.3516
  747TMC3     O11095   4.340   0.569  11.237 -0.0698 -0.1440  0.2461
  747TMC3     H11096   4.333   0.420  11.437  0.2994  0.2194 -2.9357
  747TMC3    H111097   4.721   0.512  11.274 -2.6475  2.2408  0.9031
  747TMC3    H211098   4.679   0.298  11.636  2.6783  2.8474 -0.2918
  747TMC3    C711099   0.089   0.468  11.494  0.5825 -1.2053  0.1967
  747TMC3    C811100   4.436   0.299  11.647  0.1827 -0.5555 -0.9015
  747TMC3    O111101   0.119   0.564  11.424  0.6534 -0.4033  0.3579
  747TMC3    O211102   4.477   0.205  11.708  0.0190 -0.4464 -0.1157
  748MPD2     C11103   1.991   2.103   1.816 -0.5607 -0.1494  0.4043
  748MPD2    C111104   2.043   1.980   1.793 -0.1154  0.8381  0.3010
  748MPD2    C211105   2.134   1.969   1.692  0.9548 -0.3081  0.3559
  748MPD2    C311106   2.163   2.075   1.610  0.3762  0.1661 -0.2950
  748MPD2    C411107   2.124   2.201   1.649 -0.3172 -0.1427  0.7444
  748MPD2    C511108   2.028   2.207   1.741  0.3495 -0.0443 -0.8791
  748MPD2     H11109   2.178   1.870   1.680  0.0024 -0.7756  0.7335
  748MPD2    H111110   2.161   2.287   1.593  0.8222 -1.0290  0.1374
  748MPD2    H211111   1.910   2.116   1.886 -0.1978  1.1782  0.5659
  748MPD2    H311112   1.995   2.309   1.756  0.9829 -0.0178  0.3718
  748MPD2     N11113   2.271   2.061   1.514 -0.7799 -0.6141 -0.2247
  748MPD2    H511114   2.324   1.975   1.507 -1.1788 -0.8285 -0.5909
  748MPD2    N111115   2.015   1.872   1.885  0.1110 -0.9609 -0.3418
  748MPD2    H711116   1.975   1.899   1.975  0.4471 -2.4735  0.2556
  749TMC3    C111117   2.411   2.116   1.330  0.7019  0.2482 -0.3071
  749TMC3    C211118   2.495   2.021   1.368  0.1866 -1.0387 -0.5661
  749TMC3    C311119   2.584   1.959   1.272 -0.2365  0.2314  0.1731
  749TMC3    C411120   2.410   2.157   1.201  0.6933 -0.2899 -0.1715
  749TMC3    C511121   2.484   2.089   1.105  1.0628 -0.8549 -0.0750
  749TMC3    C611122   2.579   1.992   1.138 -0.4138  0.5824 -0.0298
  749TMC3     C11123   2.307   2.157   1.420 -0.1820  0.0995 -0.0717
  749TMC3     O11124   2.243   2.256   1.389 -0.6629  0.8217 -0.2246
  749TMC3     H11125   2.518   2.008   1.473 -2.5794  2.2366  0.4259
  749TMC3    H111126   2.335   2.230   1.171  0.6313 -0.6078 -0.8029
  749TMC3    H211127   2.657   1.948   1.076 -0.6024 -1.5959  1.2586
  749TMC3    C711128   2.501   2.153   0.969 -0.3238  0.1533  0.0398
  749TMC3    C811129   2.703   1.906   1.330  0.9168  0.2406  0.6461
  749TMC3    O111130   2.478   2.272   0.960  0.7354  0.3798 -0.0079
  749TMC3    O211131   2.740   1.947   1.442  0.5354  0.3971 -0.4409
  750MPD2     C11132   1.852   2.956  10.965  0.1631 -0.1681 -0.5275
  750MPD2    C111133   1.870   2.876  11.079  0.6371  1.5572 -0.4190
  750MPD2    C211134   1.919   2.741  11.056 -0.2844  0.5466 -0.0286
  750MPD2    C311135   1.934   2.686  10.928 -0.3577 -0.4217 -0.2125
  750MPD2    C411136   1.909   2.769  10.817 -0.0542  0.5507  0.8091
  750MPD2    C511137   1.874   2.902  10.839  0.1918  1.2370  0.5600
  750MPD2     H11138   1.957   2.687  11.142  0.7054  1.5195  0.1510
  750MPD2    H111139   1.913   2.732  10.715 -0.0789  1.6737  0.3980
  750MPD2    H211140   1.812   3.056  10.973 -0.6261 -0.4502 -1.0542
  750MPD2    H311141   1.856   2.962  10.750  0.3680 -0.7140 -0.7885
  750MPD2     N11142   1.956   2.547  10.899 -0.4535 -0.0413  0.1389
  750MPD2    H511143   1.947   2.514  10.804 -0.6018 -0.6643  0.3664
  750MPD2    N111144   1.856   2.929  11.207  0.3490 -1.0368  0.1948
  750MPD2    H711145   1.841   3.029  11.205  0.8511 -0.9888 -1.2441
  751TMC3    C111146   1.992   2.332  10.944  0.4335  0.1859  0.1236
  751TMC3    C211147   1.951   2.220  11.010  0.6001  0.4424 -0.7200
  751TMC3    C311148   1.965   2.101  10.949  0.3821  0.0520  0.2881
  751TMC3    C411149   2.075   2.319  10.834  0.6710 -0.4453 -0.0628
  751TMC3    C511150   2.095   2.198  10.784  0.3190 -0.6000  0.3711
  751TMC3    C611151   2.030   2.095  10.830  0.6303  0.0077  0.1299
  751TMC3     C11152   1.968   2.451  10.996 -0.2801 -0.7364  0.2156
  751TMC3     O11153   1.962   2.463  11.121  0.0829 -0.3939  0.1173
  751TMC3     H11154   1.887   2.233  11.097 -0.5722 -1.4824 -1.3032
  751TMC3    H111155   2.103   2.405  10.774 -0.1385  0.0088  0.2127
  751TMC3    H211156   2.046   1.999  10.780  0.3747 -0.5750  1.1741
  751TMC3    C711157   2.141   2.195  10.651 -0.4793  0.6520  0.2008
  751TMC3    C811158   1.911   1.980  11.000 -0.4222 -0.0615 -0.5759
  751TMC3    O111159   2.234   2.271  10.629  0.3760 -0.2812  0.8626
  751TMC3    O211160   1.932   1.883  10.925 -0.0174  0.2774  0.7970
  752TMC3    C111161   1.488   2.490  17.014 -0.5584 -1.3221  0.4074
  752TMC3    C211162   1.510   2.402  17.111 -0.9198  0.3429 -0.0651
  752TMC3    C311163   1.517   2.439  17.242  0.3049  0.5511 -0.2286
  752TMC3    C411164   1.466   2.618  17.046 -0.0422  0.0626 -0.4736
  752TMC3    C511165   1.490   2.662  17.175  0.6707 -0.3487  0.5641
  752TMC3    C611166   1.513   2.568  17.270  0.5280 -0.8652  0.9080
  752TMC3     C11167   1.447   2.438  16.883 -0.8493  1.0670 -0.1265
  752TMC3     O11168   1.507   2.334  16.851 -0.4427  0.2095 -0.0121
  752TMC3     H11169   1.498   2.295  17.096  0.8427  0.3622 -1.5914
  752TMC3    H111170   1.431   2.700  16.984 -0.9803 -0.5341 -0.7269
  752TMC3    H211171   1.536   2.610  17.367 -0.3436 -2.4068  1.7815
  752TMC3    C711172   1.517   2.800  17.210  0.0995 -0.2482  0.2663
  752TMC3    C811173   1.489   2.341  17.341 -0.0073 -0.1756 -0.5493
  752TMC3    O111174   1.492   2.829  17.327  0.5658 -0.4792  0.1440
  752TMC3    O211175   1.516   2.227  17.311 -0.3647  0.1989 -0.1939
  753TMC3    C111176   3.374   4.114  13.300  0.1226 -0.8456  0.7744
  753TMC3    C211177   3.510   4.100  13.312  0.2933 -0.2662 -0.9919
  753TMC3    C311178   3.573   3.991  13.261  0.8622 -0.2075 -0.2823
  753TMC3    C411179   3.287   4.018  13.250  0.8861  1.2521  0.4321
  753TMC3    C511180   3.356   3.907  13.207  0.3706  0.6609 -0.3066
  753TMC3    C611181   3.500   3.890  13.208 -0.4376 -0.1384 -0.0466
  753TMC3     C11182   3.321   4.245  13.287  0.1267 -0.6304 -0.3380
  753TMC3     O11183   3.201   4.253  13.259  0.2359  0.1396  0.3953
  753TMC3     H11184   3.575   4.180  13.345 -0.7502  0.2920 -0.3002
  753TMC3    H111185   3.180   4.035  13.257  0.6116 -0.5797  0.9461
  753TMC3    H211186   3.563   3.805  13.181 -0.8597 -1.3293  2.7243
  753TMC3    C711187   3.282   3.781  13.199  0.0700 -0.5784  0.2061
  753TMC3    C811188   3.713   3.968  13.294  0.2065 -0.3743 -0.5011
  753TMC3    O111189   3.190   3.759  13.276  0.3342 -0.3832 -0.1568
  753TMC3    O211190   3.778   3.897  13.221  0.0199 -0.2459 -0.0359
  754MPD2     C11191   1.875   2.415  13.351  0.0296 -0.4894 -0.1191
  754MPD2    C111192   1.873   2.279  13.333 -0.0879 -0.2703  0.2006
  754MPD2    C211193   1.762   2.202  13.303  0.0585  0.3442 -0.0985
  754MPD2    C311194   1.646   2.277  13.280  0.5687 -0.2767  0.3998
  754MPD2    C411195   1.650   2.407  13.319 -0.2809  0.2358 -0.1166
  754MPD2    C511196   1.760   2.478  13.356 -0.0472  0.1027 -0.6739
  754MPD2     H11197   1.775   2.096  13.288  1.4563  0.7103 -1.5475
  754MPD2    H111198   1.556   2.458  13.337 -1.3443 -1.1899 -1.5923
  754MPD2    H211199   1.961   2.477  13.370 -1.0737  1.3747 -1.2237
  754MPD2    H311200   1.748   2.581  13.385  1.4584  0.8917 -2.8340
  754MPD2     N11201   1.521   2.225  13.244 -0.0922 -0.2404 -0.3127
  754MPD2    H511202   1.451   2.296  13.225  1.5192  1.1810 -0.9629
  754MPD2    N111203   2.008   2.232  13.330 -0.1574  0.9055  0.2544
  754MPD2    H711204   2.083   2.300  13.338  3.0596 -2.8536  1.9001
  755MPD2     C11205   1.065   2.839  13.035  0.0273 -0.1246  0.5060
  755MPD2    C111206   0.960   2.749  12.999 -0.7740  0.2047 -0.1076
  755MPD2    C211207   0.987   2.612  13.012 -0.5831  0.7242  0.2490
  755MPD2    C311208   1.114   2.568  13.039  0.4244  0.8326  0.1604
  755MPD2    C411209   1.208   2.660  13.072  0.0778  0.6461 -0.0230
  755MPD2    C511210   1.180   2.794  13.088 -0.1434  1.4538 -0.5363
  755MPD2     H11211   0.906   2.543  12.992 -1.5744  1.7886  0.5888
  755MPD2    H111212   1.305   2.631  13.112 -0.2306  0.3475  0.5017
  755MPD2    H211213   1.047   2.946  13.026 -1.2916 -0.4267 -0.4577
  755MPD2    H311214   1.258   2.852  13.136 -0.3408 -0.4771  2.1607
  755MPD2     N11215   1.160   2.435  13.053  0.0594 -0.8396 -0.4450
  755MPD2    H511216   1.258   2.417  13.070  0.2637 -0.0806 -0.8150
  755MPD2    N111217   0.829   2.784  12.969 -0.2207 -0.2799  0.1315
  755MPD2    H711218   0.765   2.706  12.979  1.4376 -2.1123 -3.4907
  756MPD2     C11219   1.067   3.527   9.782  0.4278  0.9870 -0.7207
  756MPD2    C111220   1.085   3.481   9.914  0.0182  0.1507  0.0726
  756MPD2    C211221   0.975   3.443   9.986  0.2417  1.0103  0.3375
  756MPD2    C311222   0.850   3.439   9.929  0.3425  0.2171 -0.4536
  756MPD2    C411223   0.830   3.475   9.796 -0.3990  0.2316 -0.1672
  756MPD2    C511224   0.943   3.516   9.723 -1.0340 -0.5131 -0.2853
  756MPD2     H11225   0.985   3.398  10.084 -0.0038  1.5608  0.6104
  756MPD2    H111226   0.737   3.460   9.742  0.4731 -0.1099 -1.5689
  756MPD2    H211227   1.143   3.586   9.731 -0.3539  2.8204  0.2344
  756MPD2    H311228   0.933   3.543   9.618 -1.8149 -0.2785 -0.1527
  756MPD2     N11229   0.736   3.405  10.014 -0.0065  0.9432  0.3438
  756MPD2    H511230   0.744   3.373  10.110 -3.4715  0.9156  0.6423
  756MPD2    N111231   1.207   3.477   9.987 -0.8605  0.6132  0.4764
  756MPD2    H711232   1.194   3.462  10.087 -0.1373  2.5501  0.8588
  757MPD2     C11233   0.705   2.642  10.385  0.7502  1.1966  0.0866
  757MPD2    C111234   0.793   2.745  10.360 -0.1524 -1.0136 -0.5556
  757MPD2    C211235   0.740   2.858  10.301  0.2479 -0.5160 -0.0251
  757MPD2    C311236   0.608   2.883  10.295  0.0796  0.3409  0.3570
  757MPD2    C411237   0.523   2.785  10.328 -0.4726  0.4904 -0.2048
  757MPD2    C511238   0.572   2.666  10.368 -0.7405 -0.3305 -0.6352
  757MPD2     H11239   0.814   2.935  10.283  0.3105 -0.0033  2.4335
  757MPD2    H111240   0.415   2.787  10.343 -0.1890 -0.8576  2.0709
  757MPD2    H211241   0.731   2.543  10.421  2.1107  1.9233  1.1260
  757MPD2    H311242   0.510   2.583  10.401 -0.3434 -0.0718  0.7709
  757MPD2     N11243   0.568   3.008  10.243  0.1041 -0.1312  0.1958
  757MPD2    H511244   0.643   3.075  10.253  1.0905 -0.6052 -3.9708
  757MPD2    N111245   0.930   2.711  10.368  0.3660 -0.2033  0.0492
  757MPD2    H711246   0.954   2.617  10.396 -0.8563  0.0373  1.9608
  758MPD2     C11247   2.370   2.306  15.720 -0.1654 -0.9076  1.0058
  758MPD2    C111248   2.458   2.240  15.799  0.7413  0.0750 -0.1245
  758MPD2    C211249   2.444   2.250  15.937 -0.3938 -0.4736 -0.0549
  758MPD2    C311250   2.348   2.336  15.993 -0.3402 -0.6224  0.3272
  758MPD2    C411251   2.258   2.402  15.907 -0.8394 -0.4396  0.9409
  758MPD2    C511252   2.276   2.389  15.771  0.4153  0.0780 -0.3349
  758MPD2     H11253   2.509   2.193  16.003 -0.5092  0.7439  1.1223
  758MPD2    H111254   2.171   2.451  15.948 -1.6788  0.9447 -2.5047
  758MPD2    H211255   2.370   2.301  15.612  0.4844  0.2078  0.9658
  758MPD2    H311256   2.215   2.442  15.699  0.3292 -0.3961 -0.6147
  758MPD2     N11257   2.327   2.353  16.126 -0.2414 -0.4030  0.1144
  758MPD2    H511258   2.251   2.414  16.154  0.8883  0.5114  1.1608
  758MPD2    N111259   2.551   2.154  15.737 -1.4461 -0.0096  0.1699
  758MPD2    H711260   2.585   2.192  15.650 -1.4281  0.8003  0.5290
  759MPD2     C11261   0.727   0.544  10.314 -0.3667  0.1356  0.4330
  759MPD2    C111262   0.720   0.421  10.256  0.5946  0.0991 -0.4948
  759MPD2    C211263   0.779   0.416  10.124 -0.3062 -0.3270  0.6559
  759MPD2    C311264   0.814   0.531  10.058 -1.0342  0.0517  0.1373
  759MPD2    C411265   0.792   0.654  10.115  0.1133  0.0278 -1.0177
  759MPD2    C511266   0.757   0.659  10.246  0.2975 -0.4011  0.7779
  759MPD2     H11267   0.792   0.328  10.062 -1.2282  0.3658 -0.5069
  759MPD2    H111268   0.818   0.745  10.062 -0.1002  0.7595  0.1249
  759MPD2    H211269   0.699   0.561  10.417  0.5482  0.0990  0.6872
  759MPD2    H311270   0.754   0.753  10.299 -1.7708 -0.1767  0.2672
  759MPD2     N11271   0.855   0.516   9.921  0.1028 -0.5549  0.2861
  759MPD2    H511272   0.864   0.422   9.882  0.0403 -0.6057  0.3933
  759MPD2    N111273   0.663   0.311  10.319  0.3968  0.0534 -0.1078
  759MPD2    H711274   0.649   0.234  10.254  1.2539  1.4598 -1.9745
  760MPD2     C11275   0.173   2.339  12.168  0.3651  0.3301  0.5985
  760MPD2    C111276   0.296   2.361  12.116 -0.0179 -0.0708  0.0170
  760MPD2    C211277   0.364   2.250  12.070  0.3659 -0.4673  0.2057
  760MPD2    C311278   0.321   2.121  12.089 -0.5390 -0.3792  0.3390
  760MPD2    C411279   0.199   2.100  12.144 -0.1765 -0.0541 -0.1650
  760MPD2    C511280   0.120   2.211  12.178  0.1559 -0.0817  0.4494
  760MPD2     H11281   0.462   2.273  12.029  0.6377 -0.6354  0.7643
  760MPD2    H111282   0.167   1.998  12.163 -0.9892 -0.3571 -3.1266
  760MPD2    H211283   0.119   2.417  12.220 -0.8460 -0.5812  0.7101
  760MPD2    H311284   0.025   2.200  12.227  0.4393 -0.9650  0.7892
  760MPD2     N11285   0.400   2.009  12.041 -0.6831 -0.6557  0.8502
  760MPD2    H511286   0.362   1.915  12.046  1.8806 -1.7812 -0.5929
  760MPD2    N111287   0.361   2.485  12.118  0.2312  0.4186 -0.0296
  760MPD2    H711288   0.460   2.481  12.097  0.8193  0.1853  2.6697
  761MPD2     C11289   1.544   1.723  11.248  0.0898  0.5563 -0.4792
  761MPD2    C111290   1.627   1.678  11.149 -0.3355 -0.1626 -0.1297
  761MPD2    C211291   1.728   1.769  11.094 -0.1596 -0.0907  0.3428
  761MPD2    C311292   1.734   1.901  11.144 -0.0136  0.1038 -0.9850
  761MPD2    C411293   1.650   1.943  11.243  0.0575 -0.3249 -0.4941
  761MPD2    C511294   1.563   1.851  11.296  0.2567 -0.0115 -0.7424
  761MPD2     H11295   1.804   1.726  11.029 -1.8582 -1.6375 -0.6133
  761MPD2    H111296   1.664   2.036  11.297  1.0401 -0.1816 -0.9972
  761MPD2    H211297   1.475   1.656  11.298  0.4301 -0.5634 -1.5091
  761MPD2    H311298   1.507   1.861  11.389 -0.1220 -0.9215 -0.8690
  761MPD2     N11299   1.821   1.999  11.096 -0.6052  0.2400 -0.2826
  761MPD2    H511300   1.812   2.092  11.137  0.2918 -0.1158  0.7118
  761MPD2    N111301   1.610   1.542  11.104 -0.3160 -0.0659  0.1295
  761MPD2    H711302   1.533   1.488  11.143 -1.1872  1.8318  1.0616
  762MPD2     C11303   1.515   0.772  10.657  0.0241 -0.1755  0.2704
  762MPD2    C111304   1.607   0.872  10.649 -0.3372 -0.2733  0.1182
  762MPD2    C211305   1.689   0.879  10.538  0.4247  0.6969 -0.6553
  762MPD2    C311306   1.688   0.772  10.447  0.6756  0.0645 -0.7004
  762MPD2    C411307   1.601   0.662  10.467 -0.5255 -0.4199  0.4947
  762MPD2    C511308   1.511   0.670  10.568  0.0309  0.8654 -0.2214
  762MPD2     H11309   1.773   0.947  10.529 -0.6716  2.1497 -0.0505
  762MPD2    H111310   1.587   0.573  10.408  1.2305 -1.3193  1.4486
  762MPD2    H211311   1.446   0.778  10.740 -0.3004 -2.1028  0.1372
  762MPD2    H311312   1.442   0.587  10.574  0.8018  0.2371  0.0325
  762MPD2     N11313   1.778   0.782  10.338 -0.1657  0.1416 -0.2489
  762MPD2    H511314   1.854   0.848  10.347 -1.6027  1.8286 -0.4924
  762MPD2    N111315   1.600   0.967  10.757 -0.2468  0.1669 -0.5538
  762MPD2    H711316   1.536   0.953  10.834 -1.5970  1.0365 -1.5214
  763MPD2     C11317   4.340   2.417  16.131 -0.0369  0.1332 -0.0341
  763MPD2    C111318   4.219   2.433  16.062  0.1164  0.2532  0.3931
  763MPD2    C211319   4.151   2.551  16.088 -0.2368 -0.0907 -0.3547
  763MPD2    C311320   4.206   2.650  16.169 -0.3627  0.7002  0.2819
  763MPD2    C411321   4.331   2.632  16.220  0.4041  0.4341 -0.8279
  763MPD2    C511322   4.400   2.515  16.200 -0.1152  0.2074 -0.5477
  763MPD2     H11323   4.051   2.568  16.049 -1.0286 -0.7370  1.3666
  763MPD2    H111324   4.390   2.713  16.261 -1.4871  1.3571  0.0731
  763MPD2    H211325   4.393   2.325  16.105 -2.8533 -1.8205  1.1157
  763MPD2    H311326   4.505   2.503  16.222 -0.5346 -2.0128  0.1993
  763MPD2     N11327   4.132   2.771  16.176  0.5063 -0.4677  0.3412
  763MPD2    H511328   4.059   2.774  16.106  1.7382 -0.7311 -0.9484
  763MPD2    N111329   4.170   2.338  15.982 -0.5229  0.2910 -0.5242
  763MPD2    H711330   4.085   2.365  15.933 -1.3005 -1.2036 -0.0047
  764MPD2     C11331   2.602   3.893  17.455  0.5015  0.6468  0.9815
  764MPD2    C111332   2.469   3.880  17.415  0.3285  0.4059 -1.1863
  764MPD2    C211333   2.387   3.799  17.487 -0.0150 -0.3924 -0.1115
  764MPD2    C311334   2.437   3.726  17.591  0.0820 -0.7005 -0.2297
  764MPD2    C411335   2.566   3.753  17.643 -0.3157 -0.7286  0.3030
  764MPD2    C511336   2.641   3.841  17.576  0.0303 -0.0396 -0.1442
  764MPD2     H11337   2.283   3.783  17.460 -0.3140  0.7686  0.3670
  764MPD2    H111338   2.606   3.698  17.728  2.9592 -0.0760 -0.8333
  764MPD2    H211339   2.666   3.962  17.401 -1.3448 -0.0066 -1.9916
  764MPD2    H311340   2.743   3.866  17.602 -0.4619  0.4999  1.2449
  764MPD2     N11341   2.345   3.627  17.641  0.2260  0.4871 -0.2931
  764MPD2    H511342   2.257   3.606  17.596 -0.6864  2.1804  0.7011
  764MPD2    N111343   2.412   3.954  17.301 -0.5218  0.1183 -0.3722
  764MPD2    H711344   2.313   3.942  17.281 -0.0092 -0.3381 -2.6242
  765MPD2     C11345   2.037   2.124  16.081  0.2286  0.0863 -0.2475
  765MPD2    C111346   2.038   2.094  15.945 -0.3172 -0.1457  0.5485
  765MPD2    C211347   2.125   1.999  15.900  0.3946  0.0338  0.6229
  765MPD2    C311348   2.213   1.926  15.980 -0.8783 -0.8316 -0.5091
  765MPD2    C411349   2.209   1.953  16.114 -0.3425  0.7596 -0.2312
  765MPD2    C511350   2.121   2.054  16.164 -0.4835 -0.1378 -0.1812
  765MPD2     H11351   2.123   1.963  15.797  1.8281  1.2630  0.1700
  765MPD2    H111352   2.272   1.911  16.191 -0.2772 -1.1976 -1.3685
  765MPD2    H211353   1.971   2.200  16.122 -0.2927 -0.3637 -0.2485
  765MPD2    H311354   2.124   2.085  16.268 -1.2352 -1.6044  0.2792
  765MPD2     N11355   2.299   1.829  15.927  0.0519  0.1516  0.7665
  765MPD2    H511356   2.306   1.819  15.826  2.7786  0.7582  0.8948
  765MPD2    N111357   1.938   2.153  15.868 -0.3830  0.0445 -0.3094
  765MPD2    H711358   1.874   2.214  15.917 -0.4039 -1.8368  1.9899
  766MPD2     C11359   1.420   2.016  15.229  0.6186 -0.2791  0.0192
  766MPD2    C111360   1.557   2.019  15.245 -0.3643  0.1752 -0.5639
  766MPD2    C211361   1.637   1.951  15.157  0.2694  0.3145 -0.5678
  766MPD2    C311362   1.585   1.898  15.037 -1.1480  0.0818  0.4060
  766MPD2    C411363   1.446   1.886  15.028  0.0398 -0.4805 -0.4074
  766MPD2    C511364   1.370   1.952  15.118 -0.1022 -0.7517  0.0096
  766MPD2     H11365   1.744   1.952  15.171  0.3715 -0.6069 -1.2797
  766MPD2    H111366   1.400   1.860  14.933  0.5311 -2.1665 -0.1843
  766MPD2    H211367   1.363   2.082  15.293  1.1518 -0.5623  0.7873
  766MPD2    H311368   1.264   1.963  15.104 -0.0414  0.6059  0.6058
  766MPD2     N11369   1.659   1.839  14.933 -0.4367 -0.0248 -1.0808
  766MPD2    H511370   1.597   1.812  14.857 -1.4895 -0.1414 -0.1911
  766MPD2    N111371   1.622   2.089  15.348 -0.1980 -0.0348  0.1486
  766MPD2    H711372   1.721   2.069  15.360 -0.1415 -0.7426 -1.4981
  767MPD2     C11373   1.208   2.049  14.832  0.6743  0.1590  0.6477
  767MPD2    C111374   1.331   2.076  14.779 -0.4293  0.2890  1.0825
  767MPD2    C211375   1.382   1.988  14.680 -0.0570  0.6372 -0.4557
  767MPD2    C311376   1.309   1.877  14.643 -0.3141  0.3889 -0.2439
  767MPD2    C411377   1.184   1.857  14.698 -0.8227  0.4964  0.5519
  767MPD2    C511378   1.138   1.939  14.795 -0.6143 -0.1105 -0.1431
  767MPD2     H11379   1.485   1.996  14.647  0.0057 -0.4331 -0.5194
  767MPD2    H111380   1.120   1.777  14.662  0.7328 -1.1504  1.4178
  767MPD2    H211381   1.156   2.098  14.914  1.5645  0.8428  0.7985
  767MPD2    H311382   1.046   1.903  14.839 -0.3258  2.7409  2.8287
  767MPD2     N11383   1.367   1.793  14.546  0.0995  0.2531  0.6315
  767MPD2    H511384   1.460   1.814  14.512 -0.4796 -2.1554 -2.4230
  767MPD2    N111385   1.392   2.191  14.830 -0.0589  0.7979  0.5737
  767MPD2    H711386   1.333   2.249  14.890 -0.2463  1.6812 -0.4748
  768MPD2     C11387   2.119   0.206  10.572 -0.1339 -0.0896  0.5921
  768MPD2    C111388   2.083   0.114  10.664 -0.8867  0.1125  0.0569
  768MPD2    C211389   2.168   0.087  10.771 -0.6251  0.0895  0.3815
  768MPD2    C311390   2.287   0.159  10.784  0.1564  0.0103 -0.4909
  768MPD2    C411391   2.324   0.248  10.682  0.0603  0.7035 -0.1411
  768MPD2    C511392   2.246   0.273  10.575  0.6327 -0.3108  0.8660
  768MPD2     H11393   2.127   0.014  10.840 -2.3500  0.6182 -0.1059
  768MPD2    H111394   2.425   0.287  10.671  0.2714  0.3689  0.6235
  768MPD2    H211395   2.049   0.250  10.502  0.4985 -0.7878 -0.4988
  768MPD2    H311396   2.274   0.339  10.494 -0.4478 -2.0993 -0.9840
  768MPD2     N11397   2.381   0.133  10.881  0.3365  0.6154 -0.2595
  768MPD2    H511398   2.462   0.192  10.897  0.0822  0.1623  2.6714
  768MPD2    N111399   1.951   0.058  10.676 -0.1799  0.2454  0.5165
  768MPD2    H711400   1.940   4.742  10.758  0.2337 -0.0984  0.3282
  769MPD2     C11401   3.270   3.115  14.386  0.6060 -0.1924  0.1469
  769MPD2    C111402   3.149   3.135  14.438 -0.0532 -0.2505 -0.8817
  769MPD2    C211403   3.130   3.125  14.575 -1.3394 -0.3040  0.3013
  769MPD2    C311404   3.243   3.118  14.660 -0.7286 -0.0487 -0.9660
  769MPD2    C411405   3.371   3.109  14.605 -0.0311  0.2715 -0.0909
  769MPD2    C511406   3.384   3.110  14.471 -0.5706 -0.4194 -0.0778
  769MPD2     H11407   3.031   3.130  14.619 -1.4571  0.5004 -0.0727
  769MPD2    H111408   3.465   3.115  14.659  0.7252  0.6777 -1.4579
  769MPD2    H211409   3.282   3.123  14.279 -1.0472  0.4447  0.0142
  769MPD2    H311410   3.485   3.113  14.431 -1.0773 -2.0014 -1.4873
  769MPD2     N11411   3.219   3.128  14.796 -0.6095  0.6356 -0.9113
  769MPD2    H511412   3.121   3.144  14.817 -0.3416 -1.0333  1.5858
  769MPD2    N111413   3.046   3.166  14.344 -0.6813  0.0016  0.0311
  769MPD2    H711414   3.079   3.190  14.251 -1.0969  1.5681  0.2850
  770MPD2     C11415   2.326   3.049  14.740  0.1613  0.7527 -0.1093
  770MPD2    C111416   2.461   3.043  14.742 -0.6034 -0.0256  0.1195
  770MPD2    C211417   2.531   3.111  14.645 -0.0062  0.0471 -0.1288
  770MPD2    C311418   2.460   3.178  14.542  0.9220 -0.3001  0.0356
  770MPD2    C411419   2.320   3.176  14.539  0.3945 -0.3431  0.4937
  770MPD2    C511420   2.257   3.124  14.644 -0.2042  0.8461  0.5813
  770MPD2     H11421   2.639   3.108  14.635 -0.0371 -1.4394 -0.0563
  770MPD2    H111422   2.262   3.233  14.467 -2.7917  0.2297  3.5204
  770MPD2    H211423   2.272   2.990  14.814 -1.3092  0.0542 -1.7361
  770MPD2    H311424   2.149   3.130  14.646 -0.1619  1.4040  1.1475
  770MPD2     N11425   2.548   3.249  14.460 -0.4460  0.5477 -0.2868
  770MPD2    H511426   2.647   3.238  14.475 -0.1843  3.2830  0.0259
  770MPD2    N111427   2.519   2.967  14.845 -0.4177  0.4475 -0.1197
  770MPD2    H711428   2.453   2.910  14.898 -0.8556  0.2854 -0.8389
  771MPD2     C11429   3.819   0.920  13.484  0.0448  0.1976 -0.0255
  771MPD2    C111430   3.722   1.017  13.465  1.3243  0.2400 -0.5226
  771MPD2    C211431   3.599   0.980  13.421 -0.4019  0.5418  0.0413
  771MPD2    C311432   3.563   0.848  13.414  0.5241 -0.3546  0.0966
  771MPD2    C411433   3.653   0.750  13.455  0.7322  0.3948 -0.5185
  771MPD2    C511434   3.780   0.787  13.475  0.0945  0.2642 -0.5984
  771MPD2     H11435   3.534   1.055  13.379 -1.0466 -1.4915 -2.5711
  771MPD2    H111436   3.623   0.646  13.464  1.6925  0.1614 -0.0357
  771MPD2    H211437   3.917   0.943  13.525 -1.2432  0.5103  2.8543
  771MPD2    H311438   3.849   0.710  13.508 -0.3629 -1.1755 -3.0106
  771MPD2     N11439   3.429   0.812  13.369 -0.0373 -0.1049 -0.0267
  771MPD2    H511440   3.376   0.891  13.333  0.5018 -0.0692 -0.7420
  771MPD2    N111441   3.746   1.155  13.493  0.2042  0.1036  0.0586
  771MPD2    H711442   3.662   1.210  13.486 -0.7850 -1.3489  0.5229
  772MPD2     C11443   3.351   1.683  13.766  0.0022  0.5780  0.3415
  772MPD2    C111444   3.364   1.556  13.699 -0.2372  0.3476  0.9086
  772MPD2    C211445   3.264   1.461  13.704  0.0675 -0.2019 -0.0348
  772MPD2    C311446   3.139   1.489  13.767  0.1689  0.3687 -0.0090
  772MPD2    C411447   3.128   1.607  13.827  0.1152 -0.1349 -0.6264
  772MPD2    C511448   3.230   1.699  13.830  0.2746 -0.3594  0.2361
  772MPD2     H11449   3.281   1.370  13.648  1.1872  0.5112 -0.8643
  772MPD2    H111450   3.032   1.632  13.870 -0.6917 -1.5391 -1.6363
  772MPD2    H211451   3.438   1.747  13.773  0.2218  0.3815 -0.5421
  772MPD2    H311452   3.193   1.787  13.881 -0.2657 -1.4772  1.7677
  772MPD2     N11453   3.031   1.398  13.763  0.7220  0.2034 -0.1148
  772MPD2    H511454   2.939   1.436  13.785 -0.2500 -2.6648  0.6697
  772MPD2    N111455   3.490   1.515  13.639 -0.1874 -0.6676  0.1217
  772MPD2    H711456   3.503   1.415  13.628  1.6992 -0.2323 -1.4656
  773MPD2     C11457   3.037   2.632   0.270 -0.2308  0.1955  0.2898
  773MPD2    C111458   2.955   2.539   0.203  0.1379 -0.2062  0.7032
  773MPD2    C211459   2.975   2.404   0.227 -0.5338  0.0551 -0.7944
  773MPD2    C311460   3.078   2.363   0.307 -0.4482 -1.1235 -0.3278
  773MPD2    C411461   3.154   2.461   0.376  0.6763 -1.0640 -0.1495
  773MPD2    C511462   3.128   2.587   0.359  0.7883 -0.2980  0.0375
  773MPD2     H11463   2.912   2.331   0.176 -1.4339 -0.8627  1.6673
  773MPD2    H111464   3.237   2.432   0.439  1.7258 -0.2575 -1.1750
  773MPD2    H211465   3.023   2.739   0.258 -0.3515 -0.1084 -2.3044
  773MPD2    H311466   3.194   2.658   0.407  0.2262  0.1313  0.1788
  773MPD2     N11467   3.095   2.222   0.326 -0.0367  0.6575  0.5358
  773MPD2    H511468   3.043   2.157   0.269 -0.3431  0.3582  1.1633
  773MPD2    N111469   2.854   2.579   0.105 -0.8112  0.2883 -0.2690
  773MPD2    H711470   2.799   2.498   0.080 -0.7029 -0.5138  2.0783
  774MPD2     C11471   2.234   1.356  13.019 -0.1065 -0.0209  0.0064
  774MPD2    C111472   2.138   1.405  13.104  0.6574 -0.4595  0.8240
  774MPD2    C211473   2.157   1.525  13.157 -0.2844  0.0697 -0.3845
  774MPD2    C311474   2.274   1.599  13.131 -0.2387 -0.8745 -0.0503
  774MPD2    C411475   2.371   1.544  13.060  0.0260  0.2659 -0.3448
  774MPD2    C511476   2.342   1.432  12.995  0.1677 -0.3916 -0.2987
  774MPD2     H11477   2.079   1.570  13.218  0.5903  1.4192 -0.2559
  774MPD2    H111478   2.465   1.596  13.039  0.7647 -1.6490 -1.8008
  774MPD2    H211479   2.217   1.266  12.961 -0.1371 -0.3180  0.4838
  774MPD2    H311480   2.408   1.391  12.920  1.8514  2.5443 -0.4210
  774MPD2     N11481   2.278   1.731  13.175  0.1374 -0.7313 -0.3043
  774MPD2    H511482   2.193   1.765  13.220  1.1519 -0.5686  1.4933
  774MPD2    N111483   2.022   1.338  13.144  0.4745  0.1331  0.3560
  774MPD2    H711484   1.974   1.374  13.226 -1.8432 -2.9793  0.3744
  775MPD2     C11485   3.517   2.973  15.465 -0.4959 -0.3125 -0.0107
  775MPD2    C111486   3.570   3.054  15.561  0.2527  0.2913 -0.0550
  775MPD2    C211487   3.637   3.169  15.533 -0.0891 -0.3714  0.6746
  775MPD2    C311488   3.669   3.201  15.402 -0.3041  0.2484  0.3778
  775MPD2    C411489   3.632   3.107  15.303 -0.7010 -0.0406  0.4072
  775MPD2    C511490   3.561   2.998  15.336 -0.5759  0.1463 -0.1295
  775MPD2     H11491   3.662   3.231  15.618  1.4316 -1.2842  0.8950
  775MPD2    H111492   3.663   3.136  15.203 -0.5855  0.9479  0.7251
  775MPD2    H211493   3.456   2.887  15.490 -2.1897  0.3321 -1.9243
  775MPD2    H311494   3.532   2.927  15.260  0.7411  0.7015 -1.1452
  775MPD2     N11495   3.739   3.316  15.359  0.3493 -0.5920  0.5569
  775MPD2    H511496   3.752   3.324  15.259  0.7577  0.1663  0.6667
  775MPD2    N111497   3.528   3.028  15.696  0.5015 -0.8447 -0.1730
  775MPD2    H711498   3.451   2.962  15.703 -1.4416  1.3438 -0.8577
  776MPD2     C11499   2.266   3.172  11.813 -0.1640 -0.2426  0.2901
  776MPD2    C111500   2.176   3.240  11.743  0.4194  0.8400 -0.2772
  776MPD2    C211501   2.184   3.377  11.716  0.2379  0.1994  0.0146
  776MPD2    C311502   2.296   3.448  11.752 -0.3044 -0.1927 -0.1342
  776MPD2    C411503   2.399   3.373  11.813  0.3443 -0.3210 -0.5840
  776MPD2    C511504   2.381   3.235  11.838 -1.3410 -0.2896  0.1720
  776MPD2     H11505   2.094   3.429  11.683  0.5139 -0.3005 -1.4926
  776MPD2    H111506   2.491   3.427  11.829 -0.4254  0.4939  1.1090
  776MPD2    H211507   2.260   3.064  11.825  1.9538 -0.2126  1.5839
  776MPD2    H311508   2.463   3.178  11.880  0.0298 -0.8752 -3.3129
  776MPD2     N11509   2.320   3.585  11.732 -0.4110  0.6159 -0.8916
  776MPD2    H511510   2.407   3.631  11.754  0.4244 -0.8496 -1.1306
  776MPD2    N111511   2.063   3.176  11.704 -0.1508 -0.4183  0.2086
  776MPD2    H711512   2.033   3.090  11.750  0.0301 -1.0659 -0.8964
  777MPD2     C11513   2.606   1.078   0.666 -0.2774 -0.2329  1.2596
  777MPD2    C111514   2.684   0.972   0.711 -0.5513 -0.4054  0.0663
  777MPD2    C211515   2.679   0.850   0.644  0.3110  0.2411  1.0256
  777MPD2    C311516   2.596   0.834   0.529  1.2013 -0.1360 -0.2104
  777MPD2    C411517   2.513   0.936   0.492  0.1030  0.1242  0.5466
  777MPD2    C511518   2.527   1.058   0.555 -0.0020  0.5438 -0.3256
  777MPD2     H11519   2.736   0.763   0.674  1.4097  0.4372 -0.4905
  777MPD2    H111520   2.437   0.931   0.415  1.6962  2.3378 -1.1476
  777MPD2    H211521   2.610   1.181   0.700 -0.1276  0.2827 -0.3482
  777MPD2    H311522   2.471   1.139   0.510  0.3662  0.5397 -0.7861
  777MPD2     N11523   2.590   0.700   0.478 -0.2865 -0.6074 -0.1054
  777MPD2    H511524   2.644   0.624   0.519 -0.6184 -0.9299 -0.2591
  777MPD2    N111525   2.767   0.996   0.823  0.4280 -0.0572 -0.1329
  777MPD2    H711526   2.755   1.087   0.867 -0.2077 -0.1497 -0.1092
  778MPD2     C11527   4.093   1.604  14.829  0.1585 -0.3997 -0.7436
  778MPD2    C111528   4.115   1.477  14.780  0.0029  0.2780  0.0455
  778MPD2    C211529   4.199   1.469  14.675 -0.1564  0.4024  0.2887
  778MPD2    C311530   4.283   1.577  14.640  0.1715  0.8394  0.2699
  778MPD2    C411531   4.261   1.700  14.690 -0.2897  0.0560 -0.5433
  778MPD2    C511532   4.161   1.715  14.784 -0.8725  0.9021 -0.7562
  778MPD2     H11533   4.223   1.369  14.643  2.0299  0.2505  2.4277
  778MPD2    H111534   4.326   1.784  14.665  1.2375 -0.9739 -0.0718
  778MPD2    H211535   4.021   1.620  14.909 -0.0760 -2.0634 -0.6234
  778MPD2    H311536   4.129   1.806  14.834 -4.6461  0.3432 -2.1471
  778MPD2     N11537   4.384   1.553  14.546  0.2530  0.2088  0.1055
  778MPD2    H511538   4.415   1.457  14.532 -0.7133 -0.0603 -0.2289
  778MPD2    N111539   4.053   1.365  14.836  0.0967  0.2818 -0.7497
  778MPD2    H711540   4.073   1.275  14.793 -2.1930  0.2627 -1.7480
  779MPD2     C11541   3.499   4.677  13.828 -0.3329  0.2591  0.4652
  779MPD2    C111542   3.592   4.707  13.923  0.2374 -0.5722 -0.2593
  779MPD2    C211543   3.644   0.087  13.926  0.3343  0.0898 -0.5782
  779MPD2    C311544   3.589   0.191  13.851 -0.3328 -0.3618  0.5865
  779MPD2    C411545   3.500   0.159  13.754 -0.8573  0.6291  0.5526
  779MPD2    C511546   3.450   0.034  13.749  0.3496  0.5037  0.3267
  779MPD2     H11547   3.724   0.110  13.995 -0.0684  0.4619 -0.2351
  779MPD2    H111548   3.462   0.236  13.688 -1.7834 -0.6872 -0.4556
  779MPD2    H211549   3.461   4.575  13.824 -1.1551  0.5487  0.7376
  779MPD2    H311550   3.382   0.003  13.671 -1.6738 -0.3681  2.4227
  779MPD2     N11551   3.632   0.322  13.877  0.1680 -0.0594  0.1340
  779MPD2    H511552   3.706   0.330  13.946  0.8751 -0.8762 -0.5246
  779MPD2    N111553   3.644   4.601  13.997 -0.0435  0.7848  0.1877
  779MPD2    H711554   3.580   4.523  14.009 -0.8417  1.7175  2.0672
  780MPD2     C11555   3.369   4.621   1.040 -0.0713 -0.2991  0.9125
  780MPD2    C111556   3.319   4.542   0.939 -0.2282 -0.3248  0.2583
  780MPD2    C211557   3.351   4.569   0.803 -0.0300  0.2215  0.1377
  780MPD2    C311558   3.451   4.668   0.775 -0.8130  0.3988 -0.2139
  780MPD2    C411559   3.499   0.003   0.883  0.6177  0.7840  0.2108
  780MPD2    C511560   3.454   4.728   1.011 -0.3949 -0.2811 -0.5198
  780MPD2     H11561   3.308   4.514   0.720  0.7679 -1.8851  1.1066
  780MPD2    H111562   3.566   0.087   0.867  1.6973 -0.0013  0.5605
  780MPD2    H211563   3.350   4.598   1.144  0.5024  0.0000  1.0788
  780MPD2    H311564   3.478   0.050   1.095 -2.4320  3.7268 -3.0377
  780MPD2     N11565   3.476   4.689   0.639 -0.4548 -0.2341 -0.5849
  780MPD2    H511566   3.431   4.633   0.567  2.6235 -0.9993 -1.9226
  780MPD2    N111567   3.234   4.432   0.958 -0.5379 -0.5160 -0.2077
  780MPD2    H711568   3.193   4.388   0.876 -2.5275  0.6524  0.1338
  781MPD2     C11569   4.621   1.267  11.707 -0.0861 -0.2539 -0.0831
  781MPD2    C111570   4.706   1.311  11.809  0.1998  0.0273  0.7008
  781MPD2    C211571   0.097   1.268  11.805  0.6344  0.2774 -0.7702
  781MPD2    C311572   0.148   1.200  11.698  0.8966 -0.1724  0.1136
  781MPD2    C411573   0.059   1.160  11.604  0.7396 -0.1997 -0.6471
  781MPD2    C511574   4.669   1.197  11.602  0.2262  0.5803  0.8933
  781MPD2     H11575   0.158   1.308  11.885 -0.7585  3.3838 -1.2569
  781MPD2    H111576   0.107   1.098  11.530  0.2372  0.5191 -1.5836
  781MPD2    H211577   4.513   1.275  11.710  0.0300  1.2561  0.1186
  781MPD2    H311578   4.609   1.187  11.513  1.8763  2.7210 -0.4398
  781MPD2     N11579   0.277   1.147  11.689 -0.0898 -0.7332  0.2938
  781MPD2    H511580   0.296   1.077  11.618 -0.4101 -0.1214 -0.3932
  781MPD2    N111581   4.639   1.377  11.916  0.7179 -0.0158  0.0559
  781MPD2    H711582   4.538   1.364  11.911  0.8793 -1.9609  1.8170
  782MPD2     C11583   2.251   2.620   9.778  0.1279  0.3534 -0.2765
  782MPD2    C111584   2.381   2.622   9.837 -0.0413  0.2483  0.5028
  782MPD2    C211585   2.431   2.744   9.886  0.2503  0.2673 -0.1656
  782MPD2    C311586   2.359   2.858   9.887 -0.0280  0.3648 -0.2852
  782MPD2    C411587   2.232   2.856   9.837  0.5045 -0.1331 -0.0390
  782MPD2    C511588   2.172   2.739   9.782  0.1431  0.0285 -0.1540
  782MPD2     H11589   2.530   2.748   9.929 -0.0730 -0.4243  0.6358
  782MPD2    H111590   2.172   2.946   9.847  0.3030 -0.0728 -1.7320
  782MPD2    H211591   2.224   2.530   9.725 -0.2656  0.8345 -0.8876
  782MPD2    H311592   2.078   2.732   9.729 -0.6487 -1.2276  1.3838
  782MPD2     N11593   2.398   2.975   9.962 -0.2392 -0.0367 -0.2718
  782MPD2    H511594   2.329   3.048   9.965 -1.0174 -0.7955  0.2044
  782MPD2    N111595   2.454   2.497   9.850 -0.8588 -0.0525  0.6392
  782MPD2    H711596   2.407   2.407   9.850 -0.5182 -0.2401 -1.0379
  783MPD2     C11597   1.964   2.100  10.350 -0.1637 -0.5613 -0.3154
  783MPD2    C111598   2.076   2.133  10.428  0.0058 -0.4748 -0.2158
  783MPD2    C211599   2.191   2.163  10.358 -0.5334  0.2619  0.0519
  783MPD2    C311600   2.195   2.154  10.216 -0.5097 -0.0348 -0.3154
  783MPD2    C411601   2.083   2.127  10.146  0.0091  0.2356 -0.1434
  783MPD2    C511602   1.967   2.105  10.215 -0.0801 -0.3954  0.4218
  783MPD2     H11603   2.285   2.180  10.410 -1.4965  1.5887  1.3447
  783MPD2    H111604   2.085   2.135  10.038  1.0894 -0.6575 -0.1898
  783MPD2    H211605   1.870   2.073  10.396 -0.2649  1.7310  0.8609
  783MPD2    H311606   1.877   2.082  10.160 -0.5229 -1.3984  1.5652
  783MPD2     N11607   2.306   2.194  10.143  0.3127 -0.3598 -0.1098
  783MPD2    H511608   2.285   2.212  10.045  0.5396  1.0050  0.0982
  783MPD2    N111609   2.055   2.140  10.569 -0.3062  0.1057  0.8256
  783MPD2    H711610   1.972   2.101  10.613  0.5396 -0.4901  1.8865
  784MPD2     C11611   0.953   2.879   0.578  0.1278  0.4209  0.0303
  784MPD2    C111612   0.944   2.960   0.696 -0.1091 -0.5920 -0.3241
  784MPD2    C211613   0.835   3.041   0.712  0.7701 -0.0218  0.0181
  784MPD2    C311614   0.734   3.047   0.615  0.0320 -0.1209  0.3931
  784MPD2    C411615   0.748   2.969   0.504  0.0324  0.2009 -0.0413
  784MPD2    C511616   0.852   2.884   0.489 -0.1628  0.1780 -0.1127
  784MPD2     H11617   0.846   3.112   0.793  0.5024  1.4131 -1.2048
  784MPD2    H111618   0.676   2.964   0.423  0.3718  0.7098 -0.3726
  784MPD2    H211619   1.041   2.816   0.570  0.0835  0.4575 -0.7316
  784MPD2    H311620   0.866   2.818   0.405 -1.4712 -0.2385 -0.0052
  784MPD2     N11621   0.623   3.129   0.645 -0.5017  0.1627  0.7397
  784MPD2    H511622   0.618   3.182   0.731 -0.5602 -0.6588  1.2481
  784MPD2    N111623   1.043   2.963   0.793 -0.0910  0.8338 -0.3603
  784MPD2    H711624   1.026   3.030   0.868  1.2140  1.4151 -0.5859
  785MPD2     C11625   0.737   1.142  11.398 -0.2523 -0.4922 -0.1033
  785MPD2    C111626   0.601   1.173  11.397  0.1089 -0.4625 -0.3558
  785MPD2    C211627   0.521   1.081  11.328  0.1007 -0.3587  0.1705
  785MPD2    C311628   0.565   0.959  11.283  0.2344 -0.1378  0.9247
  785MPD2    C411629   0.696   0.928  11.296 -1.4746  0.2007 -0.3061
  785MPD2    C511630   0.779   1.020  11.354 -0.0302 -0.6968  0.2060
  785MPD2     H11631   0.415   1.099  11.314 -0.0885  0.4082  2.5922
  785MPD2    H111632   0.739   0.833  11.266 -0.7985  1.1879 -2.4947
  785MPD2    H211633   0.802   1.225  11.426 -0.6912  0.8181 -3.0219
  785MPD2    H311634   0.885   0.998  11.355  0.2136  0.5466  1.0204
  785MPD2     N11635   0.474   0.882  11.207  0.5041  0.1968  0.0342
  785MPD2    H511636   0.377   0.905  11.228  0.9707  2.9028 -0.7574
  785MPD2    N111637   0.557   1.301  11.445  0.1826 -0.3048 -0.1485
  785MPD2    H711638   0.614   1.379  11.477  1.1737 -1.2149  0.3083
  786MPD2     C11639   3.867   4.054  14.415  0.5272 -0.0121 -0.0042
  786MPD2    C111640   3.991   4.003  14.396 -0.0871  0.2860 -0.1767
  786MPD2    C211641   4.080   4.015  14.504  0.5437 -0.3132 -0.2882
  786MPD2    C311642   4.042   4.067  14.631  0.5313 -0.3237 -0.3643
  786MPD2    C411643   3.919   4.129  14.638 -0.4847  0.2259  0.4505
  786MPD2    C511644   3.834   4.117  14.528  0.7091  0.2985 -0.4485
  786MPD2     H11645   4.175   3.965  14.489  0.1625 -0.7723 -1.1414
  786MPD2    H111646   3.878   4.164  14.733  1.1527  0.3912  1.0854
  786MPD2    H211647   3.794   4.057  14.334  1.8278 -0.5046 -1.1991
  786MPD2    H311648   3.739   4.165  14.550  0.4538 -1.5168  2.4817
  786MPD2     N11649   4.121   4.062  14.745  0.1067  0.4219 -0.0965
  786MPD2    H511650   4.077   4.070  14.836  0.6290  1.0830  0.0975
  786MPD2    N111651   4.043   3.933  14.283 -0.6422 -0.2815  0.2566
  786MPD2    H711652   4.140   3.906  14.274 -0.5299 -0.1229  0.9638
  787MPD2     C11653   4.156   3.178  14.197 -0.3905 -0.3199 -0.0798
  787MPD2    C111654   4.242   3.286  14.200 -0.5326  0.2789  0.5329
  787MPD2    C211655   4.355   3.272  14.278 -0.4534  0.3590  0.4986
  787MPD2    C311656   4.385   3.160  14.352 -0.3559 -0.2692  0.1438
  787MPD2    C411657   4.292   3.061  14.356 -0.5390 -0.0221 -0.0422
  787MPD2    C511658   4.178   3.066  14.278 -0.7665  0.1566 -0.4825
  787MPD2     H11659   4.428   3.352  14.276 -1.7196  1.4881 -0.3638
  787MPD2    H111660   4.321   2.972  14.411  0.7997  1.4011  1.5496
  787MPD2    H211661   4.073   3.176  14.128 -1.3877 -1.0739  1.1266
  787MPD2    H311662   4.102   2.990  14.263 -1.2480  0.4839  0.3207
  787MPD2     N11663   4.511   3.153  14.407  1.1713 -0.0142 -0.1750
  787MPD2    H511664   4.571   3.230  14.380  1.5975 -1.4162 -3.2649
  787MPD2    N111665   4.204   3.401  14.128 -0.7711  0.0148 -0.5431
  787MPD2    H711666   4.113   3.399  14.082  0.4968  2.8200 -3.1744
  788MPD2     C11667   1.863   2.593   0.970 -0.8084  0.0522 -0.6485
  788MPD2    C111668   1.860   2.525   0.850 -0.3891  0.4662  0.2142
  788MPD2    C211669   1.894   2.603   0.735  0.0378 -0.0527  0.3812
  788MPD2    C311670   1.929   2.737   0.738 -0.2801 -0.2843  0.0096
  788MPD2    C411671   1.920   2.797   0.859  0.2480  0.2038 -0.4710
  788MPD2    C511672   1.895   2.723   0.975  1.0103  0.5410  0.0355
  788MPD2     H11673   1.882   2.556   0.638 -0.8168  2.2475 -0.6127
  788MPD2    H111674   1.934   2.905   0.869  1.5150  0.0391 -0.4740
  788MPD2    H211675   1.821   2.548   1.060  0.4055  2.8342  1.3013
  788MPD2    H311676   1.890   2.770   1.072  0.2063 -1.5394  0.9950
  788MPD2     N11677   1.962   2.814   0.627  0.5285 -0.3031 -0.1756
  788MPD2    H511678   1.969   2.915   0.629 -2.0035 -0.1234 -0.5204
  788MPD2    N111679   1.826   2.389   0.841 -0.8460 -0.1095 -0.1433
  788MPD2    H711680   1.816   2.348   0.749  1.7213 -0.1316 -0.3963
  789MPD2     C11681   1.819   1.978  16.515  0.1303 -0.1933  0.0486
  789MPD2    C111682   1.711   1.950  16.438 -0.6610 -0.5487  0.3093
  789MPD2    C211683   1.583   1.965  16.487 -0.5317  0.5253 -0.1563
  789MPD2    C311684   1.565   2.027  16.618  0.2151  0.0152  0.1646
  789MPD2    C411685   1.681   2.046  16.696 -0.3304  0.7571 -0.6707
  789MPD2    C511686   1.807   2.022  16.640 -0.4146 -0.5145  0.1380
  789MPD2     H11687   1.501   1.941  16.420 -0.4266  0.4488 -0.2566
  789MPD2    H111688   1.672   2.080  16.799  0.3762 -2.2744  0.3811
  789MPD2    H211689   1.921   1.978  16.477  0.6359 -0.1759  1.4175
  789MPD2    H311690   1.896   2.052  16.694 -1.2001 -0.6658  1.5157
  789MPD2     N11691   1.444   2.063  16.669 -0.1760  0.1304 -0.3128
  789MPD2    H511692   1.439   2.112  16.758 -1.6276 -0.2540 -0.1812
  789MPD2    N111693   1.728   1.902  16.312  0.3448 -0.8135 -0.4309
  789MPD2    H711694   1.643   1.887  16.259  0.6369 -1.2730 -0.7692
  790MPD2     C11695   2.512   4.071  13.073  0.4800 -0.2178  0.6790
  790MPD2    C111696   2.588   3.972  13.134 -0.2171 -0.5797  0.2959
  790MPD2    C211697   2.556   3.834  13.110  0.3181  0.3035  0.5681
  790MPD2    C311698   2.449   3.805  13.028  0.1109  0.2566  1.1300
  790MPD2    C411699   2.366   3.907  12.979 -0.2672  0.5326  0.6604
  790MPD2    C511700   2.401   4.034  12.999  0.8384  0.3144 -0.8921
  790MPD2     H11701   2.615   3.754  13.153 -0.6502 -1.1316 -0.7862
  790MPD2    H111702   2.275   3.888  12.922 -0.6535  1.1500  1.0735
  790MPD2    H211703   2.522   4.178  13.086  0.1564  0.3096 -3.4395
  790MPD2    H311704   2.339   4.108  12.950 -1.3720 -1.0634 -0.1854
  790MPD2     N11705   2.413   3.674  13.013 -0.3488  0.2266  0.1720
  790MPD2    H511706   2.472   3.609  13.064 -0.6871  1.6809  2.4033
  790MPD2    N111707   2.683   4.014  13.234 -0.0580 -0.1318  0.5754
  790MPD2    H711708   2.682   4.115  13.250 -1.8226 -0.1377  0.5100
  791MPD2     C11709   1.757   3.517  12.727  0.0026  0.0649 -0.1949
  791MPD2    C111710   1.794   3.388  12.761  0.1589 -0.0921 -0.4456
  791MPD2    C211711   1.709   3.282  12.741  0.1099 -0.1940 -0.2088
  791MPD2    C311712   1.587   3.297  12.673  0.1452  0.0416  0.1427
  791MPD2    C411713   1.555   3.427  12.636 -0.3411  0.9225 -0.3970
  791MPD2    C511714   1.635   3.534  12.668  0.3026 -0.4061 -0.3788
  791MPD2     H11715   1.744   3.182  12.766 -0.9393 -0.1284  1.5306
  791MPD2    H111716   1.456   3.438  12.593 -0.2817  1.4784 -0.3910
  791MPD2    H211717   1.816   3.606  12.742 -1.2666  0.7444  0.7186
  791MPD2    H311718   1.607   3.635  12.638  0.3305  0.0261  1.0860
  791MPD2     N11719   1.498   3.185  12.665 -0.0375  0.5607 -0.9269
  791MPD2    H511720   1.536   3.098  12.700  0.5596  1.4292  0.5916
  791MPD2    N111721   1.922   3.373  12.832 -0.6229 -0.2380 -0.1315
  791MPD2    H711722   1.979   3.457  12.841 -1.5218  0.0559  2.7011
  792MPD2     C11723   2.540   3.559  11.331  0.2342  0.5518  0.1754
  792MPD2    C111724   2.462   3.627  11.239 -0.9933 -0.3262  0.5766
  792MPD2    C211725   2.323   3.623  11.233 -0.2051 -0.1589  0.1116
  792MPD2    C311726   2.256   3.538  11.318  0.5365 -0.5759  0.1616
  792MPD2    C411727   2.331   3.452  11.402  0.4416  0.3901 -0.2712
  792MPD2    C511728   2.469   3.468  11.411  0.2625 -1.4755 -0.3411
  792MPD2     H11729   2.276   3.692  11.164 -0.3885  0.7534  1.1312
  792MPD2    H111730   2.285   3.372  11.459 -0.8672  0.5221 -1.1276
  792MPD2    H211731   2.648   3.555  11.326  0.2691  0.1767  1.1938
  792MPD2    H311732   2.519   3.400  11.479  0.5050 -0.7390  0.2170
  792MPD2     N11733   2.117   3.524  11.333  0.8574  0.6221  0.4154
  792MPD2    H511734   2.090   3.449  11.396 -0.3921  0.6426 -0.0983
  792MPD2    N111735   2.540   3.698  11.140 -0.0951  0.2832  0.5122
  792MPD2    H711736   2.640   3.699  11.151  0.1245  2.0799 -1.6998
  793MPD2     C11737   1.610   3.296  10.610  0.7002 -0.1801 -0.3507
  793MPD2    C111738   1.601   3.439  10.604 -0.9612 -0.1545 -0.5164
  793MPD2    C211739   1.629   3.511  10.716 -0.4806 -0.6637 -0.1767
  793MPD2    C311740   1.662   3.448  10.833 -0.7876 -0.2780  0.0683
  793MPD2    C411741   1.670   3.312  10.840  0.4328 -0.7021  0.4194
  793MPD2    C511742   1.648   3.239  10.728  0.0174 -0.3746  0.6699
  793MPD2     H11743   1.627   3.620  10.714  0.1234 -0.6316  0.6357
  793MPD2    H111744   1.696   3.255  10.928  0.5164 -1.6673 -0.2348
  793MPD2    H211745   1.605   3.233  10.522 -1.3113 -0.4533 -0.0482
  793MPD2    H311746   1.658   3.131  10.735  0.0232 -0.4967 -1.2813
  793MPD2     N11747   1.674   3.526  10.950 -0.2310 -0.4501 -0.5512
  793MPD2    H511748   1.675   3.628  10.948 -0.4704 -0.4385 -0.2164
  793MPD2    N111749   1.569   3.507  10.486 -0.0986  0.5310  0.0746
  793MPD2    H711750   1.573   3.608  10.489  2.9951  0.4516 -1.1539
  794MPD2     C11751   2.522   2.479  17.142  0.4199 -0.1639  0.3975
  794MPD2    C111752   2.534   2.604  17.198  0.0144  0.1073  0.3061
  794MPD2    C211753   2.520   2.715  17.115  0.3668  0.2026 -0.3150
  794MPD2    C311754   2.494   2.697  16.978 -0.5499  0.4489 -0.1476
  794MPD2    C411755   2.494   2.570  16.924 -0.9450 -0.1238  0.3252
  794MPD2    C511756   2.517   2.464  17.006 -0.3197 -1.0106 -0.3449
  794MPD2     H11757   2.542   2.814  17.151 -2.1818  0.6380  0.0886
  794MPD2    H111758   2.476   2.559  16.817  0.9258  1.3585 -0.1569
  794MPD2    H211759   2.535   2.391  17.205 -1.2130 -1.1459 -0.6637
  794MPD2    H311760   2.501   2.363  16.970  1.6756 -2.1268  1.8779
  794MPD2     N11761   2.462   2.800  16.884  0.3369  0.3840 -0.4968
  794MPD2    H511762   2.456   2.777  16.785  2.8555  2.4352 -1.1138
  794MPD2    N111763   2.555   2.608  17.341  0.1395  0.0570  0.5978
  794MPD2    H711764   2.539   2.521  17.391 -1.1773 -0.6017 -1.0134
  795MPD2     C11765   0.062   0.342  13.412 -0.0920  0.4572 -0.0905
  795MPD2    C111766   4.735   0.248  13.478 -0.2494  0.1678  0.0882
  795MPD2    C211767   0.067   0.139  13.524 -0.2793 -0.0258  0.4233
  795MPD2    C311768   0.199   0.120  13.501  0.1223 -1.0102 -0.0793
  795MPD2    C411769   0.266   0.214  13.419  0.4297 -0.3395 -1.0174
  795MPD2    C511770   0.198   0.324  13.382 -0.6464  0.0589 -0.7795
  795MPD2     H11771   0.021   0.070  13.595 -1.1143 -0.6503 -0.7198
  795MPD2    H111772   0.373   0.205  13.406  1.0765  1.9909  2.7286
  795MPD2    H211773   0.017   0.425  13.360  2.3420  1.7457 -0.1664
  795MPD2    H311774   0.240   0.400  13.317 -0.5008 -0.9717 -1.9030
  795MPD2     N11775   0.261   0.007  13.562  0.4082  0.6301 -0.2643
  795MPD2    H511776   0.213   4.689  13.627 -0.2562  0.5637 -0.8222
  795MPD2    N111777   4.597   0.256  13.514  0.5505 -0.1957  0.1868
  795MPD2    H711778   4.571   0.188  13.585 -0.7311 -0.6157 -0.6908
  796MPD2     C11779   4.624   1.690  15.844  0.2956  0.1501  0.7100
  796MPD2    C111780   4.698   1.775  15.913 -0.3031  0.4170  0.7445
  796MPD2    C211781   4.682   1.910  15.889 -0.0810 -0.1250  0.0747
  796MPD2    C311782   4.582   1.965  15.811 -0.2186  0.1387 -1.1047
  796MPD2    C411783   4.501   1.871  15.750  0.2411 -0.0000  0.2577
  796MPD2    C511784   4.526   1.735  15.757 -0.6311 -0.1206  0.1015
  796MPD2     H11785   0.001   1.983  15.939 -1.5381  1.0569  0.1488
  796MPD2    H111786   4.421   1.904  15.684  1.2298 -0.9181 -1.4005
  796MPD2    H211787   4.643   1.584  15.846 -0.2601 -0.0182 -2.1371
  796MPD2    H311788   4.459   1.665  15.708 -2.1680  1.3838  0.0361
  796MPD2     N11789   4.561   2.107  15.810  0.2713 -0.3441  0.4514
  796MPD2    H511790   4.627   2.169  15.855  0.8690 -1.3477  0.9554
  796MPD2    N111791   0.048   1.725  16.005  0.4391 -0.1786  0.4913
  796MPD2    H711792   0.029   1.630  16.034 -1.7026  0.6191  1.7588
  797MPD2     C11793   1.009   1.303  17.468  0.5864 -0.4132  0.5166
  797MPD2    C111794   1.083   1.420  17.485 -0.5729 -0.1633  0.5015
  797MPD2    C211795   1.121   1.494  17.372 -0.1037  0.0276 -0.2519
  797MPD2    C311796   1.070   1.465  17.249 -0.0018  0.5148  0.3653
  797MPD2    C411797   0.988   1.359  17.242  0.1428 -0.0921 -0.3203
  797MPD2    C511798   0.961   1.274  17.345  0.5728  0.1399  0.4520
  797MPD2     H11799   1.176   1.587  17.379 -0.3112  0.0641  0.8779
  797MPD2    H111800   0.944   1.326  17.149  0.0067  0.8153 -0.5793
  797MPD2    H211801   0.973   1.244  17.551 -3.3468  1.8880  0.4411
  797MPD2    H311802   0.898   1.190  17.319 -2.4265  1.8452  2.1824
  797MPD2     N11803   1.093   1.544  17.133 -0.7091  0.1778 -0.3454
  797MPD2    H511804   1.161   1.614  17.159 -1.9745  0.9823  0.8060
  797MPD2    N111805   1.123   1.473  17.613 -0.2087  0.3785  0.3625
  797MPD2    H711806   1.187   1.552  17.610  0.2248  0.0112 -0.1192
  798MPD2     C11807   1.183   2.158  17.407 -0.3781  0.7013  0.5011
  798MPD2    C111808   1.219   2.034  17.367 -0.8450  0.2639 -1.1495
  798MPD2    C211809   1.230   1.934  17.460  0.0104 -0.6699 -0.0450
  798MPD2    C311810   1.202   1.953  17.595  0.1558 -0.4235  0.1500
  798MPD2    C411811   1.148   2.072  17.630  0.3668  0.2138  0.1370
  798MPD2    C511812   1.140   2.178  17.534 -1.2727 -0.3755 -0.0850
  798MPD2     H11813   1.277   1.839  17.439  2.3318 -0.2578  3.2303
  798MPD2    H111814   1.100   2.093  17.725 -0.0124 -0.9599  0.2031
  798MPD2    H211815   1.162   2.237  17.335 -0.7951  1.0370  0.9909
  798MPD2    H311816   1.091   2.271  17.561  0.6106  0.3744  0.7127
  798MPD2     N11817   1.219   1.845  17.687 -0.2967  0.0334  0.3230
  798MPD2    H511818   1.245   1.753  17.655  1.0787  0.5923 -0.1698
  798MPD2    N111819   1.223   2.007  17.225  0.1989 -1.1087 -0.4386
  798MPD2    H711820   1.211   2.084  17.159  1.4714  2.1748  3.1572
  799MPD2     C11821   4.406   3.137  13.951 -0.6289 -0.4431  0.6070
  799MPD2    C111822   4.346   3.014  13.947 -0.2206 -0.0677 -0.3928
  799MPD2    C211823   4.230   2.994  13.869 -0.4819 -0.1801 -0.1193
  799MPD2    C311824   4.177   3.104  13.802  0.3984  0.5342  0.2232
  799MPD2    C411825   4.233   3.227  13.819  0.0455  0.5584 -0.3534
  799MPD2    C511826   4.347   3.243  13.895 -0.3389  0.4397 -0.4609
  799MPD2     H11827   4.176   2.901  13.874 -0.9291  0.1498  1.2293
  799MPD2    H111828   4.195   3.312  13.763 -0.7334 -1.2172 -2.5356
  799MPD2    H211829   4.489   3.154  14.019  0.6812  1.0849 -1.3615
  799MPD2    H311830   4.391   3.341  13.914 -1.5055  0.8146  0.3279
  799MPD2     N11831   4.061   3.108  13.720 -0.0095 -0.1958 -0.6461
  799MPD2    H511832   4.029   3.195  13.679 -2.1552 -1.1405 -1.0095
  799MPD2    N111833   4.390   2.905  14.029  0.1848  0.4243 -0.5299
  799MPD2    H711834   4.332   2.822  14.031 -0.9460  1.2151 -0.1699
  800MPD2     C11835   4.739   3.876  14.099  0.0430  0.1789  0.4270
  800MPD2    C111836   0.035   3.952  13.995 -0.2753  0.3924 -0.4046
  800MPD2    C211837   0.005   3.912  13.868  0.1918 -0.1948 -0.3985
  800MPD2    C311838   4.667   3.800  13.852  0.9264 -0.2211 -0.0834
  800MPD2    C411839   4.614   3.733  13.966  0.4687 -0.0547  0.0371
  800MPD2    C511840   4.665   3.758  14.083 -0.3625 -0.1518 -0.3502
  800MPD2     H11841   0.047   3.954  13.777 -0.1150 -3.0342 -1.8662
  800MPD2    H111842   4.544   3.651  13.971 -1.1708  1.1574 -2.8866
  800MPD2    H211843   0.018   3.898  14.203  0.7037 -1.9895  0.7338
  800MPD2    H311844   4.617   3.717  14.171 -0.6798  0.8074 -0.0759
  800MPD2     N11845   4.630   3.781  13.716  0.6311 -0.3661  0.3583
  800MPD2    H511846   4.677   3.837  13.646 -1.5337 -1.4073 -1.9208
  800MPD2    N111847   0.113   4.071  14.020 -0.7423 -0.3892  0.0731
  800MPD2    H711848   0.149   4.085  14.114 -1.7771  1.2752  0.2180
  801MPD2     C11849   0.202   0.194  13.875  0.4690  0.3978  0.5107
  801MPD2    C111850   0.234   0.136  13.997 -0.0976 -0.1548  0.5313
  801MPD2    C211851   0.244   0.216  14.111  0.0943  0.2303  0.3055
  801MPD2    C311852   0.195   0.345  14.112 -0.5485  0.3620 -0.2205
  801MPD2    C411853   0.147   0.393  13.988 -0.4395 -0.0317  0.2091
  801MPD2    C511854   0.161   0.322  13.872  0.3745  0.2984 -0.0997
  801MPD2     H11855   0.281   0.166  14.200  0.5024 -0.7225 -0.4067
  801MPD2    H111856   0.108   0.494  13.981  1.2291  0.5907 -0.0663
  801MPD2    H211857   0.212   0.145  13.778 -0.9616  1.6944 -0.2865
  801MPD2    H311858   0.133   0.371  13.780  0.5486 -0.7161 -0.6837
  801MPD2     N11859   0.171   0.402  14.233 -0.0329 -0.2454  0.3002
  801MPD2    H511860   0.103   0.477  14.243 -0.9720 -1.2768  1.6115
  801MPD2    N111861   0.268   4.741  13.996  0.1162 -0.0072  0.2154
  801MPD2    H711862   0.320   4.704  14.075 -0.1407  0.5866  0.6629
  802MPD2     C11863   4.620   0.549   0.581  0.2173 -0.1310 -0.1694
  802MPD2    C111864   4.493   0.536   0.516  0.4983  0.1625  0.2756
  802MPD2    C211865   4.480   0.467   0.399  0.3594 -0.0133  0.3073
  802MPD2    C311866   4.597   0.419   0.343  0.3311 -0.3221  0.1182
  802MPD2    C411867   4.722   0.437   0.409  0.2957 -0.2081 -0.0943
  802MPD2    C511868   4.740   0.498   0.534  0.6273  0.2616 -0.8034
  802MPD2     H11869   4.385   0.463   0.346  0.9175 -0.8267 -0.6417
  802MPD2    H111870   0.070   0.393   0.369 -0.3849  0.4156 -2.3408
  802MPD2    H211871   4.628   0.580   0.685  0.7132 -1.6132  0.2360
  802MPD2    H311872   0.090   0.508   0.589 -0.6103  1.8302  1.0004
  802MPD2     N11873   4.602   0.334   0.229 -0.4473 -0.2968 -0.1854
  802MPD2    H511874   4.507   0.308   0.203 -0.8486  0.6834  0.3193
  802MPD2    N111875   4.379   0.605   0.569  0.4585  0.1579  0.7399
  802MPD2    H711876   4.298   0.609   0.507  3.1592 -2.0326 -2.9636
  803MPD2     C11877   0.644   3.328  11.409  0.1273 -0.1144 -0.4760
  803MPD2    C111878   0.698   3.351  11.532 -0.2412 -0.1641  0.2713
  803MPD2    C211879   0.642   3.293  11.649 -0.1770  0.5551  0.0166
  803MPD2    C311880   0.527   3.214  11.632 -0.7068  0.2038 -0.1960
  803MPD2    C411881   0.482   3.192  11.507 -0.1569 -0.4933 -0.5113
  803MPD2    C511882   0.535   3.251  11.399 -0.3610  0.0891  0.0519
  803MPD2     H11883   0.674   3.313  11.750  2.8156 -1.2706 -0.5897
  803MPD2    H111884   0.400   3.123  11.492  0.7035 -1.9182  1.3061
  803MPD2    H211885   0.680   3.365  11.314 -0.0246  2.2858  0.4113
  803MPD2    H311886   0.497   3.246  11.297  0.7260 -0.1178 -0.3462
  803MPD2     N11887   0.453   3.157  11.740 -0.4997 -0.1811 -0.3355
  803MPD2    H511888   0.364   3.113  11.720  0.6856 -2.3292 -0.8334
  803MPD2    N111889   0.813   3.424  11.547  0.7006  0.2586  0.0521
  803MPD2    H711890   0.854   3.431  11.640 -0.4196 -0.4712  0.6050
  804MPD2     C11891   0.455   0.137  16.866  0.0600 -0.7041  0.1156
  804MPD2    C111892   0.457   0.093  16.993 -0.0262  0.1895  0.6672
  804MPD2    C211893   0.536   0.176  17.082 -0.3264 -0.1731 -0.7225
  804MPD2    C311894   0.614   0.284  17.042 -0.5558  0.7144  0.6591
  804MPD2    C411895   0.610   0.318  16.907 -0.0315  0.0429 -0.5413
  804MPD2    C511896   0.528   0.243  16.831 -0.2641 -0.5913  0.4312
  804MPD2     H11897   0.555   0.140  17.183 -0.3263  2.3827  0.1947
  804MPD2    H111898   0.671   0.394  16.861  0.1460 -0.2545 -0.7945
  804MPD2    H211899   0.408   0.088  16.782 -0.2769  1.7660 -1.1365
  804MPD2    H311900   0.541   0.270  16.726 -0.1504  0.1856  0.6451
  804MPD2     N11901   0.693   0.351  17.135 -0.4524  0.2263  0.1327
  804MPD2    H511902   0.689   0.325  17.233  0.7910 -1.2322 -0.2122
  804MPD2    N111903   0.404   4.713  17.038  0.1143  0.6484  0.4336
  804MPD2    H711904   0.410   4.699  17.138  1.5597 -0.2573  0.2207
  805MPD2     C11905   4.463   2.625  15.339 -0.3786 -0.2023  0.9903
  805MPD2    C111906   4.396   2.747  15.348  0.1848 -0.4071  0.2160
  805MPD2    C211907   4.465   2.855  15.390 -0.0161 -0.4715  0.1670
  805MPD2    C311908   4.589   2.844  15.454  0.8929 -0.6650  1.0161
  805MPD2    C411909   4.649   2.719  15.459  0.1168  0.0489  0.3410
  805MPD2    C511910   4.592   2.620  15.390 -0.2582  0.5460  0.1468
  805MPD2     H11911   4.417   2.952  15.382 -3.7928 -2.1338  2.3663
  805MPD2    H111912   0.001   2.708  15.509  1.0203 -0.9123 -1.5614
  805MPD2    H211913   4.409   2.546  15.288  2.4811 -1.4116 -0.1872
  805MPD2    H311914   4.646   2.525  15.389 -0.3348  0.4379  3.3972
  805MPD2     N11915   4.629   2.960  15.517  0.1474 -0.0018  0.1526
  805MPD2    H511916   4.601   3.054  15.491  0.4499  0.1582  0.4091
  805MPD2    N111917   4.255   2.766  15.317 -0.5056  0.8772  0.8514
  805MPD2    H711918   4.223   2.861  15.336 -4.6477 -0.1700 -0.8902
  806MPD2     C11919   4.417   2.735   0.524  0.1673 -0.1085  0.0324
  806MPD2    C111920   4.494   2.827   0.588  0.1990  0.9316  0.2313
  806MPD2    C211921   4.559   2.920   0.500  0.0553  0.6128 -0.3644
  806MPD2    C311922   4.542   2.926   0.366  0.5377 -0.3904  0.1458
  806MPD2    C411923   4.456   2.837   0.301  0.1062  0.0784 -0.4727
  806MPD2    C511924   4.400   2.741   0.382  0.0632 -0.9113  0.3778
  806MPD2     H11925   4.628   2.988   0.548  0.1063 -0.1666  0.6556
  806MPD2    H111926   4.435   2.834   0.194 -0.7317 -0.6787 -0.2832
  806MPD2    H211927   4.362   2.657   0.577  0.5687 -0.7428 -0.4792
  806MPD2    H311928   4.346   2.662   0.330 -1.6809  2.2638 -2.6658
  806MPD2     N11929   4.609   3.035   0.307  0.3433  0.0185 -0.1471
  806MPD2    H511930   4.670   3.086   0.370 -0.1151  3.5863 -2.6298
  806MPD2    N111931   4.506   2.812   0.726 -0.1126  0.8948 -0.0695
  806MPD2    H711932   4.443   2.749   0.775 -2.8239  2.2109 -1.8789
  807MPD2     C11933   4.238   2.331   1.086 -0.2391 -0.2375  0.2196
  807MPD2    C111934   4.323   2.377   1.185 -0.6116  0.2541  0.0959
  807MPD2    C211935   4.326   2.315   1.307  0.1824 -0.0927  0.3421
  807MPD2    C311936   4.249   2.207   1.342 -0.7578  0.4169 -1.0108
  807MPD2    C411937   4.165   2.163   1.242 -0.4929 -0.3411  0.5244
  807MPD2    C511938   4.156   2.224   1.122  0.4415  0.7077 -0.5378
  807MPD2     H11939   4.389   2.361   1.382  0.6659 -0.7452  0.3379
  807MPD2    H111940   4.096   2.080   1.253 -2.7625  1.5290  0.3764
  807MPD2    H211941   4.223   2.378   0.990  2.3860  0.8751  0.3453
  807MPD2    H311942   4.081   2.185   1.054  0.7735 -0.7928 -0.0346
  807MPD2     N11943   4.244   2.155   1.473  0.0750 -0.7236 -0.2546
  807MPD2    H511944   4.312   2.195   1.536 -1.3906  1.9783 -0.3879
  807MPD2    N111945   4.401   2.491   1.173  0.4575  0.5505  0.1873
  807MPD2    H711946   4.463   2.509   1.252  1.7715 -0.0731 -0.7080
  808MPD2     C11947   4.471   4.217   9.466  0.0271  0.1927 -0.2460
  808MPD2    C111948   4.453   4.267   9.595 -0.3831 -0.6689 -0.5700
  808MPD2    C211949   4.531   4.370   9.632 -0.0966  0.1988 -0.1642
  808MPD2    C311950   4.610   4.440   9.541 -0.3565 -0.0720 -0.1294
  808MPD2    C411951   4.630   4.385   9.420  0.1756  0.4583  0.1138
  808MPD2    C511952   4.564   4.266   9.380 -0.7504 -0.2964  0.1093
  808MPD2     H11953   4.513   4.411   9.731  1.4189 -0.9401  0.5891
  808MPD2    H111954   4.706   4.411   9.346  0.2211  1.3683  0.4865
  808MPD2    H211955   4.412   4.134   9.427 -1.2268  0.3164  1.3766
  808MPD2    H311956   4.573   4.222   9.281 -1.1527 -0.4912  0.1601
  808MPD2     N11957   4.682   4.562   9.563  0.2734 -1.1223 -0.2658
  808MPD2    H511958   4.734   4.603   9.486 -0.8821  2.1874  0.6918
  808MPD2    N111959   4.365   4.225   9.693 -0.2875  0.3400  0.0198
  808MPD2    H711960   4.368   4.269   9.785 -0.7308  1.1265 -0.3398
  809MPD2     C11961   0.318   0.572   9.146 -0.3914 -0.3938 -0.0279
  809MPD2    C111962   0.354   0.438   9.142  0.4232 -0.2723 -0.3206
  809MPD2    C211963   0.334   0.363   9.257  0.2674  0.2410 -0.0934
  809MPD2    C311964   0.270   0.417   9.370 -0.3590  0.4292 -0.9908
  809MPD2    C411965   0.225   0.546   9.370 -0.2785 -0.5578 -0.1645
  809MPD2    C511966   0.248   0.621   9.250 -0.5766 -0.5873  0.6758
  809MPD2     H11967   0.365   0.259   9.263 -0.1897  0.0612 -0.8991
  809MPD2    H111968   0.175   0.590   9.455 -0.4593 -0.2403 -0.4349
  809MPD2    H211969   0.344   0.644   9.069  1.2808 -2.6309 -1.5532
  809MPD2    H311970   0.229   0.728   9.247 -0.2721 -0.4593  3.0537
  809MPD2     N11971   0.243   0.344   9.486  0.4263 -0.6558 -0.3839
  809MPD2    H511972   0.209   0.396   9.566 -0.2941  2.2337 -2.5860
  809MPD2    N111973   0.406   0.367   9.035 -0.3609  0.1169 -0.0725
  809MPD2    H711974   0.437   0.271   9.049  0.0700  0.1963 -0.4654
  810MPD2     C11975   3.866   3.968  10.791  0.2641 -0.4349  0.0217
  810MPD2    C111976   3.803   3.984  10.666  0.4204 -0.1662  0.4143
  810MPD2    C211977   3.831   4.101  10.589 -0.5393 -0.2150  0.8965
  810MPD2    C311978   3.924   4.190  10.632  0.5477  0.5744 -0.2518
  810MPD2    C411979   3.993   4.154  10.749 -0.8222  0.2659 -0.3354
  810MPD2    C511980   3.956   4.063  10.833 -1.1374  0.0074 -0.4932
  810MPD2     H11981   3.785   4.118  10.493 -1.4728  0.0363  1.3931
  810MPD2    H111982   4.079   4.216  10.774 -1.6665  2.4531 -2.7717
  810MPD2    H211983   3.853   3.882  10.855  3.1869 -0.0917  1.1139
  810MPD2    H311984   4.013   4.064  10.925  0.7871 -1.8914 -1.6779
  810MPD2     N11985   3.968   4.301  10.556 -0.1005  0.3850 -0.1514
  810MPD2    H511986   4.065   4.328  10.573  0.3500 -1.2129 -0.1778
  810MPD2    N111987   3.713   3.886  10.615  0.0528  0.6309  0.1488
  810MPD2    H711988   3.665   3.913  10.530  0.7146 -0.1230 -0.4543
  811MPD2     C11989   3.458   3.653   9.959  0.9139 -0.2111  0.8580
  811MPD2    C111990   3.536   3.733  10.044 -0.1106 -0.6442  0.4600
  811MPD2    C211991   3.585   3.848   9.989 -0.0917 -0.2266  0.0421
  811MPD2    C311992   3.553   3.890   9.854 -0.0347 -0.2326 -1.0821
  811MPD2    C411993   3.490   3.800   9.774 -0.3898 -0.0738  0.1724
  811MPD2    C511994   3.452   3.678   9.829 -0.3370 -0.1042  0.3479
  811MPD2     H11995   3.628   3.920  10.057 -1.5758  2.1683 -1.5826
  811MPD2    H111996   3.483   3.822   9.668  1.0204  0.6797  0.2378
  811MPD2    H211997   3.400   3.569   9.995 -1.2464  1.1840  0.6774
  811MPD2    H311998   3.403   3.603   9.768  0.7207 -1.3206  0.9813
  811MPD2     N11999   3.605   4.014   9.804 -0.1295  0.2426 -0.4268
  811MPD2    H512000   3.675   4.056   9.864  1.0069 -0.9522 -0.9279
  811MPD2    N112001   3.563   3.700  10.181 -0.2761  0.3276 -0.2070
  811MPD2    H712002   3.603   3.777  10.235  1.1684 -1.0971  0.7454
  812MPD2     C12003   2.726   3.182  12.240  0.8782 -0.3893 -0.1231
  812MPD2    C112004   2.859   3.206  12.271  0.0795  0.5699 -0.9039
  812MPD2    C212005   2.918   3.130  12.379 -0.2256 -0.4878  0.6168
  812MPD2    C312006   2.849   3.032  12.445 -0.7203 -0.1703 -0.0448
  812MPD2    C412007   2.715   3.016  12.405 -0.9978  0.2885 -0.7898
  812MPD2    C512008   2.653   3.087  12.307  0.1175  0.2755 -0.4928
  812MPD2     H12009   3.014   3.157  12.423 -0.7610  2.5608 -0.0468
  812MPD2    H112010   2.654   2.939  12.451  1.7803 -0.7794  1.1043
  812MPD2    H212011   2.683   3.240  12.159 -0.9244 -0.2645  0.9144
  812MPD2    H312012   2.552   3.061  12.280  0.1191  0.6116 -0.8363
  812MPD2     N12013   2.911   2.955  12.543  0.7233 -0.0105 -0.1304
  812MPD2    H512014   3.012   2.964  12.546  0.5769  1.5211 -0.1862
  812MPD2    N112015   2.927   3.289  12.188 -0.5610  0.4998 -0.4882
  812MPD2    H712016   2.886   3.326  12.103  0.6975  0.9942 -0.8755
  813MPD2     C12017   1.881   0.290  13.000  0.4877 -0.4831  0.0453
  813MPD2    C112018   1.978   0.340  13.087  0.4933 -0.0054 -0.2849
  813MPD2    C212019   1.954   0.352  13.223 -0.4633  0.0472 -0.3524
  813MPD2    C312020   1.834   0.315  13.274 -0.3657  0.4963 -0.1264
  813MPD2    C412021   1.738   0.260  13.191  0.1171 -0.2412  0.6426
  813MPD2    C512022   1.763   0.250  13.055 -0.1124  0.5934 -0.1857
  813MPD2     H12023   2.020   0.407  13.289  0.5228 -1.8974  0.2495
  813MPD2    H112024   1.634   0.245  13.218 -0.1809 -3.1650 -2.1346
  813MPD2    H212025   1.895   0.282  12.893  0.5476 -1.9690  0.1726
  813MPD2    H312026   1.686   0.226  12.982 -3.2900  2.6521  2.4724
  813MPD2     N12027   1.811   0.357  13.415 -0.1533 -0.6964 -0.0788
  813MPD2    H512028   1.891   0.406  13.455 -0.4728 -1.3087  1.2878
  813MPD2    N112029   2.098   0.392  13.030 -0.0414 -0.1952 -0.1068
  813MPD2    H712030   2.111   0.387  12.929 -1.2947  0.1448 -0.2829
  814MPD2     C12031   2.491   1.313  12.128 -0.1207  0.0572 -0.2329
  814MPD2    C112032   2.545   1.399  12.034 -1.2505 -0.4134  0.1936
  814MPD2    C212033   2.574   1.527  12.079  0.5374 -0.1432 -0.3055
  814MPD2    C312034   2.572   1.556  12.220 -0.0147  0.2576  0.3191
  814MPD2    C412035   2.511   1.471  12.304 -0.4734 -0.1940  0.2311
  814MPD2    C512036   2.470   1.349  12.261  0.1661  0.7660 -0.1133
  814MPD2     H12037   2.608   1.594  12.001 -1.2277  1.1549  0.0573
  814MPD2    H112038   2.492   1.498  12.407  0.3261 -1.7437  0.7866
  814MPD2    H212039   2.445   1.221  12.093 -1.7389  0.9303 -0.3772
  814MPD2    H312040   2.437   1.281  12.338 -0.5546  0.8492 -0.3492
  814MPD2     N12041   2.640   1.665  12.276 -0.8594 -0.1620  0.1313
  814MPD2    H512042   2.644   1.673  12.377 -0.0067  1.8799 -0.0555
  814MPD2    N112043   2.578   1.367  11.901 -0.3776 -0.1771  0.3259
  814MPD2    H712044   2.607   1.439  11.835 -0.4407 -2.0438 -1.7449
  815MPD2     C12045   3.236   0.456  11.683  0.4797 -0.2637 -0.5788
  815MPD2    C112046   3.290   0.332  11.647 -0.2181 -0.5992 -0.3164
  815MPD2    C212047   3.262   0.223  11.728 -0.3409  0.6426 -0.0280
  815MPD2    C312048   3.158   0.221  11.820  0.0727  0.1017  0.9891
  815MPD2    C412049   3.103   0.344  11.844 -0.2868  0.3089  0.2850
  815MPD2    C512050   3.144   0.461  11.779 -0.3666  0.2212  0.4422
  815MPD2     H12051   3.295   0.127  11.690  1.5066  1.8327 -1.4752
  815MPD2    H112052   3.020   0.349  11.913 -0.5328  0.8405 -0.0500
  815MPD2    H212053   3.259   0.543  11.623 -0.6510 -1.3498 -2.6066
  815MPD2    H312054   3.129   0.563  11.814 -0.9554  0.3248 -0.1244
  815MPD2     N12055   3.119   0.097  11.877 -0.1345 -0.5128 -0.6591
  815MPD2    H512056   3.167   0.013  11.844  1.5860  0.4036 -0.4591
  815MPD2    N112057   3.376   0.331  11.535  0.2206  0.1786 -0.2588
  815MPD2    H712058   3.381   0.404  11.465  1.0334 -1.3823 -1.8374
  816MPD2     C12059   3.361   4.097  17.005  0.3103  0.4673  0.0793
  816MPD2    C112060   3.396   4.224  17.038 -0.0095  0.3468 -1.0047
  816MPD2    C212061   3.535   4.249  17.039  0.8797 -0.4364  0.3625
  816MPD2    C312062   3.624   4.162  16.983 -0.8096  0.1333  0.5277
  816MPD2    C412063   3.584   4.039  16.948 -0.3032  0.2044 -0.3601
  816MPD2    C512064   3.451   4.008  16.964  0.7411 -0.8151 -0.6900
  816MPD2     H12065   3.567   4.350  17.066 -0.6973 -0.1025  0.9618
  816MPD2    H112066   3.650   3.958  16.919 -2.2689 -1.2682 -0.7063
  816MPD2    H212067   3.257   4.069  17.013 -0.0077  1.4235 -0.7663
  816MPD2    H312068   3.424   3.904  16.950 -0.1409 -0.3723 -2.3149
  816MPD2     N12069   3.755   4.209  16.959 -0.1895  0.1520 -0.4313
  816MPD2    H512070   3.764   4.310  16.954  1.1772  0.1320  1.5559
  816MPD2    N112071   3.301   4.318  17.073  0.4306 -0.4571 -0.0385
  816MPD2    H712072   3.203   4.289  17.066  0.1018  0.5897  0.2737
  817MPD2     C12073   2.283   1.296   9.607  0.7932 -0.2392  0.0397
  817MPD2    C112074   2.234   1.245   9.491  0.4201 -0.6330 -0.5243
  817MPD2    C212075   2.106   1.278   9.443 -0.2653 -0.4432  0.2202
  817MPD2    C312076   2.029   1.368   9.516  0.0851  0.3871  0.5184
  817MPD2    C412077   2.078   1.425   9.630 -0.0381 -0.7407 -0.6574
  817MPD2    C512078   2.203   1.387   9.674 -0.2141  0.2511  0.2879
  817MPD2     H12079   2.075   1.226   9.354 -0.4880  0.4075 -0.1936
  817MPD2    H112080   2.021   1.493   9.693 -1.2300 -2.1051 -0.2536
  817MPD2    H212081   2.376   1.269   9.654  0.4760  1.8001  1.8349
  817MPD2    H312082   2.239   1.430   9.767  0.1163  0.8930 -0.1381
  817MPD2     N12083   1.898   1.393   9.473  0.0689  1.2051 -0.5490
  817MPD2    H512084   1.863   1.345   9.391  1.9653 -1.9743  0.4901
  817MPD2    N112085   2.313   1.151   9.416 -0.4014  0.2917  0.3440
  817MPD2    H712086   2.274   1.122   9.328 -0.2545  0.0939  0.3438
  818MPD2     C12087   1.784   0.847   9.845 -0.3210  0.4501  0.7032
  818MPD2    C112088   1.650   0.828   9.835  0.4651 -0.2755 -0.2693
  818MPD2    C212089   1.603   0.750   9.729  0.6685  0.0085 -0.2599
  818MPD2    C312090   1.683   0.677   9.648  0.4640 -0.9089  0.2269
  818MPD2    C412091   1.820   0.694   9.656 -0.1043 -0.2218  0.1563
  818MPD2    C512092   1.865   0.778   9.762  0.5306 -0.6375  1.0415
  818MPD2     H12093   1.495   0.746   9.720  0.6946 -2.4372  0.4944
  818MPD2    H112094   1.892   0.636   9.600  0.5948  0.5991  0.1880
  818MPD2    H212095   1.834   0.906   9.920  0.8852 -0.0311  0.2816
  818MPD2    H312096   1.973   0.775   9.776  0.5200  2.8146  1.7946
  818MPD2     N12097   1.634   0.585   9.558  0.8658 -0.1712  0.2088
  818MPD2    H512098   1.698   0.544   9.491 -1.7415 -0.4778 -2.1166
  818MPD2    N112099   1.555   0.871   9.936 -0.4009 -0.1380  0.8604
  818MPD2    H712100   1.464   0.830   9.918 -0.8721  1.3473 -0.1013
  819MPD2     C12101   0.348   3.145  15.628 -0.2887  0.1631  0.9242
  819MPD2    C112102   0.326   3.032  15.545  0.2554 -0.1523  0.0588
  819MPD2    C212103   0.376   2.908  15.590 -0.7220 -0.2200  0.6695
  819MPD2    C312104   0.438   2.902  15.717  0.4095  0.4863 -0.3879
  819MPD2    C412105   0.447   3.011  15.796  0.1056 -0.1734 -0.3145
  819MPD2    C512106   0.407   3.135  15.752 -0.0909  0.4172  0.0582
  819MPD2     H12107   0.363   2.819  15.530  1.0109  1.3496 -2.0134
  819MPD2    H112108   0.493   3.013  15.894 -1.4178 -0.5956  0.4020
  819MPD2    H212109   0.314   3.241  15.592 -0.9417 -0.5220 -0.2998
  819MPD2    H312110   0.423   3.229  15.802 -2.3586  0.5986  0.4396
  819MPD2     N12111   0.493   2.779  15.767 -0.3391  0.2741  0.4772
  819MPD2    H512112   0.531   2.770  15.861 -1.2665  2.8778  1.1025
  819MPD2    N112113   0.249   3.056  15.427 -0.0340 -0.0605 -0.6517
  819MPD2    H712114   0.237   3.155  15.413 -2.1565 -0.4989 -2.0197
  820MPD2     C12115   4.143   3.329  15.006 -1.0463  0.0786  0.7509
  820MPD2    C112116   4.175   3.240  15.112  0.4799  0.3405 -0.4163
  820MPD2    C212117   4.308   3.253  15.166  0.8216  0.5242  0.4902
  820MPD2    C312118   4.404   3.333  15.099 -0.4061  0.1804  0.2372
  820MPD2    C412119   4.370   3.421  15.003  0.0314 -0.3020 -0.0825
  820MPD2    C512120   4.242   3.407  14.953 -0.0907 -0.0603  0.1773
  820MPD2     H12121   4.346   3.206  15.256 -0.5030  1.0205  1.3139
  820MPD2    H112122   4.440   3.487  14.952 -0.7351 -0.7261 -1.7044
  820MPD2    H212123   4.043   3.330  14.964 -0.9104 -1.9443  0.3656
  820MPD2    H312124   4.213   3.470  14.870 -1.6721  0.3834  1.0527
  820MPD2     N12125   4.539   3.310  15.137  0.1194 -0.1691  0.2040
  820MPD2    H512126   4.597   3.331  15.057  1.1480 -1.1477  0.6958
  820MPD2    N112127   4.070   3.160  15.158  0.1822  0.3693  0.5694
  820MPD2    H712128   3.985   3.160  15.102 -0.1672  1.9419  1.1100
  821MPD2     C12129   4.321   3.987  13.023  0.5958 -0.2651  0.0413
  821MPD2    C112130   4.450   4.012  13.067 -0.6931  0.1048 -0.6608
  821MPD2    C212131   4.545   4.071  12.987  0.1315 -0.2089 -0.2847
  821MPD2    C312132   4.511   4.106  12.855  0.2494 -0.0792  0.2287
  821MPD2    C412133   4.385   4.071  12.805  0.1998 -0.2259 -0.2551
  821MPD2    C512134   4.292   4.018  12.893 -0.3643 -1.3079  0.1574
  821MPD2     H12135   4.645   4.061  13.029 -0.7487  1.2122  2.1159
  821MPD2    H112136   4.361   4.087  12.700 -0.4198  0.5765  0.0109
  821MPD2    H212137   4.243   3.966  13.095  0.0884  0.3968 -0.3113
  821MPD2    H312138   4.190   4.010  12.856  0.2951 -0.2048 -1.9413
  821MPD2     N12139   4.613   4.151  12.773  0.3251 -0.0736  0.6197
  821MPD2    H512140   4.604   4.159  12.672 -1.0099  0.6554  0.8074
  821MPD2    N112141   4.494   3.979  13.197  0.7922 -0.5687  1.1330
  821MPD2    H712142   4.594   3.987  13.211  0.8412  0.7869  0.0319
  822MPD2     C12143   1.218   4.250  15.732 -0.2403 -0.1591 -0.0643
  822MPD2    C112144   1.198   4.203  15.865 -0.1627 -0.2178 -0.4910
  822MPD2    C212145   1.123   4.279  15.954 -0.4579  0.4108  0.0373
  822MPD2    C312146   1.080   4.408  15.913  0.3101 -0.0511  0.1841
  822MPD2    C412147   1.100   4.457  15.781  0.1813 -0.0315  0.0046
  822MPD2    C512148   1.165   4.377  15.694 -0.6858  0.4445  0.2945
  822MPD2     H12149   1.099   4.246  16.054  0.2070 -0.6538 -0.1529
  822MPD2    H112150   1.073   4.553  15.737  1.5269  0.3768  0.0586
  822MPD2    H212151   1.272   4.192  15.659 -1.9705 -1.1872 -0.5227
  822MPD2    H312152   1.170   4.406  15.590 -1.4700 -1.6427 -0.3278
  822MPD2     N12153   1.025   4.488  16.017  0.0969  0.6878 -0.0197
  822MPD2    H512154   0.996   4.441  16.103  0.9627  0.7205  0.2954
  822MPD2    N112155   1.248   4.086  15.914  0.6455  0.3130 -0.8978
  822MPD2    H712156   1.216   4.058  16.007  0.1202 -0.4193 -1.2957
  823MPD2     C12157   0.681   4.523  16.766 -0.0026  0.5305  0.4782
  823MPD2    C112158   0.746   4.465  16.658 -0.4723  0.5287 -0.4751
  823MPD2    C212159   0.807   4.342  16.679 -0.8552 -0.0560 -0.1645
  823MPD2    C312160   0.793   4.276  16.801 -0.1789  0.5966  0.0767
  823MPD2    C412161   0.721   4.333  16.903  0.1848 -0.4787  0.3923
  823MPD2    C512162   0.676   4.456  16.883 -0.0042  0.2102  0.0039
  823MPD2     H12163   0.858   4.299  16.593  1.4934  1.3279  0.5443
  823MPD2    H112164   0.697   4.284  16.996  1.5573 -0.7314  0.6219
  823MPD2    H212165   0.633   4.620  16.759  0.3006  0.6490  0.0465
  823MPD2    H312166   0.618   4.507  16.959 -0.2561  1.3017 -0.9366
  823MPD2     N12167   0.846   4.140  16.823  0.1996  0.9703 -0.9130
  823MPD2    H512168   0.827   4.115  16.919  0.6085 -0.7343 -1.2662
  823MPD2    N112169   0.772   4.548  16.542  0.1173 -0.1091 -0.0008
  823MPD2    H712170   0.757   4.647  16.559 -0.6387 -0.1830 -0.2334
  824MPD2     C12171   1.387   3.270  15.712 -0.1094  0.2997 -0.4306
  824MPD2    C112172   1.425   3.400  15.672 -0.1479  0.5971  0.4073
  824MPD2    C212173   1.489   3.421  15.555  0.9472  0.0319 -0.2528
  824MPD2    C312174   1.544   3.310  15.488  0.3252  0.6212 -0.0130
  824MPD2    C412175   1.512   3.181  15.530 -0.8393  0.7831  0.2147
  824MPD2    C512176   1.425   3.160  15.631 -0.8079  0.7950  0.4429
  824MPD2     H12177   1.513   3.524  15.530  2.4039 -0.2120  0.0929
  824MPD2    H112178   1.546   3.086  15.491 -1.9984  0.8165 -0.8670
  824MPD2    H212179   1.327   3.254  15.802  0.6029  0.7088  0.1203
  824MPD2    H312180   1.391   3.058  15.651 -0.8619  0.2878 -2.3333
  824MPD2     N12181   1.640   3.339  15.387  0.1848 -0.4842 -0.5824
  824MPD2    H512182   1.665   3.436  15.371 -0.7876  0.0807  1.2376
  824MPD2    N112183   1.402   3.510  15.753  0.1939  0.7110 -0.3953
  824MPD2    H712184   1.424   3.603  15.717 -1.9091  1.3817  0.0566
  825MPD2     C12185   2.402   3.646  15.257 -0.0820 -0.0770 -0.0038
  825MPD2    C112186   2.270   3.663  15.216  0.1244  0.2524 -0.3367
  825MPD2    C212187   2.219   3.792  15.200 -0.2159  0.1478 -0.2517
  825MPD2    C312188   2.307   3.901  15.215  0.0815  0.7174  0.1905
  825MPD2    C412189   2.437   3.880  15.249  0.3569 -0.2452 -0.3004
  825MPD2    C512190   2.483   3.755  15.275 -0.3173  0.1849 -0.7661
  825MPD2     H12191   2.113   3.813  15.191 -0.0930  1.5796  1.6103
  825MPD2    H112192   2.510   3.960  15.252 -1.3576  1.3905 -1.9182
  825MPD2    H212193   2.438   3.545  15.273  2.3352  0.1995 -3.4800
  825MPD2    H312194   2.587   3.739  15.297 -0.5700 -1.0753 -0.4940
  825MPD2     N12195   2.256   4.028  15.225 -0.4015  0.3204  0.1554
  825MPD2    H512196   2.314   4.102  15.264  3.1993 -1.6135 -1.4624
  825MPD2    N112197   2.176   3.553  15.215 -0.0221 -0.2424 -0.8481
  825MPD2    H712198   2.218   3.463  15.234 -0.5829 -0.3177 -0.0047
  826MPD2     C12199   1.627   2.896  13.374  0.1846 -0.2235 -0.7102
  826MPD2    C112200   1.682   3.021  13.372  0.1043  0.2389  0.8444
  826MPD2    C212201   1.593   3.128  13.378  0.4790 -0.1800 -0.1491
  826MPD2    C312202   1.456   3.112  13.395  0.5407  0.0347  0.2909
  826MPD2    C412203   1.406   2.983  13.388  0.2871 -0.0371 -0.2972
  826MPD2    C512204   1.493   2.875  13.378  0.4881  0.0728  0.7505
  826MPD2     H12205   1.636   3.228  13.380  0.8578 -0.3517  0.5013
  826MPD2    H112206   1.300   2.970  13.375  0.5169  0.2360 -2.4520
  826MPD2    H212207   1.696   2.813  13.361  2.4683  1.4973  0.2781
  826MPD2    H312208   1.458   2.775  13.355  0.1312  0.1988  0.7452
  826MPD2     N12209   1.365   3.222  13.404 -0.3380  0.7154 -0.0465
  826MPD2    H512210   1.267   3.195  13.409 -0.7082  2.2012  0.5858
  826MPD2    N112211   1.821   3.031  13.347  0.2880 -0.4351 -0.2540
  826MPD2    H712212   1.875   2.947  13.329 -2.2146 -1.7818 -1.4617
  827MPD2     C12213   2.072   4.609  10.002 -0.2282  0.9738  0.7411
  827MPD2    C112214   2.014   4.550  10.114  0.2697  0.0053  0.0807
  827MPD2    C212215   1.890   4.484  10.100 -0.2050 -0.1661 -0.0828
  827MPD2    C312216   1.820   4.486   9.981  0.1935 -0.1114  0.3111
  827MPD2    C412217   1.872   4.564   9.880  0.3809  0.3109 -0.3885
  827MPD2    C512218   1.998   4.613   9.889  0.4658  0.6726 -0.2003
  827MPD2     H12219   1.850   4.445  10.193 -0.9751 -1.4413 -0.9364
  827MPD2    H112220   1.830   4.592   9.783 -1.4478  2.4175  1.0198
  827MPD2    H212221   2.164   4.667  10.004  1.0181 -0.9440 -0.8439
  827MPD2    H312222   2.043   4.673   9.811  3.4381 -0.8406  0.3184
  827MPD2     N12223   1.685   4.430   9.971 -0.2368  0.1137 -0.0710
  827MPD2    H512224   1.659   4.375  10.052 -1.8053 -0.1859 -0.7669
  827MPD2    N112225   2.086   4.564  10.238  0.1423 -0.2528 -0.3785
  827MPD2    H712226   2.183   4.588  10.225  0.0152  0.0951 -0.6954
  828MPD2     C12227   0.754   4.199  12.433  0.6109 -0.4287  1.1632
  828MPD2    C112228   0.745   4.244  12.300 -0.2434  0.5989  0.3270
  828MPD2    C212229   0.836   4.204  12.204 -0.3041  0.2935 -0.0473
  828MPD2    C312230   0.926   4.105  12.237 -0.3534  0.2524  0.8387
  828MPD2    C412231   0.938   4.070  12.373 -0.4617 -0.4443  0.2113
  828MPD2    C512232   0.855   4.114  12.471  0.0323 -0.7098  0.1344
  828MPD2     H12233   0.834   4.245  12.104  0.2668  1.9681  0.6297
  828MPD2    H112234   1.020   4.006  12.403 -1.8150 -1.8530  0.8786
  828MPD2    H212235   0.683   4.231  12.508 -1.3791 -1.5370 -0.2407
  828MPD2    H312236   0.874   4.075  12.571  1.3569  1.9905  0.9427
  828MPD2     N12237   1.016   4.053  12.143  0.6457  0.3758 -0.7688
  828MPD2    H512238   1.081   3.984  12.180 -0.5107 -0.2252  0.1329
  828MPD2    N112239   0.642   4.340  12.263 -0.5565  0.2987  0.0228
  828MPD2    H712240   0.635   4.371  12.166 -0.0811  2.5173  0.7153
  829MPD2     C12241   0.607   0.089  11.581  0.1275  0.4589  0.5777
  829MPD2    C112242   0.473   0.078  11.600 -0.1339 -0.1339  0.6747
  829MPD2    C212243   0.424   0.021  11.711 -0.1311  1.0321 -0.6442
  829MPD2    C312244   0.512   4.707  11.805  0.0031  0.1282 -0.3657
  829MPD2    C412245   0.643   4.708  11.773 -0.0643  0.6610  0.2321
  829MPD2    C512246   0.693   0.046  11.676 -0.2869  1.1994  0.3940
  829MPD2     H12247   0.316   0.012  11.719  0.1452 -0.3340  1.6979
  829MPD2    H112248   0.719   4.659  11.832 -0.5562  2.2572  2.1631
  829MPD2    H212249   0.647   0.131  11.490 -5.1274 -1.5752 -2.6623
  829MPD2    H312250   0.801   0.055  11.666 -0.2456  0.6719  0.3748
  829MPD2     N12251   0.475   4.647  11.928 -0.5812 -1.0658  0.2725
  829MPD2    H512252   0.544   4.581  11.964  1.0512  0.7525  0.4723
  829MPD2    N112253   0.390   0.123  11.490 -0.6610 -0.4553 -0.1605
  829MPD2    H712254   0.442   0.162  11.411 -3.4767  0.0761 -1.7406
  830MPD2     C12255   1.039   2.221  15.426 -0.2782 -0.3285  0.0249
  830MPD2    C112256   1.004   2.351  15.440 -0.2415 -0.5614  0.9386
  830MPD2    C212257   1.043   2.434  15.338  0.3657  1.0630 -0.1136
  830MPD2    C312258   1.118   2.402  15.234  0.3672  0.3606 -0.2991
  830MPD2    C412259   1.156   2.273  15.219 -0.2959 -0.1810 -0.0838
  830MPD2    C512260   1.101   2.179  15.307  0.3650 -0.4947  0.3240
  830MPD2     H12261   1.006   2.536  15.336 -0.8666  0.6484  1.2191
  830MPD2    H112262   1.220   2.244  15.137 -0.0125  2.6846 -0.8978
  830MPD2    H212263   1.010   2.146  15.498 -2.4671  3.0936  2.7232
  830MPD2    H312264   1.126   2.074  15.296 -2.0588 -1.1008  0.6665
  830MPD2     N12265   1.154   2.500  15.140  0.2730  0.3298  0.0254
  830MPD2    H512266   1.133   2.594  15.171  1.2983  0.3073  0.7944
  830MPD2    N112267   0.917   2.406  15.540  0.9396  0.0061 -0.3054
  830MPD2    H712268   0.895   2.505  15.532  0.1028 -0.1650 -0.0974
  831MPD2     C12269   1.266   4.488  16.315  0.4461 -0.6764 -0.1308
  831MPD2    C112270   1.315   4.376  16.253  0.2707  0.1344  0.1186
  831MPD2    C212271   1.252   4.252  16.273 -0.5421 -0.5334  0.2012
  831MPD2    C312272   1.133   4.254  16.340  0.4437  0.2544 -0.3134
  831MPD2    C412273   1.108   4.356  16.428 -0.2582 -0.3319 -0.0572
  831MPD2    C512274   1.174   4.469  16.414 -0.3316  0.6886 -0.5585
  831MPD2     H12275   1.287   4.162  16.223  1.8274  0.5862 -0.1548
  831MPD2    H112276   1.026   4.352  16.499 -0.7812 -0.9720 -0.7046
  831MPD2    H212277   1.295   4.591  16.298  0.7522 -0.2082  3.2884
  831MPD2    H312278   1.144   4.553  16.476  0.2530  0.9761 -0.6707
  831MPD2     N12279   1.028   4.156  16.326 -0.0580 -0.2023  0.3308
  831MPD2    H512280   0.939   4.181  16.369  0.1172  0.7883  0.1176
  831MPD2    N112281   1.407   4.401  16.142 -0.3342  0.0891 -0.7339
  831MPD2    H712282   1.422   4.497  16.111 -0.4978  0.2132 -0.4280
  832MPD2     C12283   4.137   0.550  17.451  0.0311 -0.7654 -0.5918
  832MPD2    C112284   4.165   0.651  17.369 -0.0555 -0.6149 -0.0134
  832MPD2    C212285   4.070   0.704  17.286 -1.4501  0.0125 -0.0981
  832MPD2    C312286   3.945   0.648  17.283  0.0960  0.2888 -0.1425
  832MPD2    C412287   3.915   0.548  17.370  0.9267  0.2882  0.5885
  832MPD2    C512288   4.015   0.493  17.447  0.4364  0.2386  0.0152
  832MPD2     H12289   4.095   0.777  17.210  0.3567  0.0073  0.4963
  832MPD2    H112290   3.825   0.488  17.360  0.9862  0.6857 -2.2905
  832MPD2    H212291   4.207   0.500  17.516 -0.8664  0.2121  1.1277
  832MPD2    H312292   3.998   0.406  17.509  1.7748  0.7242  1.0623
  832MPD2     N12293   3.842   0.664  17.188 -0.0269  0.5428  0.0168
  832MPD2    H512294   3.753   0.616  17.199  0.1120 -0.1126 -1.6990
  832MPD2    N112295   4.295   0.702  17.381 -0.0143  0.6208 -0.3719
  832MPD2    H712296   4.357   0.651  17.444 -1.0285 -0.1268  0.0166
  833MPD2     C12297   0.752   1.950  12.914 -0.3288 -0.2475 -0.5903
  833MPD2    C112298   0.806   2.008  12.797 -0.5702 -0.0661 -0.1924
  833MPD2    C212299   0.889   1.932  12.722  0.2589  0.0853  0.3096
  833MPD2    C312300   0.936   1.807  12.780  0.2443 -0.8824 -0.5735
  833MPD2    C412301   0.885   1.757  12.897 -0.3845 -0.0110 -0.7988
  833MPD2    C512302   0.791   1.828  12.964  0.7783 -0.4221  0.4900
  833MPD2     H12303   0.940   1.964  12.631  0.1584  1.7507  0.8434
  833MPD2    H112304   0.918   1.660  12.933 -0.0657  0.8339  1.1853
  833MPD2    H212305   0.673   1.987  12.978  0.1787  0.1480 -0.1938
  833MPD2    H312306   0.745   1.789  13.054 -1.3875 -1.3856 -1.0423
  833MPD2     N12307   1.003   1.709  12.701  0.3539  0.4553  0.3687
  833MPD2    H512308   0.981   1.612  12.718 -2.2382  0.5286 -2.5629
  833MPD2    N112309   0.750   2.133  12.760  0.0269  0.4893 -0.3570
  833MPD2    H712310   0.690   2.180  12.827 -1.0212  0.1761 -1.0748
  834MPD2     C12311   1.328   1.547  11.657 -0.3175 -0.1300 -0.6870
  834MPD2    C112312   1.201   1.493  11.688  0.1021 -0.6497 -0.1145
  834MPD2    C212313   1.145   1.526  11.804  0.4775 -0.0042 -0.6816
  834MPD2    C312314   1.216   1.598  11.902  0.2439 -0.4051 -0.2424
  834MPD2    C412315   1.342   1.646  11.868 -0.3755  0.0434  0.7282
  834MPD2    C512316   1.389   1.621  11.745 -0.1242  0.5917 -0.1573
  834MPD2     H12317   1.045   1.488  11.821 -0.1819  1.0819 -2.1485
  834MPD2    H112318   1.402   1.709  11.933 -0.7325  0.8375  0.2970
  834MPD2    H212319   1.375   1.526  11.562 -0.7047  1.6834 -1.2781
  834MPD2    H312320   1.478   1.672  11.709  1.1758 -1.0729  0.6937
  834MPD2     N12321   1.158   1.615  12.031 -0.2469 -0.0654  0.0055
  834MPD2    H512322   1.076   1.555  12.036 -0.5656  0.3694  0.0631
  834MPD2    N112323   1.132   1.405  11.602 -0.2169  0.7950  0.3231
  834MPD2    H712324   1.049   1.355  11.633  0.2981 -0.4818 -0.3851
  835MPD2     C12325   1.162   4.707  10.709 -0.6064  0.8635  0.5047
  835MPD2    C112326   1.102   4.732  10.827 -0.2378  0.3472 -0.3809
  835MPD2    C212327   1.160   4.678  10.944 -0.3874  0.6668 -0.2782
  835MPD2    C312328   1.274   4.601  10.936 -0.1671  0.4727 -0.0757
  835MPD2    C412329   1.342   4.588  10.815  0.2909 -0.2717 -0.1999
  835MPD2    C512330   1.293   4.654  10.709 -0.0372 -0.3166  0.4524
  835MPD2     H12331   1.121   4.700  11.043 -2.2820  1.6663 -1.2630
  835MPD2    H112332   1.433   4.530  10.810 -0.4471 -1.2649 -2.0153
  835MPD2    H212333   1.123   0.011  10.619 -0.4374 -0.5397 -0.3075
  835MPD2    H312334   1.347   4.653  10.615 -1.3009 -4.9790 -0.2345
  835MPD2     N12335   1.335   4.551  11.050  0.2591 -0.2138  0.3621
  835MPD2    H512336   1.407   4.482  11.030  1.5819  0.7562  1.7890
  835MPD2    N112337   0.973   0.060  10.845  0.0544 -0.2018  0.3706
  835MPD2    H712338   0.942   0.080  10.939 -0.7724 -1.4869  0.3698
  836MPD2     C12339   1.432   4.335  11.971 -0.1948 -0.4300  0.0898
  836MPD2    C112340   1.351   4.390  11.878 -0.0919 -0.4329 -0.2067
  836MPD2    C212341   1.225   4.441  11.925  1.1780 -0.2201 -0.1855
  836MPD2    C312342   1.191   4.440  12.058 -0.0770 -0.4400  0.2199
  836MPD2    C412343   1.278   4.370  12.140 -0.8405  0.1500  0.0776
  836MPD2    C512344   1.391   4.321  12.097  0.7242 -0.4698  0.5267
  836MPD2     H12345   1.158   4.493  11.857  0.3128  0.4927  1.2151
  836MPD2    H112346   1.261   4.352  12.245  2.1150 -0.1990  0.4815
  836MPD2    H212347   1.522   4.288  11.934 -0.9103 -0.1912 -1.9875
  836MPD2    H312348   1.458   4.278  12.170  0.4310  0.1357  1.1499
  836MPD2     N12349   1.079   4.505  12.109  0.0999  0.5571 -0.2541
  836MPD2    H512350   1.069   4.485  12.208 -1.8162 -0.2586 -0.6129
  836MPD2    N112351   1.398   4.406  11.739 -0.0579 -0.3412 -0.0164
  836MPD2    H712352   1.498   4.398  11.730  0.2945  1.9695  1.8219
  837MPD2     C12353   4.234   4.545   9.624 -0.7567 -0.0308  0.0460
  837MPD2    C112354   4.126   4.524   9.712  0.6229 -0.2609 -0.2695
  837MPD2    C212355   4.106   4.618   9.810  0.1816 -0.1045 -0.9888
  837MPD2    C312356   4.182   4.733   9.812  0.5097  0.3768  0.7535
  837MPD2    C412357   4.299   4.739   9.735  0.3216 -0.4154  0.0472
  837MPD2    C512358   4.318   4.650   9.637  0.2101 -0.1513 -0.4074
  837MPD2     H12359   4.022   4.601   9.877 -1.6515  1.9525 -2.7724
  837MPD2    H112360   4.362   0.085   9.731  0.3526 -0.4606 -0.4143
  837MPD2    H212361   4.254   4.465   9.553 -0.1528  0.3159 -0.1725
  837MPD2    H312362   4.404   4.662   9.573 -2.2502  0.4568 -3.6277
  837MPD2     N12363   4.119   0.103   9.875  0.3581  0.5565 -0.0614
  837MPD2    H512364   4.027   0.079   9.912  1.1646 -2.3308  0.1043
  837MPD2    N112365   4.035   4.417   9.685 -0.6557  0.7445  0.0293
  837MPD2    H712366   4.042   4.375   9.593 -2.2366 -0.0118  0.2386
  838MPD2     C12367   2.071   2.795  11.656 -0.2815  0.4571  0.3361
  838MPD2    C112368   2.070   2.688  11.570  0.3844 -0.6135 -0.2736
  838MPD2    C212369   2.012   2.570  11.614 -0.3938  0.7170  0.9281
  838MPD2    C312370   1.964   2.554  11.737 -1.4440  0.4102  0.3891
  838MPD2    C412371   1.970   2.655  11.822  0.6628  0.3046  0.0782
  838MPD2    C512372   2.024   2.776  11.782  0.4659  0.0167 -0.0965
  838MPD2     H12373   2.005   2.477  11.558 -0.5222  1.8604 -0.9349
  838MPD2    H112374   1.924   2.639  11.918  0.4686  0.8060  0.0651
  838MPD2    H212375   2.107   2.893  11.628 -2.6172  0.7368 -1.6773
  838MPD2    H312376   2.019   2.860  11.850  0.3173  1.0517 -1.3854
  838MPD2     N12377   1.904   2.428  11.760 -0.1840  0.2439  0.5865
  838MPD2    H512378   1.905   2.363  11.682 -0.7913  0.1034  0.6935
  838MPD2    N112379   2.128   2.683  11.439 -0.0330 -0.6616 -0.2222
  838MPD2    H712380   2.144   2.595  11.392  1.4069  0.1776 -1.3410
  839MPD2     C12381   2.345   1.960  11.257 -0.3985  0.0226 -0.0701
  839MPD2    C112382   2.310   1.999  11.136 -0.9149 -0.2324 -0.1828
  839MPD2    C212383   2.310   2.133  11.103  0.0713  0.4415  0.2822
  839MPD2    C312384   2.348   2.224  11.198 -0.0892 -0.0054 -0.5823
  839MPD2    C412385   2.388   2.185  11.321  0.1067 -1.1692  0.1171
  839MPD2    C512386   2.380   2.054  11.349  0.6388 -0.6097 -0.2395
  839MPD2     H12387   2.285   2.176  11.007 -0.2550  1.6237  0.8954
  839MPD2    H112388   2.425   2.258  11.393  1.7885 -1.7834 -0.1131
  839MPD2    H212389   2.345   1.855  11.285  0.7168 -0.5610 -2.2743
  839MPD2    H312390   2.420   2.021  11.445  0.1488 -1.5361 -0.3508
  839MPD2     N12391   2.344   2.368  11.181 -0.3750 -0.2754 -0.2876
  839MPD2    H512392   2.341   2.418  11.269  0.0885 -0.4710 -0.1631
  839MPD2    N112393   2.263   1.907  11.039 -0.0739  0.3172  0.8306
  839MPD2    H712394   2.284   1.933  10.943  1.4744  3.0438  1.9211
  840MPD2     C12395   2.634   0.155  10.292  0.2789 -0.3592  0.1826
  840MPD2    C112396   2.585   0.117  10.415 -1.0507  0.1217 -0.2460
  840MPD2    C212397   2.626   0.189  10.530  0.1549  0.3662  0.1339
  840MPD2    C312398   2.722   0.289  10.511  0.4939  0.0601  0.9277
  840MPD2    C412399   2.775   0.318  10.385  0.2579  0.2787 -0.1085
  840MPD2    C512400   2.726   0.249  10.276 -0.5748  0.4620 -0.3964
  840MPD2     H12401   2.598   0.165  10.632 -1.9236 -1.1515 -0.7911
  840MPD2    H112402   2.845   0.400  10.376  0.0370  0.5593  0.6874
  840MPD2    H212403   2.600   0.096  10.207 -1.1876  1.2678 -0.3783
  840MPD2    H312404   2.746   0.272  10.172  0.0786 -1.0069 -0.5953
  840MPD2     N12405   2.774   0.367  10.619  0.1817 -0.0737  0.1156
  840MPD2    H512406   2.833   0.444  10.589 -2.5765  2.5182  1.3474
  840MPD2    N112407   2.502   0.006  10.426 -0.2240  0.1115  0.2061
  840MPD2    H712408   2.466   4.705  10.342  0.8380 -0.8068  0.2152
  841MPD2     C12409   3.199   4.738  14.229  0.1640 -0.5691  0.0543
  841MPD2    C112410   3.139   4.687  14.337 -0.4710  0.2906  0.4115
  841MPD2    C212411   3.200   4.684  14.458 -1.0299 -0.3419 -1.4403
  841MPD2    C312412   3.331   4.728  14.472  0.4018 -0.5671 -0.6463
  841MPD2    C412413   3.395   0.036  14.364 -0.5035 -0.8302  0.3625
  841MPD2    C512414   3.329   0.042  14.246  0.4459 -0.3392 -0.2981
  841MPD2     H12415   3.140   4.650  14.541  0.6016  0.9998  0.2996
  841MPD2    H112416   3.491   0.086  14.366 -0.6628 -0.5334  0.6073
  841MPD2    H212417   3.151   0.021  14.135 -0.8281  3.3875  1.6449
  841MPD2    H312418   3.375   0.096  14.165  1.5342 -1.2202 -0.2680
  841MPD2     N12419   3.397   4.733  14.597 -0.5717 -0.8795 -0.0835
  841MPD2    H512420   3.489   0.032  14.588 -1.3129  0.3563 -1.8512
  841MPD2    N112421   3.012   4.623  14.337 -0.7836 -0.3205 -0.0481
  841MPD2    H712422   2.982   4.589  14.428 -0.1198  0.2342  0.3716
  842MPD2     C12423   3.487   0.966  16.950 -0.1228  0.3210  0.2994
  842MPD2    C112424   3.382   0.898  16.903  0.0178 -0.1822 -0.0972
  842MPD2    C212425   3.321   0.812  16.990 -0.4470  0.5139 -0.4580
  842MPD2    C312426   3.358   0.800  17.121 -0.1959 -0.0704  0.2278
  842MPD2    C412427   3.465   0.877  17.166  0.7223 -0.1871  0.1922
  842MPD2    C512428   3.532   0.951  17.078  1.0091 -0.3456 -0.3321
  842MPD2     H12429   3.224   0.772  16.961 -1.7252  3.0127  0.4026
  842MPD2    H112430   3.499   0.861  17.268  1.2042 -0.6869 -0.0480
  842MPD2    H212431   3.535   1.028  16.874 -0.6421  0.1642 -0.1551
  842MPD2    H312432   3.624   0.999  17.107  1.7439 -0.9559 -1.6391
  842MPD2     N12433   3.273   0.726  17.200  0.0023  0.1794  0.3850
  842MPD2    H512434   3.186   0.692  17.159 -0.7393  1.1924  1.1184
  842MPD2    N112435   3.336   0.927  16.771  0.4356 -0.1698  0.2171
  842MPD2    H712436   3.365   1.015  16.729 -3.5572  1.2466  0.3917
  843MPD2     C12437   0.537   2.060  17.580 -0.6215  0.0948  0.0774
  843MPD2    C112438   0.551   1.990  17.703  0.2625 -0.0260  0.0148
  843MPD2    C212439   0.647   2.031   0.033  0.1125  0.7415  0.0743
  843MPD2    C312440   0.725   2.141   0.006 -0.3097 -0.4018 -0.3231
  843MPD2    C412441   0.706   2.206  17.657  0.0629 -0.3080  0.5774
  843MPD2    C512442   0.614   2.169  17.560 -0.0209 -0.0423 -0.4140
  843MPD2     H12443   0.643   1.984   0.131 -1.6146 -0.7556 -0.7371
  843MPD2    H112444   0.754   2.302  17.640 -1.6672  0.3547 -0.5196
  843MPD2    H212445   0.462   2.035  17.506 -0.2005  0.1337 -0.3627
  843MPD2    H312446   0.613   2.224  17.466 -0.8684 -1.3684 -1.1720
  843MPD2     N12447   0.816   2.202   0.100  0.0474  0.0808 -0.0999
  843MPD2    H512448   0.848   2.296   0.080  1.0679 -0.1496  0.4338
  843MPD2    N112449   0.464   1.882  17.732  0.2123 -0.0557  0.0969
  843MPD2    H712450   0.396   1.849  17.664  1.5238 -0.9317 -0.7958
  844MPD2     C12451   4.067   0.542  16.865 -0.0538  0.1658 -0.1234
  844MPD2    C112452   4.100   0.644  16.775 -0.0432  0.4148 -0.6666
  844MPD2    C212453   4.215   0.720  16.800 -0.2598 -0.1057  0.3101
  844MPD2    C312454   4.284   0.707  16.916 -0.4052 -0.2565 -1.0478
  844MPD2    C412455   4.244   0.617  17.011  0.0205 -0.2427 -0.4616
  844MPD2    C512456   4.140   0.530  16.981  0.0532 -0.0916 -0.5110
  844MPD2     H12457   4.254   0.782  16.719 -1.7508 -0.9464 -1.0522
  844MPD2    H112458   4.293   0.617  17.108  1.6914  0.2646 -1.2984
  844MPD2    H212459   3.988   0.469  16.856 -0.1147  0.0812  1.0712
  844MPD2    H312460   4.106   0.457  17.054 -0.7709  1.1158  0.3217
  844MPD2     N12461   4.399   0.785  16.939  0.3184 -0.0348 -0.1261
  844MPD2    H512462   4.457   0.757  17.017 -1.4609 -2.4098  0.3254
  844MPD2    N112463   4.043   0.657  16.649  0.2453 -0.2546  0.5884
  844MPD2    H712464   4.073   0.729  16.584  0.2347  0.9844  1.9705
  845MPD2     C12465   4.508   1.729  17.171  0.3068  0.6932 -0.0315
  845MPD2    C112466   4.400   1.641  17.166  0.8154  0.0139 -0.0371
  845MPD2    C212467   4.428   1.511  17.133 -0.2874  0.4507  0.1674
  845MPD2    C312468   4.561   1.470  17.111 -0.3363  0.7840 -0.2873
  845MPD2    C412469   4.668   1.557  17.132 -0.3248 -0.0906  0.0879
  845MPD2    C512470   4.635   1.689  17.158 -0.1421  0.6337  1.0650
  845MPD2     H12471   4.346   1.445  17.109  2.1232 -2.5547  0.2396
  845MPD2    H112472   0.031   1.530  17.132  0.3967  2.6993 -0.6416
  845MPD2    H212473   4.486   1.833  17.192 -1.7011  0.1370  0.6579
  845MPD2    H312474   4.714   1.763  17.164  0.8488 -0.1058 -2.6906
  845MPD2     N12475   4.575   1.336  17.079 -0.9135 -0.0931  0.0017
  845MPD2    H512476   4.489   1.283  17.085 -0.9118 -0.3052 -1.8900
  845MPD2    N112477   4.261   1.683  17.189  0.2162 -0.0230 -0.5185
  845MPD2    H712478   4.248   1.783  17.180 -0.5497 -0.1899 -1.1806
  846MPD2     C12479   0.713   1.348  13.610 -0.0594  0.2333 -0.4559
  846MPD2    C112480   0.599   1.428  13.624 -0.2836 -0.1840 -0.1387
  846MPD2    C212481   0.567   1.471  13.752  0.2774 -0.0551  1.1579
  846MPD2    C312482   0.649   1.442  13.858 -0.1155  0.0790 -0.2358
  846MPD2    C412483   0.759   1.362  13.835  0.1561 -0.3906  0.3388
  846MPD2    C512484   0.790   1.316  13.714  0.2342 -0.2252  0.4517
  846MPD2     H12485   0.479   1.533  13.766 -0.0284 -0.1012 -0.5714
  846MPD2    H112486   0.833   1.332  13.908  0.6527  1.7506  0.7098
  846MPD2    H212487   0.731   1.303  13.512  1.2202 -0.4618  0.0932
  846MPD2    H312488   0.887   1.276  13.688  0.3681  1.6955 -2.0402
  846MPD2     N12489   0.625   1.489  13.992 -0.3599 -0.0143 -0.1759
  846MPD2    H512490   0.533   1.531  14.001  0.6043  2.2638 -1.0550
  846MPD2    N112491   0.519   1.462  13.519  0.2048 -0.4874 -0.2580
  846MPD2    H712492   0.456   1.540  13.535  0.8507  0.0621 -0.4381
  847MPD2     C12493   1.039   2.170  13.775 -0.0854  0.3427 -0.3921
  847MPD2    C112494   1.103   2.280  13.817 -0.1742 -0.4602 -0.6345
  847MPD2    C212495   1.199   2.269  13.919 -0.0505  0.1055  0.8837
  847MPD2    C312496   1.222   2.153  13.986 -0.2760  0.2397  0.5476
  847MPD2    C412497   1.149   2.035  13.942  0.2013  0.2066 -0.0053
  847MPD2    C512498   1.063   2.046  13.835  0.3782 -0.5544  0.2165
  847MPD2     H12499   1.248   2.359  13.954  0.9537 -0.6254  1.3360
  847MPD2    H112500   1.169   1.936  13.981 -1.6564  0.2031  0.9374
  847MPD2    H212501   0.969   2.169  13.692 -1.2721  1.2913  0.5988
  847MPD2    H312502   1.013   1.957  13.800 -1.6251  0.5369  0.3255
  847MPD2     N12503   1.302   2.161  14.103 -0.4051  0.7175 -0.1887
  847MPD2    H512504   1.354   2.246  14.124  2.4814 -1.8127  2.8275
  847MPD2    N112505   1.064   2.407  13.769  0.3554  0.3492  0.8805
  847MPD2    H712506   1.115   2.476  13.823  3.2069 -1.7479  0.8527
  848MPD2     C12507   3.666   0.857  16.348  0.0749 -0.9648 -0.2506
  848MPD2    C112508   3.686   0.951  16.449 -0.4117  0.0112  0.4331
  848MPD2    C212509   3.710   1.075  16.409  0.1666  0.9908 -0.4653
  848MPD2    C312510   3.714   1.117  16.276 -0.4405 -0.3551  0.0317
  848MPD2    C412511   3.689   1.027  16.183  0.3990 -0.4182 -0.1174
  848MPD2    C512512   3.663   0.895  16.216  0.1355  0.6155 -0.0498
  848MPD2     H12513   3.757   1.131  16.490 -0.8343 -0.3234  1.0228
  848MPD2    H112514   3.681   1.055  16.079 -1.1219  0.8083  0.3227
  848MPD2    H212515   3.661   0.750  16.363  0.2948 -0.5558  2.7365
  848MPD2    H312516   3.654   0.824  16.135  2.3824  2.2437 -1.7188
  848MPD2     N12517   3.768   1.244  16.232  0.1527 -0.0187  0.3893
  848MPD2    H512518   3.774   1.246  16.131 -0.3716  1.1520  0.3855
  848MPD2    N112519   3.678   0.916  16.585 -0.5708 -0.0927  1.0203
  848MPD2    H712520   3.696   0.994  16.647  0.9799 -1.1792  1.9120
  849MPD2     C12521   2.998   0.726  14.615 -0.1921  0.3091  0.3492
  849MPD2    C112522   3.055   0.682  14.497 -0.2011  0.3085  0.0972
  849MPD2    C212523   3.192   0.681  14.489  0.4137 -0.5349 -0.1016
  849MPD2    C312524   3.269   0.733  14.589 -0.5770  0.4116 -0.4305
  849MPD2    C412525   3.205   0.784  14.699 -0.1257 -0.2784  0.2005
  849MPD2    C512526   3.071   0.769  14.718  0.5359  0.2972 -0.4450
  849MPD2     H12527   3.239   0.646  14.398  0.6646 -0.0838 -0.1439
  849MPD2    H112528   3.256   0.841  14.776 -1.4205 -0.9849  1.5709
  849MPD2    H212529   2.893   0.751  14.624  0.0284  0.6134  2.1183
  849MPD2    H312530   3.028   0.811  14.808  0.3022 -1.9918  0.5323
  849MPD2     N12531   3.409   0.744  14.583 -0.1967  0.7395 -0.4516
  849MPD2    H512532   3.459   0.811  14.640 -0.7326  2.3232 -1.8349
  849MPD2    N112533   2.960   0.647  14.394 -0.2998  0.7144  0.0116
  849MPD2    H712534   2.867   0.683  14.412 -0.0216  1.0449  0.7923
  850MPD2     C12535   0.772   3.697  14.688 -0.4081 -0.0547 -0.2631
  850MPD2    C112536   0.812   3.683  14.819  0.6511  0.5050 -0.4521
  850MPD2    C212537   0.934   3.732  14.859 -0.1378  0.8876 -0.2129
  850MPD2    C312538   1.026   3.794  14.772  0.5657 -0.1032 -0.0246
  850MPD2    C412539   0.987   3.792  14.638  0.7629  0.6035 -0.5655
  850MPD2    C512540   0.863   3.753  14.598  0.6720 -0.3777  0.1899
  850MPD2     H12541   0.966   3.718  14.961 -2.5848  0.5469  0.5113
  850MPD2    H112542   1.054   3.838  14.567 -0.8932  0.1705 -2.4043
  850MPD2    H212543   0.676   3.667  14.646 -1.3198  0.2459  1.5901
  850MPD2    H312544   0.833   3.781  14.498  1.0099 -2.1170 -0.4027
  850MPD2     N12545   1.161   3.835  14.805  0.2001 -0.2094 -0.0298
  850MPD2    H512546   1.217   3.874  14.729  0.1956  0.0899  0.1180
  850MPD2    N112547   0.728   3.635  14.919  0.1052  0.1976  0.5268
  850MPD2    H712548   0.766   3.613  15.010 -0.9450 -0.6199  0.7729
  851MPD2     C12549   1.115   3.339  15.262  0.6122  0.0396 -0.0998
  851MPD2    C112550   1.010   3.252  15.235  0.1899 -0.2843  0.4514
  851MPD2    C212551   1.046   3.116  15.210  0.2177 -0.3834 -0.6084
  851MPD2    C312552   1.183   3.087  15.213 -0.5771  0.3356 -0.1580
  851MPD2    C412553   1.282   3.171  15.271 -0.5658  0.4345 -0.3589
  851MPD2    C512554   1.246   3.298  15.285 -0.7183  1.1306 -0.8162
  851MPD2     H12555   0.977   3.042  15.173  2.3968 -2.8861  0.3864
  851MPD2    H112556   1.388   3.149  15.282 -0.5982  0.5320  0.1485
  851MPD2    H212557   1.098   3.445  15.274 -1.5455 -0.1047 -1.9221
  851MPD2    H312558   1.306   3.384  15.312  0.5003  0.2453 -0.6635
  851MPD2     N12559   1.216   2.962  15.152  0.5394  1.1329 -0.2580
  851MPD2    H512560   1.141   2.896  15.133  0.9906  0.4192  0.4705
  851MPD2    N112561   0.880   3.302  15.216  0.2951 -0.3873 -0.4037
  851MPD2    H712562   0.861   3.402  15.208  0.1613 -0.3276  0.6441
  852MPD2     C12563   0.372   0.929  10.476 -0.7281 -0.0742 -0.1490
  852MPD2    C112564   0.383   0.994  10.595 -0.1813 -0.0788 -0.5915
  852MPD2    C212565   0.434   1.123  10.604 -1.0943  0.5847 -0.7863
  852MPD2    C312566   0.493   1.187  10.502  0.1924  0.4938 -0.6944
  852MPD2    C412567   0.491   1.121  10.382  0.1216  0.2418 -0.4269
  852MPD2    C512568   0.419   1.002  10.372  0.2371  1.0220  0.4049
  852MPD2     H12569   0.438   1.175  10.699 -1.7140  3.5940 -2.3834
  852MPD2    H112570   0.529   1.159  10.288 -1.3568 -0.5250 -1.3278
  852MPD2    H212571   0.322   0.835  10.457 -1.7825  0.1922  1.2962
  852MPD2    H312572   0.404   0.964  10.271  1.7149 -1.1058  0.9901
  852MPD2     N12573   0.552   1.314  10.514 -0.2734  0.3284 -0.1893
  852MPD2    H512574   0.563   1.352  10.608 -0.2579 -0.8047  0.2648
  852MPD2    N112575   0.322   0.942  10.714 -0.2939 -0.3057 -0.6672
  852MPD2    H712576   0.347   0.990  10.800  0.6178  1.2326 -1.7649
  853MPD2     C12577   2.304   0.591  12.523  0.2590 -0.3907 -0.0301
  853MPD2    C112578   2.189   0.649  12.478  0.0035  0.3806 -0.1025
  853MPD2    C212579   2.157   0.636  12.347 -0.6304  0.2157  0.4187
  853MPD2    C312580   2.241   0.572  12.255  0.2269 -0.4203 -0.4983
  853MPD2    C412581   2.361   0.519  12.306 -0.0147 -0.3641  0.2380
  853MPD2    C512582   2.398   0.528  12.440 -0.6367  0.0096 -0.2432
  853MPD2     H12583   2.072   0.688  12.305  0.9336  1.1925 -1.5156
  853MPD2    H112584   2.428   0.467  12.239 -0.5148 -0.4603 -0.1933
  853MPD2    H212585   2.327   0.581  12.628  0.3928 -0.1171 -0.0331
  853MPD2    H312586   2.483   0.478  12.484 -0.3777  0.0521 -0.6990
  853MPD2     N12587   2.218   0.560  12.117 -0.1608 -0.4625 -0.0831
  853MPD2    H512588   2.284   0.495  12.076 -0.0395  0.2064 -0.9480
  853MPD2    N112589   2.112   0.730  12.570 -0.3196 -0.4170  0.0482
  853MPD2    H712590   2.145   0.729  12.666 -0.9242  0.1799  0.2653
  854MPD2     C12591   3.777   0.978  12.777 -0.2528 -0.1354 -0.3651
  854MPD2    C112592   3.836   1.099  12.797  0.5355 -0.4310 -0.0963
  854MPD2    C212593   3.965   1.103  12.857  0.0955 -0.8657 -0.1815
  854MPD2    C312594   4.026   0.987  12.903 -0.5082 -0.0352  0.2625
  854MPD2    C412595   3.964   0.867  12.871  0.1238  0.5748 -0.6553
  854MPD2    C512596   3.839   0.859  12.803 -0.3443  0.3681 -0.3917
  854MPD2     H12597   4.014   1.196  12.885  1.9242 -1.9138  0.0944
  854MPD2    H112598   4.017   0.773  12.887  0.8351  1.2157  0.8015
  854MPD2    H212599   3.676   0.966  12.741 -0.5376 -0.3354  0.5116
  854MPD2    H312600   3.792   0.765  12.779 -2.1465  0.7144  1.7979
  854MPD2     N12601   4.161   0.979  12.961 -0.1394  0.0371  0.6315
  854MPD2    H512602   4.200   0.893  12.998  1.7102 -0.3762 -2.3056
  854MPD2    N112603   3.762   1.209  12.763 -0.8120  0.1202 -0.6014
  854MPD2    H712604   3.673   1.183  12.722  0.2830  0.3926 -3.1457
  855MPD2     C12605   4.327   1.247  13.758 -0.9731  0.2562 -0.3235
  855MPD2    C112606   4.424   1.157  13.730 -0.4757 -0.4049  0.4554
  855MPD2    C212607   4.467   1.137  13.600  0.7779  0.2079 -0.4160
  855MPD2    C312608   4.417   1.212  13.492 -0.8740 -0.5288  0.5799
  855MPD2    C412609   4.323   1.305  13.530  0.3984 -0.6630 -0.7895
  855MPD2    C512610   4.282   1.319  13.658 -0.1133  0.4824  0.8226
  855MPD2     H12611   4.549   1.067  13.592 -0.2244 -0.6669 -2.8781
  855MPD2    H112612   4.281   1.377  13.461 -1.4612 -1.6904 -0.7087
  855MPD2    H212613   4.315   1.288  13.857 -1.1455 -3.3477  1.1453
  855MPD2    H312614   4.216   1.401  13.682  1.0383  2.2641 -2.1292
  855MPD2     N12615   4.453   1.198  13.358 -0.3129  0.3230  0.5614
  855MPD2    H512616   4.403   1.253  13.288  2.0258  0.6915 -0.8320
  855MPD2    N112617   4.458   1.064  13.834  0.1503 -0.5643 -0.2565
  855MPD2    H712618   4.398   1.062  13.916  2.2093  2.9747  1.2950
  856MPD2     C12619   1.388   1.959  13.569  0.2590  0.2253  1.0122
  856MPD2    C112620   1.442   2.083  13.580 -0.3500 -0.0969 -0.1378
  856MPD2    C212621   1.358   2.191  13.546 -0.4084  0.0639  0.2084
  856MPD2    C312622   1.228   2.177  13.490  0.0779  0.1144  0.4921
  856MPD2    C412623   1.187   2.051  13.484 -0.1153  0.0583  0.2444
  856MPD2    C512624   1.263   1.938  13.526  0.5510 -0.5011  0.3887
  856MPD2     H12625   1.392   2.289  13.576 -2.4377  0.2705  1.8298
  856MPD2    H112626   1.086   2.028  13.452  0.7640  0.6210 -2.9657
  856MPD2    H212627   1.445   1.872  13.600  1.0349  0.2894 -0.2206
  856MPD2    H312628   1.219   1.840  13.512  1.3296 -1.1364  2.3453
  856MPD2     N12629   1.150   2.287  13.447  0.3508  0.5086  0.6029
  856MPD2    H512630   1.053   2.268  13.424  0.2694 -0.1493  1.5089
  856MPD2    N112631   1.579   2.108  13.605 -0.3249  0.3666 -0.4949
  856MPD2    H712632   1.604   2.204  13.626  0.2718 -0.6759  3.4629
  857MPD2     C12633   3.052   3.814  12.877 -0.1886  0.6926 -0.1757
  857MPD2    C112634   3.176   3.818  12.807 -0.9866 -0.3440  0.2910
  857MPD2    C212635   3.253   3.927  12.810  0.4082  0.2812 -0.8368
  857MPD2    C312636   3.219   4.037  12.881  0.7264  0.0021  0.7920
  857MPD2    C412637   3.102   4.040  12.951  0.2454  0.7952 -1.0489
  857MPD2    C512638   3.018   3.927  12.946  0.5415 -0.0471  0.5391
  857MPD2     H12639   3.348   3.932  12.758  0.7105 -1.9198 -0.5042
  857MPD2    H112640   3.070   4.128  13.005 -1.6782 -0.6059  0.0700
  857MPD2    H212641   2.982   3.732  12.872  0.9165 -0.0787 -3.3775
  857MPD2    H312642   2.923   3.920  12.998 -0.0385  1.3029 -0.3610
  857MPD2     N12643   3.310   4.142  12.897 -0.0004  0.7810 -0.4919
  857MPD2    H512644   3.394   4.140  12.839  0.5867 -0.7675  0.4115
  857MPD2    N112645   3.216   3.690  12.757  0.3174  0.3207  0.1393
  857MPD2    H712646   3.150   3.614  12.771 -1.8017  2.6371  2.7264
  858MPD2     C12647   3.963   3.370  16.698 -1.3023  0.0064  0.1703
  858MPD2    C112648   4.078   3.384  16.625  0.4415  0.4961 -0.6287
  858MPD2    C212649   4.186   3.450  16.684  0.1383 -0.3532 -0.6346
  858MPD2    C312650   4.173   3.507  16.806 -0.4023  0.0238  0.2608
  858MPD2    C412651   4.057   3.496  16.876 -0.5383  0.4585  0.1276
  858MPD2    C512652   3.951   3.427  16.821  0.0867  0.9192 -0.5030
  858MPD2     H12653   4.281   3.461  16.633 -0.0267  0.4151 -0.7742
  858MPD2    H112654   4.049   3.539  16.975  0.4642 -3.9699  2.1186
  858MPD2    H212655   3.875   3.322  16.657  0.3823 -1.2834 -1.9558
  858MPD2    H312656   3.856   3.413  16.872  0.4564 -0.7755 -0.2722
  858MPD2     N12657   4.276   3.570  16.880  0.4703  0.3928 -0.3195
  858MPD2    H512658   4.243   3.616  16.964 -0.0553  1.4404 -1.1084
  858MPD2    N112659   4.078   3.311  16.501  0.1885  0.0184  0.0612
  858MPD2    H712660   3.993   3.262  16.473 -0.1198  0.2927  0.5235
  859MPD2     C12661   2.704   0.807  15.385 -0.1055  0.8071  0.1476
  859MPD2    C112662   2.830   0.748  15.366 -0.0809 -0.5456  0.0931
  859MPD2    C212663   2.868   0.644  15.446 -0.1450 -0.2522  0.7676
  859MPD2    C312664   2.789   0.597  15.549 -0.6821  0.1029  0.2094
  859MPD2    C412665   2.675   0.664  15.579 -0.3920  0.1088  0.2565
  859MPD2    C512666   2.625   0.761  15.494 -0.2945  0.0659 -0.4038
  859MPD2     H12667   2.967   0.600  15.440 -0.3878 -0.6531 -0.2825
  859MPD2    H112668   2.617   0.645  15.669  1.9415 -2.0650  1.3064
  859MPD2    H212669   2.664   0.873  15.310  1.0649 -0.6327 -1.7441
  859MPD2    H312670   2.528   0.804  15.517 -1.3083 -1.7178 -1.3448
  859MPD2     N12671   2.816   0.489  15.634 -0.2331 -0.0471  0.2302
  859MPD2    H512672   2.752   0.470  15.710  1.0063 -2.6621  0.6220
  859MPD2    N112673   2.916   0.806  15.263  0.3550  0.3268 -0.4718
  859MPD2    H712674   2.881   0.893  15.226 -0.0652  0.3191 -0.1100
  860MPD2     C12675   0.182   0.691  11.867 -0.2420  0.0480 -0.6215
  860MPD2    C112676   0.194   0.646  11.997  0.7705  0.2485 -0.7558
  860MPD2    C212677   0.092   0.577  12.060  0.5666  1.6074 -0.4043
  860MPD2    C312678   4.713   0.575  11.994  0.3665 -0.2085  0.0273
  860MPD2    C412679   4.702   0.622  11.870  0.1077 -0.3807 -0.2025
  860MPD2    C512680   0.062   0.683  11.804 -0.2341 -0.5355  0.7245
  860MPD2     H12681   0.098   0.548  12.164 -0.8612 -1.0832 -1.0553
  860MPD2    H112682   4.619   0.596  11.805  0.6676 -1.7428 -0.3739
  860MPD2    H212683   0.260   0.741  11.811 -0.9883  0.4156 -1.3247
  860MPD2    H312684   0.059   0.709  11.699  0.7335 -1.4889  0.4557
  860MPD2     N12685   4.593   0.520  12.054 -0.4390 -0.6755 -0.7019
  860MPD2    H512686   4.606   0.477  12.145  2.9824 -1.2637 -1.4629
  860MPD2    N112687   0.315   0.664  12.064 -0.2860  0.0001 -0.3191
  860MPD2    H712688   0.338   0.596  12.136  2.2001  2.6825  1.4471
  861MPD2     C12689   3.265   3.824  10.841  0.0720 -0.5301 -0.5320
  861MPD2    C112690   3.378   3.914  10.831  0.0435  0.2639 -0.1150
  861MPD2    C212691   3.385   4.009  10.738 -0.2349 -0.6080  0.9796
  861MPD2    C312692   3.285   4.021  10.648 -0.4845 -0.8742  0.4922
  861MPD2    C412693   3.176   3.944  10.651  0.0542  0.4658 -0.5924
  861MPD2    C512694   3.165   3.843  10.742  0.2917  0.3554 -0.2701
  861MPD2     H12695   3.475   4.067  10.724 -1.0579 -0.1015 -2.0753
  861MPD2    H112696   3.088   3.960  10.590 -0.0555 -1.3966 -0.9347
  861MPD2    H212697   3.261   3.739  10.907  2.2328  0.5992  1.0609
  861MPD2    H312698   3.080   3.776  10.744  1.9769 -1.7777 -0.9580
  861MPD2     N12699   3.293   4.134  10.562 -0.1465 -0.3910  0.1520
  861MPD2    H512700   3.373   4.195  10.575  0.4675 -0.6993 -2.2286
  861MPD2    N112701   3.479   3.900  10.922  0.4427 -0.3868  0.3397
  861MPD2    H712702   3.561   3.959  10.913  0.0306  0.1127 -0.1116
  862MPD2     C12703   3.059   4.400   9.863  0.0246  0.0309 -0.5745
  862MPD2    C112704   3.053   4.325   9.981 -0.5067  0.0439 -0.1781
  862MPD2    C212705   2.982   4.213   9.978  0.0280  0.3696 -0.1630
  862MPD2    C312706   2.906   4.176   9.869  0.2897 -0.4290 -0.0326
  862MPD2    C412707   2.901   4.263   9.767 -0.2245  0.0509 -0.5629
  862MPD2    C512708   2.982   4.369   9.756 -0.1164  0.4057 -0.2067
  862MPD2     H12709   2.977   4.158  10.072 -0.7796  0.0797 -0.3694
  862MPD2    H112710   2.828   4.241   9.690 -0.0298  0.5174 -0.8835
  862MPD2    H212711   3.123   4.488   9.863 -0.1798  0.2018  1.6715
  862MPD2    H312712   2.971   4.442   9.677 -0.7606  0.0305 -0.4641
  862MPD2     N12713   2.816   4.070   9.872 -0.3600 -0.3784  0.3660
  862MPD2    H512714   2.755   4.053   9.792 -1.0288 -0.5167  0.9055
  862MPD2    N112715   3.121   4.356  10.102  0.1468  0.0309 -0.0008
  862MPD2    H712716   3.102   4.290  10.177 -0.8100  1.1760  0.7615
  863MPD2     C12717   2.501   1.785  16.687 -0.5681 -0.4562  0.2473
  863MPD2    C112718   2.542   1.912  16.709  0.0180  0.1700  0.0071
  863MPD2    C212719   2.665   1.923  16.779  0.0433 -0.3569 -0.5114
  863MPD2    C312720   2.733   1.824  16.838 -0.2057  0.6609 -0.3311
  863MPD2    C412721   2.682   1.693  16.812 -1.0250  0.0691  0.1208
  863MPD2    C512722   2.562   1.680  16.740 -0.3526 -0.1023 -0.1162
  863MPD2     H12723   2.704   2.024  16.783  0.4299 -0.5558  0.8882
  863MPD2    H112724   2.724   1.599  16.844  0.5936  0.9468  0.5728
  863MPD2    H212725   2.401   1.766  16.647  0.0939 -1.2721 -1.0368
  863MPD2    H312726   2.518   1.581  16.728 -1.2728  0.4715 -1.5117
  863MPD2     N12727   2.842   1.847  16.917  0.2344  0.0612  0.3100
  863MPD2    H512728   2.892   1.762  16.941  1.1542  0.7853  0.9903
  863MPD2    N112729   2.465   2.024  16.662 -0.1273  0.1011 -0.4164
  863MPD2    H712730   2.389   2.015  16.595  0.4874 -1.0324 -0.9659
  864MPD2     C12731   3.004   3.215  17.189 -0.1447  0.4531  0.0769
  864MPD2    C112732   3.102   3.169  17.104 -0.2375 -0.9568 -0.4126
  864MPD2    C212733   3.192   3.254  17.045 -0.0393 -0.1537 -0.1971
  864MPD2    C312734   3.166   3.393  17.053 -0.8463  0.8495  0.1427
  864MPD2    C412735   3.067   3.441  17.139 -0.3898  0.1447 -0.0763
  864MPD2    C512736   2.995   3.350  17.213  0.0009 -0.4838 -0.1218
  864MPD2     H12737   3.278   3.218  16.990 -0.1706 -2.4295  1.0777
  864MPD2    H112738   3.066   3.548  17.156  0.7449  0.4471 -1.9674
  864MPD2    H212739   2.938   3.147  17.242  1.1508 -1.5356 -0.8807
  864MPD2    H312740   2.919   3.375  17.286  2.0930 -0.2497  1.9400
  864MPD2     N12741   3.246   3.493  16.990  0.2837 -0.3959  0.0292
  864MPD2    H512742   3.215   3.590  16.994  0.3212 -0.3414 -1.0483
  864MPD2    N112743   3.103   3.028  17.089  0.3022 -0.1258  0.3177
  864MPD2    H712744   3.027   2.977  17.132 -0.3509  0.7785  0.2538
  865MPD2     C12745   3.422   3.648  16.066  0.2288  0.7955  0.8170
  865MPD2    C112746   3.408   3.547  16.153 -0.8416 -0.2138 -0.0444
  865MPD2    C212747   3.388   3.588  16.283 -0.0756 -0.7530  0.6375
  865MPD2    C312748   3.390   3.725  16.322  0.3356 -0.0909 -0.5702
  865MPD2    C412749   3.409   3.821  16.224  0.4915  0.4242 -0.7644
  865MPD2    C512750   3.425   3.783  16.094  0.0705  0.5711  0.4382
  865MPD2     H12751   3.371   3.512  16.359 -1.8492  1.0087  2.0033
  865MPD2    H112752   3.420   3.925  16.255  1.7150  0.4139 -1.1604
  865MPD2    H212753   3.431   3.619  15.962  1.3064  0.7012  0.9357
  865MPD2    H312754   3.447   3.852  16.014  3.0094  0.4776  1.1687
  865MPD2     N12755   3.364   3.772  16.453 -0.4289  0.0412 -0.1250
  865MPD2    H512756   3.366   3.873  16.464  0.2431  0.1699 -1.3473
  865MPD2    N112757   3.394   3.411  16.103 -0.0360 -0.2468 -0.2206
  865MPD2    H712758   3.418   3.401  16.005 -2.0680 -2.1722 -0.5224
  866MPD2     C12759   4.352   4.414  11.015  0.5591 -0.5274  0.3656
  866MPD2    C112760   4.308   4.414  10.883  0.5694  0.0139 -0.5653
  866MPD2    C212761   4.176   4.451  10.859 -0.7503 -0.2986  0.2909
  866MPD2    C312762   4.101   4.517  10.957 -0.4725 -0.2132 -0.3260
  866MPD2    C412763   4.144   4.522  11.086  0.6862  0.0708  0.2361
  866MPD2    C512764   4.269   4.472  11.113 -0.1579 -0.3772 -0.3291
  866MPD2     H12765   4.136   4.438  10.759  0.3363 -1.1447 -0.0330
  866MPD2    H112766   4.085   4.561  11.169  1.9333 -0.4276  1.3528
  866MPD2    H212767   4.453   4.383  11.042  0.8211 -0.2938 -0.3309
  866MPD2    H312768   4.297   4.482  11.217  0.4391 -1.6316 -0.3680
  866MPD2     N12769   3.970   4.569  10.935  1.1134 -0.1858  0.2602
  866MPD2    H512770   3.901   4.571  11.009 -1.3493 -0.2347 -2.0672
  866MPD2    N112771   4.403   4.368  10.793  0.5541  0.0488  0.6419
  866MPD2    H712772   4.497   4.379  10.827  0.1717  2.2728  0.9710
  867MPD2     C12773   2.020   3.543  16.534 -0.0125  0.1166 -0.8494
  867MPD2    C112774   2.112   3.518  16.635  0.4865  0.3603 -0.0856
  867MPD2    C212775   2.158   3.619  16.722 -0.5163 -0.0310  0.1362
  867MPD2    C312776   2.110   3.750  16.706 -0.2397 -0.6656  0.2374
  867MPD2    C412777   2.024   3.773  16.594  0.2558 -0.2883 -0.9467
  867MPD2    C512778   1.987   3.674  16.512  0.2545  0.0668  0.3356
  867MPD2     H12779   2.239   3.596  16.790 -0.0894  0.2241 -0.2876
  867MPD2    H112780   1.991   3.873  16.565  0.4366  0.5629  1.7964
  867MPD2    H212781   1.988   3.461  16.472 -1.4783  1.8969 -2.4371
  867MPD2    H312782   1.916   3.703  16.435  0.0409  0.5528  0.7181
  867MPD2     N12783   2.140   3.857  16.788 -0.9284 -0.0093  0.7171
  867MPD2    H512784   2.101   3.944  16.753 -0.3788 -0.0323  0.0450
  867MPD2    N112785   2.157   3.383  16.644 -0.1399 -0.2390 -0.3859
  867MPD2    H712786   2.129   3.321  16.569 -0.0977 -0.0961 -0.5203
  868MPD2     C12787   3.033   2.534  13.228 -0.3341  0.0237  0.3035
  868MPD2    C112788   3.143   2.489  13.298  0.0322  0.7039  0.2636
  868MPD2    C212789   3.134   2.473  13.441  0.5766 -0.2610  0.2419
  868MPD2    C312790   3.014   2.506  13.493 -0.4842 -0.0344 -0.2886
  868MPD2    C412791   2.907   2.562  13.428  0.3617  0.1736 -0.2225
  868MPD2    C512792   2.912   2.560  13.290 -0.4049 -0.2778  0.1352
  868MPD2     H12793   3.220   2.446  13.502  1.0029  0.7052  0.0598
  868MPD2    H112794   2.812   2.598  13.466 -0.2023 -0.3202 -1.1630
  868MPD2    H212795   3.045   2.549  13.122  0.4471  2.4723  0.7384
  868MPD2    H312796   2.829   2.592  13.229 -1.7381  0.5000  2.3676
  868MPD2     N12797   3.000   2.487  13.633  0.0449 -0.1651 -0.2741
  868MPD2    H512798   3.081   2.441  13.674  0.9368  1.0951 -0.6419
  868MPD2    N112799   3.253   2.457  13.215 -0.2952 -0.5015 -0.1028
  868MPD2    H712800   3.248   2.485  13.117  0.3671 -0.7989 -0.2224
  869MPD2     C12801   0.258   0.291   0.686 -0.6708  0.4192  0.0192
  869MPD2    C112802   0.272   0.248   0.557  0.2486  0.2837  0.0526
  869MPD2    C212803   0.372   0.297   0.470  0.4815 -0.2648 -0.0515
  869MPD2    C312804   0.452   0.405   0.518  0.2604  1.1055 -0.2499
  869MPD2    C412805   0.435   0.438   0.649 -0.1282  0.6936 -0.6010
  869MPD2    C512806   0.338   0.387   0.730  0.2279  0.2449  0.4258
  869MPD2     H12807   0.364   0.265   0.366  0.5744 -1.1294  0.2094
  869MPD2    H112808   0.493   0.520   0.690 -1.0239  0.3669  1.2843
  869MPD2    H212809   0.182   0.258   0.756  1.3483 -0.0275  1.9957
  869MPD2    H312810   0.326   0.426   0.830  2.0325  0.3878  0.5825
  869MPD2     N12811   0.548   0.474   0.443  0.0513  0.4150  0.1078
  869MPD2    H512812   0.603   0.538   0.500 -0.1541 -0.0135  0.7819
  869MPD2    N112813   0.178   0.144   0.520 -0.6908 -0.2149 -0.2401
  869MPD2    H712814   0.092   0.127   0.571 -1.0092 -2.1423 -1.4130
  870MPD2     C12815   0.451   4.253   1.148  1.0703  0.3362 -0.3720
  870MPD2    C112816   0.338   4.183   1.134 -0.3569  0.1821 -0.6884
  870MPD2    C212817   0.215   4.240   1.108  0.3529 -0.0288 -0.1125
  870MPD2    C312818   0.210   4.379   1.095  0.2005 -1.2688  0.2816
  870MPD2    C412819   0.326   4.455   1.102 -0.8554  0.0839  0.4330
  870MPD2    C512820   0.444   4.389   1.123 -0.1247 -0.2113  0.5660
  870MPD2     H12821   0.133   4.175   1.079 -0.5565 -0.5535  3.5138
  870MPD2    H112822   0.327   4.562   1.088 -0.1398  0.0405  0.1137
  870MPD2    H212823   0.548   4.211   1.172 -0.0623 -0.3775  2.9103
  870MPD2    H312824   0.535   4.446   1.133 -0.2310  0.2341 -1.0144
  870MPD2     N12825   0.083   4.436   1.066 -0.7410 -0.1474 -0.1613
  870MPD2    H512826   0.009   4.369   1.051 -0.8040 -0.2139  0.4531
  870MPD2    N112827   0.352   4.040   1.143  0.0068  0.5833 -0.0809
  870MPD2    H712828   0.448   4.009   1.154 -0.3599 -0.0071  1.5219
  871MPD2     C12829   1.047   3.617  16.313  0.0745 -0.0395 -0.3764
  871MPD2    C112830   1.023   3.543  16.426 -0.1088 -0.2640  0.1308
  871MPD2    C212831   0.989   3.414  16.415 -0.2469 -0.1900  0.1901
  871MPD2    C312832   0.997   3.352  16.289  0.4838  0.9882 -0.7374
  871MPD2    C412833   1.026   3.422  16.181  0.2622 -0.1469  0.0753
  871MPD2    C512834   1.037   3.553  16.190 -0.3411  0.5022 -0.0743
  871MPD2     H12835   0.972   3.347  16.499  1.2335 -0.3463  0.3599
  871MPD2    H112836   1.031   3.385  16.079 -0.9547 -1.2535  0.4198
  871MPD2    H212837   1.088   3.717  16.317  0.9429 -0.3752 -1.0070
  871MPD2    H312838   1.047   3.612  16.099 -0.2769 -0.9466 -0.9935
  871MPD2     N12839   0.981   3.212  16.286  0.4959  0.3263  0.3162
  871MPD2    H512840   0.942   3.166  16.368  0.8564 -0.6262 -0.0452
  871MPD2    N112841   1.017   3.627  16.539 -0.1206 -0.1667  0.2103
  871MPD2    H712842   1.042   3.725  16.534 -0.5235 -0.0998 -0.4735
  872MPD2     C12843   1.334   1.270  13.524  0.1684  0.3589  0.7467
  872MPD2    C112844   1.456   1.240  13.596 -0.5391 -0.1581  0.3452
  872MPD2    C212845   1.455   1.224  13.733 -0.5334  0.5984 -0.4374
  872MPD2    C312846   1.341   1.242  13.801  0.1485 -0.8311 -0.1071
  872MPD2    C412847   1.227   1.280  13.738  0.1810  0.4791  0.1115
  872MPD2    C512848   1.226   1.279  13.601  0.9417  0.1911 -0.2351
  872MPD2     H12849   1.548   1.205  13.786 -1.6795 -2.4887  0.4383
  872MPD2    H112850   1.128   1.292  13.780  0.7350  1.7424  1.0280
  872MPD2    H212851   1.333   1.290  13.418  1.9054  1.5629  0.9617
  872MPD2    H312852   1.129   1.305  13.558  1.1678  0.9435 -0.2773
  872MPD2     N12853   1.331   1.222  13.942 -0.2651  0.5333  0.4529
  872MPD2    H512854   1.237   1.236  13.977 -1.4033 -2.1881 -1.4810
  872MPD2    N112855   1.584   1.225  13.538 -0.0958 -0.5348 -0.0621
  872MPD2    H712856   1.661   1.214  13.603 -2.1500  0.0990  2.4397
  873MPD2     C12857   3.281   1.211   0.942  0.1716  0.0434  0.1287
  873MPD2    C112858   3.411   1.180   0.934  0.0041  0.2959 -0.1175
  873MPD2    C212859   3.453   1.062   0.874 -0.0271 -0.3015  0.0585
  873MPD2    C312860   3.362   0.986   0.805 -0.1086 -0.0375 -0.5291
  873MPD2    C412861   3.230   1.029   0.800 -0.3258 -0.1309 -0.2095
  873MPD2    C512862   3.192   1.138   0.867  0.5539  0.1700 -0.0149
  873MPD2     H12863   3.557   1.032   0.876 -0.2962 -1.2240  0.1607
  873MPD2    H112864   3.156   0.969   0.748 -0.3048 -1.0201  0.7751
  873MPD2    H212865   3.238   1.292   1.000 -2.4802 -1.4582  0.2812
  873MPD2    H312866   3.090   1.173   0.858  0.7884  0.5770 -1.0483
  873MPD2     N12867   3.389   0.860   0.752 -0.0115 -0.1159 -0.3814
  873MPD2    H512868   3.312   0.799   0.727  0.5610 -0.6713 -0.8127
  873MPD2    N112869   3.501   1.269   0.991  0.0441 -0.3503  0.0775
  873MPD2    H712870   3.470   1.343   1.053  0.0098 -3.0646  3.3094
  874MPD2     C12871   3.166   1.304  16.013  0.1696  0.1432  0.1995
  874MPD2    C112872   3.263   1.256  16.100  0.0932 -0.0855 -0.7917
  874MPD2    C212873   3.391   1.300  16.095  0.2574  0.0980 -0.2579
  874MPD2    C312874   3.424   1.410  16.011  0.0253  0.0960 -0.5040
  874MPD2    C412875   3.328   1.464  15.925 -0.1909 -0.1849 -0.1214
  874MPD2    C512876   3.209   1.408  15.933 -0.0052  0.7270  0.0085
  874MPD2     H12877   3.459   1.249  16.162 -0.7815  1.3612  1.7586
  874MPD2    H112878   3.341   1.537  15.847 -2.0979 -0.4887 -0.7332
  874MPD2    H212879   3.069   1.256  16.008  0.3629 -0.2659  0.3496
  874MPD2    H312880   3.128   1.454  15.877 -0.0425  0.8311  0.1442
  874MPD2     N12881   3.551   1.460  16.035  0.3114 -0.1791  0.1968
  874MPD2    H512882   3.609   1.413  16.103 -0.8827  0.2739  1.5255
  874MPD2    N112883   3.213   1.166  16.198 -0.6020  0.1386  0.2897
  874MPD2    H712884   3.125   1.123  16.172  0.8521 -2.5190 -0.2384
  875MPD2     C12885   4.355   4.351  14.422  0.3720  0.5479 -0.2197
  875MPD2    C112886   4.224   4.379  14.463  0.1051  0.8193 -0.3737
  875MPD2    C212887   4.209   4.421  14.595  0.1934  0.7446 -0.5584
  875MPD2    C312888   4.320   4.451  14.674  0.2881  1.4665  0.3108
  875MPD2    C412889   4.440   4.417  14.627 -0.3235  0.5611 -0.0822
  875MPD2    C512890   4.463   4.371  14.500 -0.1024 -0.0241  0.7945
  875MPD2     H12891   4.109   4.428  14.638  0.9466  2.6190  0.9064
  875MPD2    H112892   4.520   4.467  14.680  1.1979 -0.1452 -1.7000
  875MPD2    H212893   4.379   4.309  14.325 -0.7697  2.6882 -1.4224
  875MPD2    H312894   4.564   4.372  14.461 -1.3142  0.6996 -2.3392
  875MPD2     N12895   4.311   4.510  14.796 -0.1059 -0.2687 -0.1734
  875MPD2    H512896   4.396   4.542  14.842  0.1214 -1.2056  0.0428
  875MPD2    N112897   4.106   4.364  14.380 -0.0527  0.4899 -0.3200
  875MPD2    H712898   4.020   4.382  14.430  0.2893  2.5214 -0.4558
  876MPD2     C12899   3.033   0.662  15.933  0.4419  0.1944 -0.5270
  876MPD2    C112900   3.169   0.694  15.933 -0.2244  0.1336 -0.5833
  876MPD2    C212901   3.255   0.593  15.966 -0.1365  0.5588 -0.2633
  876MPD2    C312902   3.213   0.468  16.014  0.5132  0.2819  0.1474
  876MPD2    C412903   3.078   0.442  16.028 -0.3852  0.2594 -0.7077
  876MPD2    C512904   2.988   0.540  15.986  1.0017 -0.5795  0.4345
  876MPD2     H12905   3.357   0.617  15.938  0.5323 -0.8101  1.0143
  876MPD2    H112906   3.033   0.353  16.070  0.0447  0.7466  0.7927
  876MPD2    H212907   2.952   0.729  15.905  0.1085 -1.1553 -2.7880
  876MPD2    H312908   2.882   0.518  15.987  1.0002 -0.5196  1.9376
  876MPD2     N12909   3.308   0.371  16.051  0.4338  0.2979 -0.3854
  876MPD2    H512910   3.408   0.387  16.046  0.9076 -2.7407 -0.2931
  876MPD2    N112911   3.211   0.828  15.894  0.8290 -0.3901 -0.0318
  876MPD2    H712912   3.151   0.901  15.859  1.0177  1.0418  2.6287
  877MPD2     C12913   3.029   1.369  15.414  0.1143 -0.7205  0.9790
  877MPD2    C112914   3.168   1.349  15.412 -0.3605  0.6738 -0.0893
  877MPD2    C212915   3.224   1.387  15.294  0.3200  0.1199  0.2217
  877MPD2    C312916   3.162   1.472  15.197 -0.8777 -0.1604 -0.2778
  877MPD2    C412917   3.029   1.495  15.211  0.5270 -0.8517 -0.0750
  877MPD2    C512918   2.960   1.437  15.317 -0.2082  0.3429 -0.9023
  877MPD2     H12919   3.330   1.366  15.285  0.2338  0.1912 -0.9090
  877MPD2    H112920   2.963   1.542  15.139 -0.7345  0.2210  1.7815
  877MPD2    H212921   2.979   1.345  15.507 -1.3203  0.6702  0.5739
  877MPD2    H312922   2.852   1.444  15.325 -0.0509  0.1466  1.4246
  877MPD2     N12923   3.227   1.517  15.081  0.2644 -0.4592 -0.1093
  877MPD2    H512924   3.170   1.562  15.011 -0.0457 -0.0382  0.4074
  877MPD2    N112925   3.239   1.267  15.506  0.2938 -0.1665  0.4060
  877MPD2    H712926   3.336   1.239  15.495  0.8599  1.7021  0.7393
  878MPD2     C12927   2.432   0.447  13.513  0.6934 -0.0296  0.4868
  878MPD2    C112928   2.540   0.497  13.454  0.2713 -0.8765  0.4580
  878MPD2    C212929   2.640   0.556  13.525 -0.4747  0.1017 -0.4890
  878MPD2    C312930   2.648   0.529  13.661 -0.6683  0.3767  0.3177
  878MPD2    C412931   2.524   0.493  13.721  0.8237 -0.4835 -0.2061
  878MPD2    C512932   2.419   0.447  13.647 -0.2648  0.7686  0.2106
  878MPD2     H12933   2.727   0.598  13.476 -0.7794  1.5947  0.2614
  878MPD2    H112934   2.513   0.468  13.826 -1.5155  3.5988  0.4874
  878MPD2    H212935   2.344   0.427  13.452  2.0671  0.0944 -1.5214
  878MPD2    H312936   2.325   0.423  13.693 -0.1621  2.4747  1.2887
  878MPD2     N12937   2.765   0.552  13.729 -0.0583 -0.1865 -1.0423
  878MPD2    H512938   2.834   0.613  13.686  2.1143 -0.9391  1.3876
  878MPD2    N112939   2.534   0.497  13.318 -0.2770 -0.3086 -0.2945
  878MPD2    H712940   2.452   0.444  13.288 -1.1480  1.3502 -0.8366
  879MPD2     C12941   3.224   2.164  16.748  0.5501  0.0933 -0.3518
  879MPD2    C112942   3.289   2.062  16.824 -0.1267 -0.0988  0.1227
  879MPD2    C212943   3.238   1.936  16.809 -0.7413  0.3027  0.7590
  879MPD2    C312944   3.129   1.912  16.729 -0.8126  0.4546  1.1045
  879MPD2    C412945   3.074   2.002  16.652  0.1860 -0.1749 -0.8275
  879MPD2    C512946   3.125   2.133  16.663 -0.0387  0.0252  0.2998
  879MPD2     H12947   3.282   1.856  16.868  1.3643  0.9416  0.0638
  879MPD2    H112948   2.989   1.977  16.590 -1.0406 -0.6468  1.0499
  879MPD2    H212949   3.258   2.265  16.762  3.4350 -0.7913 -1.0399
  879MPD2    H312950   3.088   2.214  16.601  0.0664  0.0523  0.2727
  879MPD2     N12951   3.101   1.777  16.698  0.5892  0.5241  0.0719
  879MPD2    H512952   3.061   1.754  16.607  2.8941 -0.2623 -0.7648
  879MPD2    N112953   3.394   2.105  16.906 -0.5192  0.1764  0.2365
  879MPD2    H712954   3.421   2.202  16.898 -0.4138  0.0928 -0.4589
  880MPD2     C12955   4.364   3.486   0.384  0.2547  0.4545  0.0228
  880MPD2    C112956   4.473   3.577   0.377 -0.8712 -0.5364 -0.5126
  880MPD2    C212957   4.596   3.550   0.429 -0.1566 -0.0132 -0.4434
  880MPD2    C312958   4.619   3.425   0.483 -0.5966  0.3672  0.1293
  880MPD2    C412959   4.519   3.328   0.469  0.1164 -1.1019 -0.3249
  880MPD2    C512960   4.393   3.361   0.429 -1.1218  0.3882 -0.3576
  880MPD2     H12961   4.674   3.625   0.443  0.7760 -0.7396 -1.7634
  880MPD2    H112962   4.533   3.228   0.508 -0.0171  0.1286  2.8824
  880MPD2    H212963   4.265   3.504   0.344  0.3457  1.9302  0.4701
  880MPD2    H312964   4.319   3.282   0.432  0.4334 -0.8501  4.4769
  880MPD2     N12965   0.008   3.401   0.528  0.1563 -0.1003 -0.7143
  880MPD2    H512966   0.070   3.481   0.536 -1.3304  1.1521 -1.6643
  880MPD2    N112967   4.450   3.707   0.320 -0.0127 -0.3024 -0.4050
  880MPD2    H712968   4.354   3.729   0.297 -0.4480  0.0608  1.7715
  881MPD2     C12969   4.588   4.549  17.396  0.0748 -0.1943  0.4700
  881MPD2    C112970   4.701   4.480  17.446 -0.2821  0.3119  0.2292
  881MPD2    C212971   4.672   4.378  17.538 -0.9104 -0.7255  0.5760
  881MPD2    C312972   4.550   4.372  17.602  0.8758  0.4137 -0.3616
  881MPD2    C412973   4.454   4.460  17.564  0.3784 -0.8135  0.6129
  881MPD2    C512974   4.470   4.550  17.465  0.1280  0.3792  1.5983
  881MPD2     H12975   0.007   4.305  17.558 -1.6604 -2.4011 -2.5679
  881MPD2    H112976   4.359   4.444  17.614  0.8942 -0.5246  1.6770
  881MPD2    H212977   4.603   4.622  17.318 -0.8139 -1.6076 -1.0237
  881MPD2    H312978   4.390   4.618  17.438  1.2607  0.4983 -1.5023
  881MPD2     N12979   4.513   4.272  17.696 -0.4128  0.6782 -0.3671
  881MPD2    H512980   4.417   4.280  17.729 -0.6205  1.3106 -1.1213
  881MPD2    N112981   0.073   4.492  17.361 -0.3884  0.0787 -0.0718
  881MPD2    H712982   0.055   4.541  17.274 -0.9670  1.4375  0.8188
  882MPD2     C12983   3.383   1.223  14.466 -0.1164  1.0234 -0.2629
  882MPD2    C112984   3.285   1.311  14.508 -0.0199 -0.3063 -0.2195
  882MPD2    C212985   3.159   1.262  14.529  0.3723 -0.7285  0.2013
  882MPD2    C312986   3.126   1.130  14.500 -0.4627 -0.3095  0.2312
  882MPD2    C412987   3.227   1.040  14.464 -0.8946  0.1161  0.8092
  882MPD2    C512988   3.355   1.091  14.453 -0.6683 -0.8706 -0.3276
  882MPD2     H12989   3.099   1.337  14.580 -0.7455 -0.3143 -1.6938
  882MPD2    H112990   3.203   0.935  14.456  0.5938 -0.0877 -0.9309
  882MPD2    H212991   3.489   1.245  14.457  0.5747 -1.3951  2.0138
  882MPD2    H312992   3.436   1.021  14.442  0.1556  0.0363  0.0004
  882MPD2     N12993   3.001   1.077  14.529  0.4784  0.8054 -0.1058
  882MPD2    H512994   2.991   0.976  14.536 -2.1228  1.0589 -0.0899
  882MPD2    N112995   3.336   1.435  14.545 -0.3378  0.2664  0.0708
  882MPD2    H712996   3.437   1.441  14.552 -0.3515 -0.3043  0.7152
  883MPD2     C12997   0.274   1.301  15.852 -0.0580 -0.2206 -0.3646
  883MPD2    C112998   0.281   1.431  15.803 -0.4079 -0.2633  0.0268
  883MPD2    C212999   0.386   1.515  15.844 -0.3394  0.3540  0.4410
  883MPD2    C313000   0.476   1.467  15.942  0.0929 -0.1123 -0.1570
  883MPD2    C413001   0.467   1.338  15.992  0.8563  0.1409 -0.1897
  883MPD2    C513002   0.367   1.254  15.938 -0.9733  0.3500  0.2944
  883MPD2     H13003   0.392   1.612  15.796 -1.5185  1.0363  1.6772
  883MPD2    H113004   0.538   1.293  16.060 -0.7491 -1.1063  0.6605
  883MPD2    H213005   0.201   1.225  15.830 -2.3585  2.1034 -0.8424
  883MPD2    H313006   0.370   1.150  15.968  1.1198 -0.2809 -2.0307
  883MPD2     N13007   0.571   1.562  15.994 -0.1391 -0.5612  0.1580
  883MPD2    H513008   0.562   1.650  15.943  1.3432 -0.9027 -0.6863
  883MPD2    N113009   0.191   1.482  15.708  0.4723 -0.0530  0.3316
  883MPD2    H713010   0.199   1.579  15.679  0.8542 -0.2611 -0.2657
  884MPD2     C13011   2.264   2.534  15.345 -0.3083  0.3035  1.0476
  884MPD2    C113012   2.280   2.584  15.216 -0.1767  0.6062 -0.2370
  884MPD2    C213013   2.173   2.569  15.130  0.4043  0.8515  0.7195
  884MPD2    C313014   2.058   2.510  15.172  0.1019 -0.7376 -0.5188
  884MPD2    C413015   2.045   2.466  15.300 -0.7407 -0.1394 -0.7790
  884MPD2    C513016   2.149   2.483  15.388  0.6664 -0.3374 -0.5582
  884MPD2     H13017   2.177   2.602  15.027 -1.7074 -1.9993 -0.2688
  884MPD2    H113018   1.961   2.413  15.343 -0.0209 -0.7028 -0.0738
  884MPD2    H213019   2.344   2.541  15.418 -0.5235  0.4045  1.2747
  884MPD2    H313020   2.136   2.432  15.482  2.2431  0.5774  0.1485
  884MPD2     N13021   1.961   2.475  15.073 -0.0187 -0.1407 -0.6076
  884MPD2    H513022   1.972   2.507  14.977 -0.8032  2.0073  0.0241
  884MPD2    N113023   2.395   2.654  15.162 -0.0158  0.1148  0.3770
  884MPD2    H713024   2.390   2.684  15.066 -3.4358  0.2631  0.6061
  885MPD2     C13025   0.359   2.854   0.325 -0.2508  0.4557 -0.7281
  885MPD2    C113026   0.451   2.764   0.291  0.2361 -0.0057 -0.1700
  885MPD2    C213027   0.485   2.739   0.158  0.4309  0.2147 -0.0461
  885MPD2    C313028   0.407   2.792   0.062 -0.0525 -0.0278 -0.2212
  885MPD2    C413029   0.312   2.887   0.097  0.1487  0.0220 -0.0036
  885MPD2    C513030   0.298   2.922   0.227  0.7406 -0.5915  0.2317
  885MPD2     H13031   0.571   2.682   0.129 -0.9172 -0.3054 -3.0130
  885MPD2    H113032   0.255   2.943   0.023 -1.1439 -2.4003 -0.8179
  885MPD2    H213033   0.325   2.885   0.423  1.5262  1.4908 -0.4361
  885MPD2    H313034   0.228   3.000   0.253  0.9977 -0.1594 -0.3735
  885MPD2     N13035   0.429   2.761  17.693  0.4449 -0.1900 -0.0907
  885MPD2    H513036   0.486   2.679  17.671  0.4688  0.0914 -1.0853
  885MPD2    N113037   0.534   2.716   0.396 -0.2752 -0.2519  1.2098
  885MPD2    H713038   0.504   2.743   0.489  0.7231  3.7687  0.3658
  886MPD2     C13039   1.889   0.687  15.212  0.0912  0.2384 -0.3979
  886MPD2    C113040   2.006   0.734  15.258 -0.3062  0.3943  0.7882
  886MPD2    C213041   2.033   0.869  15.251  0.1414  0.5420 -0.1792
  886MPD2    C313042   1.943   0.955  15.192 -0.3673  0.1726  0.1361
  886MPD2    C413043   1.825   0.904  15.151 -0.3160 -0.0840 -0.0293
  886MPD2    C513044   1.793   0.771  15.165 -0.2392 -0.2000  0.3812
  886MPD2     H13045   2.136   0.890  15.277  1.3341 -2.5550 -2.3684
  886MPD2    H113046   1.752   0.971  15.107  0.2315  0.4576 -0.1191
  886MPD2    H213047   1.848   0.590  15.236 -1.6835  1.2124  0.5507
  886MPD2    H313048   1.692   0.737  15.141 -1.2727  1.7761  1.9630
  886MPD2     N13049   1.984   1.091  15.161  0.6679 -0.2638 -0.3242
  886MPD2    H513050   1.917   1.129  15.094  2.1050  0.5820 -1.2774
  886MPD2    N113051   2.097   0.660  15.333 -0.4028 -0.3371 -0.1367
  886MPD2    H713052   2.164   0.711  15.390 -1.6488  0.5391  0.5282
  887MPD2     C13053   2.368   0.782  15.997  0.8659 -0.5101  0.4344
  887MPD2    C113054   2.372   0.814  15.861  0.1377 -0.0972  0.7629
  887MPD2    C213055   2.402   0.941  15.827  0.6266  0.0503 -0.2871
  887MPD2    C313056   2.416   1.040  15.922 -0.2321 -0.9156 -0.1057
  887MPD2    C413057   2.407   1.008  16.058 -0.0077  0.4832  0.2601
  887MPD2    C513058   2.383   0.876  16.089  1.1569  0.1922 -0.6842
  887MPD2     H13059   2.425   0.958  15.723 -2.4226 -0.5108 -1.0623
  887MPD2    H113060   2.416   1.082  16.137  1.9190 -1.5408  1.9364
  887MPD2    H213061   2.342   0.680  16.024 -0.7719 -0.6827 -1.8557
  887MPD2    H313062   2.381   0.861  16.196 -1.6909 -0.9886 -0.8987
  887MPD2     N13063   2.445   1.170  15.887  0.2349 -0.6740  0.0479
  887MPD2    H513064   2.473   1.191  15.792 -0.3399  0.4384  0.1259
  887MPD2    N113065   2.333   0.720  15.760 -0.0456  0.2139  0.1483
  887MPD2    H713066   2.290   0.755  15.675 -0.0286  0.8496  0.4052
  888MPD2     C13067   4.162   0.850  14.938  0.1688 -0.2499 -0.5720
  888MPD2    C113068   4.185   0.910  15.062 -0.4150  0.0550 -0.1196
  888MPD2    C213069   4.260   1.030  15.062 -0.3534  0.2056  0.2325
  888MPD2    C313070   4.295   1.091  14.943  0.7840 -0.8024  0.1839
  888MPD2    C413071   4.266   1.029  14.828  0.1034  0.1980 -0.2168
  888MPD2    C513072   4.204   0.912  14.820  0.3725  0.4803  0.0415
  888MPD2     H13073   4.279   1.079  15.157 -1.7657 -0.9453  1.1064
  888MPD2    H113074   4.303   1.070  14.735 -0.5197  2.8960  0.7359
  888MPD2    H213075   4.119   0.750  14.940  0.8094 -0.5097  0.2467
  888MPD2    H313076   4.203   0.865  14.722  2.0142 -2.8410  1.6137
  888MPD2     N13077   4.368   1.207  14.951 -0.1419 -0.5970 -0.9624
  888MPD2    H513078   4.397   1.238  15.043 -1.2242  2.1527 -1.5398
  888MPD2    N113079   4.165   0.849  15.187  0.8235 -0.2834  0.0594
  888MPD2    H713080   4.194   0.901  15.269 -1.1119  0.7515  0.0879
  889MPD2     C13081   3.208   0.130  12.713 -0.3995 -0.5907  0.2941
  889MPD2    C113082   3.284   0.122  12.829 -1.0803  0.1669 -0.1061
  889MPD2    C213083   3.242   0.214  12.927  0.7591  0.5085  0.5679
  889MPD2    C313084   3.154   0.319  12.908 -0.4867 -0.1848 -0.1825
  889MPD2    C413085   3.101   0.334  12.781  0.9865 -0.2117 -0.5273
  889MPD2    C513086   3.125   0.239  12.683 -0.0747 -0.0102  0.3172
  889MPD2     H13087   3.297   0.210  13.021 -0.4541  1.7855  1.3289
  889MPD2    H113088   3.030   0.413  12.756 -0.8737 -1.6762  0.1223
  889MPD2    H213089   3.206   0.053  12.636 -2.7293  0.7046 -0.9638
  889MPD2    H313090   3.076   0.228  12.587 -0.5188  0.0461  0.5382
  889MPD2     N13091   3.142   0.414  13.010 -0.0930  0.7236  0.1935
  889MPD2    H513092   3.186   0.387  13.097  0.3971 -0.1681 -0.3312
  889MPD2    N113093   3.354   4.742  12.853 -0.4558  0.0262 -0.1513
  889MPD2    H713094   3.347   4.669  12.784 -1.7297  0.8248 -0.8664
  890MPD2     C13095   2.854   2.617  14.740 -0.0048 -1.7263  0.1057
  890MPD2    C113096   2.983   2.585  14.713  0.0173  0.1624  0.4508
  890MPD2    C213097   3.031   2.472  14.778  0.0084  0.2708 -0.2034
  890MPD2    C313098   2.958   2.398  14.864 -0.2975  0.0803  0.5069
  890MPD2    C413099   2.821   2.433  14.884  0.5402  0.8697  0.7048
  890MPD2    C513100   2.775   2.547  14.829 -0.5281 -0.0911  0.1834
  890MPD2     H13101   3.133   2.438  14.763 -0.5341 -0.8642 -1.3283
  890MPD2    H113102   2.763   2.386  14.962 -0.6997 -2.2075 -2.0528
  890MPD2    H213103   2.813   2.707  14.697 -1.6705 -2.3979  0.3042
  890MPD2    H313104   2.673   2.575  14.856 -0.2861 -2.2076  3.3131
  890MPD2     N13105   3.026   2.290  14.919 -0.6304 -0.0261  0.4626
  890MPD2    H513106   3.126   2.287  14.899 -0.4753 -0.8939  1.3348
  890MPD2    N113107   3.054   2.650  14.606  0.3337  0.0435  0.8365
  890MPD2    H713108   3.011   2.724  14.553  2.4101  0.5921 -0.0934
  891MPD2     C13109   1.606   0.886  16.353  0.9125  0.2276 -0.0061
  891MPD2    C113110   1.519   0.875  16.459 -0.0873  0.1674 -0.3539
  891MPD2    C213111   1.571   0.834  16.580 -0.1879  0.1253 -0.7042
  891MPD2    C313112   1.697   0.793  16.602 -0.1515 -0.6056 -0.2821
  891MPD2    C413113   1.776   0.791  16.494 -0.4977  0.2538  0.0826
  891MPD2    C513114   1.734   0.843  16.372 -0.9184  0.0915  0.0997
  891MPD2     H13115   1.496   0.810  16.655  1.7408 -1.7221  0.6866
  891MPD2    H113116   1.877   0.751  16.490 -0.3043  0.8156 -0.7188
  891MPD2    H213117   1.563   0.917  16.258 -0.2306 -1.2143  0.0309
  891MPD2    H313118   1.805   0.852  16.291 -2.9863 -1.8738 -1.8939
  891MPD2     N13119   1.743   0.743  16.729  0.6504 -0.4998  0.3688
  891MPD2    H513120   1.679   0.748  16.807  0.3558  0.6429  0.0522
  891MPD2    N113121   1.382   0.904  16.440  0.2019  0.0554  0.1300
  891MPD2    H713122   1.353   0.934  16.348  2.7180  1.7313 -0.1050
  892MPD2     C13123   2.495   1.801  14.492  0.5514  0.2125  0.6705
  892MPD2    C113124   2.398   1.730  14.552 -0.3062  0.3869 -0.9598
  892MPD2    C213125   2.428   1.600  14.593  0.8140  0.4232 -0.3626
  892MPD2    C313126   2.549   1.544  14.551  0.4869 -0.6271 -0.1235
  892MPD2    C413127   2.649   1.614  14.493 -0.9961 -0.7105  0.4782
  892MPD2    C513128   2.622   1.746  14.480  0.2670 -0.0917 -0.0204
  892MPD2     H13129   2.356   1.535  14.644  2.2460 -0.2601  0.7978
  892MPD2    H113130   2.744   1.571  14.466 -0.6858  0.5490 -0.4260
  892MPD2    H213131   2.482   1.905  14.464 -0.4835  0.0757  0.6588
  892MPD2    H313132   2.694   1.812  14.433  0.5702  0.2410  0.9099
  892MPD2     N13133   2.577   1.411  14.572  0.1083 -0.7220  0.6012
  892MPD2    H513134   2.668   1.381  14.539  0.1396  1.1787 -1.0480
  892MPD2    N113135   2.272   1.787  14.566 -0.0520  0.4329  0.4351
  892MPD2    H713136   2.255   1.872  14.512  1.7830  0.1696 -0.5391
  893MPD2     C13137   4.042   0.839   1.609 -0.3434  0.1506  0.3540
  893MPD2    C113138   4.000   0.756   1.507 -0.0075  0.2378  0.3017
  893MPD2    C213139   3.861   0.742   1.476  0.4210 -0.1380  0.3300
  893MPD2    C313140   3.768   0.813   1.553 -0.2872 -0.8534 -0.1035
  893MPD2    C413141   3.813   0.900   1.652  0.4483 -0.0303  0.2446
  893MPD2    C513142   3.946   0.909   1.674  0.4726  0.1785  0.2919
  893MPD2     H13143   3.828   0.665   1.407 -0.1990  2.1770 -1.9221
  893MPD2    H113144   3.740   0.949   1.716 -0.7126 -1.5029  0.0322
  893MPD2    H213145   4.147   0.856   1.629 -0.0974 -0.7219 -0.1989
  893MPD2    H313146   3.972   0.974   1.756 -0.8841 -0.2700  1.0735
  893MPD2     N13147   3.621   0.796   1.555  0.5719 -0.0145 -0.3253
  893MPD2    H513148   3.570   0.851   1.623 -0.1756 -1.3828  0.2185
  893MPD2    N113149   4.095   0.682   1.436  0.3260  0.3761  0.6151
  893MPD2    H713150   4.193   0.695   1.462  0.7040 -0.4839 -0.4055
  894MPD2     C13151   2.144   2.151   0.873 -0.1312 -0.3318 -0.1794
  894MPD2    C113152   2.122   2.235   0.979  0.7160  0.1702  0.6983
  894MPD2    C213153   2.152   2.364   0.957  0.2196  0.5563 -0.5916
  894MPD2    C313154   2.220   2.411   0.846  0.1108 -0.2185 -0.7495
  894MPD2    C413155   2.253   2.328   0.746 -0.2022  1.0192  0.5444
  894MPD2    C513156   2.209   2.190   0.761 -1.1373 -0.0712  0.8456
  894MPD2     H13157   2.128   2.439   1.031  1.2241  1.6273 -1.3561
  894MPD2    H113158   2.313   2.353   0.659  1.2935 -1.7109  0.7771
  894MPD2    H213159   2.135   2.043   0.882  1.1390 -0.5264 -1.3432
  894MPD2    H313160   2.235   2.122   0.680 -0.0741  1.2679  0.0532
  894MPD2     N13161   2.253   2.548   0.847 -0.0443  0.5587 -0.0337
  894MPD2    H513162   2.229   2.601   0.930  0.6254  2.1278 -0.8484
  894MPD2    N113163   2.057   2.206   1.099 -0.6103  1.0538  0.1778
  894MPD2    H713164   2.038   2.284   1.160  1.2013  0.5711  1.3393
  895MPD2     C13165   1.633   0.532  14.144  0.5745 -0.0013  0.1632
  895MPD2    C113166   1.544   0.515  14.044 -0.7201  0.2369  0.0120
  895MPD2    C213167   1.515   0.380  14.016 -0.3210 -0.0700 -0.2941
  895MPD2    C313168   1.571   0.275  14.088  0.0093  0.3409 -0.1958
  895MPD2    C413169   1.657   0.296  14.188  0.8738  0.0799 -0.5555
  895MPD2    C513170   1.683   0.432  14.217 -0.4180 -0.6261  0.1169
  895MPD2     H13171   1.441   0.347  13.944  1.2295 -3.8861 -0.1562
  895MPD2    H113172   1.709   0.220  14.246 -0.2485  0.0278  0.3951
  895MPD2    H213173   1.658   0.631  14.179 -0.8259  1.0659 -1.8889
  895MPD2    H313174   1.749   0.444  14.302  0.5880 -1.3728 -0.5554
  895MPD2     N13175   1.542   0.143  14.039  0.6813 -0.3674 -0.0332
  895MPD2    H513176   1.485   0.146  13.955  1.4153  0.1705 -0.5181
  895MPD2    N113177   1.486   0.616  13.964 -0.7947  0.4254 -0.7330
  895MPD2    H713178   1.429   0.594  13.883 -0.9196 -0.4189 -0.4114
  896MPD2     C13179   3.753   3.267   1.745 -0.0997  0.1702  0.3189
  896MPD2    C113180   3.734   3.302   1.613 -0.5135  0.5373  0.3325
  896MPD2    C213181   3.619   3.264   1.548  0.8258 -0.3085  0.0205
  896MPD2    C313182   3.516   3.205   1.612  0.2206 -0.2140  0.2163
  896MPD2    C413183   3.523   3.196   1.749 -0.5959 -0.5584 -0.8485
  896MPD2    C513184   3.639   3.225   1.814 -0.1269  0.1010 -0.4826
  896MPD2     H13185   3.605   3.279   1.442 -1.2155  1.8983  0.6093
  896MPD2    H113186   3.440   3.153   1.805  0.0542 -1.0100 -0.2386
  896MPD2    H213187   3.849   3.293   1.787 -0.9268 -2.2584  3.6940
  896MPD2    H313188   3.645   3.215   1.922  1.0537  0.9954 -0.4723
  896MPD2     N13189   3.398   3.178   1.538  0.4309  0.2075  0.0630
  896MPD2    H513190   3.407   3.184   1.437 -1.9943  3.5773  0.0489
  896MPD2    N113191   3.844   3.373   1.557 -0.5269  0.3088 -0.3645
  896MPD2    H713192   3.933   3.380   1.607 -0.1260  2.6725 -1.3929
  897MPD2     C13193   4.210   0.232  10.244  0.8225  0.1014 -0.1080
  897MPD2    C113194   4.295   0.245  10.347 -0.1141  0.5577 -0.7352
  897MPD2    C213195   4.242   0.232  10.479  0.4919  0.6244 -0.4291
  897MPD2    C313196   4.109   0.229  10.498  0.0355 -0.1623 -0.3478
  897MPD2    C413197   4.026   0.213  10.386 -0.3859  0.0908 -0.0727
  897MPD2    C513198   4.074   0.205  10.262 -0.4718  0.2805 -0.3600
  897MPD2     H13199   4.302   0.251  10.567 -1.0371  2.1062  0.2928
  897MPD2    H113200   3.921   0.185  10.386 -0.2590 -0.3903 -2.3855
  897MPD2    H213201   4.229   0.248  10.138  1.1017  1.9991  0.2202
  897MPD2    H313202   4.003   0.171  10.187  0.6566 -0.2010 -1.2137
  897MPD2     N13203   4.057   0.241  10.626  0.2524  0.0943  0.2142
  897MPD2    H513204   4.119   0.254  10.706  0.8548  2.4200 -0.6147
  897MPD2    N113205   4.424   0.294  10.318 -0.4046 -0.0732  0.3337
  897MPD2    H713206   4.443   0.337  10.228 -1.3603 -3.3039 -1.4267
  898MPD2     C13207   1.374   0.874   0.249  0.4279  0.0441 -0.3013
  898MPD2    C113208   1.495   0.829   0.202 -0.8962  0.2607  0.1477
  898MPD2    C213209   1.565   0.919   0.126  0.9096 -0.7063 -0.3792
  898MPD2    C313210   1.513   1.044   0.084  0.0160 -0.3193 -0.7503
  898MPD2    C413211   1.385   1.076   0.125  0.3761  0.0022  0.2379
  898MPD2    C513212   1.315   0.989   0.198 -0.0265 -0.1545  0.2433
  898MPD2     H13213   1.663   0.890   0.092  0.3490 -1.4151 -1.4022
  898MPD2    H113214   1.335   1.170   0.103 -0.1228 -1.1687 -3.5849
  898MPD2    H213215   1.306   0.821   0.314 -1.9028  2.5935 -0.6372
  898MPD2    H313216   1.214   1.016   0.225 -0.6056 -2.1975  0.1624
  898MPD2     N13217   1.591   1.132   0.010  0.0975 -0.3021  0.0604
  898MPD2    H513218   1.689   1.109  17.765  0.4980  1.0582  0.6543
  898MPD2    N113219   1.554   0.707   0.249  0.1693 -0.0125  0.5592
  898MPD2    H713220   1.653   0.700   0.227 -0.2649 -1.8454 -0.8367
  899MPD2     C13221   2.926   1.472  17.441  0.2161 -0.6685 -0.4697
  899MPD2    C113222   2.924   1.606  17.478  0.7558  0.0937  0.7567
  899MPD2    C213223   2.872   1.643  17.601 -0.3924 -0.2019 -0.6135
  899MPD2    C313224   2.822   1.550  17.692 -0.7385  0.0669  0.7650
  899MPD2    C413225   2.841   1.418  17.666 -0.2832 -0.3042 -0.5088
  899MPD2    C513226   2.881   1.382  17.538 -0.4394 -0.1902  0.4056
  899MPD2     H13227   2.866   1.748  17.627  2.0795  0.8549 -4.3419
  899MPD2    H113228   2.811   1.338  17.733 -1.8145 -2.2295 -3.4360
  899MPD2    H213229   2.962   1.442  17.343  0.7262  1.0429 -0.8042
  899MPD2    H313230   2.878   1.275  17.523 -1.4612 -0.3762  1.8729
  899MPD2     N13231   2.758   1.583   0.042  0.1813 -0.0737  0.1070
  899MPD2    H513232   2.725   1.509   0.103  0.3472 -2.3923 -2.6481
  899MPD2    N113233   2.985   1.693  17.383  0.8268 -0.1385 -0.2584
  899MPD2    H713234   3.032   1.652  17.303  0.5240 -0.9612 -0.0217
  900MPD2     C13235   2.234   3.076  12.499 -0.0163 -0.0634 -0.2312
  900MPD2    C113236   2.147   3.001  12.579  0.0896  0.2074 -0.3023
  900MPD2    C213237   2.011   3.017  12.570  0.8481  0.3732 -0.2256
  900MPD2    C313238   1.966   3.087  12.462 -0.3502  0.6514  0.2249
  900MPD2    C413239   2.053   3.148  12.373  0.1532  0.2358  0.6668
  900MPD2    C513240   2.188   3.152  12.397 -0.1711  0.3389 -0.7313
  900MPD2     H13241   1.943   2.967  12.638 -0.5397  3.2211  0.4934
  900MPD2    H113242   2.009   3.200  12.289 -0.1132 -0.9075  0.0972
  900MPD2    H213243   2.341   3.066  12.511  0.1153 -0.2071 -1.5371
  900MPD2    H313244   2.250   3.198  12.321 -0.8860  1.1459 -0.8229
  900MPD2     N13245   1.821   3.096  12.443 -0.7290 -0.4388 -0.5269
  900MPD2    H513246   1.763   3.047  12.511 -0.7724  0.2872 -0.0378
  900MPD2    N113247   2.207   2.908  12.667  0.5207  0.0698 -0.1749
  900MPD2    H713248   2.307   2.891  12.654  0.0437 -1.7249 -1.6053
  901MPD2     C13249   1.927   1.925  12.941 -0.3527 -0.2993  0.3469
  901MPD2    C113250   2.046   1.926  12.873  0.8419 -0.7760  0.1042
  901MPD2    C213251   2.121   2.043  12.854  0.0633  0.4399 -0.2245
  901MPD2    C313252   2.081   2.159  12.913  0.2313 -0.4006 -0.2945
  901MPD2    C413253   1.965   2.157  12.986  0.5282  0.0336 -0.2797
  901MPD2    C513254   1.888   2.041  12.999  0.1403  0.2035  0.2035
  901MPD2     H13255   2.208   2.046  12.790  0.3618  0.2087  0.1637
  901MPD2    H113256   1.927   2.246  13.035  1.7104  0.8671 -0.8790
  901MPD2    H213257   1.876   1.829  12.949 -0.9698 -0.2588 -3.0165
  901MPD2    H313258   1.810   2.040  13.074  1.3305  2.7220  1.4958
  901MPD2     N13259   2.150   2.282  12.888  0.5117  0.5300 -0.4840
  901MPD2    H513260   2.205   2.283  12.803  0.2150 -0.6181 -0.6966
  901MPD2    N113261   2.073   1.807  12.799  0.4624 -0.0959 -0.1153
  901MPD2    H713262   1.998   1.740  12.788 -1.3573  1.9263 -0.0741
  902MPD2     C13263   1.360   0.843  13.017  0.6632 -0.3392  0.6112
  902MPD2    C113264   1.277   0.816  12.911 -0.5153 -0.0201  0.5367
  902MPD2    C213265   1.337   0.769  12.797  0.0709  0.2155  0.1846
  902MPD2    C313266   1.469   0.725  12.790 -0.1275  1.2813  0.0318
  902MPD2    C413267   1.549   0.745  12.895  0.0094 -0.5821 -0.2447
  902MPD2    C513268   1.489   0.811  13.005  0.2179  0.4506  0.5988
  902MPD2     H13269   1.283   0.755  12.704  0.9241  3.0444 -0.7513
  902MPD2    H113270   1.649   0.704  12.901  0.7710  1.3382  0.2485
  902MPD2    H213271   1.331   0.890  13.111  0.3192  0.5459  0.0563
  902MPD2    H313272   1.545   0.819  13.098 -1.0722  0.2026  1.4024
  902MPD2     N13273   1.517   0.683  12.668  0.4849  0.1663  0.2841
  902MPD2    H513274   1.458   0.693  12.586  1.1229  2.0921  0.0590
  902MPD2    N113275   1.148   0.865  12.919  0.1966 -0.2627 -0.6737
  902MPD2    H713276   1.122   0.928  12.995  1.6947 -2.8423  1.9854
  903MPD2     C13277   1.392   0.896  12.000 -0.4995 -0.7471  0.0879
  903MPD2    C113278   1.364   0.830  12.120  0.0555 -0.1613 -0.2798
  903MPD2    C213279   1.238   0.791  12.152  0.2108  0.4064  0.2934
  903MPD2    C313280   1.132   0.818  12.065 -0.5103  0.5946  0.6944
  903MPD2    C413281   1.156   0.892  11.955  0.4008  0.0142 -0.1870
  903MPD2    C513282   1.282   0.937  11.922  0.0104 -0.4638  1.0675
  903MPD2     H13283   1.218   0.749  12.251  1.3836 -1.5580 -0.2964
  903MPD2    H113284   1.071   0.925  11.896 -0.2867 -1.8086 -0.2015
  903MPD2    H213285   1.487   0.938  11.971 -0.5019 -2.0311 -1.7973
  903MPD2    H313286   1.295   1.004  11.837 -0.5458 -2.3552 -0.5082
  903MPD2     N13287   1.003   0.768  12.102  0.5416  0.1676  0.2263
  903MPD2    H513288   0.991   0.681  12.153 -0.8598  1.1767  1.6297
  903MPD2    N113289   1.459   0.779  12.211  0.3628 -0.1118 -0.0668
  903MPD2    H713290   1.413   0.734  12.290  0.9487  0.3271  0.5266
  904MPD2     C13291   1.059   4.669  14.267 -0.2536  0.2075 -0.0582
  904MPD2    C113292   1.154   0.019  14.284  0.6884  0.8686 -0.3843
  904MPD2    C213293   1.281   4.721  14.311  0.6330 -0.2895  0.5038
  904MPD2    C313294   1.315   4.591  14.343 -0.4202 -0.6013 -0.3144
  904MPD2    C413295   1.222   4.498  14.310 -0.1530 -0.9487  0.1869
  904MPD2    C513296   1.093   4.537  14.270 -0.0009 -0.2946 -0.0950
  904MPD2     H13297   1.354   0.058  14.323 -0.5163  0.9195 -0.4621
  904MPD2    H113298   1.247   4.393  14.313 -0.5502 -0.9723  2.2676
  904MPD2    H213299   0.960   4.690  14.229 -0.2699 -1.9681 -1.2159
  904MPD2    H313300   1.010   4.468  14.260 -1.0187  0.9166 -0.1118
  904MPD2     N13301   1.443   4.559  14.385 -0.3088 -0.0640 -0.2187
  904MPD2    H513302   1.500   4.639  14.410 -1.2718 -0.4278  3.2240
  904MPD2    N113303   1.127   0.163  14.269 -0.4787  0.3508 -0.3756
  904MPD2    H713304   1.207   0.224  14.282 -0.2292 -0.5839  2.5484
  905MPD2     C13305   0.886   0.157  13.649  0.6425  0.2330 -0.6966
  905MPD2    C113306   0.990   0.218  13.724 -0.4169 -0.0117  0.2914
  905MPD2    C213307   1.116   0.166  13.721  0.1242 -1.0891  0.1639
  905MPD2    C313308   1.142   0.050  13.651  0.3975  0.2578  0.3920
  905MPD2    C413309   1.044   4.734  13.582  0.6140 -0.3056 -0.6129
  905MPD2    C513310   0.918   0.041  13.581 -0.0713  0.0736 -0.1685
  905MPD2     H13311   1.176   0.214  13.798  1.2122 -1.5630 -0.3891
  905MPD2    H113312   1.063   4.651  13.514 -1.7228  0.8355 -2.6371
  905MPD2    H213313   0.786   0.198  13.647  0.3088 -0.4468  1.5971
  905MPD2    H313314   0.839   4.733  13.526  0.6650 -1.5756  0.2958
  905MPD2     N13315   1.266   4.721  13.665 -0.2456 -0.1404  0.0821
  905MPD2    H513316   1.270   4.639  13.606  0.9984  1.5508 -2.1844
  905MPD2    N113317   0.959   0.320  13.816  1.1832 -0.3698  0.6516
  905MPD2    H713318   0.861   0.329  13.843  1.4293 -1.2436  1.8556
  906MPD2     C13319   2.987   0.221  11.403  0.3076  1.1395  0.5051
  906MPD2    C113320   3.022   0.169  11.282  0.2715 -0.2340 -0.4391
  906MPD2    C213321   3.051   0.029  11.276 -0.3206  0.1148 -0.0454
  906MPD2    C313322   3.048   4.690  11.389  0.1453  0.0287  0.2092
  906MPD2    C413323   3.010   0.007  11.511 -0.4431 -0.3327  0.1980
  906MPD2    C513324   2.983   0.140  11.507  0.5498 -0.0982 -0.0349
  906MPD2     H13325   3.071   4.728  11.179  4.7126  0.4466  0.8621
  906MPD2    H113326   2.988   4.682  11.593 -0.4793  1.5355  1.7344
  906MPD2    H213327   2.966   0.327  11.411  3.0190  1.5701  1.9699
  906MPD2    H313328   2.944   0.191  11.595 -0.2388  1.0870 -1.0614
  906MPD2     N13329   3.081   4.552  11.397  0.4426 -0.0092  0.1407
  906MPD2    H513330   3.056   4.498  11.479  0.3226  0.9377  0.7357
  906MPD2    N113331   3.010   0.244  11.163  0.0043  0.1709  0.4730
  906MPD2    H713332   3.011   0.185  11.081 -1.3098 -0.4451  0.8929
  907MPD2     C13333   2.104   4.355  15.827 -0.1391 -1.2517  0.1036
  907MPD2    C113334   2.183   4.317  15.720 -0.3204 -0.1959  0.1947
  907MPD2    C213335   2.304   4.266  15.754 -0.9114  0.2943 -0.0486
  907MPD2    C313336   2.356   4.254  15.883 -0.1078  0.2146  0.0094
  907MPD2    C413337   2.271   4.299  15.983 -0.3272 -0.0415  0.1679
  907MPD2    C513338   2.144   4.347  15.956  0.4748  0.0336  0.3189
  907MPD2     H13339   2.363   4.222  15.674  0.2420 -0.8545  1.4426
  907MPD2    H113340   2.303   4.302  16.087  0.5538 -1.7280 -0.0635
  907MPD2    H213341   2.004   4.388  15.803 -0.3983 -1.9639  0.2208
  907MPD2    H313342   2.076   4.372  16.037  1.2721 -1.3815  1.4219
  907MPD2     N13343   2.477   4.180  15.908  0.0965  0.1346 -0.2596
  907MPD2    H513344   2.520   4.152  15.821  0.8879  0.7388 -0.0566
  907MPD2    N113345   2.138   4.303  15.585  0.1878  0.7826 -0.0576
  907MPD2    H713346   2.212   4.272  15.523 -0.0824 -0.7463  0.3819
  908MPD2     C13347   4.684   0.654   9.573 -0.3607  0.6836  0.2240
  908MPD2    C113348   4.642   0.526   9.603  0.0456 -0.0888 -1.1143
  908MPD2    C213349   4.623   0.489   9.742  0.3064  0.1134  0.2118
  908MPD2    C313350   4.648   0.581   9.844 -0.2077 -0.6032  0.4106
  908MPD2    C413351   4.690   0.708   9.803 -0.4872 -0.0719 -0.3450
  908MPD2    C513352   4.722   0.738   9.672  0.8340  0.2556 -0.0691
  908MPD2     H13353   4.588   0.388   9.760  0.9666 -0.4249 -1.5318
  908MPD2    H113354   4.714   0.786   9.874 -0.4872  0.1227 -0.5587
  908MPD2    H213355   4.699   0.694   9.474  2.6579  2.1436  1.2661
  908MPD2    H313356   0.019   0.833   9.638 -0.1180  1.7167  2.8567
  908MPD2     N13357   4.629   0.539   9.980  0.4232 -0.2190 -0.5481
  908MPD2    H513358   4.599   0.443   9.999  1.6338 -0.6772 -0.9531
  908MPD2    N113359   4.623   0.444   9.495  0.6739 -0.2569  0.0715
  908MPD2    H713360   4.631   0.486   9.402  2.0073  0.3831  0.4731
  909MPD2     C13361   4.469   2.656  11.663 -0.0123  0.5744 -0.3423
  909MPD2    C113362   4.458   2.797  11.663 -0.4806 -0.1266  0.0507
  909MPD2    C213363   4.340   2.854  11.706  0.5715 -0.5892  0.1510
  909MPD2    C313364   4.239   2.768  11.743  0.4074 -0.3078 -0.1945
  909MPD2    C413365   4.257   2.633  11.761  0.3627  0.0840  0.2679
  909MPD2    C513366   4.370   2.579  11.720  0.4478  0.5064 -0.4210
  909MPD2     H13367   4.325   2.961  11.699 -0.7475 -0.9144 -1.9722
  909MPD2    H113368   4.177   2.567  11.794 -0.2925 -0.0398 -1.5810
  909MPD2    H213369   4.560   2.601  11.641  0.0433 -0.4221  2.3932
  909MPD2    H313370   4.374   2.471  11.729 -0.2546  0.2900 -2.5906
  909MPD2     N13371   4.115   2.831  11.767  0.5343 -0.4323  0.5246
  909MPD2    H513372   4.110   2.927  11.735 -0.0272 -0.5078  0.4005
  909MPD2    N113373   4.545   2.877  11.586 -0.3426  0.1492  0.3692
  909MPD2    H713374   4.518   2.974  11.573  1.8043  0.7426  0.4231
  910MPD2     C13375   1.873   0.303  16.502 -0.1299 -0.1727  0.1717
  910MPD2    C113376   1.919   0.200  16.413  0.2961 -0.2596  0.3988
  910MPD2    C213377   1.882   0.207  16.282  0.2645  0.0832 -0.2230
  910MPD2    C313378   1.796   0.313  16.240  0.7135 -0.0247  0.4140
  910MPD2    C413379   1.751   0.411  16.327 -0.9505 -0.6432 -0.0859
  910MPD2    C513380   1.799   0.405  16.455 -0.1327  0.3255 -0.1549
  910MPD2     H13381   1.906   0.122  16.218  0.9364 -0.1472  0.3340
  910MPD2    H113382   1.673   0.484  16.307  2.8033  2.9198 -1.5548
  910MPD2    H213383   1.902   0.309  16.606 -1.6453  0.1120  0.5849
  910MPD2    H313384   1.766   0.476  16.530  0.1498  0.2486  0.0421
  910MPD2     N13385   1.728   0.316  16.120  0.4804  0.0989 -0.4648
  910MPD2    H513386   1.674   0.395  16.086  1.2348 -0.0594 -2.0538
  910MPD2    N113387   1.990   0.082  16.451  0.2311 -0.4947 -0.4233
  910MPD2    H713388   2.018   0.024  16.373 -2.9599 -2.4212 -0.1236
  911MPD2     C13389   4.478   0.756  16.510  0.0350 -0.0409 -0.2009
  911MPD2    C113390   4.585   0.831  16.555  0.3256 -0.1132  0.5411
  911MPD2    C213391   4.583   0.966  16.534  0.1845  0.0269  0.4621
  911MPD2    C313392   4.460   1.024  16.503 -0.7401 -0.7841  0.7782
  911MPD2    C413393   4.355   0.941  16.460 -0.2306  0.3364  0.2237
  911MPD2    C513394   4.372   0.806  16.447  0.2972 -0.0404 -0.2609
  911MPD2     H13395   4.668   1.030  16.554  0.3638  0.3660 -1.3490
  911MPD2    H113396   4.261   0.986  16.431 -0.0276 -0.0003 -0.9252
  911MPD2    H213397   4.492   0.648  16.518  0.7300 -0.0177 -1.0630
  911MPD2    H313398   4.295   0.738  16.411  1.3761 -1.2268 -0.3117
  911MPD2     N13399   4.440   1.163  16.486 -0.1835  0.3933 -0.2561
  911MPD2    H513400   4.347   1.200  16.466  0.3564  1.3895 -0.9515
  911MPD2    N113401   4.693   0.767  16.620 -0.2729  0.2208 -0.1407
  911MPD2    H713402   4.683   0.666  16.627  2.1948 -0.1083 -1.1628
  912MPD2     C13403   4.047   1.212  15.993 -0.8098  0.5634 -0.4927
  912MPD2    C113404   4.071   1.204  16.127 -0.4536  0.9431 -0.0171
  912MPD2    C213405   4.059   1.080  16.187  0.5547 -0.4499 -0.5269
  912MPD2    C313406   4.035   0.965  16.116 -0.5587  0.3985 -0.1385
  912MPD2    C413407   4.024   0.971  15.978  0.2188 -0.2012  0.7392
  912MPD2    C513408   4.024   1.097  15.922  0.0730 -0.1643  0.1419
  912MPD2     H13409   4.083   1.071  16.293 -2.7937  4.9860  0.6872
  912MPD2    H113410   4.019   0.884  15.915  0.8607 -1.6340  2.6472
  912MPD2    H213411   4.073   1.295  15.928  1.3619 -0.9806 -1.5907
  912MPD2    H313412   4.029   1.100  15.814 -1.6303  0.2355  0.0590
  912MPD2     N13413   4.021   0.844  16.185  0.4889  0.5942 -0.0684
  912MPD2    H513414   4.049   0.853  16.282 -0.8888  1.6753  0.2258
  912MPD2    N113415   4.126   1.315  16.190  0.4389 -0.3850 -0.9471
  912MPD2    H713416   4.149   1.394  16.131  0.7104  0.3579  0.1481
  913MPD2     C13417   3.539   2.970  10.970 -0.3718 -1.0580  0.2634
  913MPD2    C113418   3.502   2.838  10.990  0.5193  0.5951  0.4256
  913MPD2    C213419   3.482   2.760  10.871  1.2184 -0.3777 -0.0584
  913MPD2    C313420   3.510   2.815  10.747  0.9412 -0.5759  0.7549
  913MPD2    C413421   3.543   2.947  10.740  0.1825  0.5752  0.5640
  913MPD2    C513422   3.559   3.020  10.850  0.8704  0.7864 -0.0775
  913MPD2     H13423   3.446   2.658  10.880  0.6238 -0.0908  0.9305
  913MPD2    H113424   3.566   2.987  10.642 -1.3100 -1.0384 -0.4418
  913MPD2    H213425   3.574   3.033  11.052 -1.6490 -0.2417  0.1784
  913MPD2    H313426   3.590   3.123  10.844  0.4178  0.7554 -2.9346
  913MPD2     N13427   3.503   2.739  10.633 -0.3592 -0.8615 -0.2641
  913MPD2    H513428   3.521   2.789  10.547  2.1040  1.8030  1.8264
  913MPD2    N113429   3.474   2.794  11.123 -0.2754  0.3124  1.0096
  913MPD2    H713430   3.475   2.866  11.194  0.4266  1.3249 -0.0345
  914MPD2     C13431   1.702   1.670  12.041  0.8221  0.2960  0.2794
  914MPD2    C113432   1.765   1.777  12.102 -0.8296 -0.5283  0.4894
  914MPD2    C213433   1.843   1.744  12.213  0.2000  0.0508 -0.2175
  914MPD2    C313434   1.862   1.618  12.264 -0.2182  0.1863 -0.5332
  914MPD2    C413435   1.808   1.514  12.193  0.4368 -0.2872  0.1482
  914MPD2    C513436   1.723   1.542  12.089 -0.2297  0.3202  0.0962
  914MPD2     H13437   1.882   1.828  12.269 -0.7594  0.5999 -0.3770
  914MPD2    H113438   1.830   1.409  12.212 -1.0198 -1.1813 -3.0066
  914MPD2    H213439   1.635   1.682  11.956  1.9589  1.7078 -0.4297
  914MPD2    H313440   1.684   1.463  12.026 -2.9899 -1.1118  3.5396
  914MPD2     N13441   1.936   1.603  12.382 -0.3686 -0.3595  0.0411
  914MPD2    H513442   1.971   1.692  12.413 -1.8078  0.4157 -0.5580
  914MPD2    N113443   1.740   1.915  12.069 -0.1203  0.5869 -0.0067
  914MPD2    H713444   1.782   1.984  12.131  0.0114 -0.0470  0.6094
  915MPD2     C13445   0.582   1.982  15.443  0.4389 -0.6111 -0.1541
  915MPD2    C113446   0.454   2.026  15.449 -0.1613 -0.7059  0.4323
  915MPD2    C213447   0.414   2.092  15.567 -0.2966 -0.1578 -1.0945
  915MPD2    C313448   0.498   2.100  15.675 -0.4868  0.2498  0.9179
  915MPD2    C413449   0.631   2.054  15.664 -0.5342 -0.3189 -0.9934
  915MPD2    C513450   0.671   1.993  15.553  0.4968 -0.1040  0.2893
  915MPD2     H13451   0.315   2.137  15.574  0.3359  1.2136 -0.9093
  915MPD2    H113452   0.707   2.076  15.738 -2.0645  1.4921  0.0683
  915MPD2    H213453   0.618   1.926  15.358  0.1906 -0.2816 -0.4726
  915MPD2    H313454   0.775   1.964  15.556  0.7065  0.7603  1.2759
  915MPD2     N13455   0.447   2.163  15.787  0.4547 -0.2220  0.4025
  915MPD2    H513456   0.358   2.209  15.772  2.1371  1.9973 -2.8249
  915MPD2    N113457   0.379   2.019  15.330 -0.7802  0.1199  0.4658
  915MPD2    H713458   0.424   1.997  15.241 -0.4398  0.4566  0.5508
  916MPD2     C13459   3.748   0.127  15.636 -0.2007 -0.2731  0.1565
  916MPD2    C113460   3.663   0.032  15.695  0.6240  0.0663  0.3577
  916MPD2    C213461   3.649   4.651  15.628  0.3607 -0.2833  0.0614
  916MPD2    C313462   3.724   4.626  15.513  0.7556 -0.0221 -0.3260
  916MPD2    C413463   3.813   4.722  15.465  0.1398 -0.2895 -0.2919
  916MPD2    C513464   3.812   0.109  15.515 -0.4484  0.0084  0.0301
  916MPD2     H13465   3.566   4.591  15.663 -0.2225  0.0447 -0.7700
  916MPD2    H113466   3.878   4.709  15.380  1.5451 -0.3573  0.7960
  916MPD2    H213467   3.759   0.230  15.667 -0.3705 -0.2791  0.2368
  916MPD2    H313468   3.869   0.190  15.472 -1.2496  0.6492  0.1801
  916MPD2     N13469   3.701   4.504  15.442 -0.0676 -0.2815  0.4901
  916MPD2    H513470   3.646   4.437  15.496 -0.3024 -0.4021  0.1053
  916MPD2    N113471   3.606   0.065  15.823 -0.0543 -0.6055  0.5224
  916MPD2    H713472   3.621   0.160  15.856 -1.9490  0.1314 -0.7582
  917MPD2     C13473   2.735   2.478  10.924 -0.1994 -0.5127  0.0907
  917MPD2    C113474   2.707   2.547  11.039  0.1385  0.2975  0.5605
  917MPD2    C213475   2.706   2.685  11.035  0.0741 -0.1767 -0.2958
  917MPD2    C313476   2.726   2.750  10.910 -0.6006 -0.8916  0.2083
  917MPD2    C413477   2.747   2.677  10.795  0.0579  0.8080 -0.5612
  917MPD2    C513478   2.752   2.541  10.805 -0.1928 -0.2651 -0.2222
  917MPD2     H13479   2.704   2.745  11.126  1.3558  0.2071 -0.5273
  917MPD2    H113480   2.775   2.728  10.703 -0.7048  2.7995  0.3071
  917MPD2    H213481   2.737   2.370  10.928  1.7596 -0.4297  1.2296
  917MPD2    H313482   2.773   2.488  10.713  0.0650  1.4687 -1.1716
  917MPD2     N13483   2.728   2.888  10.894  0.5418  1.5254  0.5105
  917MPD2    H513484   2.737   2.926  10.800 -1.0941  1.7924  0.4543
  917MPD2    N113485   2.688   2.466  11.156  0.3994  0.1673  0.2950
  917MPD2    H713486   2.707   2.367  11.153  1.4500  0.4034 -0.9372
  918MPD2     C13487   2.862   2.877  12.010  0.1842 -0.5008 -0.1968
  918MPD2    C113488   2.916   2.754  11.993  0.5584 -0.2950 -0.3474
  918MPD2    C213489   2.843   2.656  11.920 -0.3857 -0.1753  0.6342
  918MPD2    C313490   2.724   2.688  11.860 -0.5452 -0.1596 -0.2254
  918MPD2    C413491   2.671   2.816  11.868  0.7907  0.3871 -0.2047
  918MPD2    C513492   2.740   2.904  11.948  0.2491  0.8603 -0.1849
  918MPD2     H13493   2.895   2.561  11.913 -0.8795 -0.3004 -1.2938
  918MPD2    H113494   2.576   2.850  11.829  0.1885 -1.0317  0.0289
  918MPD2    H213495   2.899   2.949  12.081  1.1976 -1.4616  0.2555
  918MPD2    H313496   2.705   3.006  11.958  0.1834  1.2033 -3.6690
  918MPD2     N13497   2.666   2.598  11.775 -0.1666 -0.1728 -0.0639
  918MPD2    H513498   2.607   2.632  11.699 -1.9280  0.0757  1.4270
  918MPD2    N113499   3.044   2.725  12.034 -0.6167  0.2132 -0.2001
  918MPD2    H713500   3.075   2.637  11.995  0.7045 -0.3773  2.2070
  919MPD2     C13501   4.001   1.270  11.812  0.2066  0.0915  0.5518
  919MPD2    C113502   3.972   1.139  11.787 -0.2648 -0.4692  0.1964
  919MPD2    C213503   3.943   1.104  11.655 -0.6522 -0.3869  0.2533
  919MPD2    C313504   3.948   1.198  11.555  0.1749  0.4918 -0.2183
  919MPD2    C413505   3.967   1.334  11.584  0.2246  0.1909 -0.8025
  919MPD2    C513506   3.999   1.363  11.714 -0.9729  0.4688  0.0307
  919MPD2     H13507   3.923   0.998  11.639  0.4318 -0.2744 -1.8531
  919MPD2    H113508   3.990   1.408  11.508  0.8584  0.1950 -0.6086
  919MPD2    H213509   4.032   1.308  11.909 -1.7230 -1.4657  1.7846
  919MPD2    H313510   4.033   1.464  11.732  1.2828 -0.4014  0.6001
  919MPD2     N13511   3.933   1.181  11.416 -0.2332 -0.6120 -1.1697
  919MPD2    H513512   3.929   1.267  11.362 -3.2311  0.0604  0.0941
  919MPD2    N113513   3.959   1.042  11.886  0.0844  0.0727  0.6082
  919MPD2    H713514   3.931   0.949  11.858  1.4009  0.0615 -0.6337
  920MPD2     C13515   3.321   1.377  10.637 -0.0189  0.2635  0.8047
  920MPD2    C113516   3.306   1.239  10.660  0.6997 -0.0402  0.0216
  920MPD2    C213517   3.384   1.182  10.763 -0.2818 -0.5380  0.4779
  920MPD2    C313518   3.476   1.252  10.837 -0.0978  0.2468 -0.4140
  920MPD2    C413519   3.481   1.387  10.811  0.3122  0.6925  0.1996
  920MPD2    C513520   3.407   1.445  10.716 -0.6032 -0.0221  0.4134
  920MPD2     H13521   3.375   1.075  10.770 -0.9657 -0.3136  2.8608
  920MPD2    H113522   3.557   1.446  10.860 -1.4251  1.2440  2.2582
  920MPD2    H213523   3.272   1.425  10.554  1.7400 -1.2468 -1.0850
  920MPD2    H313524   3.415   1.552  10.700 -0.8287 -0.1278 -0.4386
  920MPD2     N13525   3.566   1.186  10.922 -0.7764  0.0450  0.2121
  920MPD2    H513526   3.551   1.087  10.942 -1.1316  0.2335  0.8957
  920MPD2    N113527   3.213   1.150  10.595 -0.2451  0.0174  0.5620
  920MPD2    H713528   3.210   1.054  10.627  1.4807 -0.8326 -1.8558
  921MPD2     C13529   0.732   1.156  16.909  0.0239  0.1204  0.3095
  921MPD2    C113530   0.730   1.056  16.821  0.2634  0.1258  0.0932
  921MPD2    C213531   0.641   0.952  16.834  0.0647 -0.5273  0.4742
  921MPD2    C313532   0.547   0.950  16.939  0.0546  0.2996 -0.3876
  921MPD2    C413533   0.546   1.060  17.024  0.3118 -0.6267 -0.2883
  921MPD2    C513534   0.637   1.165  17.004  0.0596  0.4921  0.0238
  921MPD2     H13535   0.647   0.868  16.765 -1.2595  0.5407 -0.9677
  921MPD2    H113536   0.478   1.062  17.109 -1.4452  2.0370 -1.7377
  921MPD2    H213537   0.795   1.242  16.887  2.2229 -1.5630  0.0918
  921MPD2    H313538   0.636   1.255  17.066  0.5596  2.2390 -2.5241
  921MPD2     N13539   0.451   0.847  16.953  0.1432 -0.1012 -0.3355
  921MPD2    H513540   0.380   0.864  17.023  0.1955  0.1057 -0.3315
  921MPD2    N113541   0.825   1.062  16.716  0.1890  0.6554  0.0724
  921MPD2    H713542   0.903   1.126  16.718  1.0475 -0.3975  0.0751
  922MPD2     C13543   1.546   3.086  16.757 -0.1893  0.6347 -0.0888
  922MPD2    C113544   1.494   3.169  16.852 -0.5944  0.1348  0.0479
  922MPD2    C213545   1.391   3.122  16.934 -0.3349 -0.1609 -0.4937
  922MPD2    C313546   1.337   3.001  16.912  0.5964  0.3429  0.2101
  922MPD2    C413547   1.381   2.922  16.811 -0.8196 -0.6830 -0.6031
  922MPD2    C513548   1.493   2.964  16.746  0.3378  0.3320  0.0612
  922MPD2     H13549   1.350   3.188  17.009  1.6783  1.7063 -1.0186
  922MPD2    H113550   1.341   2.826  16.782  0.0726 -1.2514  0.0556
  922MPD2    H213551   1.634   3.112  16.699  0.6186  2.0861  1.7722
  922MPD2    H313552   1.541   2.903  16.669 -0.5943 -0.3011 -0.0213
  922MPD2     N13553   1.221   2.967  16.989  0.0378  0.0948 -0.4174
  922MPD2    H513554   1.168   3.038  17.039 -0.3881  0.6985 -1.7173
  922MPD2    N113555   1.547   3.295  16.889 -0.3803  0.7591 -1.1043
  922MPD2    H713556   1.512   3.336  16.975  1.5094 -0.3313  0.1829
  923MPD2     C13557   2.336   0.275   8.988  0.1767 -0.5838  1.0619
  923MPD2    C113558   2.280   0.388   9.035  0.0091  0.3859 -0.4638
  923MPD2    C213559   2.335   0.445   9.145  0.6469 -0.5655 -0.0855
  923MPD2    C313560   2.422   0.380   9.221 -0.4252 -0.5463  0.4001
  923MPD2    C413561   2.484   0.272   9.174 -0.8881 -0.2801  1.4862
  923MPD2    C513562   2.440   0.212   9.058  0.1225  0.2207 -0.4893
  923MPD2     H13563   2.307   0.543   9.184 -1.7514 -1.1263 -0.3887
  923MPD2    H113564   2.561   0.224   9.234 -0.5299  0.4653  1.6244
  923MPD2    H213565   2.298   0.228   8.898  1.3008 -0.8885  0.7453
  923MPD2    H313566   2.481   0.119   9.019 -1.3505 -0.1802 -1.0766
  923MPD2     N13567   2.470   0.435   9.343  0.1298 -0.4722  0.0649
  923MPD2    H513568   2.557   0.392   9.372  2.1502  3.1484 -0.4805
  923MPD2    N113569   2.167   0.441   8.963  0.4138  0.1154  0.0110
  923MPD2    H713570   2.128   0.389   8.884  1.7866  0.3318 -0.8094
  924MPD2     C13571   2.909   3.362  16.121 -0.5407 -0.1104  0.5913
  924MPD2    C113572   2.784   3.408  16.083 -0.3825 -0.0295 -0.1514
  924MPD2    C213573   2.780   3.523  16.008 -0.0576  1.0449  0.2277
  924MPD2    C313574   2.891   3.595  15.973  0.0354 -0.0110 -0.2243
  924MPD2    C413575   3.018   3.542  16.003 -0.0463  0.1759 -0.0849
  924MPD2    C513576   3.024   3.431  16.084 -1.1263  0.5299  0.6127
  924MPD2     H13577   2.685   3.565  15.975 -0.4219 -0.1787 -0.2760
  924MPD2    H113578   3.113   3.593  15.987  0.7936 -1.3978 -0.1221
  924MPD2    H213579   2.909   3.276  16.187 -2.2355 -0.0215  0.6922
  924MPD2    H313580   3.120   3.390  16.115  0.0687  3.8319  1.2855
  924MPD2     N13581   2.888   3.718  15.908 -0.4551 -0.1245 -0.9113
  924MPD2    H513582   2.976   3.765  15.889 -0.3424 -0.0548 -0.1919
  924MPD2    N113583   2.669   3.349  16.140 -0.3451  0.3628  0.3005
  924MPD2    H713584   2.684   3.281  16.213 -1.4780  0.6610  0.8266
  925MPD2     C13585   1.569   1.441  14.720  0.0321  0.6895 -0.4238
  925MPD2    C113586   1.440   1.425  14.687 -0.3701 -0.6161 -0.2314
  925MPD2    C213587   1.347   1.493  14.766 -0.0309  0.6634  0.6503
  925MPD2    C313588   1.374   1.564  14.880 -0.1438 -0.7551  0.3361
  925MPD2    C413589   1.508   1.564  14.913  0.3602 -0.3879 -0.4439
  925MPD2    C513590   1.600   1.507  14.835  0.1495  0.5338 -0.0544
  925MPD2     H13591   1.244   1.485  14.731 -0.0793 -0.9200  1.1604
  925MPD2    H113592   1.546   1.615  15.001  0.2139 -1.9843  0.5447
  925MPD2    H213593   1.648   1.384  14.673  0.9168  1.0367  0.6549
  925MPD2    H313594   1.706   1.506  14.861 -0.2136  0.2442  1.3888
  925MPD2     N13595   1.281   1.629  14.970 -0.0624  0.2358  0.5445
  925MPD2    H513596   1.316   1.653  15.062 -1.4858  1.1858  0.8434
  925MPD2    N113597   1.396   1.351  14.575 -0.1006 -0.3239 -0.0772
  925MPD2    H713598   1.295   1.344  14.568 -0.0907  0.4147 -0.9439
  926MPD2     C13599   4.608   4.446  13.714 -0.5340  0.0497  0.4857
  926MPD2    C113600   4.512   4.541  13.686 -0.7831  0.0670  0.1574
  926MPD2    C213601   4.512   4.603  13.562  0.1936  0.2238  0.2522
  926MPD2    C313602   4.619   4.585  13.472 -0.1492  0.7667  0.5732
  926MPD2    C413603   4.713   4.484  13.499  0.3186  0.3644  0.7656
  926MPD2    C513604   4.707   4.416  13.622 -0.1010  0.4254  0.3667
  926MPD2     H13605   4.436   4.677  13.538  0.6254  0.6130  0.0896
  926MPD2    H113606   0.060   4.472  13.439 -0.4246  2.6777 -0.7965
  926MPD2    H213607   4.605   4.381  13.801 -0.2511 -1.1528 -0.4044
  926MPD2    H313608   0.041   4.343  13.647 -0.3446  0.0723  0.0814
  926MPD2     N13609   4.627   4.659  13.352 -1.1412  0.3327 -0.2035
  926MPD2    H513610   4.715   4.650  13.302 -2.3272 -1.4245 -1.9972
  926MPD2    N113611   4.402   4.550  13.771 -0.5907  0.0276 -0.0617
  926MPD2    H713612   4.325   4.597  13.726  0.4159  1.0879 -0.6736
  927MPD2     C13613   3.975   1.842  17.549  0.3765 -0.2195  0.4507
  927MPD2    C113614   4.063   1.738  17.597  0.3737 -0.6754 -0.0697
  927MPD2    C213615   4.196   1.749  17.581 -0.2346  0.5445  0.1605
  927MPD2    C313616   4.254   1.865  17.524 -0.1349 -0.0171  0.3586
  927MPD2    C413617   4.169   1.963  17.488  0.0363 -0.4240 -0.3658
  927MPD2    C513618   4.034   1.955  17.496  0.4247 -0.3964 -0.1339
  927MPD2     H13619   4.266   1.672  17.615 -1.3457 -1.0083 -1.0523
  927MPD2    H113620   4.195   2.064  17.457 -1.1981 -0.3438 -1.1582
  927MPD2    H213621   3.869   1.833  17.568  0.0623  0.1852 -1.1493
  927MPD2    H313622   3.972   2.037  17.461 -0.7542 -1.0219  0.4912
  927MPD2     N13623   4.394   1.892  17.529  0.0480 -0.2012  0.7016
  927MPD2    H513624   4.448   1.819  17.576  1.4379  0.8701  0.7708
  927MPD2    N113625   3.999   1.637  17.666  0.5023 -0.0072 -0.1607
  927MPD2    H713626   3.900   1.658  17.680  0.5845 -0.3246  0.8604
  928MPD2     C13627   2.512   4.547   0.876 -0.1807  0.0389 -0.4171
  928MPD2    C113628   2.544   4.680   0.897  0.0775 -0.4870  0.1141
  928MPD2    C213629   2.547   0.032   0.793 -0.1717  0.4223  0.4944
  928MPD2    C313630   2.494   4.737   0.666  0.6316  0.6197  0.0795
  928MPD2    C413631   2.455   4.611   0.655  0.4882  0.2136 -0.3215
  928MPD2    C513632   2.462   4.517   0.754 -0.1755  0.1735 -0.3609
  928MPD2     H13633   2.567   0.136   0.815 -2.2333  0.5398  1.8374
  928MPD2    H113634   2.418   4.577   0.559 -0.3893  1.6693 -0.5002
  928MPD2    H213635   2.499   4.468   0.949  1.9550  0.8983  0.9016
  928MPD2    H313636   2.421   4.418   0.733 -1.2656  0.2495  1.4256
  928MPD2     N13637   2.472   0.086   0.556 -0.6733 -0.5025  0.2094
  928MPD2    H513638   2.414   0.050   0.481  1.1220 -0.5293 -1.1707
  928MPD2    N113639   2.588   4.717   1.032  0.5634 -0.7768 -0.5455
  928MPD2    H713640   2.608   4.643   1.099  0.0942  1.2567  1.8611
  929MPD2     C13641   2.026   0.419   9.556 -0.7242 -0.1608 -0.3642
  929MPD2    C113642   1.923   0.327   9.576 -0.4726  0.3697 -0.2544
  929MPD2    C213643   1.849   0.292   9.469 -0.5363 -0.3116  0.0209
  929MPD2    C313644   1.885   0.324   9.344  0.3447  0.3665  0.2539
  929MPD2    C413645   1.996   0.401   9.326  0.4018  0.8063  0.6696
  929MPD2    C513646   2.065   0.454   9.431 -0.5118  0.3766 -0.1795
  929MPD2     H13647   1.782   0.206   9.475  0.2478 -0.8276  1.3065
  929MPD2    H113648   2.034   0.426   9.228 -1.1805 -3.8435 -1.1140
  929MPD2    H213649   2.090   0.450   9.637  0.6506 -0.5613 -1.3015
  929MPD2    H313650   2.145   0.519   9.398  0.0626 -1.3056 -2.1215
  929MPD2     N13651   1.822   0.290   9.220  0.2086 -0.0874  0.4364
  929MPD2    H513652   1.890   0.270   9.148 -0.3697 -1.6047  0.3010
  929MPD2    N113653   1.898   0.287   9.710  0.1992  0.7389  0.3459
  929MPD2    H713654   1.947   0.335   9.785 -1.2196  0.8656  1.1861
  930MPD2     C13655   4.463   2.162  13.999 -0.6230 -0.1448  0.2089
  930MPD2    C113656   4.416   2.260  13.910  0.5966  0.4180  0.5311
  930MPD2    C213657   4.350   2.220  13.800  0.0861 -0.1892 -0.3445
  930MPD2    C313658   4.320   2.087  13.777 -0.3843 -0.0690  0.0322
  930MPD2    C413659   4.361   1.986  13.865  0.2465  0.5104  0.2272
  930MPD2    C513660   4.423   2.031  13.978  0.4472 -0.1558 -0.1231
  930MPD2     H13661   4.329   2.296  13.725 -2.5410 -1.1809 -0.5915
  930MPD2    H113662   4.329   1.882  13.857  0.1133  0.6051 -0.4385
  930MPD2    H213663   4.514   2.177  14.093  0.0288 -0.7831 -0.0426
  930MPD2    H313664   4.458   1.954  14.046 -0.8821 -0.0271  0.7081
  930MPD2     N13665   4.263   2.051  13.651 -0.2814 -0.9223 -0.4410
  930MPD2    H513666   4.271   1.955  13.621 -1.2561 -1.7851  2.0485
  930MPD2    N113667   4.453   2.395  13.909 -0.0667  0.2772  0.0061
  930MPD2    H713668   4.420   2.456  13.834  1.3035  2.4791  1.1914
  931MPD2     C13669   4.186   0.876   0.194 -0.2340 -0.2403  0.2233
  931MPD2    C113670   4.219   1.005   0.219 -0.2456  0.1647  0.8634
  931MPD2    C213671   4.352   1.027   0.244 -0.3630  0.1339 -0.4801
  931MPD2    C313672   4.434   0.920   0.296 -0.5054 -0.0900 -0.5792
  931MPD2    C413673   4.402   0.795   0.265 -0.0640 -0.2519 -0.2253
  931MPD2    C513674   4.276   0.775   0.213  0.0703 -0.1941 -0.0322
  931MPD2     H13675   4.375   1.129   0.273  1.9293 -0.9945  1.6772
  931MPD2    H113676   4.469   0.710   0.267  1.5157  1.0306  1.1901
  931MPD2    H213677   4.085   0.857   0.158 -0.2873  1.6242 -0.6359
  931MPD2    H313678   4.252   0.674   0.180  0.6694 -0.7566  1.2367
  931MPD2     N13679   4.551   0.944   0.378  0.7878  0.1712 -0.1610
  931MPD2    H513680   4.611   0.863   0.389  0.8896  0.1499 -0.8782
  931MPD2    N113681   4.132   1.109   0.199  0.1054 -0.5881 -0.0310
  931MPD2    H713682   4.163   1.206   0.189  0.4467 -0.4225  2.6651
  932MPD2     C13683   1.153   0.658  11.661  0.2865 -0.1527 -0.0522
  932MPD2    C113684   1.204   0.679  11.535  0.0577 -0.2455  0.0069
  932MPD2    C213685   1.292   0.585  11.477 -0.3948  0.1860  0.0333
  932MPD2    C313686   1.346   0.484  11.558 -0.0020  0.2024 -0.0815
  932MPD2    C413687   1.303   0.473  11.688 -0.1213  0.7401  0.5670
  932MPD2    C513688   1.203   0.554  11.732 -0.5498  0.2049 -1.2417
  932MPD2     H13689   1.344   0.605  11.383 -0.2823 -2.3040 -0.4488
  932MPD2    H113690   1.326   0.386  11.748 -1.2835 -0.6059 -0.9435
  932MPD2    H213691   1.083   0.724  11.711 -1.5599 -1.8743 -0.4068
  932MPD2    H313692   1.159   0.546  11.831  0.9866  2.8477 -0.3452
  932MPD2     N13693   1.442   0.394  11.510  0.2159  0.2449 -0.6690
  932MPD2    H513694   1.499   0.347  11.580 -1.9350  1.2021  1.7515
  932MPD2    N113695   1.180   0.800  11.462  0.2282 -0.4564  0.1412
  932MPD2    H713696   1.233   0.808  11.376  1.5062 -2.1164  0.7938
  933MPD2     C13697   2.908   0.565   1.718  0.4076 -0.3930  0.0793
  933MPD2    C113698   2.801   0.550   1.623 -0.4859  0.4526  0.6504
  933MPD2    C213699   2.706   0.654   1.614  0.7276 -0.1642  0.4309
  933MPD2    C313700   2.713   0.767   1.690 -0.1380  0.6448 -0.0212
  933MPD2    C413701   2.823   0.780   1.774  0.2166 -0.6349 -0.7036
  933MPD2    C513702   2.919   0.682   1.785  0.3177 -0.0553  0.2577
  933MPD2     H13703   2.616   0.646   1.554 -0.0742 -2.1247  1.8726
  933MPD2    H113704   2.839   0.869   1.835  3.0312 -1.0767 -0.7722
  933MPD2    H213705   2.977   0.484   1.738  1.6248  0.1447 -1.8950
  933MPD2    H313706   2.997   0.690   1.860 -1.5064 -2.0276  2.3740
  933MPD2     N13707   2.615   0.863   1.680  0.3345 -0.1036  0.2850
  933MPD2    H513708   2.549   0.849   1.604  1.6572  0.6527 -1.0082
  933MPD2    N113709   2.800   0.434   1.551 -0.1369  0.2406  0.0656
  933MPD2    H713710   2.857   0.359   1.587  0.9989  0.9769 -0.1883
  934MPD2     C13711   3.712   2.930   1.571  0.0637  0.7368  0.0005
  934MPD2    C113712   3.757   2.896   1.450 -0.0778  0.2949 -0.5462
  934MPD2    C213713   3.692   2.790   1.389  0.4159  0.3641  0.0018
  934MPD2    C313714   3.574   2.733   1.443 -0.0344 -0.3944 -0.5673
  934MPD2    C413715   3.516   2.790   1.552 -0.3987  0.1223  0.2843
  934MPD2    C513716   3.583   2.889   1.617 -0.3433  0.1276  0.5760
  934MPD2     H13717   3.730   2.757   1.293 -0.0406 -1.5929  0.4936
  934MPD2    H113718   3.434   2.751   1.611 -0.7020 -0.7274 -0.6957
  934MPD2    H213719   3.764   3.006   1.629  0.1685  0.2271  0.5745
  934MPD2    H313720   3.552   2.943   1.705  0.8281  0.3599  0.8537
  934MPD2     N13721   3.504   2.621   1.390 -0.4141  0.1535  0.2814
  934MPD2    H513722   3.413   2.590   1.422 -0.3859 -0.4554 -0.2062
  934MPD2    N113723   3.879   2.939   1.391 -0.1921  0.1036  0.0601
  934MPD2    H713724   3.893   2.914   1.293 -1.5549  0.3877 -0.2022
  935MPD2     C13725   3.840   1.873   0.840 -0.2432  0.1045 -0.3722
  935MPD2    C113726   3.718   1.821   0.887 -0.8250 -0.3994  0.7636
  935MPD2    C213727   3.640   1.902   0.965  0.3572  0.0275 -0.2914
  935MPD2    C313728   3.688   2.029   1.000 -0.2959  0.2628 -0.2996
  935MPD2    C413729   3.805   2.077   0.953  0.0711  0.3921 -0.0554
  935MPD2    C513730   3.884   2.000   0.872  0.1650 -0.2907  0.1790
  935MPD2     H13731   3.538   1.874   0.991 -0.2597  0.2186 -2.5201
  935MPD2    H113732   3.834   2.180   0.973 -1.2079  0.8577 -0.5946
  935MPD2    H213733   3.902   1.818   0.770 -1.6265 -0.4012 -1.1829
  935MPD2    H313734   3.979   2.041   0.840  0.4764 -0.6982  0.5849
  935MPD2     N13735   3.614   2.118   1.078  0.5207 -0.6663 -0.0064
  935MPD2    H513736   3.666   2.198   1.111  1.4069 -1.9865  1.8560
  935MPD2    N113737   3.665   1.699   0.847 -0.1511 -0.8370  0.3253
  935MPD2    H713738   3.573   1.673   0.882  1.1897 -2.5403  2.6060
  936MPD2     C13739   1.374   4.434  12.562  0.9752 -0.0785 -0.0343
  936MPD2    C113740   1.442   4.309  12.559 -0.7965  0.2910 -0.0737
  936MPD2    C213741   1.551   4.299  12.475 -0.2578  0.1669  0.2107
  936MPD2    C313742   1.596   4.401  12.389 -0.8691  0.2896 -0.1537
  936MPD2    C413743   1.535   4.519  12.413  0.4144  0.0001 -0.1021
  936MPD2    C513744   1.427   4.536  12.499  0.4967 -0.5403  0.2640
  936MPD2     H13745   1.585   4.198  12.458 -0.3913  0.1293  0.1589
  936MPD2    H113746   1.570   4.609  12.364 -2.7734  0.8809 -0.7955
  936MPD2    H213747   1.290   4.461  12.624  1.2135  0.1138  0.2066
  936MPD2    H313748   1.377   4.632  12.505  2.1577  0.1721  2.4508
  936MPD2     N13749   1.703   4.395  12.296  0.5871  0.4657 -0.3491
  936MPD2    H513750   1.718   4.482  12.246  2.5222  0.7483  0.7591
  936MPD2    N113751   1.383   4.190  12.618  0.1142 -0.7016 -0.2858
  936MPD2    H713752   1.427   4.100  12.600 -0.3951 -1.4233  2.1086
  937MPD2     C13753   4.057   0.328  11.989  0.5893  0.0745  0.2131
  937MPD2    C113754   4.055   0.440  11.912 -0.3473  0.1508  0.2862
  937MPD2    C213755   4.140   0.452  11.812 -0.4410  0.3762  0.1104
  937MPD2    C313756   4.231   0.350  11.775  0.4012  0.2622  0.2420
  937MPD2    C413757   4.220   0.231  11.847  0.5171  0.2035 -0.2512
  937MPD2    C513758   4.135   0.222  11.953  0.0025  0.1991  0.0371
  937MPD2     H13759   4.126   0.543  11.756 -3.7846 -0.7620 -0.8725
  937MPD2    H113760   4.279   0.144  11.822  0.3165 -0.7093  2.4139
  937MPD2    H213761   3.982   0.315  12.066  1.0030 -0.4954  0.5237
  937MPD2    H313762   4.140   0.133  12.014 -0.0225  1.2998  1.6573
  937MPD2     N13763   4.327   0.381  11.676  0.3013  0.0401 -0.1304
  937MPD2    H513764   4.319   0.468  11.624 -4.4766  0.8310  1.8792
  937MPD2    N113765   3.982   0.552  11.944  0.1984  0.1360  0.6752
  937MPD2    H713766   3.986   0.626  11.875  2.0880  1.3253  2.0381
  938MPD2     C13767   2.673   2.164   0.478 -0.7947  0.3110  0.3690
  938MPD2    C113768   2.611   2.257   0.562  0.5753 -0.2782 -0.3933
  938MPD2    C213769   2.568   2.231   0.691  0.1121 -0.5727 -0.1499
  938MPD2    C313770   2.592   2.103   0.741 -0.7514  0.3798  0.1959
  938MPD2    C413771   2.669   2.008   0.667  0.2939 -0.3287 -0.1325
  938MPD2    C513772   2.702   2.039   0.541  0.6017  0.4484 -0.0866
  938MPD2     H13773   2.526   2.316   0.744 -0.3762  0.8523 -2.8514
  938MPD2    H113774   2.696   1.909   0.703  4.3959  1.0476  0.4970
  938MPD2    H213775   2.706   2.192   0.378 -0.0954 -1.7518  0.0098
  938MPD2    H313776   2.752   1.959   0.489 -0.3309  0.0189 -0.3121
  938MPD2     N13777   2.556   2.066   0.877 -0.2842  0.4939  0.0647
  938MPD2    H513778   2.569   1.973   0.915  1.5240  0.4819 -0.5663
  938MPD2    N113779   2.590   2.394   0.523  0.3863  0.0963 -0.6005
  938MPD2    H713780   2.541   2.453   0.589 -0.2161 -0.6524 -0.3763
  939MPD2     C13781   3.776   2.994   0.513 -0.0726 -0.5563  0.0548
  939MPD2    C113782   3.735   3.123   0.506  0.0394 -0.8534  0.5924
  939MPD2    C213783   3.698   3.178   0.383 -0.2498  0.3330  0.3084
  939MPD2    C313784   3.684   3.099   0.270 -0.0615  0.2562 -0.3109
  939MPD2    C413785   3.713   2.966   0.285  0.7807 -0.4032  0.5022
  939MPD2    C513786   3.766   2.917   0.403 -0.0481  0.6908 -0.9979
  939MPD2     H13787   3.689   3.286   0.378  2.0185  0.4861 -0.6230
  939MPD2    H113788   3.702   2.893   0.206  1.4136 -0.6582  0.6467
  939MPD2    H213789   3.817   2.953   0.605 -1.4308 -0.9261  0.4915
  939MPD2    H313790   3.768   2.808   0.405 -1.2019  0.6511 -2.1201
  939MPD2     N13791   3.638   3.158   0.147  0.8464  0.4404  0.1046
  939MPD2    H513792   3.653   3.257   0.131 -1.3877  0.8261  0.3712
  939MPD2    N113793   3.738   3.193   0.629 -0.0752  0.4196 -0.1433
  939MPD2    H713794   3.759   3.144   0.716  2.0829 -0.1535 -1.0152
  940MPD2     C13795   2.544   4.495  13.142  0.6897 -0.0015  0.0957
  940MPD2    C113796   2.434   4.438  13.083  0.1181  0.3058 -0.0548
  940MPD2    C213797   2.438   4.378  12.957 -0.5757  1.0237  0.0504
  940MPD2    C313798   2.564   4.368  12.896 -0.9805 -0.4197  0.5241
  940MPD2    C413799   2.678   4.410  12.960 -0.1861 -0.3839 -0.1258
  940MPD2    C513800   2.671   4.475  13.085 -0.3957 -0.0371  0.1133
  940MPD2     H13801   2.346   4.344  12.911  0.6997 -0.9982 -0.9992
  940MPD2    H113802   2.777   4.383  12.926 -0.5679 -1.6931 -0.2254
  940MPD2    H213803   2.539   4.565  13.225 -1.8969  4.1599 -3.5224
  940MPD2    H313804   2.756   4.531  13.120  0.7227 -0.8428 -1.2984
  940MPD2     N13805   2.580   4.303  12.772  0.0870 -0.3601 -0.3001
  940MPD2    H513806   2.676   4.293  12.743  0.3771 -0.6278  0.7397
  940MPD2    N113807   2.317   4.426  13.157 -0.3804  0.4103  0.3949
  940MPD2    H713808   2.238   4.384  13.108 -1.1212  1.7726  0.4278
  941MPD2     C13809   0.569   3.759  10.232 -0.6230  0.4881 -0.3895
  941MPD2    C113810   0.661   3.670  10.280  0.0075 -0.9432  0.1898
  941MPD2    C213811   0.622   3.567  10.365 -0.6383  0.1032  0.0262
  941MPD2    C313812   0.492   3.543  10.399 -0.3542 -0.3480 -0.2531
  941MPD2    C413813   0.397   3.625  10.338  0.5042  0.2177  0.4942
  941MPD2    C513814   0.437   3.730  10.260  0.1798 -0.8705 -0.6691
  941MPD2     H13815   0.695   3.500  10.410  0.3638  0.7856 -0.6089
  941MPD2    H113816   0.292   3.612  10.361  1.2502 -0.1736  3.7013
  941MPD2    H213817   0.600   3.840  10.167  0.3104 -0.6016 -1.3007
  941MPD2    H313818   0.358   3.791  10.218 -1.1498 -2.2687 -0.1699
  941MPD2     N13819   0.455   3.428  10.472  0.1836  1.1333  0.1882
  941MPD2    H513820   0.357   3.414  10.494  0.8484 -1.2411  1.5690
  941MPD2    N113821   0.799   3.698  10.268 -0.6771  0.0265  0.3464
  941MPD2    H713822   0.860   3.634  10.317 -2.2693 -1.1667  0.7939
  942MPD2     C13823   0.969   0.007   8.912  0.7699 -0.2387 -0.5497
  942MPD2    C113824   1.033   0.125   8.924 -0.5108  0.0209 -0.3867
  942MPD2    C213825   1.157   0.142   8.859  0.2810 -0.1018  0.5617
  942MPD2    C313826   1.212   0.036   8.796  1.3861  0.8249 -0.1629
  942MPD2    C413827   1.147   4.656   8.782  0.0507  0.2012  0.5861
  942MPD2    C513828   1.029   4.643   8.848  0.0727  0.1585  0.0698
  942MPD2     H13829   1.188   0.245   8.845 -0.7795  0.0989 -0.3362
  942MPD2    H113830   1.176   4.575   8.716 -0.4307 -1.6721  2.6563
  942MPD2    H213831   0.866   0.000   8.943 -0.0520  2.1427 -2.7590
  942MPD2    H313832   0.983   4.545   8.852 -0.2165  0.3163  0.6139
  942MPD2     N13833   1.347   0.036   8.742  0.3949 -0.3778 -0.1091
  942MPD2    H513834   1.375   4.696   8.691  0.4616 -1.3409  1.4876
  942MPD2    N113835   0.973   0.240   8.986  0.4658 -0.3541  0.2262
  942MPD2    H713836   1.025   0.327   8.978  0.0975 -0.1340  0.1825
  943MPD2     C13837   4.324   3.766   9.864  0.1367 -0.0129  0.0960
  943MPD2    C113838   4.251   3.694   9.954  0.1409 -0.7090  0.4936
  943MPD2    C213839   4.227   3.739  10.089 -0.2335  0.3519 -0.2643
  943MPD2    C313840   4.301   3.848  10.130  0.1740  0.2150 -0.2085
  943MPD2    C413841   4.377   3.921  10.042 -1.1218 -0.5724 -0.4646
  943MPD2    C513842   4.386   3.885   9.906  0.6241  0.0008 -0.1008
  943MPD2     H13843   4.167   3.678  10.155  0.5562 -0.7674 -0.5820
  943MPD2    H113844   4.427   4.012  10.074 -1.6973 -0.1007 -0.9068
  943MPD2    H213845   4.324   3.724   9.764  0.9850  0.6210 -0.1734
  943MPD2    H313846   4.446   3.944   9.838  2.1989  0.1610  1.4096
  943MPD2     N13847   4.290   3.894  10.260 -0.0397  0.3034 -0.8277
  943MPD2    H513848   4.346   3.976  10.277 -2.1246  1.4426  0.5244
  943MPD2    N113849   4.198   3.578   9.898  0.1486 -0.5493  0.0212
  943MPD2    H713850   4.210   3.567   9.797 -4.9595 -2.5052 -0.3457
  944MPD2     C13851   4.551   1.863  11.462  0.4298  0.3498  0.0105
  944MPD2    C113852   4.582   1.942  11.356  0.7647 -0.3691 -0.1083
  944MPD2    C213853   4.531   2.070  11.358 -0.2383  0.1350  1.0281
  944MPD2    C313854   4.442   2.113  11.455 -0.1318 -0.1553 -0.6947
  944MPD2    C413855   4.408   2.029  11.560  0.2903 -0.4345  0.8864
  944MPD2    C513856   4.466   1.905  11.559 -0.3785 -0.6268  0.1743
  944MPD2     H13857   4.545   2.137  11.273  2.2140 -1.8249 -0.1129
  944MPD2    H113858   4.335   2.061  11.633  0.4519  0.7360  0.5390
  944MPD2    H213859   4.594   1.764  11.477 -1.1365 -0.4919 -1.0937
  944MPD2    H313860   4.430   1.837  11.635  1.1701 -0.8359  0.7085
  944MPD2     N13861   4.389   2.243  11.431 -0.2391  0.0312 -1.0269
  944MPD2    H513862   4.420   2.291  11.347 -1.9997 -0.9264 -2.2431
  944MPD2    N113863   4.652   1.883  11.252  0.9337  0.0529 -0.4500
  944MPD2    H713864   4.673   1.785  11.264  0.5531 -0.3927 -3.3580
    1TMC1    C113865   3.529   3.383  14.680 -0.0592 -0.3036 -0.0822
    1TMC1    C213866   3.629   3.394  14.582  0.9262 -0.0272  0.2838
    1TMC1    C313867   3.760   3.370  14.622  0.2096  0.4683 -0.1078
    1TMC1    C413868   3.568   3.355  14.808 -0.2058 -0.3051  0.2208
    1TMC1    C513869   3.699   3.326  14.844  0.4315 -0.4032 -0.3634
    1TMC1    C613870   3.798   3.338  14.746  0.1463  0.5895  0.0550
    1TMC1     C13871   3.394   3.435  14.663  0.4596 -0.1885  0.6296
    1TMC1     O13872   3.330   3.473  14.757 -0.2298  0.3611  0.6041
    1TMC1     H13873   3.601   3.460  14.501  1.6605  0.5613  0.5069
    1TMC1    H113874   3.501   3.373  14.891 -0.7744 -1.2983 -0.0177
    1TMC1    H213875   3.899   3.298  14.756 -0.4869 -0.2576  3.1996
    1TMC1    C713876   3.733   3.270  14.968  0.1168  0.3177 -0.3131
    1TMC1    C813877   3.863   3.377  14.527 -0.3481  0.6904 -0.0608
    1TMC1    O113878   3.836   3.264  15.029 -0.5099  0.4524  0.1337
    1TMC1    O213879   3.981   3.376  14.559  0.6130 -0.0588 -0.3531
    1TMC1    O313880   3.666   3.159  14.952 -0.3220  0.1598 -0.1792
    1TMC1    H313881   3.600   3.163  14.880 -2.1964 -0.6810  1.4997
    1TMC1    O513882   3.817   3.355  14.408 -0.7388  0.1379  0.5508
    1TMC1    H513883   3.719   3.349  14.399 -0.9396 -0.0344  2.8280
    2MPD2     C13884   3.028   3.605  14.357 -0.1075 -0.2658  0.0089
    2MPD2    C113885   3.107   3.526  14.278 -0.2341  0.2221 -0.2929
    2MPD2    C213886   3.212   3.465  14.340 -0.0272 -0.0765  0.1650
    2MPD2    C313887   3.243   3.500  14.474 -0.9293 -0.1184  0.1338
    2MPD2    C413888   3.172   3.587  14.547  0.3342  0.3203  0.2488
    2MPD2    C513889   3.059   3.633  14.488  0.3761 -0.2728 -0.4054
    2MPD2     H13890   3.269   3.393  14.283 -0.1525 -0.6966  0.8279
    2MPD2    H113891   3.199   3.622  14.646 -0.9830  0.4955  0.5548
    2MPD2    H213892   2.946   3.659  14.312 -0.1122  0.6216  1.0635
    2MPD2    H313893   3.002   3.700  14.551  0.9253 -0.5320  0.3666
    2MPD2     N13894   3.352   3.432  14.532 -0.7467  0.0830 -0.4172
    2MPD2    H513895   3.414   3.370  14.482  0.3627  1.3310 -0.5834
    2MPD2    N113896   3.070   3.515  14.138  0.1549 -0.2397  0.4358
    2MPD2    H713897   2.987   3.569  14.118  0.8878 -0.3966 -2.9126
    3TMC2    C113898   3.037   3.424  13.921 -0.1747  0.7185 -0.5888
    3TMC2    C213899   3.045   3.309  13.848 -0.2063 -0.1897 -0.4118
    3TMC2    C313900   2.967   3.314  13.735 -0.3758 -0.4158 -0.8124
    3TMC2    C413901   2.958   3.531  13.893 -0.7953  0.0550 -0.2863
    3TMC2    C513902   2.894   3.522  13.769  0.7121 -0.5370 -0.1216
    3TMC2    C613903   2.890   3.414  13.687 -0.0449 -0.6670  0.0509
    3TMC2     C13904   3.110   3.421  14.049  0.5726  0.6838  0.1530
    3TMC2     O13905   3.172   3.319  14.072 -0.5429 -0.5661 -0.3668
    3TMC2     H13906   3.102   3.221  13.877 -1.5187 -0.6788  0.6981
    3TMC2    H113907   2.966   3.618  13.957 -3.1940  0.6181 -0.7476
    3TMC2    H213908   2.814   3.408  13.610  0.2040  1.6195 -0.3919
    3TMC2    C713909   2.807   3.628  13.729 -0.2625 -0.8531  0.3714
    3TMC2    C813910   3.020   3.220  13.635  1.0071  0.5937  0.2684
    3TMC2    O113911   2.704   3.602  13.667  0.0065 -0.3404 -0.3249
    3TMC2    O213912   3.100   3.132  13.664 -1.0267 -0.2535  0.2817
    3TMC2    O513913   3.007   3.262  13.507 -0.4069  0.2260 -0.2711
    3TMC2    H513914   2.951   3.338  13.480 -1.1697  0.2090  1.2379
    4TMC2    C113915   3.103   4.543  13.900  0.4255  0.4045  0.2633
    4TMC2    C213916   3.212   4.530  13.981  0.6924 -0.7926 -0.4568
    4TMC2    C313917   3.236   4.422  14.050  0.0621  0.1342  0.5654
    4TMC2    C413918   3.004   4.447  13.916  0.7070  0.1067  0.7024
    4TMC2    C513919   3.018   4.337  14.001 -0.2415  0.7917  0.3137
    4TMC2    C613920   3.138   4.323  14.068  0.0229  0.0992 -0.2545
    4TMC2     C13921   3.082   4.671  13.838  0.2607 -1.0572  0.0573
    4TMC2     O13922   3.152   0.018  13.875  0.2240  0.3472  0.1590
    4TMC2     H13923   3.295   4.601  13.988 -0.4068  0.4046  0.4200
    4TMC2    H113924   2.914   4.452  13.856  0.0636 -1.6859  1.5314
    4TMC2    H213925   3.171   4.224  14.099  0.4152 -0.0629 -1.1721
    4TMC2    C713926   2.951   4.211  13.974  0.1293  0.4814  0.2307
    4TMC2    C813927   3.354   4.408  14.136 -0.2339  0.2919 -0.0794
    4TMC2    O113928   2.995   4.110  14.030  0.6189  0.1659  0.1714
    4TMC2    O213929   3.461   4.435  14.087  0.0881  0.3571 -0.0601
    4TMC2    O513930   3.335   4.302  14.217  0.1908 -0.5572 -0.6232
    4TMC2    H513931   3.240   4.290  14.236 -0.0088  0.5466 -0.9193
    5MPD2     C13932   2.812   0.244  13.530  0.4733  0.0597 -0.0280
    5MPD2    C113933   2.757   0.118  13.530 -0.8694  0.0798 -0.0460
    5MPD2    C213934   2.819   0.008  13.594 -0.2249 -0.2304 -0.1236
    5MPD2    C313935   2.923   0.035  13.676  0.2218 -0.0891  0.5229
    5MPD2    C413936   2.985   0.152  13.658  0.6901 -0.2000  0.6181
    5MPD2    C513937   2.929   0.262  13.599 -0.0105  0.7310  0.3485
    5MPD2     H13938   2.787   4.648  13.583 -1.0897 -0.2317  2.5301
    5MPD2    H113939   3.074   0.166  13.719  1.4280  0.9114 -0.7158
    5MPD2    H213940   2.773   0.324  13.469  0.2433 -0.3031 -0.3552
    5MPD2    H313941   2.985   0.355  13.600  0.9170  0.2190 -3.6439
    5MPD2     N13942   2.971   4.668  13.754 -0.7576  0.3420  0.6916
    5MPD2    H513943   2.923   4.579  13.749  0.8242 -0.3987 -1.4912
    5MPD2    N113944   2.627   0.099  13.470 -0.1696 -0.1061  0.1055
    5MPD2    H713945   2.602   0.153  13.388 -0.0294  0.0354  0.1560
    6MPD1     C13946   0.816   0.164  12.693 -0.2929 -0.0583  0.2911
    6MPD1    C113947   0.931   0.225  12.642  0.2683 -0.0510 -0.3504
    6MPD1    C213948   1.059   0.192  12.683  0.2160 -0.3770 -0.0807
    6MPD1    C313949   1.069   0.101  12.790 -0.8261 -0.1737 -0.2608
    6MPD1    C413950   0.956   0.042  12.837  0.0113  0.0442  0.0477
    6MPD1    C513951   0.836   0.072  12.789 -0.8625  0.2145  0.1530
    6MPD1     H13952   1.144   0.250  12.648  1.3204 -1.1109  1.3435
    6MPD1    H113953   0.949   4.719  12.923 -0.2194 -0.4688 -0.3629
    6MPD1    H213954   0.712   0.191  12.677  0.5311  2.2073 -1.3883
    6MPD1    H313955   0.747   0.021  12.822 -0.9074 -0.0311 -0.3417
    6MPD1     N13956   1.198   0.048  12.828  0.0898 -0.0726 -0.2738
    6MPD1    H513957   1.198   4.714  12.894  0.0931  0.4932  0.3824
    6MPD1    N113958   0.909   0.342  12.568 -0.2123  0.1731 -0.4618
    6MPD1    H613959   0.819   0.342  12.519 -0.4730 -0.3536  0.0263
    6MPD1    H713960   0.981   0.361  12.498  0.1184 -0.8497 -0.3861
    7MPD2     C13961   1.623   4.594  13.478 -0.1603 -0.2173 -0.3604
    7MPD2    C113962   1.671   4.674  13.372 -0.2069  0.0193 -0.3741
    7MPD2    C213963   1.798   4.735  13.383  0.5637  0.4824 -0.5569
    7MPD2    C313964   1.862   4.736  13.504 -0.0405  0.4546  0.0554
    7MPD2    C413965   1.815   4.654  13.608  0.2254 -0.1386 -0.2982
    7MPD2    C513966   1.694   4.580  13.593 -0.3498 -0.4415 -0.4896
    7MPD2     H13967   1.843   0.044  13.299  1.1382  0.7577 -0.0733
    7MPD2    H113968   1.871   4.647  13.700  0.8618  1.1331 -0.5792
    7MPD2    H213969   1.533   4.534  13.472  0.6527 -1.7141  2.4749
    7MPD2    H313970   1.680   4.500  13.664 -1.3107  0.6575  0.5698
    7MPD2     N13971   1.995   0.058  13.507  0.3619  0.1393  0.5418
    7MPD2    H513972   2.032   0.077  13.415 -2.6147  0.4440 -0.6119
    7MPD2    N113973   1.609   4.681  13.244  0.2224 -0.3849  0.2079
    7MPD2    H713974   1.668   4.718  13.171  0.9946 -1.5105  0.2734
    8TMC3    C113975   2.206   0.124  13.551 -0.0036 -0.0952  0.4208
    8TMC3    C213976   2.318   0.044  13.571 -0.1322 -0.1481  0.0294
    8TMC3    C313977   2.408   0.031  13.470 -0.6743  0.8994 -0.0097
    8TMC3    C413978   2.192   0.178  13.428  0.3082  0.1896 -0.4098
    8TMC3    C513979   2.277   0.143  13.324  0.2286  0.0500 -0.2530
    8TMC3    C613980   2.399   0.090  13.346 -0.0292  0.1541 -0.1464
    8TMC3     C13981   2.085   0.065  13.609 -0.0832 -0.2254 -0.5495
    8TMC3     O13982   2.080   0.025  13.726  0.5548  0.1193  0.6887
    8TMC3     H13983   2.335   4.739  13.667 -2.1545 -1.6788 -0.3634
    8TMC3    H113984   2.106   0.238  13.400  0.1568  0.9013  1.6279
    8TMC3    H213985   2.454   0.053  13.261 -0.8773 -0.9061 -0.2302
    8TMC3    C713986   2.199   0.072  13.224  0.0049 -0.3697 -0.3138
    8TMC3    C813987   2.543   0.004  13.516  0.3525 -0.5681  0.5578
    8TMC3    O113988   2.082   0.062  13.255  0.4198  0.1142  0.0464
    8TMC3    O213989   2.555   4.680  13.618  0.1253  0.1806 -0.5290
    9TMC3    C113990   1.423   0.038  12.878 -0.4918 -0.3620 -0.3549
    9TMC3    C213991   1.530   4.739  12.799 -0.2015  0.1445 -0.5010
    9TMC3    C313992   1.611   4.642  12.847 -0.3924 -0.0532  0.5256
    9TMC3    C413993   1.397   4.737  13.002  0.2337  0.2354 -0.3218
    9TMC3    C513994   1.491   4.650  13.052  0.8315 -0.2509 -0.1569
    9TMC3    C613995   1.593   4.600  12.972 -0.2407 -0.1625  0.0481
    9TMC3     C13996   1.322   0.104  12.795  0.2809  0.1167 -0.4479
    9TMC3     O13997   1.357   0.157  12.694 -0.4554  0.1558 -0.2686
    9TMC3     H13998   1.552   0.033  12.699  1.2999  2.2270  0.5958
    9TMC3    H113999   1.310   0.022  13.061 -0.1844  0.4426 -1.0358
    9TMC3    H214000   1.659   4.530  13.021  1.2993  0.5342 -1.0590
    9TMC3    C714001   1.493   4.623  13.198 -0.2918 -0.1233  0.1124
    9TMC3    C814002   1.741   4.625  12.788  0.3064  0.5970  0.2742
    9TMC3    O114003   1.396   4.575  13.254  1.0509 -0.3981  0.0726
    9TMC3    O214004   1.764   4.619  12.669 -0.3333  0.1591 -0.0527
   10MPD2     C14005   2.238   4.684  12.868  0.1961 -0.2650 -0.7591
   10MPD2    C114006   2.182   4.720  12.987  0.0004  0.8598 -1.0334
   10MPD2    C214007   2.046   4.695  12.981 -0.1094 -0.0520  0.5134
   10MPD2    C314008   1.970   4.666  12.867  0.2739  0.3776 -0.1473
   10MPD2    C414009   2.042   4.643  12.749 -0.9243 -0.1457 -0.1190
   10MPD2    C514010   2.177   4.653  12.749 -0.5562  0.4165  0.7911
   10MPD2     H14011   1.979   4.707  13.065 -1.6355  0.6033 -0.7912
   10MPD2    H114012   1.993   4.611  12.658  2.3560 -2.2849 -1.1400
   10MPD2    H214013   2.346   4.695  12.875  0.3474 -1.5545 -1.1466
   10MPD2    H314014   2.224   4.623  12.656 -3.6645 -2.4028  0.1181
   10MPD2     N14015   1.836   4.645  12.889  0.3980  0.0535  0.5105
   10MPD2    H514016   1.812   4.636  12.988  2.8010 -0.2607  1.0468
   10MPD2    N114017   2.259   0.025  13.105 -0.1578 -0.0262  0.5392
   10MPD2    H714018   2.358   0.042  13.087 -0.2445  0.6270  0.6605
   11MPD2     C14019   2.659   3.888  13.699  0.7247 -0.3419  0.2915
   11MPD2    C114020   2.775   3.865  13.766 -0.0549  0.0580 -0.9592
   11MPD2    C214021   2.843   3.975  13.822  0.1096  0.0568  0.7343
   11MPD2    C314022   2.797   4.104  13.806 -1.1481 -0.0091  0.2194
   11MPD2    C414023   2.683   4.124  13.725 -0.1879 -0.3292 -0.2801
   11MPD2    C514024   2.623   4.017  13.669 -0.0787 -0.8428 -0.1797
   11MPD2     H14025   2.932   3.956  13.881 -0.0455  0.7728  1.1940
   11MPD2    H114026   2.641   4.220  13.698 -0.8867 -0.0212  1.9398
   11MPD2    H214027   2.611   3.806  13.648  1.1456 -0.5715  0.2688
   11MPD2    H314028   2.537   4.036  13.606  0.2137  0.2194 -0.2690
   11MPD2     N14029   2.852   4.219  13.872 -1.0907 -0.8167  0.0517
   11MPD2    H514030   2.825   4.311  13.839  1.5582 -0.3651 -0.8758
   11MPD2    N114031   2.839   3.743  13.787  0.6126 -0.4461 -0.1082
   11MPD2    H714032   2.915   3.741  13.854  0.2285  0.6174  0.3694
    1MPD1     C14033   0.750   0.819  17.347  0.6393  0.1592  0.7909
    1MPD1    C114034   0.863   0.862  17.410  0.3102 -0.0146  0.5749
    1MPD1    C214035   0.961   0.930  17.334 -0.1204  0.8026  0.5130
    1MPD1    C314036   0.948   0.935  17.197 -0.6408 -0.3968 -0.2250
    1MPD1    C414037   0.837   0.886  17.137 -0.9194  0.9707  0.1100
    1MPD1    C514038   0.739   0.837  17.216  0.7324  0.0181 -0.6348
    1MPD1     H14039   1.048   0.972  17.384 -0.2545 -0.0825  1.4787
    1MPD1    H114040   0.818   0.893  17.030  1.0960 -2.5069 -0.4771
    1MPD1    H214041   0.660   0.792  17.401 -0.1463  0.6339 -0.2681
    1MPD1    H314042   0.647   0.812  17.164  1.4501  2.0668 -2.8592
    1MPD1     N14043   1.035   1.003  17.110  0.5134  0.0415 -0.1747
    1MPD1    H514044   1.008   1.015  17.013 -0.3366 -0.2471  0.0342
    1MPD1    N114045   0.850   0.871  17.552 -0.0317 -0.2393  0.5877
    1MPD1    H614046   0.940   0.875  17.599  1.3583  0.7836 -2.1706
    1MPD1    H714047   0.792   0.795  17.589 -2.1009  0.1205 -1.9173
    2MPD1     C14048   1.518   1.715  17.457  0.6295  0.4270 -0.3170
    2MPD1    C114049   1.461   1.594  17.495  0.3889 -0.4587  0.1337
    2MPD1    C214050   1.435   1.504  17.394 -0.6516 -0.7039 -1.0963
    2MPD1    C314051   1.464   1.525  17.263 -0.2069 -0.2505 -0.2021
    2MPD1    C414052   1.537   1.632  17.230  0.3716 -0.4748  0.0733
    2MPD1    C514053   1.560   1.730  17.326  0.5091 -0.1951  0.0262
    2MPD1     H14054   1.389   1.412  17.430 -0.6070  0.1370  1.0844
    2MPD1    H114055   1.559   1.668  17.130  1.0137 -0.4715  0.2127
    2MPD1    H214056   1.532   1.791  17.533  0.4151  0.6974 -0.5496
    2MPD1    H314057   1.617   1.813  17.285 -1.0311  0.5080 -0.6681
    2MPD1     N14058   1.415   1.422  17.177 -0.1416  0.0722 -0.5098
    2MPD1    H514059   1.357   1.348  17.216  1.0016 -0.9141 -0.6851
    2MPD1    N114060   1.426   1.582  17.633  0.2637  0.1974  0.4551
    2MPD1    H614061   1.458   1.490  17.661  1.7730  1.1384  1.8240
    2MPD1    H714062   1.486   1.645  17.685  0.3023  1.1267 -0.6966
    3TMC3    C114063   1.367   1.315  16.976  1.0121  0.9424 -0.2843
    3TMC3    C214064   1.303   1.345  16.858 -0.7581 -0.0257 -0.1558
    3TMC3    C314065   1.180   1.289  16.846  0.5553 -0.2963  0.5960
    3TMC3    C414066   1.318   1.218  17.062 -0.2819 -0.8030  0.5937
    3TMC3    C514067   1.206   1.147  17.035  0.9609 -0.6927  0.3159
    3TMC3    C614068   1.128   1.194  16.932 -0.0026  0.0865  0.3061
    3TMC3     C14069   1.432   1.428  17.045 -0.3253 -1.2096  0.4493
    3TMC3     O14070   1.485   1.519  16.978 -0.4749  0.1716  0.6476
    3TMC3     H14071   1.336   1.430  16.800  0.1253  1.5826  2.7151
    3TMC3    H114072   1.373   1.187  17.150 -1.7487 -1.4492  1.2782
    3TMC3    H214073   1.032   1.144  16.920 -0.6623  1.0355  1.5814
    3TMC3    C714074   1.146   1.075  17.145  0.5702 -0.3020  0.6019
    3TMC3    C814075   1.112   1.316  16.726  0.5056 -1.4403  1.1501
    3TMC3    O114076   1.196   1.094  17.255 -0.2100 -0.1499 -0.3463
    3TMC3    O214077   0.996   1.292  16.716 -0.1362 -0.4943 -0.4447
    4MPD1     C14078   1.138   1.393  16.212  0.4738 -0.0651  0.0022
    4MPD1    C114079   1.265   1.384  16.263 -0.5779 -0.0143  0.4267
    4MPD1    C214080   1.271   1.349  16.399 -0.9189 -0.2170 -0.1456
    4MPD1    C314081   1.165   1.356  16.486  0.6437  0.3948 -0.3821
    4MPD1    C414082   1.037   1.369  16.432  0.2871 -0.5955  0.9761
    4MPD1    C514083   1.026   1.388  16.294  0.0851 -0.1968  0.3237
    4MPD1     H14084   1.366   1.323  16.445 -0.3645 -1.3254 -1.9544
    4MPD1    H114085   0.947   1.385  16.491 -1.5743 -1.6530 -1.5719
    4MPD1    H214086   1.124   1.406  16.105  0.0635 -1.2337 -0.0892
    4MPD1    H314087   0.931   1.402  16.244 -1.6146 -2.4423  2.9620
    4MPD1     N14088   1.198   1.328  16.619 -0.4698 -0.4330 -0.0279
    4MPD1    H514089   1.295   1.315  16.646 -1.1163  0.5178  2.7352
    4MPD1    N114090   1.378   1.367  16.184  0.2159  0.7320  0.3598
    4MPD1    H614091   1.468   1.401  16.215  0.1107  1.3746 -0.0530
    4MPD1    H714092   1.363   1.427  16.103  0.4954  0.2501 -0.0514
    1TCq1    O114093   2.010   0.284  12.640  0.0314  0.4574  0.2036
    1TCq1    C114094   2.136   0.253  12.663 -0.2114 -0.2058  0.5850
    1TCq1    O214095   2.212   0.307  12.743  0.2767 -0.0526 -0.2020
    1TCq1    C214096   2.188   0.184  12.537  0.4572 -0.0061  0.2867
    1TCq1    C314097   2.321   0.195  12.515  0.1117 -0.0270  0.1200
    1TCq1    C414098   2.372   0.125  12.406  0.2287  0.2207  0.0334
    1TCq1    C514099   2.295   0.044  12.332 -0.1242  0.0335  0.5242
    1TCq1    C614100   2.166   0.023  12.366 -1.0063  0.7286  0.7184
    1TCq1    C714101   2.107   0.087  12.479  0.0351  0.7740 -0.0223
    1TCq1    C814102   2.075   4.707  12.265 -0.7235  0.2036  0.2889
    1TCq1    O414103   2.120   4.626  12.181 -0.7737 -0.2643  0.0641
    1TCq1    C914104   2.493   0.178  12.337 -0.0969  0.4422 -0.2224
    1TCq1    O514105   2.576   0.240  12.409  0.1216  0.3197  0.6846
    1TCq1    O614106   2.490   0.176  12.212 -0.6152 -0.6673  0.1043
    1TCq1    H114107   1.984   0.233  12.560  2.5979 -0.7918  0.1719
    1TCq1    H214108   2.376   0.278  12.559 -0.9057  0.1512  1.0348
    1TCq1    H314109   2.336   0.002  12.241  3.2946 -0.2087  2.1750
    1TCq1    H414110   2.002   0.096  12.504 -0.3733 -1.0038 -1.0996
    2MPD1     C14111   1.596   4.660  12.079 -0.0740  0.1356 -0.2093
    2MPD1    C114112   1.609   0.034  12.150 -0.2525  0.3408 -0.5974
    2MPD1    C214113   1.728   0.055  12.215  0.1451  0.1528 -0.1174
    2MPD1    C314114   1.843   4.724  12.187 -0.2229  0.3365  0.0226
    2MPD1    C414115   1.831   4.628  12.084 -0.4590 -0.5692  0.2790
    2MPD1    C514116   1.705   4.590  12.041  0.4191  0.3349  0.1229
    2MPD1     H14117   1.736   0.126  12.296  2.0501 -0.3776  0.1471
    2MPD1    H114118   1.919   4.572  12.058 -0.2642 -0.4518  0.6780
    2MPD1    H214119   1.499   4.631  12.040  0.1614  1.8769 -2.0728
    2MPD1    H314120   1.688   4.501  11.982 -1.7923 -0.1008  1.4384
    2MPD1     N14121   1.950   0.003  12.281  0.5525 -0.1099 -0.4761
    2MPD1    H514122   1.930   0.081  12.343  1.3682  0.1242 -0.5158
    2MPD1    N114123   1.493   0.099  12.195  0.9827  0.1166  0.0943
    2MPD1    H614124   1.430   0.097  12.115  1.2386 -1.5926 -0.0815
    2MPD1    H714125   1.517   0.196  12.209 -1.1688  0.6681 -0.0491
    1TMC1    C114126   2.841   3.503   0.865  0.0822  0.3557  0.3288
    1TMC1    C214127   2.800   3.592   0.963 -0.7332 -0.5116 -0.2356
    1TMC1    C314128   2.858   3.584   1.087 -0.3588 -0.2054 -0.1374
    1TMC1    C414129   2.946   3.417   0.895 -0.6272  0.2048  0.4535
    1TMC1    C514130   3.005   3.416   1.020 -0.0076 -0.3942 -0.1379
    1TMC1    C614131   2.952   3.494   1.122  0.5773 -0.4055  0.5142
    1TMC1     C14132   2.769   3.512   0.738  0.6103  0.4286  0.9639
    1TMC1     O14133   2.662   3.573   0.739 -0.0910 -0.1191  0.2313
    1TMC1     H14134   2.713   3.655   0.952 -0.3064  0.2151  0.6151
    1TMC1    H114135   2.964   3.338   0.823  1.3565 -0.4212  1.6328
    1TMC1    H214136   3.002   3.512   1.217  2.1733 -3.0928  0.1859
    1TMC1    C714137   3.120   3.343   1.038 -0.1032  0.5765 -1.2236
    1TMC1    C814138   2.839   3.704   1.169  0.3233  0.0153 -0.4944
    1TMC1    O114139   3.162   3.322   1.150  0.3409 -0.2225 -0.4453
    1TMC1    O214140   2.753   3.787   1.133  0.0453 -0.4666  0.1968
    1TMC1    O314141   3.179   3.306   0.920 -0.5310  0.1494  0.4996
    1TMC1    H314142   3.129   3.337   0.842  0.8774 -0.0846 -0.4831
    1TMC1    O514143   2.870   3.685   1.299 -0.0422  0.2518 -0.4002
    1TMC1    H514144   2.943   3.622   1.317 -1.3573 -1.1410  0.1589
    2MPD1     C14145   2.817   3.517   0.221 -0.3124 -1.0052 -0.4923
    2MPD1    C114146   2.924   3.448   0.273  0.5656  0.2151 -0.1172
    2MPD1    C214147   2.929   3.442   0.407 -0.0691  0.4117  0.3574
    2MPD1    C314148   2.824   3.487   0.491 -0.6179 -0.1236 -0.1844
    2MPD1    C414149   2.719   3.552   0.436 -0.4109  0.0436 -0.4049
    2MPD1    C514150   2.712   3.554   0.302 -0.4830 -0.5618 -0.3729
    2MPD1     H14151   3.013   3.387   0.447 -0.5443  1.2055  2.4824
    2MPD1    H114152   2.639   3.598   0.493 -0.2865 -2.3357  1.6927
    2MPD1    H214153   2.799   3.527   0.115 -2.8634  1.6419  0.1852
    2MPD1    H314154   2.638   3.612   0.249 -0.5900  0.3324  0.7674
    2MPD1     N14155   2.848   3.475   0.629  0.0143 -1.3827  0.1979
    2MPD1    H514156   2.944   3.448   0.648  0.7952 -0.8625 -3.0378
    2MPD1    N114157   3.038   3.405   0.193 -0.2132  0.2470 -0.3302
    2MPD1    H614158   3.011   3.371   0.100 -0.5715 -1.1977  0.2924
    2MPD1    H714159   3.096   3.336   0.241  0.3653  1.5914  0.8918
    1MPD1     C14160   3.162   4.313  12.105  0.1656 -0.4117  0.3967
    1MPD1    C114161   3.170   4.398  12.212 -0.8113  0.5652  0.3904
    1MPD1    C214162   3.247   4.518  12.204  0.0995  0.3882 -0.6510
    1MPD1    C314163   3.309   4.552  12.079  0.0180 -0.8728 -0.1484
    1MPD1    C414164   3.305   4.462  11.983 -0.3126 -0.3261  0.3629
    1MPD1    C514165   3.218   4.355  11.989 -0.0275 -0.0202 -0.2446
    1MPD1     H14166   3.239   4.590  12.285 -0.8037 -2.1601  1.5110
    1MPD1    H114167   3.333   4.489  11.881 -1.7108  0.4791  0.1887
    1MPD1    H214168   3.095   4.228  12.110 -0.5863  0.0194 -2.2499
    1MPD1    H314169   3.192   4.296  11.902 -1.3668  0.8133 -0.4089
    1MPD1     N14170   3.377   4.672  12.066 -0.7267 -0.3622  0.1493
    1MPD1    H514171   3.378   4.737  12.144 -1.3085  1.5733 -1.4484
    1MPD1    N114172   3.140   4.352  12.339  0.3220  0.3326 -0.3325
    1MPD1    H614173   3.119   4.432  12.399 -1.4951 -0.8053  0.5230
    1MPD1    H714174   3.058   4.292  12.334 -0.1183  1.0990 -2.3476
    2MPD1     C14175   2.044   0.962  11.854  0.0003 -0.9131  0.1188
    2MPD1    C114176   2.183   0.943  11.874  0.4271 -0.7401  0.5524
    2MPD1    C214177   2.257   0.917  11.765  0.1110  0.5693 -0.2838
    2MPD1    C314178   2.190   0.881  11.647 -0.5517  0.6313 -0.8906
    2MPD1    C414179   2.055   0.899  11.633 -0.1090  0.0835 -0.3538
    2MPD1    C514180   1.981   0.952  11.734  0.1163  0.7870  0.1649
    2MPD1     H14181   2.364   0.934  11.766  0.0845  0.7947 -1.5244
    2MPD1    H114182   2.006   0.882  11.538 -0.3214 -2.5868  0.2345
    2MPD1    H214183   1.981   0.984  11.940  0.8521  0.2342  0.4455
    2MPD1    H314184   1.876   0.978  11.730 -0.1851 -0.6091 -1.0473
    2MPD1     N14185   2.258   0.834  11.532  0.3874 -0.5705  0.0904
    2MPD1    H514186   2.196   0.809  11.456  0.2740  1.5396 -0.4951
    2MPD1    N114187   2.242   0.999  11.986 -0.0300  0.7546 -0.1052
    2MPD1    H614188   2.174   1.004  12.061 -1.5799  2.0728 -1.6096
    2MPD1    H714189   2.335   0.970  12.016 -0.2250 -0.2091 -0.4126
    3MPD1     C14190   2.050   0.055  11.246 -0.0976 -0.2314 -0.2504
    3MPD1    C114191   2.115   0.083  11.363 -0.3838 -0.2104  0.2339
    3MPD1    C214192   2.195   0.192  11.372  0.3039  0.4883  0.0783
    3MPD1    C314193   2.222   0.268  11.261  0.7129  0.3660  0.0426
    3MPD1    C414194   2.162   0.233  11.141  0.4004  0.4114 -0.5993
    3MPD1    C514195   2.068   0.136  11.140  0.4181 -0.2603  0.6911
    3MPD1     H14196   2.248   0.215  11.464 -0.6178 -1.5268  1.1139
    3MPD1    H114197   2.192   0.284  11.050  2.0165  0.5830  0.0388
    3MPD1    H214198   1.983   4.713  11.235  0.4001 -0.4469 -1.6160
    3MPD1    H314199   2.024   0.113  11.044 -0.3273  3.3288  0.1736
    3MPD1     N14200   2.297   0.383  11.279  0.4327  0.5113 -0.1682
    3MPD1    H514201   2.315   0.409  11.375 -0.0748  2.1757 -0.5227
    3MPD1    N114202   2.077   0.016  11.486 -0.2744  0.0531  0.3484
    3MPD1    H614203   2.037   4.665  11.481 -0.5121  0.1738  0.0138
    3MPD1    H714204   2.156   0.025  11.549  0.8637  1.2711 -1.2461
    4MPD2     C14205   3.278   0.711  12.049 -0.3963  0.8924 -0.0655
    4MPD2    C114206   3.378   0.648  11.973  0.4841 -0.8437 -0.3346
    4MPD2    C214207   3.410   0.694  11.854  0.1346 -0.1797 -0.1405
    4MPD2    C314208   3.346   0.803  11.797  1.2875 -0.5132  1.1542
    4MPD2    C414209   3.260   0.874  11.877 -0.2772  1.1624  0.1134
    4MPD2    C514210   3.235   0.834  12.006 -0.2826  1.0840  0.0384
    4MPD2     H14211   3.482   0.637  11.796  0.4723  1.5222 -1.4131
    4MPD2    H114212   3.225   0.970  11.840 -1.0953  1.1180  0.7628
    4MPD2    H214213   3.246   0.664  12.142 -2.1539 -1.3985 -1.8141
    4MPD2    H314214   3.166   0.889  12.069  0.3767 -1.0576  2.6462
    4MPD2     N14215   3.391   0.855  11.673  0.4088 -0.0950  0.1710
    4MPD2    H514216   3.353   0.941  11.635 -0.6799 -1.1067 -1.0146
    4MPD2    N114217   3.429   0.519  11.999 -0.4921 -0.3496 -0.0762
    4MPD2    H714218   3.507   0.487  11.942 -0.6742 -0.3444 -0.3313
    5TMC3    C114219   3.477   0.311  12.092 -0.0163 -0.1307 -0.2710
    5TMC3    C214220   3.412   0.195  12.071  0.4575  0.0456  0.5154
    5TMC3    C314221   3.471   0.113  11.976  0.5308  0.1481 -0.0450
    5TMC3    C414222   3.592   0.348  12.035  0.6305  0.0079  0.4224
    5TMC3    C514223   3.643   0.270  11.927 -0.3706  0.4606 -0.5611
    5TMC3    C614224   3.581   0.149  11.901 -0.4775  0.0219 -0.3562
    5TMC3     C14225   3.379   0.425  12.085  0.2478 -0.2804  0.0733
    5TMC3     O14226   3.266   0.424  12.131  0.3121  0.1488 -0.5247
    5TMC3     H14227   3.321   0.165  12.122  0.6462 -0.3181  0.6418
    5TMC3    H114228   3.647   0.439  12.056  1.2485  0.1738 -1.8227
    5TMC3    H214229   3.604   0.104  11.805 -2.9192 -1.5919 -0.1755
    5TMC3    C714230   3.692   0.349  11.825  0.4065  0.5230  0.1100
    5TMC3    C814231   3.438   4.717  11.954 -0.4993  0.5992  0.3634
    5TMC3    O114232   3.678   0.471  11.834 -0.2078  0.5340 -0.2078
    5TMC3    O214233   3.475   4.660  11.851 -0.6392 -0.2280  0.0275
    6TMC3    C114234   2.425   0.760  11.383  0.1651 -0.2068  0.2192
    6TMC3    C214235   2.358   0.649  11.339 -0.0197  0.8481 -0.1565
    6TMC3    C314236   2.412   0.590  11.231  0.6482  0.4645 -0.2005
    6TMC3    C414237   2.536   0.815  11.326 -0.3731  0.3433 -0.9233
    6TMC3    C514238   2.589   0.748  11.221 -0.3883  0.9992 -0.3020
    6TMC3    C614239   2.534   0.638  11.166 -0.6398  0.0503  0.4150
    6TMC3     C14240   2.395   0.824  11.512  0.5822 -0.5079  0.6734
    6TMC3     O14241   2.489   0.870  11.581  0.7930 -0.2314  0.0651
    6TMC3     H14242   2.275   0.609  11.396 -0.2725  1.0316 -0.3936
    6TMC3    H114243   2.586   0.898  11.373  0.8415  0.0242 -1.6183
    6TMC3    H214244   2.572   0.583  11.080 -0.3189  4.4147 -2.2410
    6TMC3    C714245   2.735   0.764  11.214 -0.2517 -0.2845 -0.6184
    6TMC3    C814246   2.352   0.466  11.183  0.9574  0.3040  0.3419
    6TMC3    O114247   2.798   0.663  11.229  0.4986  0.0579 -0.4798
    6TMC3    O214248   2.354   0.450  11.061 -0.6917  0.2669 -0.6633
    7MPD2     C14249   3.933   0.461  11.394  0.0795 -0.2480  0.0634
    7MPD2    C114250   3.805   0.501  11.437 -0.6165  0.3591 -0.4470
    7MPD2    C214251   3.757   0.445  11.552 -0.0600  0.2886 -0.2410
    7MPD2    C314252   3.829   0.347  11.620  0.2267  0.3858 -0.5696
    7MPD2    C414253   3.948   0.299  11.570  0.1087  0.0353 -0.0638
    7MPD2    C514254   3.999   0.358  11.454 -0.2671  0.0208  0.2099
    7MPD2     H14255   3.662   0.482  11.590 -0.1913 -1.1102  0.8093
    7MPD2    H114256   4.003   0.230  11.633  1.1965  1.2444  0.3278
    7MPD2    H214257   3.982   0.510  11.311 -0.4742  0.5596  0.2124
    7MPD2    H314258   4.099   0.329  11.426  1.0926  2.9896  1.9679
    7MPD2     N14259   3.772   0.283  11.735  0.2013  0.1899  0.0696
    7MPD2    H514260   3.809   0.193  11.764 -1.0456  0.1286  1.5074
    7MPD2    N114261   3.744   0.621  11.401 -0.7273 -0.2152  0.2492
    7MPD2    H714262   3.661   0.640  11.456 -1.1536  3.2406 -1.5961
    8TMC3    C114263   3.688   0.805  11.314  0.7857 -0.3229  0.5076
    8TMC3    C214264   3.596   0.813  11.210 -0.1199 -0.6252 -0.4594
    8TMC3    C314265   3.471   0.856  11.246  0.4401 -0.5634 -0.6368
    8TMC3    C414266   3.650   0.832  11.443 -0.0306 -0.4346 -0.0188
    8TMC3    C514267   3.525   0.871  11.474  0.5262 -0.0836 -0.0006
    8TMC3    C614268   3.430   0.888  11.374 -0.3345 -0.4140  0.1850
    8TMC3     C14269   3.783   0.706  11.305 -0.1642 -0.2743  0.5105
    8TMC3     O14270   3.866   0.697  11.212 -0.3703 -0.1407 -0.3030
    8TMC3     H14271   3.620   0.778  11.110 -0.7929 -2.0174 -0.1333
    8TMC3    H114272   3.724   0.834  11.523 -0.2907 -1.3599  0.2535
    8TMC3    H214273   3.339   0.938  11.405 -0.4750 -0.6393  0.1303
    8TMC3    C714274   3.478   0.796  11.588 -0.0760 -0.5799  0.3828
    8TMC3    C814275   3.381   0.896  11.143 -0.4198 -0.0028 -0.2664
    8TMC3    O114276   3.553   0.698  11.606  0.0101 -0.2601  0.0564
    8TMC3    O214277   3.426   0.963  11.046  0.0792  0.0441  0.6461
    9MPD2     C14278   3.141   1.032  11.049 -0.5661 -0.2168  0.5613
    9MPD2    C114279   3.136   0.927  11.140 -0.7592  0.1514 -0.0444
    9MPD2    C214280   3.014   0.863  11.166 -0.6020 -0.1637  0.2956
    9MPD2    C314281   2.899   0.925  11.117  0.0857 -0.2189  0.0813
    9MPD2    C414282   2.903   1.036  11.044 -0.4999 -1.0252 -0.2389
    9MPD2    C514283   3.026   1.090  11.016  0.0070 -1.0395  0.0536
    9MPD2     H14284   3.002   0.767  11.214  0.2816  0.3504  1.5461
    9MPD2    H114285   2.818   1.103  11.037  0.6540  0.3654 -0.8556
    9MPD2    H214286   3.235   1.081  11.024 -1.3275  0.0930 -1.7100
    9MPD2    H314287   3.030   1.192  10.980 -0.9028 -1.2496 -0.6213
    9MPD2     N14288   2.772   0.881  11.147  0.5247 -0.1935 -0.2002
    9MPD2    H514289   2.697   0.946  11.125  1.4091 -0.2135 -3.1864
    9MPD2    N114290   3.254   0.860  11.185 -0.0352  0.3231 -0.3805
    9MPD2    H714291   3.249   0.777  11.242 -2.9765  2.7370  2.8815
    1MPD1     C14292   2.615   3.447  16.897  0.2900  0.1882  0.2199
    1MPD1    C114293   2.753   3.456  16.901  0.4448 -0.3432  0.9437
    1MPD1    C214294   2.810   3.569  16.842 -0.5957 -0.1976  0.5804
    1MPD1    C314295   2.733   3.677  16.806  0.6353  0.2261 -0.4956
    1MPD1    C414296   2.595   3.662  16.816 -0.4924  0.2016 -0.0344
    1MPD1    C514297   2.533   3.555  16.865  0.1577 -0.1428 -0.5055
    1MPD1     H14298   2.918   3.568  16.831 -0.3469 -2.8079  3.3774
    1MPD1    H114299   2.524   3.726  16.766  0.1139 -0.3828 -1.6347
    1MPD1    H214300   2.569   3.353  16.926  1.0785  0.5844  2.7709
    1MPD1    H314301   2.427   3.531  16.876  0.7519 -2.3843  0.3622
    1MPD1     N14302   2.789   3.798  16.753 -1.1496  0.1548 -0.3519
    1MPD1    H514303   2.724   3.863  16.709 -0.1414  0.9093 -0.7252
    1MPD1    N114304   2.826   3.339  16.927 -0.3095  1.1589 -0.7717
    1MPD1    H614305   2.923   3.354  16.955 -0.7290  2.6711 -0.1071
    1MPD1    H714306   2.782   3.291  17.005 -0.7287 -0.7909 -2.2258
    2TMC2    C114307   3.092   4.090  16.539 -0.0646  0.2901 -0.5099
    2TMC2    C214308   2.988   4.174  16.513 -0.4656  0.1930  0.0509
    2TMC2    C314309   2.871   4.153  16.577  0.1278  0.6299  0.0277
    2TMC2    C414310   3.066   3.977  16.611  0.1353  0.3246 -0.6095
    2TMC2    C514311   2.949   3.960  16.674  0.6679  0.3035 -0.1674
    2TMC2    C614312   2.845   4.052  16.660 -0.4339  0.6066  0.1678
    2TMC2     C14313   3.220   4.099  16.468 -0.1919 -0.7397 -0.3279
    2TMC2     O14314   3.316   4.044  16.521  0.4653  0.7390 -0.3336
    2TMC2     H14315   2.996   4.269  16.463 -0.8087  0.2573  0.1203
    2TMC2    H114316   3.153   3.915  16.629 -0.3140 -1.1405 -3.5948
    2TMC2    H214317   2.751   4.038  16.712 -0.0890 -0.9199  0.3823
    2TMC2    C714318   2.923   3.833  16.739 -0.4368 -0.2947 -0.6309
    2TMC2    C814319   2.755   4.225  16.521  0.1083  0.4847 -0.0369
    2TMC2    O114320   3.019   3.772  16.782  0.0003 -0.6107 -0.0401
    2TMC2    O214321   2.742   4.255  16.401 -0.1787  0.5974 -0.3248
    2TMC2    O514322   2.693   4.275  16.625 -0.0366 -0.5906  0.2158
    2TMC2    H514323   2.747   4.260  16.706 -0.6183  0.9615  0.8945
    3MPD1     C14324   3.543   4.322  16.120 -0.2640 -0.6986 -0.1430
    3MPD1    C114325   3.410   4.349  16.085  0.0988 -0.3354 -0.2031
    3MPD1    C214326   3.303   4.295  16.166 -0.5360 -0.3591  0.2205
    3MPD1    C314327   3.330   4.227  16.284  1.0127  0.3642  0.0593
    3MPD1    C414328   3.459   4.204  16.315  0.7095 -0.2926 -0.1411
    3MPD1    C514329   3.561   4.249  16.233  0.1310 -0.1041 -0.0314
    3MPD1     H14330   3.199   4.311  16.139 -0.2738 -0.0274 -0.6288
    3MPD1    H114331   3.489   4.152  16.405 -2.1394  0.0775  1.0209
    3MPD1    H214332   3.619   4.375  16.064  1.4979 -0.6338  2.3102
    3MPD1    H314333   3.664   4.226  16.257  0.2087 -2.2825 -2.4009
    3MPD1     N14334   3.218   4.181  16.363  0.7764 -0.0455  0.2062
    3MPD1    H514335   3.125   4.197  16.326  0.6907  0.5985  0.6894
    3MPD1    N114336   3.382   4.398  15.967  0.2644 -0.2652  0.7262
    3MPD1    H614337   3.285   4.428  15.966 -0.1651 -1.6805  0.1246
    3MPD1    H714338   3.450   4.463  15.929 -1.2124  1.3650  0.8692
    1TMC1    C114339   1.597   3.510  13.057 -0.9469  0.7643  0.8113
    1TMC1    C214340   1.607   3.373  13.081 -0.1665  0.6931 -0.2295
    1TMC1    C314341   1.502   3.300  13.026 -0.2075 -1.0154  0.0310
    1TMC1    C414342   1.488   3.575  12.998 -0.5646  0.6910  0.1545
    1TMC1    C514343   1.402   3.490  12.931 -0.0478 -0.3173  0.4095
    1TMC1    C614344   1.400   3.357  12.954  0.3242 -0.0439  0.4353
    1TMC1     C14345   1.715   3.587  13.094 -0.3087  0.0914  0.4778
    1TMC1     O14346   1.702   3.703  13.067  0.2336 -0.2378  0.0361
    1TMC1     H14347   1.688   3.309  13.114 -1.9331 -1.1977  0.4950
    1TMC1    H114348   1.493   3.682  12.981 -2.5823  0.9327  1.1160
    1TMC1    H214349   1.336   3.290  12.897  0.7814 -1.3272  1.4250
    1TMC1    C714350   1.276   3.550  12.907 -0.1738  0.2379  0.0876
    1TMC1    C814351   1.519   3.155  13.021  0.3142 -0.3375 -0.1462
    1TMC1    O114352   1.228   3.609  13.003 -0.3053 -0.8878 -0.0772
    1TMC1    O214353   1.621   3.098  13.005  0.0150  0.9414 -0.2231
    1TMC1    O314354   1.204   3.460  12.840  0.0645  0.2000 -0.1208
    1TMC1    H314355   1.247   3.421  12.761 -0.8612  1.6729 -1.3618
    1TMC1    O514356   1.408   3.086  13.033 -0.4177 -0.0152 -0.2789
    1TMC1    H514357   1.332   3.141  13.060  0.6322  1.0199  0.5431
    2MPD2     C14358   1.981   3.675  13.185  0.0184 -0.5443 -0.5755
    2MPD2    C114359   1.910   3.578  13.247  0.9087 -0.3771  0.2153
    2MPD2    C214360   1.959   3.532  13.367  0.5647  0.1079 -0.1251
    2MPD2    C314361   2.069   3.597  13.425 -0.1413 -0.5350  1.1992
    2MPD2    C414362   2.140   3.696  13.365  0.2250  0.1776 -0.2304
    2MPD2    C514363   2.092   3.733  13.241  0.0601 -0.1499  0.5602
    2MPD2     H14364   1.919   3.448  13.422  1.2989  0.0852  0.3768
    2MPD2    H114365   2.226   3.750  13.403 -0.2957  0.4146  0.6261
    2MPD2    H214366   1.949   3.707  13.087 -0.5449  1.5657  0.2952
    2MPD2    H314367   2.144   3.811  13.187 -0.6087 -1.1977 -1.5563
    2MPD2     N14368   2.113   3.547  13.552  0.1011  0.9903  0.4812
    2MPD2    H514369   2.058   3.468  13.584 -0.5734  0.4037 -2.1285
    2MPD2    N114370   1.792   3.519  13.184 -1.0991 -0.3446  0.1203
    2MPD2    H714371   1.762   3.425  13.205  1.0067 -1.1138 -0.2731
    3TCq1    O114372   2.466   3.587  14.143 -0.6503 -0.2668 -0.6788
    3TCq1    C114373   2.495   3.561  14.013 -0.3892 -0.5952  0.2602
    3TCq1    O214374   2.609   3.559  13.967  0.3923 -0.2032  0.3327
    3TCq1    C214375   2.364   3.524  13.948  0.4433  0.3293 -0.3923
    3TCq1    C314376   2.252   3.486  14.020 -0.9526 -0.0785  0.1826
    3TCq1    C414377   2.125   3.470  13.957 -0.1466  0.0488 -0.6527
    3TCq1    C514378   2.121   3.512  13.829 -0.0864 -0.1725 -0.2334
    3TCq1    C614379   2.236   3.544  13.756 -0.4932 -0.0199  0.4295
    3TCq1    C714380   2.361   3.543  13.818  0.5220 -0.8559  0.0731
    3TCq1    C814381   2.231   3.582  13.610 -0.0472 -0.7206 -0.4522
    3TCq1    O414382   2.327   3.645  13.576 -0.0483 -0.4920  0.1832
    3TCq1    C914383   2.007   3.401  14.022 -0.4502  0.2633 -0.0394
    3TCq1    O514384   2.010   3.391  14.145 -0.5942  0.1289 -0.4314
    3TCq1    O614385   1.913   3.357  13.945  0.2716  0.3211  0.2068
    3TCq1    H114386   2.369   3.603  14.146 -0.6684 -0.6448  0.4837
    3TCq1    H214387   2.253   3.450  14.122  0.1155  1.6868  0.7969
    3TCq1    H314388   2.022   3.522  13.787  0.5442  1.0728 -1.4233
    3TCq1    H414389   2.448   3.559  13.756 -0.3019 -0.8457 -1.0687
    1MPD2     C14390   1.014   4.707  15.018 -0.6776 -0.1865  0.0273
    1MPD2    C114391   0.884   4.663  14.967  0.0813  0.6370  0.4013
    1MPD2    C214392   0.863   4.531  14.953 -0.3000  0.3666  0.0603
    1MPD2    C314393   0.949   4.436  14.994 -0.1642 -0.0964  0.3547
    1MPD2    C414394   1.061   4.478  15.062 -0.0005  0.3704 -0.4541
    1MPD2    C514395   1.092   4.608  15.072 -0.3566 -0.6871  0.0923
    1MPD2     H14396   0.766   4.502  14.913  0.7852 -1.3912 -1.3273
    1MPD2    H114397   1.133   4.409  15.105 -1.2694 -0.8160 -0.2306
    1MPD2    H214398   1.041   0.069  15.019  0.3640 -0.4753  1.5684
    1MPD2    H314399   1.176   4.649  15.127  0.3835 -0.5876 -1.1198
    1MPD2     N14400   0.925   4.300  14.967  0.3557 -0.5573  0.4213
    1MPD2    H514401   0.993   4.234  15.005  1.1226  0.7078  1.2523
    1MPD2    N114402   0.789   0.019  14.925  0.5837  0.1807 -0.0463
    1MPD2    H714403   0.830   0.112  14.926  2.2361 -0.5847  3.1012
    2TMC3    C114404   0.606   0.106  14.795 -0.7493  0.5656  0.0856
    2TMC3    C214405   0.482   0.074  14.757  0.5232  0.0180 -0.8858
    2TMC3    C314406   0.441   0.112  14.630  0.3333 -0.8100 -0.2879
    2TMC3    C414407   0.693   0.181  14.716  0.1313  0.0651 -0.3358
    2TMC3    C514408   0.644   0.221  14.586  0.1623  0.2089  0.2483
    2TMC3    C614409   0.517   0.177  14.546  0.1411  0.1850  0.9345
    2TMC3     C14410   0.660   4.742  14.873 -0.1307 -0.5286 -0.6655
    2TMC3     O14411   0.609   4.635  14.849 -0.1609 -0.0392  0.3440
    2TMC3     H14412   0.418   0.014  14.820 -0.6572  1.6989 -0.4769
    2TMC3    H114413   0.788   0.209  14.761 -0.4962 -1.9377  2.3031
    2TMC3    H214414   0.500   0.171  14.439 -1.6439 -2.1450  1.3427
    2TMC3    C714415   0.709   0.330  14.509 -0.3740 -0.5520 -0.1810
    2TMC3    C814416   0.368   0.006  14.573  0.0398 -0.3351  0.3057
    2TMC3    O114417   0.667   0.354  14.397  0.1981 -0.1229  0.0204
    2TMC3    O214418   0.296   0.027  14.474 -0.3486  0.2654  0.0098
    3TCq1    O114419   1.418   1.169  14.931  0.1320  0.8817 -0.6103
    3TCq1    C114420   1.461   1.070  15.002  0.3945 -0.0601 -0.0293
    3TCq1    O214421   1.534   1.082  15.103 -0.8372  0.8776  0.0458
    3TCq1    C214422   1.427   0.940  14.945  0.6269 -0.3198 -0.5885
    3TCq1    C314423   1.423   0.834  15.045 -0.0967 -0.2671  0.2468
    3TCq1    C414424   1.380   0.715  15.000  0.1323 -0.3267 -0.4577
    3TCq1    C514425   1.336   0.699  14.871  0.6772  0.4641  0.2465
    3TCq1    C614426   1.338   0.797  14.776 -0.2883  0.1439 -0.7846
    3TCq1    C714427   1.389   0.922  14.813 -0.3679 -0.7089  0.1077
    3TCq1    C814428   1.232   0.804  14.676 -0.4366  0.6049  0.6105
    3TCq1    O414429   1.200   0.917  14.640  0.6657 -0.3195 -0.0709
    3TCq1    C914430   1.351   0.620  15.108 -0.1751 -0.1279 -0.0313
    3TCq1    O514431   1.359   0.654  15.226 -0.2518 -0.2952 -0.3382
    3TCq1    O614432   1.326   0.500  15.078  0.4571 -0.4622 -0.0060
    3TCq1    H114433   1.334   1.150  14.883 -0.1200  0.3035  0.0629
    3TCq1    H214434   1.456   0.847  15.147 -0.1555  0.2007  0.2056
    3TCq1    H314435   1.319   0.594  14.849  0.5605  0.3231  1.0283
    3TCq1    H414436   1.386   1.002  14.739 -0.4925 -1.6480 -0.9028
    4MPD2     C14437   0.994   0.750  14.504  0.4696 -0.6530 -0.5346
    4MPD2    C114438   1.030   0.670  14.611  0.7303 -0.0023 -0.2100
    4MPD2    C214439   0.967   0.551  14.627 -0.0479 -0.3831 -0.8240
    4MPD2    C314440   0.874   0.510  14.536 -0.5957 -0.6751 -0.0172
    4MPD2    C414441   0.823   0.589  14.432 -0.7893  0.6281  0.1808
    4MPD2    C514442   0.888   0.711  14.424  0.4338  0.2311  0.0135
    4MPD2     H14443   0.985   0.489  14.714 -0.3688  0.8967  0.1674
    4MPD2    H114444   0.745   0.564  14.361 -1.1681  0.3884  0.6867
    4MPD2    H214445   1.025   0.852  14.484 -1.9543  0.2022  0.0084
    4MPD2    H314446   0.869   0.776  14.340 -1.2004 -0.9410 -0.5134
    4MPD2     N14447   0.812   0.390  14.573  0.1149  0.0818 -0.2269
    4MPD2    H514448   0.851   0.342  14.653 -2.0538 -0.1643  0.6765
    4MPD2    N114449   1.145   0.697  14.690  0.4373  0.0350  0.0280
    4MPD2    H714450   1.174   0.634  14.765  1.1838  0.0142 -0.2846
    5TMC2    C114451   0.695   4.005  14.693 -0.6230  0.2213  1.2739
    5TMC2    C214452   0.615   3.945  14.786 -0.2503  0.2075 -0.7502
    5TMC2    C314453   0.653   3.965  14.917  0.2467  0.3957  0.6303
    5TMC2    C414454   0.807   4.077  14.728 -0.3434  0.2632 -0.4566
    5TMC2    C514455   0.841   4.102  14.858  0.2604 -1.0524  0.8529
    5TMC2    C614456   0.758   4.049  14.951 -0.3777 -0.1658 -0.4318
    5TMC2     C14457   0.615   4.065  14.593 -1.1589  0.1251 -0.3724
    5TMC2     O14458   0.559   3.989  14.516  0.2579  0.0030 -0.4966
    5TMC2     H14459   0.519   3.902  14.762  0.6340 -3.5605  2.4084
    5TMC2    H114460   0.856   4.134  14.650  0.6212  1.4847  1.0478
    5TMC2    H214461   0.787   4.076  15.052  2.5679 -2.5442 -0.6465
    5TMC2    C714462   0.841   4.250  14.873 -0.4481 -0.0812  0.0233
    5TMC2    C814463   0.580   3.900  15.026  0.0364 -0.0435  0.0598
    5TMC2    O114464   0.768   4.315  14.800  0.5689  0.4931 -0.6216
    5TMC2    O214465   0.469   3.851  15.008  0.2015 -0.4915  0.3889
    5TMC2    O514466   0.669   3.860  15.124  0.1233 -0.3646  0.4317
    5TMC2    H514467   0.761   3.892  15.113 -0.0970  0.0044 -0.3441
    6MPD2     C14468   0.323   4.468  14.474  0.0175 -0.1130  0.9673
    6MPD2    C114469   0.412   4.505  14.568 -0.7918  0.0975  0.2242
    6MPD2    C214470   0.494   4.415  14.621  0.1538 -0.4030 -0.7927
    6MPD2    C314471   0.492   4.285  14.575  0.6778 -0.2688  1.0333
    6MPD2    C414472   0.403   4.245  14.474  0.5892  0.9857 -0.6514
    6MPD2    C514473   0.325   4.341  14.420  0.3411  0.4539 -0.1911
    6MPD2     H14474   0.560   4.442  14.703 -2.4448  1.8363  0.5535
    6MPD2    H114475   0.401   4.141  14.446 -0.2366  0.4318  1.4460
    6MPD2    H214476   0.252   4.536  14.427  0.7172 -0.3620 -0.4577
    6MPD2    H314477   0.265   4.311  14.334  0.2758  1.9879 -0.6913
    6MPD2     N14478   0.582   4.198  14.629  0.3095  0.2971  0.1432
    6MPD2    H514479   0.649   4.247  14.687 -0.0592  0.8753  0.0810
    6MPD2    N114480   0.429   4.632  14.611 -0.2346 -0.5876 -0.1746
    6MPD2    H714481   0.509   4.638  14.673  0.1615  2.2781 -0.9915
  945NH4     N114482   4.210   1.465   9.703 -0.0857 -0.1692 -0.3436
  945NH4     H214483   4.238   1.433   9.798 -1.3980 -2.1263 -0.6346
  945NH4     H314484   4.111   1.496   9.700 -0.3877 -0.9901  1.1568
  945NH4     H414485   4.216   1.391   9.630 -0.6571  1.7402 -2.3139
  945NH4     H514486   4.267   1.551   9.686 -0.7656  0.5756  1.1685
  946SOD     NA14487   4.457   1.618   9.282 -0.3044 -0.5378 -0.3627
  947SOD     NA14488   0.349   0.677  15.530 -0.1607 -0.7254  0.4098
  948SOD     NA14489   2.726   1.791  13.169  0.0031 -0.3685 -0.1433
  949SOD     NA14490   1.598   1.608  16.799 -0.5077 -0.5030 -0.2780
  950SOD     NA14491   1.229   2.796   8.622  0.5503 -0.0310 -0.1120
  951SOD     NA14492   1.290   0.411  15.271 -0.0716 -0.2188 -0.1023
  952SOD     NA14493   2.911   0.311  12.227  0.3406  0.5918 -0.0179
  953SOL     OW14494   1.278   1.322   3.357 -0.4141 -0.7298  0.2495
  953SOL    HW114495   1.185   1.327   3.378 -0.1399  3.0899  0.5495
  953SOL    HW214496   1.275   1.235   3.316 -1.7092 -0.9648  0.8475
  954SOL     OW14497   3.478   2.762  16.689 -0.1303  0.2946  0.1642
  954SOL    HW114498   3.513   2.741  16.603  0.6693  2.2033  0.0307
  954SOL    HW214499   3.467   2.673  16.723 -2.0433 -0.2656 -1.9739
  955SOL     OW14500   0.181   2.005  16.637  0.1492  0.3562 -0.2968
  955SOL    HW114501   0.204   2.014  16.545  1.1807 -2.0913 -0.2829
  955SOL    HW214502   0.150   1.914  16.634  1.4141 -0.1002  0.4845
  956SOL     OW14503   2.971   1.745   5.613 -0.7194 -0.7230 -0.1804
  956SOL    HW114504   2.991   1.746   5.706 -0.8752 -0.7256 -0.1470
  956SOL    HW214505   2.883   1.710   5.625  0.0995 -2.4058  0.8452
  957SOL     OW14506   4.462   0.101   8.122 -0.1940 -0.4192  0.1638
  957SOL    HW114507   4.534   0.122   8.063  1.4136 -0.4071  2.1286
  957SOL    HW214508   4.436   0.188   8.154  0.0799  0.0846 -0.9803
  958SOL     OW14509   4.455   1.530   5.667  0.2768 -0.7790  0.3535
  958SOL    HW114510   4.513   1.606   5.657 -0.4771  0.1174  2.6886
  958SOL    HW214511   4.396   1.553   5.740 -0.4277 -0.0684 -0.4424
  959SOL     OW14512   3.103   2.644   4.566  0.4457  0.3418 -0.2401
  959SOL    HW114513   3.148   2.652   4.650 -1.2471 -2.4792  0.9101
  959SOL    HW214514   3.181   2.631   4.512  0.7434 -0.2731  0.3447
  960SOL     OW14515   0.734   0.823   4.698  0.3291 -0.8162  0.2319
  960SOL    HW114516   0.785   0.890   4.743  0.4528 -0.8530  0.1468
  960SOL    HW214517   0.657   0.809   4.753  0.0423  2.7105  0.7135
  961SOL     OW14518   3.643   4.394   7.038  0.0208 -0.3570 -0.0876
  961SOL    HW114519   3.692   4.341   6.976 -0.0473 -0.2175 -0.2605
  961SOL    HW214520   3.666   4.355   7.122 -0.0303 -3.1438 -1.3864
  962SOL     OW14521   1.716   2.525   9.923  0.2675  0.0693 -0.3206
  962SOL    HW114522   1.645   2.511   9.860 -0.4932  0.3523  0.4822
  962SOL    HW214523   1.778   2.459   9.891  0.1189 -0.3920  0.3464
  963SOL     OW14524   0.717   0.303   2.341  0.6194 -0.0347 -0.0317
  963SOL    HW114525   0.685   0.384   2.379 -2.1290 -1.6703  1.1290
  963SOL    HW214526   0.810   0.307   2.364  0.3273  0.7048  0.9932
  964SOL     OW14527   0.763   2.170   3.109  0.2943 -0.1254 -0.2229
  964SOL    HW114528   0.684   2.119   3.125 -1.3160  2.2907 -0.3845
  964SOL    HW214529   0.760   2.227   3.186 -1.8089 -0.4403 -0.0897
  965SOL     OW14530   1.274   1.296  10.188 -0.0601 -0.0363 -0.5708
  965SOL    HW114531   1.356   1.286  10.139  1.0086  0.3252  1.1446
  965SOL    HW214532   1.302   1.350  10.262 -2.5872 -1.2635  1.2790
  966SOL     OW14533   1.457   3.241   8.799 -0.0978 -0.1352 -0.0857
  966SOL    HW114534   1.498   3.288   8.872 -2.1094  1.9158 -0.2655
  966SOL    HW214535   1.423   3.165   8.846  0.1351 -1.3584 -1.8920
  967SOL     OW14536   3.978   1.052   2.313  0.2410  0.2699  0.5976
  967SOL    HW114537   3.982   0.963   2.277 -2.2182 -0.0547  1.1243
  967SOL    HW214538   4.042   1.053   2.384  2.0047 -1.6922 -0.9552
  968SOL     OW14539   2.778   0.445  12.624 -0.5005 -0.1998  0.2505
  968SOL    HW114540   2.761   0.353  12.648  0.2901 -0.8074 -1.5412
  968SOL    HW214541   2.758   0.442  12.531  0.5341  0.5814  0.0000
  969SOL     OW14542   2.110   3.662   9.296  0.5034 -0.0779 -0.8247
  969SOL    HW114543   2.175   3.696   9.358  1.5814 -1.8026 -0.9930
  969SOL    HW214544   2.161   3.615   9.230 -1.9455 -2.3273 -1.1375
  970SOL     OW14545   2.574   0.129   9.469 -0.0473  0.0571 -0.7472
  970SOL    HW114546   2.575   0.058   9.405 -1.1124 -1.3800  0.8017
  970SOL    HW214547   2.499   0.097   9.520 -1.3427 -0.2852 -2.8525
  971SOL     OW14548   0.070   3.884  16.393  0.0366  0.4261  0.3265
  971SOL    HW114549   0.038   3.974  16.394 -2.5089 -0.4681 -0.4730
  971SOL    HW214550   0.137   3.890  16.325  0.0608  4.2983  0.7234
  972SOL     OW14551   1.779   0.338   3.133 -0.3238  0.3660  0.3543
  972SOL    HW114552   1.749   0.422   3.169 -2.0347 -0.6732  1.3913
  972SOL    HW214553   1.861   0.323   3.179 -0.8357 -0.3745  1.0402
  973SOL     OW14554   4.000   2.114   9.623 -0.4225  0.1116  0.0665
  973SOL    HW114555   3.928   2.082   9.570  0.6857 -3.0285  0.4617
  973SOL    HW214556   4.074   2.073   9.580  0.8842  1.7306  0.7601
  974SOL     OW14557   1.627   3.231  14.985 -0.3264 -0.2922  0.4439
  974SOL    HW114558   1.570   3.180  15.041 -2.1225  1.9511  0.6715
  974SOL    HW214559   1.584   3.316  14.975  0.4576 -0.0762 -1.1736
  975SOL     OW14560   0.312   1.433   0.944  0.2705  0.1763 -0.5247
  975SOL    HW114561   0.402   1.457   0.966 -0.1299 -0.8437  2.2555
  975SOL    HW214562   0.281   1.510   0.895  0.8456 -0.1581 -1.4169
  976SOL     OW14563   0.712   1.247   6.341  0.3077 -0.1596 -0.2797
  976SOL    HW114564   0.630   1.295   6.330 -0.8886 -1.8500  1.2789
  976SOL    HW214565   0.763   1.311   6.391  0.3277  0.1855 -0.7408
  977SOL     OW14566   1.082   2.643  15.920 -0.6875  0.3081 -0.2402
  977SOL    HW114567   1.083   2.555  15.884 -1.7694  0.3030 -0.2446
  977SOL    HW214568   1.139   2.629  15.996 -2.7987  1.8592  1.6279
  978SOL     OW14569   2.234   0.938  14.659  0.1019  0.3490 -0.2049
  978SOL    HW114570   2.158   0.963  14.606 -0.3290  2.6151  1.4912
  978SOL    HW214571   2.193   0.875  14.718  0.2306  0.3493 -0.1167
  979SOL     OW14572   1.886   4.270  11.675 -0.2680  0.1222 -0.7024
  979SOL    HW114573   1.953   4.207  11.647  1.8841  2.4885 -0.8315
  979SOL    HW214574   1.890   4.339  11.609 -0.1684 -0.1753 -1.0069
  980SOL     OW14575   2.327   4.229   3.454  0.2840 -0.4476 -0.3314
  980SOL    HW114576   2.396   4.181   3.500  0.3046 -0.6436 -0.5632
  980SOL    HW214577   2.384   4.275   3.392 -2.4959  4.0862  0.5015
  981SOL     OW14578   2.801   2.306   1.089 -0.1554 -0.3288 -0.1383
  981SOL    HW114579   2.761   2.351   1.016 -0.1481 -0.0557  0.0258
  981SOL    HW214580   2.895   2.320   1.073 -0.5565  0.3949 -1.7862
  982SOL     OW14581   2.379   4.229   6.065 -0.0667 -0.3083  0.1975
  982SOL    HW114582   2.469   4.239   6.033 -0.2365 -2.1152 -0.8437
  982SOL    HW214583   2.340   4.174   5.998 -0.0642  0.3429 -0.3433
  983SOL     OW14584   4.405   2.107  10.080 -0.4140  0.7992  0.5409
  983SOL    HW114585   4.412   2.163  10.002 -1.0794 -0.5392 -0.4702
  983SOL    HW214586   4.493   2.095  10.115  0.7353 -0.4993 -2.7852
  984SOL     OW14587   4.093   3.625  16.038 -0.1235  0.3517  0.0394
  984SOL    HW114588   4.057   3.547  15.996 -1.8741  1.8240 -1.1905
  984SOL    HW214589   4.099   3.683  15.962  1.3152  0.3543  0.1483
  985SOL     OW14590   1.192   0.105   6.701 -0.2067 -0.0321 -0.0271
  985SOL    HW114591   1.208   0.188   6.747 -0.2227 -0.4608  0.7624
  985SOL    HW214592   1.135   0.062   6.765 -2.1960  4.2062  1.0681
  986SOL     OW14593   4.373   4.085  10.999 -0.2348  0.2431 -0.1298
  986SOL    HW114594   4.303   4.126  11.049  0.1001  1.0468 -0.3316
  986SOL    HW214595   4.376   4.000  11.045 -2.4524  0.5842  0.6261
  987SOL     OW14596   0.408   1.276   9.216 -0.1088  1.1045  0.1657
  987SOL    HW114597   0.503   1.287   9.210 -0.0273  1.0726  1.3626
  987SOL    HW214598   0.400   1.227   9.298 -1.3341 -0.5632 -0.9580
  988SOL     OW14599   4.617   3.539  16.537  0.3707 -0.1429 -0.0892
  988SOL    HW114600   4.667   3.525  16.618  0.6550 -0.3385 -0.2944
  988SOL    HW214601   4.530   3.528  16.575  0.8044 -1.3084  0.5578
  989SOL     OW14602   2.313   1.285   2.432 -0.0814  0.5835  0.7352
  989SOL    HW114603   2.331   1.233   2.510  2.4287  1.6159  0.8210
  989SOL    HW214604   2.252   1.226   2.388  0.9948  0.2748 -0.3289
  990SOL     OW14605   1.238   0.797   4.399  0.2273  0.2758 -0.2547
  990SOL    HW114606   1.200   0.869   4.348 -1.2971  0.9726  1.8858
  990SOL    HW214607   1.170   0.785   4.465  1.2132 -0.6118  0.5955
  991SOL     OW14608   3.582   2.654   0.931 -0.3371 -0.4107  0.1242
  991SOL    HW114609   3.587   2.667   0.836  1.5386  0.1072  0.2961
  991SOL    HW214610   3.520   2.582   0.933 -0.4642 -0.3054 -0.0007
  992SOL     OW14611   0.503   4.258   8.404  0.4621 -0.4852 -0.3780
  992SOL    HW114612   0.434   4.319   8.428  2.1721  2.2871 -2.4815
  992SOL    HW214613   0.454   4.199   8.346 -2.7097  2.3631 -0.5828
  993SOL     OW14614   2.779   0.893   4.913 -0.0328 -0.2219 -0.2321
  993SOL    HW114615   2.708   0.954   4.896  0.0603  0.2004  0.8917
  993SOL    HW214616   2.858   0.941   4.889 -2.3211  1.8330 -3.5383
  994SOL     OW14617   0.840   0.498   7.406  0.2039  0.3188 -0.0647
  994SOL    HW114618   0.916   0.445   7.431  1.3528  1.6985 -0.6304
  994SOL    HW214619   0.774   0.429   7.403 -1.9313  2.3058  0.7550
  995SOL     OW14620   4.699   1.815  12.141 -0.0537 -0.3056 -0.3037
  995SOL    HW114621   4.649   1.839  12.219 -0.3648  1.2744 -0.9811
  995SOL    HW214622   4.624   1.799  12.084 -0.5464 -0.0802  0.2772
  996SOL     OW14623   4.471   4.387   9.981 -0.0916 -0.1568 -0.0431
  996SOL    HW114624   4.423   4.428  10.053  0.6835  0.0801  0.3401
  996SOL    HW214625   4.520   4.459   9.942 -1.0045  0.5358  0.0937
  997SOL     OW14626   2.291   3.568   5.800  0.2726  0.0651  0.2585
  997SOL    HW114627   2.225   3.521   5.851  2.0274 -1.7070  0.8985
  997SOL    HW214628   2.239   3.638   5.761  2.6010  1.5445 -0.2494
  998SOL     OW14629   2.701   2.604   7.807  0.0144  0.7560 -0.6596
  998SOL    HW114630   2.782   2.589   7.759  0.8059  0.7861  0.6563
  998SOL    HW214631   2.741   2.612   7.894  0.7382  0.0753 -0.9336
  999SOL     OW14632   0.720   2.469   9.879  0.1962 -0.2633 -0.3690
  999SOL    HW114633   0.677   2.551   9.853  0.2332  0.3288  1.4255
  999SOL    HW214634   0.769   2.446   9.800  0.1744 -0.3860 -0.3470
 1000SOL     OW14635   2.936   0.850   5.693  0.4753  0.4008 -0.9355
 1000SOL    HW114636   2.861   0.896   5.654  0.5004  0.1781 -1.2487
 1000SOL    HW214637   2.888   0.786   5.745  1.5403  0.7352  0.4438
 1001SOL     OW14638   2.308   3.485  17.128 -0.0650  0.4733 -0.1547
 1001SOL    HW114639   2.290   3.442  17.045 -0.0464  0.8500 -0.3564
 1001SOL    HW214640   2.296   3.576  17.101 -2.0036  0.1966 -0.2364
 1002SOL     OW14641   0.945   3.185  12.206  0.3418  0.2966  0.0386
 1002SOL    HW114642   0.910   3.227  12.128  0.5822 -0.4379 -0.4671
 1002SOL    HW214643   1.025   3.143  12.175  1.2981  1.2271  1.2336
 1003SOL     OW14644   2.306   3.830  15.987  0.5143  0.0943 -0.3338
 1003SOL    HW114645   2.245   3.881  15.934 -1.2437 -1.0651  0.5816
 1003SOL    HW214646   2.282   3.879  16.067  0.8652 -0.7325  0.2751
 1004SOL     OW14647   4.393   1.882   5.713 -0.0152 -0.3925 -0.0451
 1004SOL    HW114648   4.310   1.906   5.671  0.6496  0.6841 -0.7467
 1004SOL    HW214649   4.371   1.928   5.794  0.8611 -2.1804  1.2070
 1005SOL     OW14650   3.116   3.282   4.562  0.0415 -0.8445 -0.4689
 1005SOL    HW114651   3.024   3.257   4.564 -0.1794  0.0926  1.0482
 1005SOL    HW214652   3.155   3.200   4.532 -0.4677 -1.5672  0.8488
 1006SOL     OW14653   2.160   4.708   2.480 -0.0027  0.4540 -0.1102
 1006SOL    HW114654   2.207   4.681   2.559 -0.4437  0.8993  0.2980
 1006SOL    HW214655   2.154   4.635   2.419 -0.3549  0.4624 -0.0843
 1007SOL     OW14656   4.057   1.656   5.594 -0.4027  0.1551 -0.0662
 1007SOL    HW114657   4.049   1.591   5.663 -0.0321  1.1817  0.9373
 1007SOL    HW214658   3.988   1.634   5.532  1.5775 -0.8729 -1.9495
 1008SOL     OW14659   3.752   2.468   4.428 -0.4456 -0.3313  0.1832
 1008SOL    HW114660   3.765   2.557   4.397  1.3164 -1.5147 -2.4933
 1008SOL    HW214661   3.759   2.484   4.522  2.3377 -1.9432  0.2460
 1009SOL     OW14662   2.212   0.057   4.905 -0.1356 -0.3170  0.3130
 1009SOL    HW114663   2.126   0.098   4.901  0.6162  1.3137  1.1587
 1009SOL    HW214664   2.259   0.073   4.823 -2.7394  1.0184 -0.9011
 1010SOL     OW14665   4.317   0.959   6.597  0.2718 -0.2834 -0.4901
 1010SOL    HW114666   4.405   0.976   6.564 -0.4401  2.4876 -0.9592
 1010SOL    HW214667   4.323   0.865   6.611  0.9267 -0.1703  0.0105
 1011SOL     OW14668   3.887   3.805   2.283  1.0364  0.0293  0.0105
 1011SOL    HW114669   3.937   3.828   2.361  0.9572  0.5178 -0.0811
 1011SOL    HW214670   3.903   3.710   2.277 -0.1390 -0.1209 -0.6639
 1012SOL     OW14671   2.330   4.277   1.153 -0.1924  0.2087  0.3313
 1012SOL    HW114672   2.406   4.228   1.121  0.2137 -0.0590  1.6998
 1012SOL    HW214673   2.344   4.240   1.240 -1.4707 -0.9413  0.0411
 1013SOL     OW14674   1.337   1.602   3.920  0.5097  0.3798 -0.2839
 1013SOL    HW114675   1.290   1.673   3.875 -1.6589 -2.5176 -2.6486
 1013SOL    HW214676   1.360   1.653   3.997  0.3480 -1.1351  0.7633
 1014SOL     OW14677   0.024   1.496   9.649 -0.0114  0.1609 -0.2149
 1014SOL    HW114678   0.037   1.591   9.649 -1.1069  0.3187 -2.1163
 1014SOL    HW214679   4.705   1.485   9.721  1.2297 -2.2959  0.4654
 1015SOL     OW14680   2.761   0.301   0.235 -0.1757  0.0723  0.5966
 1015SOL    HW114681   2.795   0.333   0.319  1.2629 -1.5841  0.6388
 1015SOL    HW214682   2.755   0.383   0.187  0.9075  1.3394  2.6166
 1016SOL     OW14683   0.198   2.767   3.548 -0.1965  0.1863  0.1618
 1016SOL    HW114684   0.128   2.798   3.606  1.4232  3.0455  0.5855
 1016SOL    HW214685   0.226   2.851   3.513 -2.7380  0.3396 -1.5389
 1017SOL     OW14686   0.944   3.209  14.884 -0.3055 -0.4056  0.2444
 1017SOL    HW114687   0.955   3.286  14.828 -0.9910  0.5152  1.3742
 1017SOL    HW214688   1.010   3.231  14.949 -0.4587 -1.0696  0.6231
 1018SOL     OW14689   0.243   0.827   9.514  0.2144 -0.1369 -0.4739
 1018SOL    HW114690   0.329   0.850   9.480  0.5887  1.3776  1.4993
 1018SOL    HW214691   0.189   0.849   9.438 -0.9534  0.0520  0.4099
 1019SOL     OW14692   2.901   2.775   2.552  0.2515 -0.7418 -0.0188
 1019SOL    HW114693   2.947   2.858   2.539 -1.0559 -0.0740 -0.4042
 1019SOL    HW214694   2.813   2.805   2.532 -0.6257 -2.3493  1.4509
 1020SOL     OW14695   0.106   1.690   9.075 -0.5061 -0.0655  0.5596
 1020SOL    HW114696   0.177   1.652   9.127  0.7466  2.4012  0.6369
 1020SOL    HW214697   0.156   1.712   8.997 -2.6422 -0.2888 -0.8824
 1021SOL     OW14698   3.538   3.970  10.427  0.3546 -0.4076  0.4524
 1021SOL    HW114699   3.508   4.061  10.426  0.4772 -0.3703  0.1940
 1021SOL    HW214700   3.455   3.923  10.413  2.0075 -2.9760 -0.7693
 1022SOL     OW14701   4.717   3.047   1.796 -0.2966  0.0430  0.2435
 1022SOL    HW114702   0.033   3.079   1.865  1.1099 -0.7764 -0.5712
 1022SOL    HW214703   0.007   3.093   1.719  1.0842 -2.9472 -0.9852
 1023SOL     OW14704   0.434   1.178   6.773  0.1667 -0.5978  0.9471
 1023SOL    HW114705   0.455   1.092   6.737 -0.3202 -1.1342  1.9487
 1023SOL    HW214706   0.349   1.153   6.810 -0.3677  0.9766  0.7844
 1024SOL     OW14707   4.702   4.419   8.017  0.2376  0.2775 -0.3866
 1024SOL    HW114708   4.648   4.480   8.067 -1.2745 -0.5176 -1.0484
 1024SOL    HW214709   0.029   4.412   8.082  1.2413 -0.9590 -1.5937
 1025SOL     OW14710   0.218   4.587  14.822 -0.3214  0.0547 -0.1373
 1025SOL    HW114711   0.180   4.557  14.905  0.5104 -3.4771 -1.0390
 1025SOL    HW214712   0.240   4.503  14.781 -2.8019  0.5263 -2.4546
 1026SOL     OW14713   1.825   0.986   3.727  0.0551  0.6414 -0.2711
 1026SOL    HW114714   1.852   1.066   3.771 -0.2673  0.0383  1.0092
 1026SOL    HW214715   1.878   0.997   3.647  0.6803 -0.8420 -0.0685
 1027SOL     OW14716   4.183   4.054   2.695 -0.2904 -0.0743 -0.0753
 1027SOL    HW114717   4.267   4.021   2.728 -0.3894  1.1470  1.4020
 1027SOL    HW214718   4.168   4.000   2.618 -0.0067  1.4638 -1.2105
 1028SOL     OW14719   1.099   0.783   7.655  0.1611  0.0083  0.2397
 1028SOL    HW114720   1.040   0.808   7.584  0.0575 -0.7057  0.0746
 1028SOL    HW214721   1.039   0.767   7.728 -1.6217 -1.0426 -1.4344
 1029SOL     OW14722   0.290   3.885   4.735  0.5964  0.4271  0.0049
 1029SOL    HW114723   0.357   3.911   4.797  0.2100 -0.3417  0.7527
 1029SOL    HW214724   0.217   3.873   4.796  1.2736  2.7966  1.2556
 1030SOL     OW14725   4.188   0.449   1.807  0.5140 -0.4437  0.1535
 1030SOL    HW114726   4.169   0.368   1.855  0.9557 -0.2158  0.7063
 1030SOL    HW214727   4.139   0.428   1.728 -1.5522 -3.2743  2.2013
 1031SOL     OW14728   2.883   4.283  10.330  0.3236  0.0261 -0.0283
 1031SOL    HW114729   2.833   4.325  10.400  1.0490  0.7077  0.0798
 1031SOL    HW214730   2.905   4.205  10.380 -1.5093  0.6102  1.6652
 1032SOL     OW14731   1.391   1.115   5.763  0.3870  0.2772 -0.0729
 1032SOL    HW114732   1.387   1.053   5.836 -0.6897  0.3129 -0.0960
 1032SOL    HW214733   1.429   1.187   5.814  1.4128 -0.3983  0.1126
 1033SOL     OW14734   2.282   1.720   7.744  0.3248 -0.2217  0.0198
 1033SOL    HW114735   2.274   1.816   7.740  3.0481 -0.0710 -1.2452
 1033SOL    HW214736   2.236   1.705   7.827  1.8601 -2.1315  0.5174
 1034SOL     OW14737   2.382   4.538   7.117 -0.2602 -0.0386 -0.1676
 1034SOL    HW114738   2.476   4.534   7.101  0.0085  0.7897  1.2053
 1034SOL    HW214739   2.350   4.585   7.040 -2.4415 -1.0871  0.0872
 1035SOL     OW14740   0.105   2.638   8.982 -0.7368 -0.1834 -0.0339
 1035SOL    HW114741   0.080   2.728   8.962  3.4753  1.3214  1.5406
 1035SOL    HW214742   0.187   2.643   8.933  0.1539  1.1029  1.5549
 1036SOL     OW14743   4.545   2.040   8.645  0.7547 -0.5931 -0.0580
 1036SOL    HW114744   4.564   2.120   8.694  1.0221 -1.7391  1.6832
 1036SOL    HW214745   4.574   1.981   8.714  2.0980  0.2755  0.1208
 1037SOL     OW14746   0.065   0.171   6.941 -0.4831 -0.0380 -0.5113
 1037SOL    HW114747   0.031   0.232   6.875  0.2885  0.7066 -0.2276
 1037SOL    HW214748   4.736   0.176   7.004 -1.1367 -2.5280 -1.0684
 1038SOL     OW14749   4.400   0.181   3.838  0.0669  0.0225  0.1696
 1038SOL    HW114750   4.350   0.181   3.757  0.5992 -2.7155 -0.1590
 1038SOL    HW214751   4.330   0.227   3.885 -0.8650  0.7851 -2.0064
 1039SOL     OW14752   3.305   1.711   9.318  0.1637  0.2999 -0.2705
 1039SOL    HW114753   3.397   1.695   9.296 -0.1548 -2.0753  0.0499
 1039SOL    HW214754   3.262   1.701   9.233 -0.9299  1.7592  0.1286
 1040SOL     OW14755   2.863   2.834   3.415  0.0494  0.2278  0.4916
 1040SOL    HW114756   2.894   2.805   3.329  1.5284 -0.1299  1.1363
 1040SOL    HW214757   2.876   2.755   3.468  3.7069  1.5773  1.5971
 1041SOL     OW14758   2.656   1.598   6.160 -0.3183  0.2083  0.1631
 1041SOL    HW114759   2.663   1.655   6.083 -1.0896  0.6321  0.4080
 1041SOL    HW214760   2.646   1.520   6.106  1.5197  0.1002 -0.0410
 1042SOL     OW14761   2.827   0.548   6.922 -0.0537  0.1719 -0.4879
 1042SOL    HW114762   2.901   0.493   6.895  0.2460  2.0792 -3.6000
 1042SOL    HW214763   2.839   0.612   6.852 -0.7285  1.4489  0.5614
 1043SOL     OW14764   0.781   1.389   9.763 -0.2894 -0.7390  0.3302
 1043SOL    HW114765   0.695   1.430   9.778  0.8145  2.0609 -1.0331
 1043SOL    HW214766   0.848   1.449   9.793 -1.1550  1.3077 -1.8357
 1044SOL     OW14767   0.255   3.893   3.275 -0.1027 -0.0296 -0.1381
 1044SOL    HW114768   0.221   3.818   3.225 -2.5983 -0.1542  1.8051
 1044SOL    HW214769   0.188   3.960   3.267 -0.5810 -0.4098  0.6900
 1045SOL     OW14770   4.324   2.284  17.145  0.1216  0.0350  0.4463
 1045SOL    HW114771   4.406   2.271  17.098 -0.3343 -0.6822 -0.1444
 1045SOL    HW214772   4.348   2.368  17.185 -0.6679 -0.0300  1.0549
 1046SOL     OW14773   3.098   1.467   7.228 -0.2574  0.3553  0.1438
 1046SOL    HW114774   3.162   1.519   7.181  0.3092  0.5792  1.1635
 1046SOL    HW214775   3.124   1.480   7.319  1.7136  1.5308 -0.6000
 1047SOL     OW14776   4.160   2.091   4.872 -0.1865  0.6781 -0.1229
 1047SOL    HW114777   4.091   2.085   4.938  1.1440 -0.4925  1.1544
 1047SOL    HW214778   4.128   2.164   4.818  0.0311 -0.0648 -1.2524
 1048SOL     OW14779   1.285   3.664  12.109 -0.2676 -0.0683 -0.0340
 1048SOL    HW114780   1.242   3.649  12.025  3.9328 -0.9552 -2.0436
 1048SOL    HW214781   1.294   3.572  12.132  1.6785  0.1919  0.2882
 1049SOL     OW14782   4.532   4.159   8.593  0.5144 -0.1172 -0.3688
 1049SOL    HW114783   4.548   4.104   8.516  1.2118 -0.8251  0.2848
 1049SOL    HW214784   4.591   4.124   8.660 -1.8950 -1.0765  1.2223
 1050SOL     OW14785   0.133   3.807  17.268  0.3538 -0.4272 -0.3372
 1050SOL    HW114786   0.115   3.866  17.341 -1.7685 -1.3450 -0.1214
 1050SOL    HW214787   0.099   3.724  17.301  0.6846  0.5598  2.4686
 1051SOL     OW14788   1.519   4.042  17.279  0.1551 -0.0367 -0.5620
 1051SOL    HW114789   1.546   4.048  17.187 -0.0545 -2.9125 -0.8016
 1051SOL    HW214790   1.524   4.133  17.308 -0.0456  0.0161 -0.6920
 1052SOL     OW14791   0.040   0.105  14.375  0.0622  0.3600 -0.2160
 1052SOL    HW114792   0.133   0.086  14.382  0.0488  0.6878  0.8155
 1052SOL    HW214793   0.011   0.013  14.377 -1.3756  0.8250  1.1901
 1053SOL     OW14794   4.520   0.460  13.134 -0.0332 -0.1489  0.1510
 1053SOL    HW114795   4.506   0.446  13.228 -0.0752  1.0770  0.3262
 1053SOL    HW214796   4.616   0.463  13.130  0.0645  0.6171  2.8201
 1054SOL     OW14797   2.107   1.479   8.898  0.8637 -0.2355  0.1630
 1054SOL    HW114798   2.202   1.490   8.891  0.8471 -0.8377 -0.9636
 1054SOL    HW214799   2.082   1.415   8.831  1.6372 -0.4955  0.1189
 1055SOL     OW14800   3.066   0.983   3.763  0.6406 -0.3718 -0.5337
 1055SOL    HW114801   3.064   0.890   3.785 -1.3080 -0.4627 -1.0694
 1055SOL    HW214802   3.153   1.007   3.796 -0.4065 -0.0001  1.9784
 1056SOL     OW14803   0.753   1.228   8.834  0.3727 -0.4224 -0.5045
 1056SOL    HW114804   0.658   1.233   8.818  0.4991  3.0808 -0.1482
 1056SOL    HW214805   0.785   1.151   8.787  1.1637 -1.0783  1.1000
 1057SOL     OW14806   1.838   4.347   4.192  0.1239  0.7002  0.4801
 1057SOL    HW114807   1.746   4.330   4.174 -0.3946  2.6149  1.3729
 1057SOL    HW214808   1.870   4.398   4.118 -1.3164 -0.1027 -0.6928
 1058SOL     OW14809   0.345   0.660   7.176  0.0630 -0.6599  0.3616
 1058SOL    HW114810   0.417   0.610   7.214  0.4769 -0.8889 -0.7238
 1058SOL    HW214811   0.364   0.744   7.216 -0.4087 -0.2895 -0.2000
 1059SOL     OW14812   3.599   2.936   9.469  0.1271  0.1664 -0.0416
 1059SOL    HW114813   3.508   2.922   9.442 -0.3352  0.6765  1.2838
 1059SOL    HW214814   3.637   2.953   9.383  3.4616 -2.8356  0.8314
 1060SOL     OW14815   1.456   1.702   5.559  0.2617 -0.8221  0.0706
 1060SOL    HW114816   1.432   1.757   5.633 -0.0137  0.4004 -0.9329
 1060SOL    HW214817   1.492   1.765   5.497 -1.3850  1.4176  1.4196
 1061SOL     OW14818   2.675   1.681  10.529 -0.4514 -0.1407 -0.1528
 1061SOL    HW114819   2.580   1.672  10.536 -1.0431  4.8034 -1.4092
 1061SOL    HW214820   2.705   1.712  10.614  1.2842  0.3506 -0.9397
 1062SOL     OW14821   3.538   2.377  14.125 -0.4248  0.2492 -0.1347
 1062SOL    HW114822   3.512   2.459  14.166 -1.4795  0.3150 -0.9319
 1062SOL    HW214823   3.616   2.407  14.077  0.4935 -0.2481  1.0431
 1063SOL     OW14824   1.475   1.229   4.665 -0.1586 -0.1706  0.2866
 1063SOL    HW114825   1.443   1.217   4.576 -0.7298 -1.5662  0.6817
 1063SOL    HW214826   1.552   1.172   4.671 -1.6626 -2.0486  1.4488
 1064SOL     OW14827   4.385   1.462   2.729  0.3875  0.5101  0.0770
 1064SOL    HW114828   4.337   1.492   2.806 -0.9515 -0.4599 -0.3793
 1064SOL    HW214829   4.475   1.463   2.762  0.5952 -2.0844 -0.3861
 1065SOL     OW14830   3.692   3.024   8.745  0.3507  0.1660 -0.4968
 1065SOL    HW114831   3.778   2.989   8.770  0.0800 -0.2552 -0.1640
 1065SOL    HW214832   3.718   3.078   8.671  0.4467  0.3714 -0.3141
 1066SOL     OW14833   4.120   1.021  16.978  0.3187 -0.2496  0.7228
 1066SOL    HW114834   4.078   0.943  17.012  0.1381 -0.7162 -0.5788
 1066SOL    HW214835   4.192   0.984  16.926  0.0949  1.5883 -0.9330
 1067SOL     OW14836   2.811   3.754   6.865  0.1606 -0.2769 -0.1035
 1067SOL    HW114837   2.823   3.660   6.876 -0.8745 -0.5123 -0.9523
 1067SOL    HW214838   2.857   3.759   6.782  0.8812 -2.0636  0.1865
 1068SOL     OW14839   4.128   3.980   6.776 -0.0900  0.7994 -0.0207
 1068SOL    HW114840   4.058   4.044   6.790 -2.1315 -1.8190  1.6390
 1068SOL    HW214841   4.141   3.993   6.682 -3.0245  3.8113 -0.0127
 1069SOL     OW14842   1.431   2.262   4.866 -0.7130 -0.2140 -0.1863
 1069SOL    HW114843   1.415   2.336   4.924  1.6410  1.3981 -1.5655
 1069SOL    HW214844   1.356   2.204   4.881 -2.4175  1.9111 -0.5145
 1070SOL     OW14845   1.213   2.582   8.560 -0.3104 -0.2007 -0.2595
 1070SOL    HW114846   1.152   2.563   8.490 -1.6104 -1.8425  1.3310
 1070SOL    HW214847   1.241   2.495   8.588  1.5843  0.5743  0.2639
 1071SOL     OW14848   2.002   0.273   7.758  0.0405 -0.1964  0.0522
 1071SOL    HW114849   2.068   0.209   7.784 -2.5888 -1.7822  2.7999
 1071SOL    HW214850   2.068   0.342   7.764 -1.5467  1.0280  3.8429
 1072SOL     OW14851   1.890   3.217  11.171  0.2024  0.1572  0.2289
 1072SOL    HW114852   1.892   3.304  11.132  0.8039  0.1031  0.1409
 1072SOL    HW214853   1.979   3.204  11.202 -0.8870  1.1796  3.7924
 1073SOL     OW14854   4.556   0.359  13.854 -0.0537  0.1611  0.5480
 1073SOL    HW114855   4.486   0.389  13.912 -1.4070  2.2068 -2.2010
 1073SOL    HW214856   4.605   0.434  13.821 -0.9001  0.7191  0.5676
 1074SOL     OW14857   0.345   0.542  13.050 -0.1283 -0.5781  0.0470
 1074SOL    HW114858   0.406   0.471  13.070  2.5528  2.1459  1.4774
 1074SOL    HW214859   0.391   0.604  12.994 -2.2677  0.2337 -0.8351
 1075SOL     OW14860   0.010   4.491   6.653 -0.3752  0.5558  0.7108
 1075SOL    HW114861   0.053   4.532   6.578 -0.0110 -1.0601  0.0161
 1075SOL    HW214862   4.710   4.411   6.620 -0.9634  0.7495  1.0104
 1076SOL     OW14863   1.699   2.278  11.270  0.2932  0.1379  0.0454
 1076SOL    HW114864   1.611   2.287  11.307 -1.0318 -1.3609 -2.8190
 1076SOL    HW214865   1.747   2.345  11.320  2.2988 -1.9967  1.0089
 1077SOL     OW14866   0.005   0.120   4.865  0.1896  0.1182  0.8825
 1077SOL    HW114867   4.668   0.138   4.815 -0.1026  0.2814  1.4054
 1077SOL    HW214868   4.722   0.106   4.956  0.4259 -1.1517  0.7541
 1078SOL     OW14869   0.010   2.453   2.735  0.0931 -0.2229  0.7194
 1078SOL    HW114870   4.693   2.399   2.683  0.7285 -0.3273  0.1050
 1078SOL    HW214871   4.698   2.529   2.756 -0.2877 -0.2673 -0.0972
 1079SOL     OW14872   3.941   1.066   5.912  0.0074  0.0565  0.2176
 1079SOL    HW114873   4.025   1.039   5.874 -0.4572  0.7028 -1.2770
 1079SOL    HW214874   3.955   1.060   6.007 -2.1322  0.9339  0.5910
 1080SOL     OW14875   2.873   0.140   7.381 -0.3473 -0.1515 -0.4692
 1080SOL    HW114876   2.969   0.133   7.381 -0.1180  2.9279 -0.9743
 1080SOL    HW214877   2.862   0.193   7.460  0.3162 -2.3852  1.1002
 1081SOL     OW14878   0.851   3.106  10.622 -0.1745  0.3615 -0.1132
 1081SOL    HW114879   0.932   3.070  10.586 -0.5019 -0.0057 -0.4960
 1081SOL    HW214880   0.850   3.197  10.592 -0.3490  0.6362  0.7224
 1082SOL     OW14881   0.220   4.712   8.525  0.1777  0.1280 -0.0162
 1082SOL    HW114882   0.181   4.709   8.613 -1.2393  1.6112 -0.6133
 1082SOL    HW214883   0.147   4.673   8.478 -0.2462 -2.1091  2.4360
 1083SOL     OW14884   2.161   2.488   6.857  0.0955  0.7274  0.0026
 1083SOL    HW114885   2.197   2.543   6.926  1.9660 -0.6151  0.0849
 1083SOL    HW214886   2.158   2.404   6.902  1.8567 -0.7314 -2.6282
 1084SOL     OW14887   0.190   3.605   7.124 -0.4063  0.0665 -0.4626
 1084SOL    HW114888   0.105   3.606   7.079  1.1204 -0.7291 -3.4137
 1084SOL    HW214889   0.212   3.512   7.120  1.8439  0.5213  1.3556
 1085SOL     OW14890   2.529   0.580   6.149  0.4496  0.3935 -0.2855
 1085SOL    HW114891   2.448   0.610   6.109  1.1372  1.2547 -1.0390
 1085SOL    HW214892   2.488   0.505   6.193  0.8231 -1.1215 -2.5377
 1086SOL     OW14893   4.729   1.687   1.873 -0.8338  0.3252  0.1332
 1086SOL    HW114894   4.698   1.614   1.820 -0.6030  0.7018 -0.5209
 1086SOL    HW214895   4.683   1.760   1.832 -0.0755  1.2331  0.8908
 1087SOL     OW14896   3.627   2.264   2.043  0.3855  0.0026 -0.2092
 1087SOL    HW114897   3.537   2.271   2.076  0.7928  0.8851  0.7121
 1087SOL    HW214898   3.620   2.213   1.963  0.3834 -0.8656  0.3482
 1088SOL     OW14899   0.635   4.661   7.834 -0.2934  0.0721 -0.1583
 1088SOL    HW114900   0.692   4.727   7.876  0.2178 -0.5315  0.1027
 1088SOL    HW214901   0.548   4.665   7.874 -0.9758 -1.4112 -1.5233
 1089SOL     OW14902   0.178   3.328   7.030  0.0165  0.0926 -0.1797
 1089SOL    HW114903   0.097   3.308   7.078  0.0193 -3.7423 -1.7375
 1089SOL    HW214904   0.137   3.332   6.944  0.7638 -2.7566 -0.6979
 1090SOL     OW14905   1.866   0.896   1.130 -0.4954  0.3944 -0.1028
 1090SOL    HW114906   1.924   0.929   1.199  0.8607 -0.4807 -0.8376
 1090SOL    HW214907   1.894   0.949   1.055  1.4287  0.0918  0.3951
 1091SOL     OW14908   1.008   3.129  11.128  0.0041 -0.1626  0.0924
 1091SOL    HW114909   1.098   3.106  11.151 -0.4433 -2.0923 -0.0455
 1091SOL    HW214910   0.964   3.161  11.207  0.9234 -1.1424  1.0009
 1092SOL     OW14911   0.697   1.285   9.218  0.3312 -0.1212 -0.8581
 1092SOL    HW114912   0.696   1.289   9.314  0.7061  1.0476 -0.9106
 1092SOL    HW214913   0.749   1.364   9.204 -2.6554  2.1347  0.7046
 1093SOL     OW14914   1.704   4.638   1.019  0.1390 -0.3228 -0.0304
 1093SOL    HW114915   1.784   4.607   1.061 -0.9019  0.2633  2.3753
 1093SOL    HW214916   1.707   4.584   0.940 -0.9329  2.8042 -2.2218
 1094SOL     OW14917   1.708   3.873  12.872 -0.1709 -0.4809 -0.1160
 1094SOL    HW114918   1.698   3.808  12.942  0.6845  1.4687  1.8020
 1094SOL    HW214919   1.800   3.861  12.849  0.5041  3.1934  0.6711
 1095SOL     OW14920   1.998   3.814   7.576 -0.0527  0.4738  0.0684
 1095SOL    HW114921   2.026   3.904   7.593  1.3876 -0.3790  2.2701
 1095SOL    HW214922   2.033   3.795   7.489  3.1178  1.0369  1.2018
 1096SOL     OW14923   0.285   3.926   8.984 -0.3368  0.0464 -0.2538
 1096SOL    HW114924   0.329   3.915   8.900 -0.5624 -1.0982 -0.2157
 1096SOL    HW214925   0.359   3.901   9.040 -1.0052  2.8386  1.8644
 1097SOL     OW14926   0.416   3.194   2.263 -0.1973 -0.3935  0.0263
 1097SOL    HW114927   0.415   3.100   2.283 -0.4718 -0.3082  0.4043
 1097SOL    HW214928   0.495   3.215   2.312  0.3459 -0.0386 -0.9925
 1098SOL     OW14929   3.050   1.030   5.964  0.0196  0.0071 -0.2939
 1098SOL    HW114930   2.969   0.987   5.988  1.6663 -2.6583  0.4597
 1098SOL    HW214931   3.099   0.999   6.040 -0.6127 -0.8011 -0.2156
 1099SOL     OW14932   0.624   2.631   4.592  0.2772 -0.3100 -0.3055
 1099SOL    HW114933   0.657   2.561   4.535 -2.4901 -1.0671 -0.9713
 1099SOL    HW214934   0.567   2.675   4.528 -2.3001 -3.6133 -0.2690
 1100SOL     OW14935   4.194   3.392   3.315  0.5863 -0.1623 -0.2657
 1100SOL    HW114936   4.215   3.485   3.321  0.3263 -0.2048  1.2738
 1100SOL    HW214937   4.209   3.375   3.222 -0.2846 -1.2808 -0.1992
 1101SOL     OW14938   1.669   4.222   7.837  0.0434  0.2609  0.3905
 1101SOL    HW114939   1.731   4.238   7.767 -0.0935  1.2407  0.4934
 1101SOL    HW214940   1.714   4.276   7.902  0.0497  0.9608 -0.2020
 1102SOL     OW14941   3.663   2.228  10.739  0.2785 -0.3136  0.0940
 1102SOL    HW114942   3.648   2.292  10.808  0.8182 -0.5443  0.4208
 1102SOL    HW214943   3.756   2.247  10.732  0.6002 -0.8308  3.2981
 1103SOL     OW14944   3.507   0.371   5.769 -0.3255 -0.1448  0.0016
 1103SOL    HW114945   3.431   0.366   5.828  0.4137  3.3649  1.2890
 1103SOL    HW214946   3.475   0.336   5.686 -1.7620  2.0574 -0.3791
 1104SOL     OW14947   3.548   0.901   6.810  0.0993 -0.5081  0.3638
 1104SOL    HW114948   3.569   0.841   6.739  0.2737 -0.5247  0.4314
 1104SOL    HW214949   3.613   0.868   6.872  0.5431  0.5177  0.4534
 1105SOL     OW14950   0.928   0.295   5.741 -0.0312 -0.1884 -0.1157
 1105SOL    HW114951   0.836   0.299   5.765 -0.4940 -1.0691 -1.7145
 1105SOL    HW214952   0.942   0.385   5.710  0.4536 -0.6815 -1.3292
 1106SOL     OW14953   1.230   4.710   5.543  0.3584 -1.0086  0.1865
 1106SOL    HW114954   1.148   4.735   5.585  0.3988 -0.6573  0.0535
 1106SOL    HW214955   1.273   0.048   5.517 -0.7483 -1.2067 -2.2256
 1107SOL     OW14956   0.379   2.578   4.903  0.1914  0.3765 -0.1543
 1107SOL    HW114957   0.425   2.662   4.898  3.0581 -1.0499  2.2475
 1107SOL    HW214958   0.450   2.516   4.920  1.6941  2.0711 -0.2798
 1108SOL     OW14959   2.957   4.322  13.127 -0.3606 -0.6308  0.3311
 1108SOL    HW114960   3.050   4.305  13.141 -0.4596 -2.0451 -0.7564
 1108SOL    HW214961   2.975   4.411  13.096 -0.9764 -0.7540 -0.3780
 1109SOL     OW14962   0.243   2.780   1.952  0.6126 -0.8750 -0.5771
 1109SOL    HW114963   0.199   2.724   1.887 -0.7436 -0.0777 -0.3406
 1109SOL    HW214964   0.326   2.732   1.955  0.1054 -1.3999  3.7731
 1110SOL     OW14965   1.567   1.788   3.521  0.4232  0.5785  0.4327
 1110SOL    HW114966   1.625   1.812   3.593 -0.6871  1.9247  0.8804
 1110SOL    HW214967   1.536   1.711   3.569  0.1128  0.1543 -0.4433
 1111SOL     OW14968   1.851   2.490   9.042  0.2512 -0.0535  0.1827
 1111SOL    HW114969   1.895   2.455   9.120  0.4473  0.2878  0.2253
 1111SOL    HW214970   1.862   2.415   8.984  0.1570 -0.4131  0.6230
 1112SOL     OW14971   0.211   2.796   7.805  0.3900 -0.4069  0.1526
 1112SOL    HW114972   0.245   2.879   7.772 -0.5700  0.5055  1.4130
 1112SOL    HW214973   0.214   2.813   7.899  0.3399 -4.1444  0.8219
 1113SOL     OW14974   3.212   1.692   8.640  0.1574 -0.3868 -0.1560
 1113SOL    HW114975   3.204   1.763   8.703 -1.4756 -1.6337  1.0415
 1113SOL    HW214976   3.297   1.714   8.603 -0.3992  0.8654 -0.7068
 1114SOL     OW14977   4.268   1.537   2.499 -0.2337 -0.6123 -0.2246
 1114SOL    HW114978   4.343   1.591   2.472 -0.5764 -0.4694 -0.9085
 1114SOL    HW214979   4.295   1.527   2.590 -0.7689  1.3152  0.1548
 1115SOL     OW14980   2.268   3.150   9.274  0.6775 -0.0357  0.0031
 1115SOL    HW114981   2.234   3.232   9.240  1.6080  0.1459 -0.4790
 1115SOL    HW214982   2.263   3.179   9.365  0.7623 -0.2368  0.0723
 1116SOL     OW14983   1.132   0.252   4.253  0.1848 -0.1533 -0.6585
 1116SOL    HW114984   1.136   0.294   4.167 -2.4337  0.8633 -0.2978
 1116SOL    HW214985   1.223   0.252   4.282 -0.1870  0.4727  0.5134
 1117SOL     OW14986   2.496   3.229   5.621 -0.1657  0.3944 -0.3243
 1117SOL    HW114987   2.413   3.211   5.665  3.0776 -1.6010  4.9435
 1117SOL    HW214988   2.470   3.261   5.535 -0.2506 -1.0493 -0.8251
 1118SOL     OW14989   2.706   3.531   9.282 -0.1048  0.0949 -0.8517
 1118SOL    HW114990   2.698   3.512   9.188 -2.2359 -2.4628 -0.1269
 1118SOL    HW214991   2.626   3.582   9.296 -0.0393  0.3297 -1.3188
 1119SOL     OW14992   1.359   2.939  10.723 -0.0654  0.2194 -0.3032
 1119SOL    HW114993   1.342   2.846  10.735  0.2663  0.4888  2.3792
 1119SOL    HW214994   1.429   2.937  10.658  0.2182 -1.6047  0.0610
 1120SOL     OW14995   1.472   1.460   4.209  0.4409 -0.5529 -0.2867
 1120SOL    HW114996   1.388   1.423   4.184 -1.0726  0.7846  2.7327
 1120SOL    HW214997   1.452   1.552   4.189 -1.7652 -0.8903  0.3452
 1121SOL     OW14998   3.482   3.434   5.765 -0.5559 -0.2790 -0.4266
 1121SOL    HW114999   3.563   3.480   5.745 -0.0167 -1.9184 -1.9279
 1121SOL    HW215000   3.420   3.457   5.696  1.7377 -0.0924 -2.3920
 1122SOL     OW15001   2.033   0.763   9.320  0.0517 -0.2508  0.3639
 1122SOL    HW115002   2.057   0.709   9.245 -0.2571 -0.2623  0.2715
 1122SOL    HW215003   2.104   0.763   9.383 -1.2617  0.3207  1.8601
 1123SOL     OW15004   1.621   4.514   6.353  0.0828  0.1587  0.2617
 1123SOL    HW115005   1.676   4.577   6.306  0.9851 -1.4114 -0.7789
 1123SOL    HW215006   1.609   4.548   6.442 -0.2105 -1.3467  0.8011
 1124SOL     OW15007   1.583   4.237   6.871 -0.0245 -0.0629 -0.2077
 1124SOL    HW115008   1.563   4.263   6.961 -0.1229  0.4319 -0.3727
 1124SOL    HW215009   1.676   4.213   6.874  0.1894  0.8715  0.4801
 1125SOL     OW15010   0.629   2.909  13.292 -0.5716  0.0334  0.3816
 1125SOL    HW115011   0.624   2.987  13.236 -0.8862  0.1914  0.6292
 1125SOL    HW215012   0.560   2.854  13.254 -1.7754  1.5242  0.3748
 1126SOL     OW15013   2.469   4.003   3.240  0.5737  0.8939  0.9045
 1126SOL    HW115014   2.539   3.977   3.180 -0.5439  1.3113 -0.5773
 1126SOL    HW215015   2.453   4.096   3.220 -1.6546  1.0743  3.4739
 1127SOL     OW15016   1.218   4.310   4.598  0.0735 -0.2337 -0.4595
 1127SOL    HW115017   1.286   4.261   4.551  1.4897 -0.2359  1.5705
 1127SOL    HW215018   1.183   4.372   4.534  0.6620  1.4263  0.8160
 1128SOL     OW15019   0.517   0.326  13.617 -0.1301 -0.1531  0.1967
 1128SOL    HW115020   0.533   0.246  13.568 -1.3285 -1.5358  2.0664
 1128SOL    HW215021   0.544   0.304  13.706  0.5691  1.4262  0.3705
 1129SOL     OW15022   4.200   1.670   0.853  0.5791  0.0904 -0.0071
 1129SOL    HW115023   4.281   1.626   0.827 -0.3299 -1.9319  0.6422
 1129SOL    HW215024   4.171   1.716   0.774  1.4193  0.0091 -0.3634
 1130SOL     OW15025   0.613   3.893  15.798 -0.1561 -0.0984 -0.2910
 1130SOL    HW115026   0.686   3.841  15.830  0.1963  0.0739 -0.8015
 1130SOL    HW215027   0.637   3.903  15.706  0.8278 -0.7355 -0.0972
 1131SOL     OW15028   1.384   3.767   9.216 -0.2816  0.1288 -0.4413
 1131SOL    HW115029   1.325   3.696   9.192 -0.6645  1.0990 -2.3601
 1131SOL    HW215030   1.340   3.846   9.183  0.4693  0.6134 -0.2791
 1132SOL     OW15031   2.556   3.939  14.550  0.0478  0.3008 -0.2879
 1132SOL    HW115032   2.581   3.877  14.619 -0.9414 -0.0250 -0.2176
 1132SOL    HW215033   2.496   3.996  14.598 -0.8607  0.5033 -1.6320
 1133SOL     OW15034   4.357   4.042   5.292  0.2271  0.2668 -0.3179
 1133SOL    HW115035   4.364   4.058   5.386  2.7311 -0.5477 -0.3615
 1133SOL    HW215036   4.379   3.950   5.284  1.7393  0.5678  0.3186
 1134SOL     OW15037   2.084   2.347   3.962  0.1931 -0.0869  0.2559
 1134SOL    HW115038   2.036   2.270   3.994 -1.4342 -0.1017 -2.2714
 1134SOL    HW215039   2.081   2.399   4.043 -0.9711 -0.2142  0.2974
 1135SOL     OW15040   0.020   0.556   1.920  0.3409  0.0406  0.6156
 1135SOL    HW115041   0.115   0.543   1.914  0.4262  0.2007  1.6309
 1135SOL    HW215042   4.742   0.465   1.943 -0.0760 -0.1161 -0.3692
 1136SOL     OW15043   0.799   1.520  11.441  0.4084 -0.4595  0.4407
 1136SOL    HW115044   0.841   1.543  11.524  0.5535 -0.6897  0.4325
 1136SOL    HW215045   0.804   1.596  11.383  1.8874 -0.5905  0.3974
 1137SOL     OW15046   1.525   1.104  13.137  0.3907 -0.3982 -0.1351
 1137SOL    HW115047   1.523   1.184  13.190 -0.8757 -1.4177  1.3622
 1137SOL    HW215048   1.434   1.080  13.120 -0.1206  0.8936  0.7987
 1138SOL     OW15049   3.178   1.674   2.616 -0.0525  0.5066  0.4214
 1138SOL    HW115050   3.141   1.690   2.529  1.0044 -0.3275 -0.1683
 1138SOL    HW215051   3.135   1.740   2.672 -1.4265  0.1198 -0.1826
 1139SOL     OW15052   4.669   3.950  12.479  0.3439 -0.0027 -0.3132
 1139SOL    HW115053   4.588   3.923  12.523  0.6348 -0.0235  0.2138
 1139SOL    HW215054   4.643   4.038  12.451  1.2546  0.4409  0.2451
 1140SOL     OW15055   3.946   4.080   8.332 -0.3751 -0.2475  0.3439
 1140SOL    HW115056   3.887   4.155   8.335  0.3653  0.1604  4.3393
 1140SOL    HW215057   3.944   4.053   8.240 -2.8092  1.1414  0.0141
 1141SOL     OW15058   3.223   4.181   7.125 -0.2698  0.0707  0.3676
 1141SOL    HW115059   3.255   4.203   7.212 -0.1996 -0.0983  0.3842
 1141SOL    HW215060   3.266   4.096   7.122  0.4667  0.4733 -0.6140
 1142SOL     OW15061   0.712   2.452   6.858 -0.3678 -0.3304  0.0695
 1142SOL    HW115062   0.619   2.438   6.874 -0.4123 -1.4690 -1.1894
 1142SOL    HW215063   0.723   2.544   6.880 -0.1978 -0.2913 -0.1767
 1143SOL     OW15064   3.382   1.855   2.917 -0.9512 -0.3155 -0.0101
 1143SOL    HW115065   3.306   1.908   2.941 -0.2113  0.3957  0.7462
 1143SOL    HW215066   3.409   1.833   3.007 -1.7977 -1.4392 -0.0193
 1144SOL     OW15067   4.197   0.109   2.068  0.3269 -0.3334  0.3600
 1144SOL    HW115068   4.135   0.045   2.103  1.0529 -0.8384  0.6966
 1144SOL    HW215069   4.163   0.135   1.982  1.4851 -0.2122 -0.0580
 1145SOL     OW15070   1.155   0.388  14.835 -0.2810 -0.2996  0.5499
 1145SOL    HW115071   1.129   0.311  14.785 -2.0260  0.4774  0.2600
 1145SOL    HW215072   1.232   0.351  14.878  0.5072 -0.0253 -0.6473
 1146SOL     OW15073   1.000   4.145   0.071 -0.2999  0.1845  0.1714
 1146SOL    HW115074   0.965   4.090   0.001 -1.6595  0.1197  0.9037
 1146SOL    HW215075   0.992   4.233   0.034 -0.3281  0.5657  1.0912
 1147SOL     OW15076   4.371   1.033   9.607  0.1169  0.2386  0.0845
 1147SOL    HW115077   4.342   0.948   9.574 -1.8072  2.0201 -2.8262
 1147SOL    HW215078   4.328   1.031   9.692 -0.0111  2.4100  0.0718
 1148SOL     OW15079   4.091   3.663   9.431 -0.7083 -0.2974 -0.0068
 1148SOL    HW115080   4.070   3.570   9.433  0.8102 -0.6031  1.2230
 1148SOL    HW215081   4.012   3.698   9.389  2.0812  3.5913 -2.0056
 1149SOL     OW15082   3.243   3.243  15.590  1.0220 -0.3437 -0.3713
 1149SOL    HW115083   3.214   3.264  15.679 -0.5571  2.2301 -1.5255
 1149SOL    HW215084   3.292   3.163  15.610 -0.0679 -1.1305 -0.8537
 1150SOL     OW15085   1.809   3.380   1.501 -0.3540  0.2539  0.1929
 1150SOL    HW115086   1.770   3.454   1.548 -2.0250  0.8917 -2.2309
 1150SOL    HW215087   1.841   3.341   1.583 -0.2812  1.9505  0.9813
 1151SOL     OW15088   0.994   1.572   8.144 -0.1501 -0.0810 -0.4130
 1151SOL    HW115089   0.967   1.654   8.185 -0.4953 -2.1476  3.4701
 1151SOL    HW215090   1.006   1.599   8.053  0.4268  2.0202  0.2959
 1152SOL     OW15091   2.006   1.914   6.869  0.7985 -0.6030  0.5006
 1152SOL    HW115092   2.074   1.867   6.918 -0.2942 -0.1492  2.4386
 1152SOL    HW215093   1.984   1.983   6.931  1.7293  0.1615 -0.0162
 1153SOL     OW15094   0.162   1.099  12.234 -0.6002 -0.5517  0.1196
 1153SOL    HW115095   0.201   1.183  12.211 -3.6206  0.7871 -0.1226
 1153SOL    HW215096   0.157   1.061  12.147 -1.5337 -0.2958  0.0587
 1154SOL     OW15097   1.415   2.902   4.155  0.1419  0.2748 -0.2685
 1154SOL    HW115098   1.336   2.899   4.100  1.4744 -0.7861 -2.1043
 1154SOL    HW215099   1.374   2.878   4.238  0.1778  0.3948 -0.2165
 1155SOL     OW15100   0.021   0.768   2.119 -0.5997 -0.0273  0.1034
 1155SOL    HW115101   0.005   0.714   2.042 -0.8706  0.2856 -0.0601
 1155SOL    HW215102   4.683   0.814   2.143  0.0661  1.0066  0.3203
 1156SOL     OW15103   3.640   4.124   6.475  0.5628  0.1479  0.5426
 1156SOL    HW115104   3.610   4.037   6.504  1.8439 -0.1338  1.0139
 1156SOL    HW215105   3.629   4.119   6.380  1.3566 -0.9730  0.5086
 1157SOL     OW15106   4.412   3.911   2.763  0.2278  0.0761 -0.1187
 1157SOL    HW115107   4.432   3.957   2.845  1.1510 -1.4112  0.4852
 1157SOL    HW215108   4.503   3.884   2.749  0.3066 -0.4311  1.4563
 1158SOL     OW15109   3.241   2.473  14.090  0.1593 -0.5509 -0.0908
 1158SOL    HW115110   3.173   2.491  14.026  0.2078 -0.2926 -0.0720
 1158SOL    HW215111   3.308   2.433  14.034 -0.5381  1.2134 -2.2037
 1159SOL     OW15112   2.215   2.647   4.251  0.4657 -0.2661  0.0778
 1159SOL    HW115113   2.208   2.718   4.315 -0.7052 -1.0213  0.7928
 1159SOL    HW215114   2.302   2.663   4.215  0.2611  0.0731 -0.2644
 1160SOL     OW15115   2.802   1.305   0.835 -0.3588 -0.3005  0.2008
 1160SOL    HW115116   2.831   1.330   0.923 -0.0284 -0.0684  0.0298
 1160SOL    HW215117   2.721   1.357   0.834 -2.1218 -3.0542  1.8019
 1161SOL     OW15118   0.592   1.041   5.176 -0.1595 -0.1785  0.2819
 1161SOL    HW115119   0.592   1.100   5.101 -2.5491 -2.2438 -1.3310
 1161SOL    HW215120   0.513   1.069   5.223  0.3976  0.8468  0.6130
 1162SOL     OW15121   1.622   3.748   5.190 -0.1207  0.2366 -0.1568
 1162SOL    HW115122   1.699   3.744   5.134  1.2005 -3.3542  1.9355
 1162SOL    HW215123   1.615   3.654   5.201 -0.0668  0.2494 -0.0175
 1163SOL     OW15124   1.923   0.837  13.929 -0.1807 -0.7432  0.2523
 1163SOL    HW115125   1.882   0.840  14.016 -0.5537 -0.7056  0.0745
 1163SOL    HW215126   2.003   0.791  13.953  0.4592  0.6826  0.8523
 1164SOL     OW15127   2.350   1.176   6.883 -0.3646 -0.4351 -0.4199
 1164SOL    HW115128   2.346   1.260   6.836 -0.7416 -0.1305  0.1541
 1164SOL    HW215129   2.408   1.118   6.834  0.6202 -0.4327  0.7634
 1165SOL     OW15130   3.468   2.096   6.637 -0.3464  0.3831  0.1423
 1165SOL    HW115131   3.550   2.062   6.672 -1.1120 -0.5035  1.0686
 1165SOL    HW215132   3.497   2.127   6.551  1.0707  1.6096  1.0645
 1166SOL     OW15133   4.415   2.579   1.720 -0.3025 -0.1816  0.1084
 1166SOL    HW115134   4.429   2.668   1.752  1.3864  0.4473 -2.3106
 1166SOL    HW215135   4.324   2.565   1.746 -0.4673 -1.9722 -1.3565
 1167SOL     OW15136   2.329   2.522  12.162 -0.0945 -0.5577 -0.5048
 1167SOL    HW115137   2.409   2.471  12.177 -1.3406 -2.6110 -0.9088
 1167SOL    HW215138   2.269   2.466  12.114 -1.2971  0.5387 -0.2963
 1168SOL     OW15139   1.156   3.090   4.199 -0.1268  0.0244 -0.0687
 1168SOL    HW115140   1.245   3.120   4.182  0.5169 -2.0207 -0.2987
 1168SOL    HW215141   1.156   3.092   4.295  0.2233  2.7032 -0.1280
 1169SOL     OW15142   0.561   2.416   5.810 -0.3424 -0.5116  0.2513
 1169SOL    HW115143   0.466   2.410   5.816 -0.2824  0.5354  2.4574
 1169SOL    HW215144   0.583   2.509   5.808  0.3550 -0.7116 -1.5006
 1170SOL     OW15145   3.990   2.789   4.532  0.4133  0.5010  0.2400
 1170SOL    HW115146   3.924   2.743   4.479 -1.7965  2.2080  1.5257
 1170SOL    HW215147   4.010   2.854   4.465 -1.2801  1.7731  0.9664
 1171SOL     OW15148   1.797   1.728   2.564  0.2254 -0.4692 -0.4046
 1171SOL    HW115149   1.726   1.790   2.576 -0.9594 -1.5424 -1.9285
 1171SOL    HW215150   1.859   1.796   2.539  1.0102 -1.3540 -0.8929
 1172SOL     OW15151   0.976   1.530   0.412  0.5827 -0.6404 -0.1188
 1172SOL    HW115152   0.990   1.606   0.357  0.1288  1.0293  2.0876
 1172SOL    HW215153   0.920   1.559   0.483  0.2325 -0.3908 -0.5031
 1173SOL     OW15154   4.037   1.279   2.129 -0.5570  0.6534  0.2436
 1173SOL    HW115155   4.126   1.291   2.163  0.3381  1.0666 -2.2586
 1173SOL    HW215156   4.025   1.193   2.170  2.3797  0.1256  0.0345
 1174SOL     OW15157   2.976   3.835   0.768 -0.3224  0.1112 -0.3601
 1174SOL    HW115158   2.977   3.791   0.683 -1.3492 -0.2041 -0.2081
 1174SOL    HW215159   3.060   3.800   0.800 -0.9675  0.1197  1.3417
 1175SOL     OW15160   0.429   3.961   6.067 -0.6006  0.5791 -0.0469
 1175SOL    HW115161   0.401   4.051   6.082  2.6024  1.6858 -0.7370
 1175SOL    HW215162   0.353   3.905   6.081 -0.2666  0.2723  0.5889
 1176SOL     OW15163   1.953   1.784   8.680 -0.3781 -0.1204 -0.0520
 1176SOL    HW115164   1.874   1.731   8.676  0.1324 -0.8118 -0.9456
 1176SOL    HW215165   1.972   1.792   8.774  0.1987  0.2908 -0.2059
 1177SOL     OW15166   3.090   1.914   8.327 -0.3563  0.2026 -0.5155
 1177SOL    HW115167   2.997   1.931   8.317 -1.0703 -1.6602  3.1102
 1177SOL    HW215168   3.113   1.971   8.401  1.9424  0.8266 -1.6955
 1178SOL     OW15169   4.441   1.937  16.886 -0.2573  0.4715 -0.3951
 1178SOL    HW115170   4.522   1.946  16.836 -0.6425  0.7861 -0.9712
 1178SOL    HW215171   4.377   1.962  16.820 -0.5821 -1.0823 -0.6814
 1179SOL     OW15172   2.279   2.314   7.971 -0.2324 -0.6610  0.5188
 1179SOL    HW115173   2.224   2.254   7.921 -2.4991  0.4623  1.6870
 1179SOL    HW215174   2.306   2.380   7.906 -3.2154 -1.1197 -1.1651
 1180SOL     OW15175   2.748   0.306   6.289  0.1824 -0.2619  0.5621
 1180SOL    HW115176   2.799   0.249   6.347 -0.3347 -1.3225 -0.0340
 1180SOL    HW215177   2.814   0.369   6.259 -0.4284  0.0692 -0.0853
 1181SOL     OW15178   0.594   3.934   1.271  0.6207  0.2214 -0.0433
 1181SOL    HW115179   0.526   3.887   1.320 -0.2131 -0.1939 -1.5601
 1181SOL    HW215180   0.649   3.974   1.337 -1.1248  1.4537  0.6775
 1182SOL     OW15181   1.853   4.406   0.331 -0.4810  0.3886  0.6967
 1182SOL    HW115182   1.871   4.323   0.375 -1.1561 -0.2700 -0.2790
 1182SOL    HW215183   1.895   4.394   0.246  0.0622  0.6275  0.9294
 1183SOL     OW15184   1.440   2.538   2.158  0.4208  0.8291 -0.0477
 1183SOL    HW115185   1.429   2.614   2.214  0.2372  0.8401 -0.0998
 1183SOL    HW215186   1.481   2.481   2.222 -0.9681 -0.4152 -0.2627
 1184SOL     OW15187   1.905   3.298   2.374 -0.2443 -0.0213  0.3598
 1184SOL    HW115188   1.875   3.207   2.375  1.8471 -0.7132  0.1825
 1184SOL    HW215189   1.981   3.279   2.318  0.9194  3.2109  0.8359
 1185SOL     OW15190   0.042   4.342  14.655  0.1271  0.5238 -0.0832
 1185SOL    HW115191   0.050   4.417  14.597  2.7607  0.0164 -0.3598
 1185SOL    HW215192   0.034   4.270  14.593 -1.3332 -0.1379  0.8795
 1186SOL     OW15193   3.217   3.725   4.314 -0.4389 -0.3031  0.9189
 1186SOL    HW115194   3.203   3.678   4.232  0.4799 -2.6482  2.1023
 1186SOL    HW215195   3.301   3.768   4.300 -1.1349  1.4351  2.0749
 1187SOL     OW15196   4.226   2.189   0.634 -0.9272 -0.0758 -0.2037
 1187SOL    HW115197   4.217   2.218   0.544 -0.1883  0.0470 -0.2423
 1187SOL    HW215198   4.231   2.275   0.676 -0.8196  0.0094 -0.3910
 1188SOL     OW15199   3.776   4.505   6.197  0.2189  0.6467 -0.1674
 1188SOL    HW115200   3.810   4.593   6.181  0.2022  0.5533 -0.7348
 1188SOL    HW215201   3.807   4.469   6.113 -0.8780 -3.8744  1.3925
 1189SOL     OW15202   1.341   2.701   3.014 -0.1139 -0.0511 -0.3673
 1189SOL    HW115203   1.422   2.722   3.061 -0.6930 -0.1695  0.6663
 1189SOL    HW215204   1.382   2.685   2.929  2.0120 -0.4172  0.7037
 1190SOL     OW15205   3.438   2.707   3.768  0.2876  0.0691  0.1373
 1190SOL    HW115206   3.365   2.674   3.715  0.5600 -0.8275  0.3190
 1190SOL    HW215207   3.415   2.675   3.855 -1.1165 -0.8605 -0.5696
 1191SOL     OW15208   1.515   3.801   5.766 -0.0388  0.2397 -0.3551
 1191SOL    HW115209   1.557   3.804   5.681  1.5621  0.8976  0.4478
 1191SOL    HW215210   1.421   3.797   5.753 -0.1450 -1.9550  1.1332
 1192SOL     OW15211   0.708   1.277  15.666  0.5462  0.0293 -0.3161
 1192SOL    HW115212   0.710   1.218  15.591 -0.3132 -0.4471  0.0357
 1192SOL    HW215213   0.715   1.359  15.617 -0.5104 -0.3110 -1.0368
 1193SOL     OW15214   3.650   2.119   7.184  0.1582  0.3787  0.0760
 1193SOL    HW115215   3.579   2.084   7.131  1.6385 -0.4462 -1.3862
 1193SOL    HW215216   3.628   2.211   7.195 -0.5925  0.0398  1.4450
 1194SOL     OW15217   2.832   1.295   8.654  0.1466 -0.4132  0.2462
 1194SOL    HW115218   2.869   1.351   8.586  0.7168 -1.8865 -0.6747
 1194SOL    HW215219   2.744   1.327   8.673 -0.4143 -0.1962 -2.6604
 1195SOL     OW15220   4.380   4.086   8.827  0.6943  0.7298 -0.0429
 1195SOL    HW115221   4.386   4.095   8.732  2.0628  1.8092  0.1448
 1195SOL    HW215222   4.423   4.168   8.852  0.9369  0.8428 -0.8402
 1196SOL     OW15223   0.067   1.586   8.273  0.5585  0.1299 -0.2788
 1196SOL    HW115224   0.029   1.518   8.217 -1.0055 -0.1170  1.0897
 1196SOL    HW215225   4.739   1.610   8.332 -0.9898 -3.6238 -0.6256
 1197SOL     OW15226   2.530   1.956  13.528  0.4174  0.3347 -0.2080
 1197SOL    HW115227   2.579   1.955  13.610 -0.9752  2.6551  0.6411
 1197SOL    HW215228   2.599   1.946  13.462 -1.3400 -0.2030 -1.9871
 1198SOL     OW15229   0.208   0.518   9.720  0.0370 -0.2514 -0.3378
 1198SOL    HW115230   0.266   0.590   9.746  0.0173 -0.3969  0.1191
 1198SOL    HW215231   0.126   0.561   9.694  0.8233 -0.0054 -2.3596
 1199SOL     OW15232   2.018   1.361   0.686  0.1550 -0.7577  0.2240
 1199SOL    HW115233   2.012   1.267   0.700 -0.9080 -0.5221  1.3547
 1199SOL    HW215234   1.940   1.383   0.737 -2.2988  0.4130 -4.0160
 1200SOL     OW15235   0.330   3.986   5.674 -0.3714  0.0198  0.4784
 1200SOL    HW115236   0.349   4.056   5.737  2.1364  1.1320 -1.5370
 1200SOL    HW215237   0.268   4.025   5.612 -0.2532 -0.1903  0.2296
 1201SOL     OW15238   4.249   4.392   0.917  0.0674 -0.0045 -0.0912
 1201SOL    HW115239   4.299   4.339   0.854  0.0240  0.0032 -0.1325
 1201SOL    HW215240   4.159   4.385   0.886 -0.2103  0.6333  0.5920
 1202SOL     OW15241   2.748   2.282   8.783  0.8821  0.1541  0.2351
 1202SOL    HW115242   2.739   2.352   8.847 -0.1574 -1.6991  2.0944
 1202SOL    HW215243   2.824   2.231   8.814 -0.5357 -1.9354  0.2932
 1203SOL     OW15244   0.829   2.051   9.221  0.3724  0.0786 -0.4751
 1203SOL    HW115245   0.828   2.030   9.128 -0.7122 -0.6188 -0.3059
 1203SOL    HW215246   0.912   2.099   9.224  0.2522  0.2844 -0.5446
 1204SOL     OW15247   1.629   1.435   3.889 -0.2739  0.5540 -0.0739
 1204SOL    HW115248   1.588   1.467   3.970  1.6983 -2.0448  1.9732
 1204SOL    HW215249   1.723   1.439   3.907 -0.1280  3.3098 -1.4237
 1205SOL     OW15250   3.197   2.086   1.389 -0.3052  0.5269 -0.1325
 1205SOL    HW115251   3.173   2.035   1.466  0.5405 -0.0412 -0.2455
 1205SOL    HW215252   3.283   2.057   1.360  0.3180  1.0177  1.2511
 1206SOL     OW15253   4.662   3.509   4.891 -0.7020 -0.2029  0.8164
 1206SOL    HW115254   4.636   3.446   4.958  0.4869 -0.8025  0.7151
 1206SOL    HW215255   4.582   3.522   4.841  0.9214  0.0597 -1.7064
 1207SOL     OW15256   3.991   3.324   4.317  0.1396 -0.1530 -0.0229
 1207SOL    HW115257   3.940   3.383   4.373  2.4766  2.0219 -0.1596
 1207SOL    HW215258   4.033   3.390   4.261  1.0985  0.2173  1.1291
 1208SOL     OW15259   2.570   0.051   8.726  0.0535  0.2579 -0.5230
 1208SOL    HW115260   2.580   0.032   8.633  1.3123 -3.1577  0.3099
 1208SOL    HW215261   2.615   0.135   8.737 -0.5034  0.6357 -1.0973
 1209SOL     OW15262   1.968   0.638   7.157 -0.4446  0.1319  0.2960
 1209SOL    HW115263   1.892   0.583   7.178  0.7130 -1.8612 -0.7390
 1209SOL    HW215264   1.981   0.605   7.068 -0.3646  1.9831 -0.3651
 1210SOL     OW15265   4.213   0.481   4.425  0.0623 -0.3071  0.5256
 1210SOL    HW115266   4.132   0.515   4.463 -0.5530  1.7776 -2.6875
 1210SOL    HW215267   4.244   0.552   4.369 -1.8856 -0.8539 -1.2409
 1211SOL     OW15268   2.009   1.742   7.353 -0.1404  0.1422 -0.4621
 1211SOL    HW115269   2.068   1.686   7.404 -0.8291 -0.3227 -0.1688
 1211SOL    HW215270   1.934   1.761   7.409  2.1399  3.4983  1.4591
 1212SOL     OW15271   1.908   1.206   3.077  0.0552  0.4643 -0.1159
 1212SOL    HW115272   1.924   1.249   2.993 -1.4224  1.6428  0.2131
 1212SOL    HW215273   1.839   1.257   3.119 -1.3056  0.3675 -2.2140
 1213SOL     OW15274   1.903   1.772   9.377 -0.0100 -0.7178 -0.1593
 1213SOL    HW115275   1.822   1.777   9.327  0.9185 -1.4414 -1.7385
 1213SOL    HW215276   1.964   1.766   9.303 -0.5023  0.8101 -0.6893
 1214SOL     OW15277   1.018   0.539   8.414 -0.1179 -0.4924  0.2495
 1214SOL    HW115278   1.097   0.592   8.417 -0.6422  0.2945  0.0622
 1214SOL    HW215279   0.980   0.570   8.495 -0.5586 -0.9299  0.2130
 1215SOL     OW15280   1.592   4.256   9.036 -0.0581  0.2526  0.2250
 1215SOL    HW115281   1.578   4.239   8.942  2.8357 -0.6538 -0.0550
 1215SOL    HW215282   1.504   4.263   9.074 -0.3200  1.1165 -0.5246
 1216SOL     OW15283   3.977   2.309   3.053 -0.4056  0.1785  0.1022
 1216SOL    HW115284   3.966   2.381   3.115  3.2963  1.2356 -0.4685
 1216SOL    HW215285   4.057   2.268   3.087 -0.4641 -0.1051 -0.1035
 1217SOL     OW15286   3.652   2.225  14.537  0.4627  1.2916 -0.7243
 1217SOL    HW115287   3.654   2.321  14.532 -0.3240  1.3562  0.0697
 1217SOL    HW215288   3.725   2.208  14.596  0.1408 -0.7528 -0.9326
 1218SOL     OW15289   2.525   4.150   6.302  0.3099 -0.2520  0.1246
 1218SOL    HW115290   2.552   4.236   6.269 -0.3593 -0.7817 -1.8397
 1218SOL    HW215291   2.462   4.134   6.232  0.3417 -0.2826  0.1028
 1219SOL     OW15292   2.599   2.610  10.215  0.5340 -0.1293 -0.9169
 1219SOL    HW115293   2.667   2.631  10.150  0.2347  0.1489 -1.1418
 1219SOL    HW215294   2.626   2.534  10.266  0.7479 -0.5363 -1.6275
 1220SOL     OW15295   4.627   2.500  10.158 -0.2228  0.3569  0.1135
 1220SOL    HW115296   4.660   2.411  10.168  0.0941  0.3392 -1.1632
 1220SOL    HW215297   4.568   2.505  10.234 -0.0852 -0.1325  0.2529
 1221SOL     OW15298   4.583   2.728   8.352  0.4210  0.0141  0.1266
 1221SOL    HW115299   4.518   2.671   8.395 -0.7464  0.6813 -0.7562
 1221SOL    HW215300   4.658   2.668   8.354  0.3435 -0.1304 -1.3938
 1222SOL     OW15301   2.507   3.116   9.522  0.2638 -0.1108 -0.1217
 1222SOL    HW115302   2.562   3.117   9.601 -0.8969  1.3582  0.6664
 1222SOL    HW215303   2.459   3.199   9.528 -3.0743 -2.2557  2.8694
 1223SOL     OW15304   0.781   3.469   3.152  0.0606 -0.1746  0.0546
 1223SOL    HW115305   0.702   3.522   3.142 -0.0333 -0.0411  1.5588
 1223SOL    HW215306   0.773   3.428   3.066 -1.5228  0.4272 -0.0901
 1224SOL     OW15307   1.892   2.588   8.558  0.0891  0.0458  0.5222
 1224SOL    HW115308   1.955   2.580   8.630  1.6612  2.7134 -0.5652
 1224SOL    HW215309   1.819   2.557   8.612  0.5557 -1.6119  0.2102
 1225SOL     OW15310   1.381   1.729   7.176 -0.0514 -0.0831 -0.0268
 1225SOL    HW115311   1.468   1.752   7.143 -0.2284 -1.0455 -1.1567
 1225SOL    HW215312   1.321   1.760   7.108 -0.8510 -1.3979  0.0599
 1226SOL     OW15313   0.498   3.589   2.512 -0.0638 -0.4951  0.1951
 1226SOL    HW115314   0.454   3.575   2.428 -0.7651 -2.1408  0.8468
 1226SOL    HW215315   0.590   3.596   2.486  0.3107 -0.7194  1.4717
 1227SOL     OW15316   0.756   2.464   3.827  0.6093  0.2267  0.2442
 1227SOL    HW115317   0.749   2.486   3.920 -0.1127 -0.1273  0.2688
 1227SOL    HW215318   0.666   2.494   3.815  0.8254  0.1967 -1.4656
 1228SOL     OW15319   2.269   2.861   6.438  0.5517  0.7435 -0.2636
 1228SOL    HW115320   2.222   2.784   6.407 -0.5014  0.5848  1.7068
 1228SOL    HW215321   2.301   2.817   6.517  1.9344  0.3005 -1.0802
 1229SOL     OW15322   4.732   1.902   0.822  0.2415  0.5923  0.1747
 1229SOL    HW115323   4.735   1.961   0.746  0.5904  0.7736  0.3339
 1229SOL    HW215324   4.636   1.899   0.827  0.0996  1.0868 -2.0243
 1230SOL     OW15325   1.160   3.278   7.859  0.1560  0.0037 -0.6353
 1230SOL    HW115326   1.226   3.338   7.892 -0.7679 -0.4844  2.1290
 1230SOL    HW215327   1.081   3.316   7.899 -0.2603 -1.7677  0.2244
 1231SOL     OW15328   0.448   2.949   6.813 -1.0623 -0.3739 -0.0940
 1231SOL    HW115329   0.541   2.928   6.813 -1.2321 -1.0954 -0.9449
 1231SOL    HW215330   0.422   3.022   6.869  0.7883 -2.1269  3.0658
 1232SOL     OW15331   2.097   1.483  17.700 -0.2574  0.2344  0.0695
 1232SOL    HW115332   2.115   1.576  17.717  0.2719 -0.0409  1.0397
 1232SOL    HW215333   2.139   1.445   0.010 -1.9028 -0.0627  0.8152
 1233SOL     OW15334   1.292   4.522   5.346  0.0007 -0.4891  0.6698
 1233SOL    HW115335   1.237   4.597   5.369  0.8881 -0.2096  1.8554
 1233SOL    HW215336   1.280   4.522   5.251 -1.9127 -0.1114  0.8945
 1234SOL     OW15337   3.293   4.136   1.631  0.0900  0.0613  0.2257
 1234SOL    HW115338   3.300   4.077   1.705  0.6037 -0.0964  0.0495
 1234SOL    HW215339   3.257   4.213   1.675 -0.5273 -0.3303  0.3950
 1235SOL     OW15340   2.860   2.450   8.198 -0.5360  0.3653 -0.0998
 1235SOL    HW115341   2.836   2.434   8.289 -1.0996  1.5564 -0.0410
 1235SOL    HW215342   2.874   2.359   8.173 -1.6710  0.3348 -0.6405
 1236SOL     OW15343   0.716   4.446  11.988  0.7363 -0.2582  0.2953
 1236SOL    HW115344   0.795   4.450  11.934 -0.0521  0.5492 -0.7940
 1236SOL    HW215345   0.669   4.366  11.963 -0.4175  0.8382 -0.9995
 1237SOL     OW15346   4.443   3.876  16.626  0.4459 -0.1014  0.5776
 1237SOL    HW115347   4.506   3.821  16.672  0.9628 -0.1962 -0.2449
 1237SOL    HW215348   4.424   3.830  16.544 -0.2183 -0.8654  1.1573
 1238SOL     OW15349   4.577   2.413   7.813 -0.0641  0.2733  0.3975
 1238SOL    HW115350   4.587   2.338   7.871  1.6382 -0.0740 -0.3506
 1238SOL    HW215351   4.667   2.445   7.819 -0.7432  2.2697 -0.0290
 1239SOL     OW15352   4.380   3.373   9.366 -1.0933  0.0628 -0.5308
 1239SOL    HW115353   4.354   3.462   9.389  0.5406  0.4274 -0.0909
 1239SOL    HW215354   4.364   3.361   9.273  1.6764 -1.6885 -0.7883
 1240SOL     OW15355   0.369   1.088   3.792 -0.3067  0.2253 -0.1598
 1240SOL    HW115356   0.295   1.138   3.828  0.8443 -0.1888  2.7718
 1240SOL    HW215357   0.436   1.139   3.838  0.8538 -0.6526 -0.8996
 1241SOL     OW15358   4.692   2.000  16.779 -0.1578 -0.1774  0.3720
 1241SOL    HW115359   4.726   1.992  16.868 -1.0041  3.1610  1.0301
 1241SOL    HW215360   0.026   2.010  16.723 -1.4255  1.5811 -1.0602
 1242SOL     OW15361   1.514   3.999   4.192 -0.4235 -0.1537 -0.4626
 1242SOL    HW115362   1.449   4.027   4.128 -0.1470  2.4702  0.3997
 1242SOL    HW215363   1.500   4.071   4.254 -1.4365  0.5986 -1.5599
 1243SOL     OW15364   4.023   1.677   7.694  0.9417  0.1140  0.2841
 1243SOL    HW115365   4.064   1.637   7.771  0.6096  0.0315  0.4185
 1243SOL    HW215366   4.043   1.770   7.700 -1.8918  0.5910  2.2049
 1244SOL     OW15367   4.082   2.863   2.600 -0.0183  0.0141  0.5547
 1244SOL    HW115368   4.131   2.913   2.534  3.7025 -1.7949  1.9361
 1244SOL    HW215369   3.999   2.848   2.556 -0.6037 -0.4720  1.8513
 1245SOL     OW15370   0.813   2.161  12.081 -0.1694 -0.8762  0.2293
 1245SOL    HW115371   0.731   2.162  12.031  0.2198  0.5720 -0.3726
 1245SOL    HW215372   0.776   2.144  12.168 -2.1900  0.9988 -0.2696
 1246SOL     OW15373   0.252   3.636  13.822 -0.2343  0.0233  0.2401
 1246SOL    HW115374   0.270   3.579  13.747 -1.1361  2.4418 -1.7878
 1246SOL    HW215375   0.167   3.604  13.853 -1.2616  1.4628 -1.1061
 1247SOL     OW15376   2.877   2.488   1.766  0.0255 -0.2208 -0.2130
 1247SOL    HW115377   2.813   2.559   1.756 -0.4676 -0.6799 -0.3083
 1247SOL    HW215378   2.957   2.539   1.776 -0.8337  1.6085 -2.7241
 1248SOL     OW15379   4.091   3.794  13.183 -0.5490  0.3009  0.5009
 1248SOL    HW115380   4.063   3.710  13.220 -1.2152  0.4170  0.2618
 1248SOL    HW215381   4.167   3.811  13.239  0.7913 -1.1647 -0.8841
 1249SOL     OW15382   4.650   4.238   5.618 -0.3276 -0.3473  0.2447
 1249SOL    HW115383   4.658   4.220   5.524  1.4990  0.2280  0.3018
 1249SOL    HW215384   4.640   4.333   5.618 -0.8974 -0.4156  2.1076
 1250SOL     OW15385   2.874   2.066   2.196  0.1494 -0.4985 -0.4227
 1250SOL    HW115386   2.782   2.072   2.222  0.3878 -1.6829  0.6825
 1250SOL    HW215387   2.917   2.110   2.269 -1.4743  1.5574 -0.7205
 1251SOL     OW15388   1.165   1.369   2.004 -0.6539 -0.0312  0.1708
 1251SOL    HW115389   1.110   1.429   1.954 -1.1566  0.0543  0.8251
 1251SOL    HW215390   1.133   1.395   2.090 -1.3632  2.2290 -0.7878
 1252SOL     OW15391   3.237   3.399   6.300 -0.6153 -0.3584  0.3990
 1252SOL    HW115392   3.230   3.495   6.305 -0.8163 -0.3606  0.1758
 1252SOL    HW215393   3.162   3.376   6.354 -0.8305  0.0235  0.2633
 1253SOL     OW15394   2.173   4.526   4.304 -0.3939 -0.0815  0.3927
 1253SOL    HW115395   2.157   4.620   4.314  2.1939  0.2895  1.2480
 1253SOL    HW215396   2.109   4.485   4.362 -0.9050 -1.2594 -1.0349
 1254SOL     OW15397   0.204   0.450   8.624  0.6396 -0.1667 -0.3040
 1254SOL    HW115398   0.232   0.514   8.559  2.4012 -1.1150 -0.4754
 1254SOL    HW215399   0.172   0.507   8.694  0.9707 -0.6129  0.2086
 1255SOL     OW15400   1.345   1.853   6.191 -0.3522 -0.1060 -0.0103
 1255SOL    HW115401   1.390   1.920   6.241 -0.4728 -0.2441  0.2856
 1255SOL    HW215402   1.345   1.883   6.100  0.0313 -0.6603 -0.1921
 1256SOL     OW15403   2.130   3.964  17.291 -0.2408  0.5891  0.1341
 1256SOL    HW115404   2.036   3.982  17.293 -0.7448 -1.5625 -2.7820
 1256SOL    HW215405   2.154   4.041  17.342  0.2384  0.3638  0.2449
 1257SOL     OW15406   0.203   2.620  15.699 -0.0680  0.6804  0.0136
 1257SOL    HW115407   0.252   2.672  15.763 -0.8740 -0.7064  1.7483
 1257SOL    HW215408   0.170   2.695  15.650 -3.0322 -1.0515 -0.6335
 1258SOL     OW15409   3.761   0.248   5.060 -0.1781  0.1408 -0.2207
 1258SOL    HW115410   3.794   0.328   5.019 -0.7388  1.3667  1.7500
 1258SOL    HW215411   3.760   0.183   4.989  1.6918  0.7829 -0.8227
 1259SOL     OW15412   4.464   1.933  14.780  0.0724 -0.5414 -0.1932
 1259SOL    HW115413   4.498   2.002  14.837 -0.0284 -1.4932  1.0246
 1259SOL    HW215414   4.401   1.968  14.717  1.7628  2.9205  0.0531
 1260SOL     OW15415   4.498   1.963   1.135  0.0286 -0.4630  0.1216
 1260SOL    HW115416   4.482   1.972   1.041 -3.5437  0.0357  0.7762
 1260SOL    HW215417   4.476   1.871   1.147  0.6219 -0.6023  0.1468
 1261SOL     OW15418   2.179   1.459   3.912 -0.3094 -0.4674 -0.1934
 1261SOL    HW115419   2.231   1.525   3.865 -0.3137 -1.0244 -0.9784
 1261SOL    HW215420   2.140   1.425   3.831  1.7817  1.7781 -2.1392
 1262SOL     OW15421   1.008   0.084  17.457  0.0924  0.4974 -0.2886
 1262SOL    HW115422   1.005   0.031  17.537 -0.9763 -1.5076 -1.6362
 1262SOL    HW215423   0.928   0.136  17.457 -0.5403 -0.4583 -1.8836
 1263SOL     OW15424   2.680   1.793   4.878 -0.1444  0.0012 -0.1637
 1263SOL    HW115425   2.725   1.755   4.802 -4.0483 -0.5769 -2.2013
 1263SOL    HW215426   2.645   1.720   4.930  3.2640 -1.2402  0.3852
 1264SOL     OW15427   0.464   4.164   2.683  0.6232  0.3933 -0.5675
 1264SOL    HW115428   0.509   4.208   2.611 -0.6310  0.4545 -1.3143
 1264SOL    HW215429   0.530   4.157   2.752 -0.6825  0.9623  0.7550
 1265SOL     OW15430   4.149   3.759   0.324 -0.3289  0.4889 -0.6364
 1265SOL    HW115431   4.100   3.823   0.272 -2.8773 -0.2854  0.8270
 1265SOL    HW215432   4.124   3.755   0.416 -0.3400 -3.2481 -0.7977
 1266SOL     OW15433   4.142   1.645   4.381 -0.7791  0.1473 -0.3213
 1266SOL    HW115434   4.199   1.721   4.391 -0.0677 -0.5072  0.6893
 1266SOL    HW215435   4.072   1.683   4.329 -1.9391 -2.0001 -0.3580
 1267SOL     OW15436   1.532   2.873  15.948 -0.1859 -0.1146 -0.3051
 1267SOL    HW115437   1.539   2.855  15.854 -1.1874  1.1966 -0.6207
 1267SOL    HW215438   1.600   2.940  15.955 -0.2274  0.2910 -3.7833
 1268SOL     OW15439   3.967   3.643   6.997  0.6207  0.1712  0.2465
 1268SOL    HW115440   4.046   3.600   7.028 -0.8639 -1.3002  2.0017
 1268SOL    HW215441   3.919   3.563   6.977  2.1928 -0.3901 -1.2709
 1269SOL     OW15442   4.654   3.783   2.690 -0.3510  0.1568  0.5121
 1269SOL    HW115443   4.688   3.723   2.756 -0.5169 -1.7629 -1.1785
 1269SOL    HW215444   4.705   3.765   2.611 -0.2107  4.1902 -0.3332
 1270SOL     OW15445   1.202   3.573  10.855 -0.0376 -0.4433 -0.2522
 1270SOL    HW115446   1.214   3.483  10.827 -0.9486 -0.6133 -0.1077
 1270SOL    HW215447   1.220   3.630  10.780  0.1582  1.5501  1.3034
 1271SOL     OW15448   3.634   2.518   7.512  0.2530 -0.3092  0.4307
 1271SOL    HW115449   3.716   2.521   7.462 -0.9144 -0.4268 -1.4642
 1271SOL    HW215450   3.622   2.425   7.493  0.4892  0.1604 -2.0625
 1272SOL     OW15451   2.866   2.170  10.848  0.1673  0.1223 -0.0853
 1272SOL    HW115452   2.824   2.206  10.770  1.4629 -0.2854 -0.9731
 1272SOL    HW215453   2.896   2.092  10.800  0.5151 -0.1057  0.5109
 1273SOL     OW15454   0.363   1.251   8.176 -0.3779 -0.1343 -0.2677
 1273SOL    HW115455   0.379   1.345   8.179  1.3462 -0.3404 -2.3762
 1273SOL    HW215456   0.379   1.227   8.084  1.0464  1.3056 -0.3960
 1274SOL     OW15457   3.593   4.584  12.518 -0.3880 -0.3190 -0.6782
 1274SOL    HW115458   3.598   4.489  12.530  2.2751 -0.4375 -2.7746
 1274SOL    HW215459   3.643   4.611  12.595  0.0358  0.8378 -1.3631
 1275SOL     OW15460   1.096   3.315   0.476 -1.0828 -0.1627  0.1794
 1275SOL    HW115461   1.091   3.410   0.464 -2.1035 -0.4947 -2.1234
 1275SOL    HW215462   1.019   3.310   0.533 -0.2274 -0.9142  1.2715
 1276SOL     OW15463   1.236   3.106  11.249  0.2925 -0.7250 -0.1102
 1276SOL    HW115464   1.236   3.146  11.336  0.4792 -0.0927 -0.4036
 1276SOL    HW215465   1.299   3.160  11.202  1.0223 -2.1298 -0.7146
 1277SOL     OW15466   4.118   0.727  13.117  0.4660 -0.5608  0.1064
 1277SOL    HW115467   4.123   0.665  13.189  0.3077 -1.7223 -0.8945
 1277SOL    HW215468   4.050   0.783  13.154  1.4056  0.2998  0.5319
 1278SOL     OW15469   2.013   2.906   5.270 -0.7578 -0.7274 -0.5827
 1278SOL    HW115470   2.106   2.907   5.291 -0.2201  0.4519 -3.1133
 1278SOL    HW215471   1.976   2.981   5.317 -1.4401 -2.5409  1.8010
 1279SOL     OW15472   3.852   2.024   4.427 -0.4164 -0.3882  0.0196
 1279SOL    HW115473   3.853   1.966   4.504 -2.4144 -0.3901  0.0514
 1279SOL    HW215474   3.893   2.099   4.470 -0.5447 -0.2237 -0.1450
 1280SOL     OW15475   0.485   2.423   8.401  0.0273  0.4163  0.1043
 1280SOL    HW115476   0.430   2.502   8.401  0.2179  0.5906 -3.8208
 1280SOL    HW215477   0.530   2.426   8.485  0.8919 -1.8458 -0.2863
 1281SOL     OW15478   4.676   3.808  11.625 -0.0368  0.2203 -0.1504
 1281SOL    HW115479   4.731   3.835  11.699  0.3044  1.4299 -0.8466
 1281SOL    HW215480   4.630   3.889  11.604 -1.2350 -0.3155  0.3992
 1282SOL     OW15481   3.953   4.006   2.513 -0.2996 -0.4717  0.3003
 1282SOL    HW115482   3.958   4.084   2.569  1.1877 -0.5642  0.2863
 1282SOL    HW215483   4.005   4.039   2.440 -1.5324 -0.2159 -0.4484
 1283SOL     OW15484   0.826   1.216   2.489 -0.1886 -0.2926 -0.2186
 1283SOL    HW115485   0.846   1.139   2.542  0.3366 -0.0938 -0.1221
 1283SOL    HW215486   0.910   1.262   2.495 -0.5862  0.0210  3.3113
 1284SOL     OW15487   0.632   2.120  14.098  0.3044  0.0137  0.0452
 1284SOL    HW115488   0.674   2.042  14.134  0.7085  0.9254  1.5148
 1284SOL    HW215489   0.559   2.121  14.159  1.2413  1.4941  1.1333
 1285SOL     OW15490   0.759   4.003   1.463 -0.0395  0.3705 -0.0037
 1285SOL    HW115491   0.849   3.993   1.495 -1.0308  1.1878  3.0126
 1285SOL    HW215492   0.760   4.096   1.483 -2.1141 -0.2277  2.7877
 1286SOL     OW15493   1.735   3.119   3.535  0.3972 -0.2618 -0.1583
 1286SOL    HW115494   1.735   3.133   3.441  0.2929  2.8980  0.3146
 1286SOL    HW215495   1.658   3.062   3.545  0.5153 -0.2194  1.0036
 1287SOL     OW15496   2.773   1.881   5.272  0.0007  0.2355  0.0886
 1287SOL    HW115497   2.745   1.963   5.314  0.0182  0.8403 -1.0782
 1287SOL    HW215498   2.741   1.819   5.337  0.0979  0.1524  0.0582
 1288SOL     OW15499   3.389   2.426   9.186 -0.3605  0.6201 -0.2949
 1288SOL    HW115500   3.406   2.422   9.092  1.4243  1.3325 -0.0142
 1288SOL    HW215501   3.477   2.417   9.224 -0.6736 -0.0536  0.2720
 1289SOL     OW15502   4.035   1.526   4.076 -0.8224 -0.3429  0.8807
 1289SOL    HW115503   4.085   1.453   4.041  0.0521  0.6177  0.1591
 1289SOL    HW215504   4.052   1.591   4.008 -2.0808  0.1223  0.9975
 1290SOL     OW15505   1.434   1.133  17.385 -0.3707 -0.2832  0.2752
 1290SOL    HW115506   1.350   1.110  17.345 -0.3117 -0.4676  0.2580
 1290SOL    HW215507   1.428   1.076  17.462 -0.6846 -0.3147  0.2279
 1291SOL     OW15508   2.349   2.721   1.133 -0.5120 -0.0692 -0.1766
 1291SOL    HW115509   2.393   2.763   1.207 -0.2198 -0.3365 -0.2013
 1291SOL    HW215510   2.385   2.633   1.140 -3.7246 -1.4970 -1.1722
 1292SOL     OW15511   1.480   2.315   7.542  0.3849  0.4852 -0.1518
 1292SOL    HW115512   1.399   2.348   7.581  0.8718 -0.8032  1.9217
 1292SOL    HW215513   1.519   2.266   7.614  0.1378  0.7805  0.1801
 1293SOL     OW15514   3.574   1.518   7.209  0.2690  0.0476  0.2015
 1293SOL    HW115515   3.565   1.484   7.298 -1.3479  0.0674  0.0504
 1293SOL    HW215516   3.487   1.559   7.209 -0.5716 -1.7181 -1.4353
 1294SOL     OW15517   4.741   1.645  10.206  0.0542  0.1935  0.0239
 1294SOL    HW115518   0.046   1.601  10.276  0.4853 -0.6516 -0.8050
 1294SOL    HW215519   0.054   1.644  10.128  0.3474  1.2247  0.2193
 1295SOL     OW15520   3.889   1.932   5.841  0.1272  0.1739 -0.3454
 1295SOL    HW115521   3.827   1.882   5.788 -0.6092 -0.1574  0.8264
 1295SOL    HW215522   3.957   1.869   5.866  1.8330  2.5571  1.1170
 1296SOL     OW15523   3.761   4.102   6.000 -0.1490  0.3767 -0.1453
 1296SOL    HW115524   3.770   4.024   6.055  0.4951  1.0365  0.6933
 1296SOL    HW215525   3.737   4.068   5.914  1.9814 -2.6827  0.4657
 1297SOL     OW15526   1.453   2.059  11.490  0.6102 -0.2590 -0.3656
 1297SOL    HW115527   1.543   2.050  11.522  0.5865 -1.4478 -0.6538
 1297SOL    HW215528   1.397   2.034  11.563  0.2751 -0.3414 -0.6525
 1298SOL     OW15529   2.132   1.788   9.230  0.1926  0.0765 -0.6395
 1298SOL    HW115530   2.146   1.715   9.290 -2.6917  0.5534  0.5931
 1298SOL    HW215531   2.205   1.848   9.246 -0.3045  2.0816 -5.9530
 1299SOL     OW15532   2.070   4.128  16.674 -0.6918 -0.1165 -0.5677
 1299SOL    HW115533   2.151   4.108  16.627 -0.2059 -1.2120  0.7483
 1299SOL    HW215534   2.002   4.123  16.607  0.1216 -3.7146 -1.1425
 1300SOL     OW15535   2.858   3.991   4.924 -0.1367 -0.4993  0.0097
 1300SOL    HW115536   2.826   3.979   5.014 -0.0398 -1.3096 -0.0644
 1300SOL    HW215537   2.799   4.051   4.879 -0.7120 -0.2258  1.1264
 1301SOL     OW15538   0.407   1.813   0.666 -0.1284 -0.2551 -0.2937
 1301SOL    HW115539   0.459   1.893   0.667  0.3148 -0.5311 -1.1355
 1301SOL    HW215540   0.470   1.741   0.666 -1.2191 -1.2079 -1.1830
 1302SOL     OW15541   1.296   3.287   9.329  0.2160 -0.3879  0.0041
 1302SOL    HW115542   1.307   3.289   9.424  1.4564 -1.6501 -0.1144
 1302SOL    HW215543   1.381   3.325   9.306  0.2055  0.8448  2.0159
 1303SOL     OW15544   3.866   1.624   2.090 -0.4971 -0.2886 -0.1251
 1303SOL    HW115545   3.798   1.562   2.115 -1.2260  1.3010  1.8568
 1303SOL    HW215546   3.920   1.571   2.032  0.1050  0.8213 -0.5681
 1304SOL     OW15547   3.903   0.734   2.271  0.1547  0.5729 -0.6071
 1304SOL    HW115548   3.990   0.729   2.310  0.8749  1.3628 -2.1096
 1304SOL    HW215549   3.921   0.670   2.203  1.4390  0.5918 -0.2910
 1305SOL     OW15550   4.388   3.396  15.445 -0.4193 -0.1568 -0.1363
 1305SOL    HW115551   4.405   3.379  15.538 -2.4512  0.3289  0.3218
 1305SOL    HW215552   4.452   3.334  15.411  0.3812  0.8673 -0.4776
 1306SOL     OW15553   0.374   1.756   1.241  0.3527 -0.4241 -0.1985
 1306SOL    HW115554   0.384   1.780   1.333  0.0100  0.0399 -0.2830
 1306SOL    HW215555   0.298   1.806   1.210  0.3257 -1.3750 -1.6615
 1307SOL     OW15556   2.778   3.488   6.400  0.2521  0.1515  0.4118
 1307SOL    HW115557   2.738   3.570   6.373 -0.7126 -0.6097 -0.5034
 1307SOL    HW215558   2.698   3.447   6.432  0.1291  0.8828  1.0410
 1308SOL     OW15559   2.420   1.582  15.320  0.2575  0.1004 -0.5676
 1308SOL    HW115560   2.446   1.494  15.348  4.6057  1.3278 -0.6386
 1308SOL    HW215561   2.505   1.606  15.282  0.3954  0.8293  0.2199
 1309SOL     OW15562   1.972   0.711   6.502  0.4478  0.0473 -0.3752
 1309SOL    HW115563   1.919   0.759   6.439 -1.8339 -0.0805  1.4549
 1309SOL    HW215564   2.045   0.665   6.460 -1.3155 -2.7800 -0.3500
 1310SOL     OW15565   3.774   3.910   5.739 -0.2334 -0.0317  0.0395
 1310SOL    HW115566   3.705   3.942   5.681  1.0518  2.3651 -0.1697
 1310SOL    HW215567   3.840   3.978   5.722 -0.0024 -0.4016 -0.5242
 1311SOL     OW15568   3.405   2.944   2.409  0.1655 -0.6823  0.2471
 1311SOL    HW115569   3.446   2.862   2.382 -0.4121 -1.1240  0.7014
 1311SOL    HW215570   3.479   2.985   2.453  1.1255 -1.8066 -0.3258
 1312SOL     OW15571   4.222   1.610   2.987 -0.3860 -0.6440 -0.3751
 1312SOL    HW115572   4.160   1.651   3.046 -1.4224  0.4583 -2.2655
 1312SOL    HW215573   4.221   1.663   2.908  0.7342 -0.8272 -0.5228
 1313SOL     OW15574   4.238   2.643  10.917  0.0332  0.5305 -0.3424
 1313SOL    HW115575   4.162   2.626  10.860 -0.7256  1.1467  0.4968
 1313SOL    HW215576   4.246   2.559  10.962 -1.3892  0.4673 -0.2155
 1314SOL     OW15577   3.101   1.247   6.777 -0.0457 -0.0356 -0.4601
 1314SOL    HW115578   3.075   1.263   6.868  1.1009  1.4102 -0.3929
 1314SOL    HW215579   3.185   1.202   6.782  0.0441  0.2750  0.8643
 1315SOL     OW15580   4.083   3.045   7.540  0.1192  0.5794  0.4988
 1315SOL    HW115581   4.164   3.015   7.498  0.1544  0.5902  0.5589
 1315SOL    HW215582   4.080   3.138   7.522 -0.2541  0.6762  1.0592
 1316SOL     OW15583   3.031   3.216  16.687 -0.1969  0.2047  0.4749
 1316SOL    HW115584   3.114   3.242  16.647  0.4268 -1.9213  0.4100
 1316SOL    HW215585   3.054   3.203  16.779  0.2045  0.3758  0.3989
 1317SOL     OW15586   2.837   0.161  15.011 -0.4482  0.4676 -0.3800
 1317SOL    HW115587   2.810   0.169  15.102  0.0920  0.4138 -0.2168
 1317SOL    HW215588   2.782   0.228  14.970 -0.5780 -0.4266 -1.6770
 1318SOL     OW15589   2.942   0.335   7.564 -0.4694 -0.1053  0.3593
 1318SOL    HW115590   2.885   0.408   7.538 -0.4398 -0.0900  0.3371
 1318SOL    HW215591   2.945   0.337   7.660 -0.1808 -0.7123  0.3622
 1319SOL     OW15592   4.615   2.169   5.606 -0.1307  0.4992  0.0283
 1319SOL    HW115593   4.534   2.123   5.584  0.0001  0.4206 -0.2817
 1319SOL    HW215594   4.605   2.250   5.556  2.0094  1.0041  0.4090
 1320SOL     OW15595   3.351   1.476  11.124 -0.6673 -0.0630  0.6382
 1320SOL    HW115596   3.312   1.511  11.204  0.0988 -0.7395  1.3163
 1320SOL    HW215597   3.438   1.460  11.160 -1.0931  2.6358  2.9031
 1321SOL     OW15598   4.468   4.372   7.833 -0.3889 -0.0446 -0.0850
 1321SOL    HW115599   4.482   4.279   7.818  2.5066  0.2891  0.5208
 1321SOL    HW215600   4.540   4.398   7.891 -2.2095  2.1044  1.1949
 1322SOL     OW15601   3.290   3.968   3.037 -0.3009  0.4287  0.8617
 1322SOL    HW115602   3.341   3.891   3.062 -0.4681 -0.0954 -0.4233
 1322SOL    HW215603   3.246   4.000   3.116 -0.6709  0.6439  0.5712
 1323SOL     OW15604   4.203   1.799  16.878  0.9865  0.3927 -0.7586
 1323SOL    HW115605   4.295   1.811  16.902  0.2536 -0.0776  2.3826
 1323SOL    HW215606   4.190   1.879  16.827 -2.1956  0.4425  0.1372
 1324SOL     OW15607   1.855   4.187   5.759  0.4883  0.6795  0.7899
 1324SOL    HW115608   1.781   4.195   5.699  1.9467 -0.7455 -1.1687
 1324SOL    HW215609   1.853   4.094   5.778  0.6861  0.4821 -0.1957
 1325SOL     OW15610   0.754   0.950   1.054 -0.3261 -0.6375 -0.6529
 1325SOL    HW115611   0.681   0.994   1.009 -2.6341 -1.6391  2.1337
 1325SOL    HW215612   0.699   0.897   1.111 -3.0088  1.6220 -1.1230
 1326SOL     OW15613   3.456   4.441   4.858  0.1284 -0.6386  0.3052
 1326SOL    HW115614   3.407   4.387   4.796  1.3363 -0.8534 -0.4659
 1326SOL    HW215615   3.413   4.417   4.940  0.5976  2.4477  1.4799
 1327SOL     OW15616   4.594   4.330  13.145 -0.5004 -0.3850 -0.4443
 1327SOL    HW115617   4.655   4.326  13.071 -1.0862  3.2621 -1.1109
 1327SOL    HW215618   4.525   4.379  13.101  1.1118 -0.0148 -2.5642
 1328SOL     OW15619   2.855   3.547  17.599  0.0238  0.8142  0.0001
 1328SOL    HW115620   2.775   3.526  17.550  0.6330  3.2343 -2.0189
 1328SOL    HW215621   2.879   3.458  17.625 -0.9874  0.3536 -0.6284
 1329SOL     OW15622   2.561   3.317   6.515  0.0007 -0.2660 -0.5644
 1329SOL    HW115623   2.507   3.328   6.437 -0.3766 -2.0419 -0.5593
 1329SOL    HW215624   2.491   3.295   6.576  1.8794 -1.7103  1.0959
 1330SOL     OW15625   3.301   4.308   0.196  0.1041  0.2774  0.2484
 1330SOL    HW115626   3.362   4.237   0.177  0.7773  0.4020  1.9329
 1330SOL    HW215627   3.324   4.368   0.125 -2.0504 -1.3644 -1.8232
 1331SOL     OW15628   4.602   4.024  14.674 -0.6319  0.1724 -0.5294
 1331SOL    HW115629   4.509   4.010  14.694 -0.6700  0.3004 -0.6194
 1331SOL    HW215630   4.634   3.935  14.662 -4.2582 -1.1536 -0.5953
 1332SOL     OW15631   2.493   1.175  16.501 -0.2500  0.1294  0.4987
 1332SOL    HW115632   2.425   1.180  16.435 -0.8202 -2.2891  0.9193
 1332SOL    HW215633   2.570   1.175  16.443  0.0765 -1.9222  0.9363
 1333SOL     OW15634   3.127   2.326   3.041  0.3649 -0.2110  0.4819
 1333SOL    HW115635   3.140   2.340   2.947 -1.0434 -2.6153 -0.0605
 1333SOL    HW215636   3.159   2.409   3.078 -0.1054  1.0351 -1.9286
 1334SOL     OW15637   0.422   1.040   4.074  0.2786  0.0461 -0.5437
 1334SOL    HW115638   0.421   0.945   4.088  1.1199 -0.2388 -2.4406
 1334SOL    HW215639   0.502   1.056   4.023  1.5639 -4.4439  0.0802
 1335SOL     OW15640   0.243   4.686  15.505 -0.1073  0.1658  0.0593
 1335SOL    HW115641   0.242   0.035  15.478 -0.3411 -0.6751 -2.8092
 1335SOL    HW215642   0.187   4.694  15.582 -0.3144 -1.0096  0.0271
 1336SOL     OW15643   1.436   0.718   6.474 -0.2511 -0.1254 -0.5612
 1336SOL    HW115644   1.376   0.644   6.469 -2.7323  1.6370  3.5757
 1336SOL    HW215645   1.373   0.787   6.453  0.3065  1.1700  2.0001
 1337SOL     OW15646   0.945   2.837   5.817  0.4271 -0.1483 -0.6886
 1337SOL    HW115647   0.989   2.903   5.871  0.2234 -0.1675 -0.4958
 1337SOL    HW215648   0.942   2.881   5.732 -3.3367  1.2603  0.1434
 1338SOL     OW15649   0.975   3.132  16.934  0.2248  0.0884  0.3918
 1338SOL    HW115650   0.960   3.093  16.848  0.7080 -2.5857  1.5113
 1338SOL    HW215651   0.886   3.153  16.962 -0.2387 -0.5950 -0.5622
 1339SOL     OW15652   1.299   0.436  12.155  0.1829  0.4627  0.1053
 1339SOL    HW115653   1.211   0.471  12.152 -0.3457 -0.8755  0.0710
 1339SOL    HW215654   1.284   0.344  12.133 -0.1905  0.4610  0.3718
 1340SOL     OW15655   2.453   3.272   1.632 -0.3818 -0.4514 -0.0194
 1340SOL    HW115656   2.466   3.226   1.549  0.6769 -0.9438  0.4209
 1340SOL    HW215657   2.409   3.353   1.607 -3.4511 -1.5416  1.8465
 1341SOL     OW15658   1.298   2.199   8.996  0.2472  0.6095  0.1756
 1341SOL    HW115659   1.292   2.142   8.920 -3.2457  0.0697  0.8562
 1341SOL    HW215660   1.297   2.289   8.962  0.9987  0.7084  0.4187
 1342SOL     OW15661   4.608   1.919  12.364  0.5259  0.6606  0.3658
 1342SOL    HW115662   4.538   1.947  12.422 -0.4942 -3.8860  1.3279
 1342SOL    HW215663   4.675   1.987  12.370  0.1564  1.5819 -5.9228
 1343SOL     OW15664   0.607   2.252   8.911  0.0150 -0.0797 -0.4088
 1343SOL    HW115665   0.599   2.293   8.997  0.3838 -1.5345  0.3214
 1343SOL    HW215666   0.519   2.273   8.879  0.7274  1.2378 -1.5153
 1344SOL     OW15667   1.610   1.459   1.009  0.1225 -0.2555  0.0325
 1344SOL    HW115668   1.530   1.486   0.964 -0.1661 -0.3601  0.4803
 1344SOL    HW215669   1.630   1.369   0.982 -1.1233 -0.1448 -1.2134
 1345SOL     OW15670   0.641   0.294   8.125  0.5567 -0.5411  0.0800
 1345SOL    HW115671   0.730   0.321   8.147  0.6664  0.3195 -1.4551
 1345SOL    HW215672   0.666   0.207   8.095  2.5785 -0.0753  0.4354
 1346SOL     OW15673   3.089   1.571   7.493 -0.6845  0.2241 -0.3913
 1346SOL    HW115674   2.994   1.582   7.486 -1.0305 -3.2798 -1.2504
 1346SOL    HW215675   3.131   1.657   7.490 -2.1195  0.9760  0.9225
 1347SOL     OW15676   2.918   0.438   7.150 -0.8091  0.0481  0.1314
 1347SOL    HW115677   2.845   0.376   7.158  0.0037 -0.7953  0.9862
 1347SOL    HW215678   2.908   0.484   7.067  2.4325  0.9784  0.2564
 1348SOL     OW15679   0.705   3.782   9.851  0.4371 -0.0874  0.0397
 1348SOL    HW115680   0.686   3.690   9.868  0.0148 -0.3519 -1.7675
 1348SOL    HW215681   0.760   3.810   9.924  0.4241  0.9872 -0.3573
 1349SOL     OW15682   0.378   2.403   3.389 -0.5382 -0.8164  0.6102
 1349SOL    HW115683   0.360   2.470   3.324 -1.0274  0.9826  2.6091
 1349SOL    HW215684   0.332   2.326   3.354 -3.5350  1.4524 -0.4125
 1350SOL     OW15685   4.266   3.012   3.836 -0.0069  0.0264 -0.5010
 1350SOL    HW115686   4.318   3.067   3.778 -0.4936 -1.0766 -1.9797
 1350SOL    HW215687   4.207   2.961   3.780  0.8176  0.0162 -1.3627
 1351SOL     OW15688   0.618   2.468   0.008  0.2983  0.5416  0.6361
 1351SOL    HW115689   0.605   2.498   0.098  0.5355  1.9326  0.2037
 1351SOL    HW215690   0.712   2.477  17.758  0.3601  3.3047  2.4593
 1352SOL     OW15691   0.938   3.877  15.184 -0.4716  0.3962 -0.2925
 1352SOL    HW115692   1.016   3.875  15.128 -0.4775  0.6763 -0.3113
 1352SOL    HW215693   0.957   3.940  15.253  1.8101 -1.0107  0.3362
 1353SOL     OW15694   1.702   1.592   7.279 -0.1749 -0.0655  0.1752
 1353SOL    HW115695   1.751   1.621   7.356  1.1433  0.4037 -0.8346
 1353SOL    HW215696   1.673   1.676   7.242  0.4249 -1.2733 -3.0576
 1354SOL     OW15697   1.436   1.736   8.936 -0.0693 -0.0312  0.9251
 1354SOL    HW115698   1.467   1.667   8.995 -0.7814 -0.2949  0.9875
 1354SOL    HW215699   1.366   1.692   8.887 -0.3830  3.8707 -2.1322
 1355SOL     OW15700   2.660   2.133   5.381 -0.1604  0.1624 -0.1541
 1355SOL    HW115701   2.671   2.188   5.458  0.3003  0.7072 -0.6129
 1355SOL    HW215702   2.589   2.177   5.333  1.3543  2.6831 -0.0417
 1356SOL     OW15703   3.647   0.035   3.039  0.6590 -0.0421  0.0684
 1356SOL    HW115704   3.567   4.731   3.060  0.7341  0.3075  1.1402
 1356SOL    HW215705   3.619   0.127   3.047 -0.0233 -0.2132 -0.3327
 1357SOL     OW15706   4.514   3.338   7.665 -0.2385  0.0972  0.4585
 1357SOL    HW115707   4.477   3.250   7.658  1.5481 -0.3770 -2.8537
 1357SOL    HW215708   4.453   3.389   7.612  0.4982  0.4778 -0.0195
 1358SOL     OW15709   3.525   1.095   8.913 -0.4182 -0.4929 -0.3263
 1358SOL    HW115710   3.572   1.150   8.976 -1.0083 -0.2918 -0.0639
 1358SOL    HW215711   3.527   1.150   8.835  1.9238 -0.2969 -0.1449
 1359SOL     OW15712   1.206   1.330   8.873  0.8521 -0.0945 -0.1369
 1359SOL    HW115713   1.234   1.422   8.863  1.2843 -0.0830  1.1152
 1359SOL    HW215714   1.171   1.321   8.785 -0.2375 -0.1330  0.3037
 1360SOL     OW15715   2.534   3.846   0.256  0.1322 -0.3344 -0.1251
 1360SOL    HW115716   2.468   3.861   0.189  0.2776  0.0534 -0.1790
 1360SOL    HW215717   2.486   3.789   0.317 -0.6968 -0.5852 -1.0193
 1361SOL     OW15718   0.524   3.447   7.124 -0.6156 -0.2506  0.6827
 1361SOL    HW115719   0.524   3.532   7.168  0.1551  0.3050 -0.3749
 1361SOL    HW215720   0.541   3.374   7.183  1.4462 -1.0984 -0.9498
 1362SOL     OW15721   4.270   3.867   3.771  0.5343 -0.4656  0.4927
 1362SOL    HW115722   4.208   3.802   3.740 -0.5656  0.6154  0.4037
 1362SOL    HW215723   4.348   3.814   3.755  0.1538 -1.1673  0.9923
 1363SOL     OW15724   1.278   4.438   8.970 -0.0440 -0.5372 -0.0562
 1363SOL    HW115725   1.273   4.511   9.031 -1.1371 -0.5576 -0.1125
 1363SOL    HW215726   1.309   4.372   9.033  0.5637 -0.4431 -0.2591
 1364SOL     OW15727   2.075   1.699  15.447 -0.0218 -0.2978  0.0670
 1364SOL    HW115728   2.060   1.655  15.363  0.7274 -1.6623  0.6502
 1364SOL    HW215729   1.994   1.743  15.473  1.3874  0.7754  2.6419
 1365SOL     OW15730   1.323   1.087   0.946 -0.1738  0.1101 -0.4521
 1365SOL    HW115731   1.328   1.091   0.851  0.4642 -0.0614 -0.4223
 1365SOL    HW215732   1.412   1.088   0.983 -0.5140 -1.2774  0.3914
 1366SOL     OW15733   4.077   0.543  12.881  0.2939  0.8289  0.1646
 1366SOL    HW115734   4.159   0.499  12.900 -1.0509 -0.7968  2.2741
 1366SOL    HW215735   4.046   0.558  12.971  0.2611  1.0070  0.1236
 1367SOL     OW15736   2.915   1.145   6.606  0.1121  0.1934 -0.0443
 1367SOL    HW115737   2.923   1.213   6.539 -1.1347  0.4213  0.0437
 1367SOL    HW215738   2.977   1.175   6.672  0.2064 -0.5370  0.2022
 1368SOL     OW15739   2.820   3.693  10.767 -0.5728 -0.5223 -0.3152
 1368SOL    HW115740   2.832   3.775  10.814  0.7089  0.0554 -1.6614
 1368SOL    HW215741   2.810   3.722  10.677 -0.4098  0.5384  0.0100
 1369SOL     OW15742   2.197   0.861   2.467  0.2868  0.0326  0.2999
 1369SOL    HW115743   2.290   0.876   2.453  0.1079 -0.0171 -0.9660
 1369SOL    HW215744   2.193   0.777   2.514  0.0974 -0.9774 -1.5236
 1370SOL     OW15745   4.313   3.367   4.426  0.7901  0.1195  0.3924
 1370SOL    HW115746   4.307   3.339   4.335 -2.7552  1.2542  0.2876
 1370SOL    HW215747   4.242   3.430   4.438  0.5555  0.0576 -0.7240
 1371SOL     OW15748   1.528   3.558   5.525 -0.1593  0.3563  0.0064
 1371SOL    HW115749   1.589   3.488   5.549  0.5308  0.6377 -0.9701
 1371SOL    HW215750   1.464   3.560   5.597 -0.5948 -0.1083 -0.3722
 1372SOL     OW15751   4.551   0.147   7.075  0.1948  0.4361 -0.0481
 1372SOL    HW115752   4.554   0.239   7.099  2.3712  0.4479 -0.4104
 1372SOL    HW215753   4.466   0.121   7.113  0.6853  1.2476  1.5845
 1373SOL     OW15754   4.511   2.647   5.167  0.4911 -0.3670  0.1279
 1373SOL    HW115755   4.418   2.634   5.181 -0.1055  2.8631 -0.7451
 1373SOL    HW215756   4.524   2.598   5.086 -0.4920  0.5797 -0.5926
 1374SOL     OW15757   0.574   2.364   7.585 -0.0836  0.1803 -0.1255
 1374SOL    HW115758   0.609   2.445   7.548  0.4206  0.7767  1.6436
 1374SOL    HW215759   0.507   2.401   7.643  0.3492  1.7038 -0.5816
 1375SOL     OW15760   4.392   0.960   7.047 -0.7576 -0.1537 -0.0201
 1375SOL    HW115761   4.479   0.933   7.021 -0.0272  0.9560  1.2823
 1375SOL    HW215762   4.405   0.997   7.134 -0.1519  3.8113 -1.8028
 1376SOL     OW15763   0.888   1.725   6.846 -0.3733  0.0006  0.2893
 1376SOL    HW115764   0.843   1.659   6.793  0.1657  1.5512 -2.0886
 1376SOL    HW215765   0.944   1.667   6.899  1.4140 -0.2225 -1.8162
 1377SOL     OW15766   4.216   4.258  17.689  0.4496 -1.0369 -0.1969
 1377SOL    HW115767   4.165   4.238  17.610 -1.9900 -0.0120  1.1320
 1377SOL    HW215768   4.145   4.263  17.753 -0.9721 -2.8319 -1.6297
 1378SOL     OW15769   3.266   2.011   9.325 -0.1698 -0.1165 -0.0380
 1378SOL    HW115770   3.187   1.961   9.346  0.0928 -0.9296 -0.9829
 1378SOL    HW215771   3.331   1.941   9.336 -1.2706 -1.6577 -3.3540
 1379SOL     OW15772   3.387   3.065  11.239  0.1876  0.3316 -0.3198
 1379SOL    HW115773   3.459   3.129  11.239  0.5160 -0.0368 -0.5847
 1379SOL    HW215774   3.327   3.101  11.174  0.5022  0.7768 -0.3613
 1380SOL     OW15775   3.916   3.508   7.324  0.4717 -0.1255 -0.3730
 1380SOL    HW115776   3.940   3.432   7.378 -2.2765  0.9600  2.3571
 1380SOL    HW215777   4.003   3.515   7.284  1.2103  0.0232  1.2840
 1381SOL     OW15778   2.823   2.030   9.555 -0.2344 -0.4678 -0.3487
 1381SOL    HW115779   2.804   2.024   9.648  0.8316 -0.7726 -0.1465
 1381SOL    HW215780   2.778   2.113   9.538 -0.0261 -0.2047  0.3976
 1382SOL     OW15781   0.534   3.965   4.143 -0.2328 -0.4632  0.1760
 1382SOL    HW115782   0.475   3.913   4.089 -0.8585 -2.2420  2.5880
 1382SOL    HW215783   0.489   4.011   4.213 -1.5196 -1.1458 -0.2079
 1383SOL     OW15784   2.719   0.930   2.095 -0.2315 -0.2405 -0.1503
 1383SOL    HW115785   2.749   1.011   2.137 -4.6147  1.8039 -0.8596
 1383SOL    HW215786   2.685   0.958   2.010 -0.2773  0.9711  0.2655
 1384SOL     OW15787   2.187   0.125   5.470  0.5955 -0.2802  0.4698
 1384SOL    HW115788   2.156   0.105   5.558  2.0029 -1.0515  0.7888
 1384SOL    HW215789   2.222   0.041   5.441  2.0383  0.5467 -0.2021
 1385SOL     OW15790   4.181   4.431   6.824  0.3655  0.1368 -0.2542
 1385SOL    HW115791   4.118   4.480   6.770 -1.5288 -0.3130  1.5574
 1385SOL    HW215792   4.208   4.505   6.880 -1.3987  2.4655 -2.4793
 1386SOL     OW15793   3.418   4.082   0.043  0.1077  0.2818 -0.0064
 1386SOL    HW115794   3.496   4.079   0.098  0.1846  0.5910 -0.0985
 1386SOL    HW215795   3.440   4.023  17.740 -2.9216  0.2232 -0.9288
 1387SOL     OW15796   3.770   3.505   4.225  0.1161 -0.5970 -1.1069
 1387SOL    HW115797   3.708   3.436   4.203 -2.3195  1.4915 -0.7082
 1387SOL    HW215798   3.769   3.517   4.320 -0.0362 -0.3637 -1.1367
 1388SOL     OW15799   2.491   1.595  17.434  0.1904  0.6034 -0.0574
 1388SOL    HW115800   2.553   1.597  17.361  1.8593 -0.1634  1.3348
 1388SOL    HW215801   2.408   1.594  17.386 -1.6636 -0.4989  3.1899
 1389SOL     OW15802   2.554   1.701   9.513  0.2652  0.0328  0.3799
 1389SOL    HW115803   2.465   1.687   9.482 -0.4481  0.0013  2.4654
 1389SOL    HW215804   2.551   1.767   9.583 -1.6942  0.5564 -0.1993
 1390SOL     OW15805   2.742   1.326   6.848  0.3586  0.4987  0.0473
 1390SOL    HW115806   2.750   1.236   6.880  0.4040  0.3544 -0.3731
 1390SOL    HW215807   2.681   1.309   6.776  1.3699 -1.6166 -0.3024
 1391SOL     OW15808   1.656   0.900   6.509 -0.0803  0.3618  0.0892
 1391SOL    HW115809   1.603   0.820   6.516  2.2344 -1.2164 -0.4025
 1391SOL    HW215810   1.604   0.966   6.555 -1.6139 -1.1379  0.5315
 1392SOL     OW15811   0.882   2.696   0.105  0.2948 -0.5324 -0.2497
 1392SOL    HW115812   0.848   2.784   0.123 -0.8309 -0.8819 -0.6702
 1392SOL    HW215813   0.924   2.667   0.185 -1.2910 -0.0079  0.7834
 1393SOL     OW15814   4.446   4.354   4.191 -0.6664  0.0077 -0.5758
 1393SOL    HW115815   4.377   4.385   4.132 -0.1493  0.4275 -0.9536
 1393SOL    HW215816   4.516   4.419   4.194 -0.3328 -0.4364  1.4206
 1394SOL     OW15817   3.930   0.111   4.254  0.3818 -0.0192  0.0528
 1394SOL    HW115818   4.024   0.132   4.255  0.1784  0.9009 -0.2135
 1394SOL    HW215819   3.894   0.200   4.247  1.0526  0.2443 -0.1183
 1395SOL     OW15820   0.076   3.210   1.609  0.3374  0.5943  0.2158
 1395SOL    HW115821   0.022   3.262   1.551  0.5199  0.0086 -0.4858
 1395SOL    HW215822   0.090   3.142   1.542 -0.3297  0.5646  0.1051
 1396SOL     OW15823   4.613   2.529   4.214  0.7765 -0.0370  0.0626
 1396SOL    HW115824   4.654   2.605   4.173  3.5711 -1.7233 -0.2943
 1396SOL    HW215825   4.598   2.567   4.300  2.4914  1.1450 -0.1637
 1397SOL     OW15826   3.209   0.063   5.812  0.3089 -0.2722 -0.1930
 1397SOL    HW115827   3.195   4.715   5.842 -0.9848  0.6087  1.8192
 1397SOL    HW215828   3.122   0.073   5.772  0.0189 -0.5029  0.3827
 1398SOL     OW15829   0.675   0.511   2.754 -0.0463 -0.0131 -0.3760
 1398SOL    HW115830   0.688   0.595   2.797 -1.1109  1.0301 -2.1186
 1398SOL    HW215831   0.614   0.465   2.812  0.4645 -0.0597  0.1261
 1399SOL     OW15832   3.819   1.541  15.786 -0.1020  0.1170  0.1649
 1399SOL    HW115833   3.869   1.614  15.822 -1.2007  0.3555  1.2092
 1399SOL    HW215834   3.754   1.583  15.731 -0.6658 -2.3571 -1.0807
 1400SOL     OW15835   2.629   1.169   5.229 -0.0678  0.2666 -0.1905
 1400SOL    HW115836   2.694   1.100   5.239 -0.8352 -0.5780 -0.9659
 1400SOL    HW215837   2.560   1.130   5.174 -0.4518 -0.1669  0.6041
 1401SOL     OW15838   1.632   1.649  13.483  0.5458  0.2104  0.0284
 1401SOL    HW115839   1.635   1.618  13.574  0.5757  0.8411  0.2434
 1401SOL    HW215840   1.632   1.744  13.495 -0.1882  0.5685 -2.9366
 1402SOL     OW15841   0.848   2.264  14.198 -0.0802  0.5531  0.2776
 1402SOL    HW115842   0.886   2.204  14.262 -3.4474 -0.7311  1.0581
 1402SOL    HW215843   0.780   2.210  14.156  1.4206 -0.3278 -1.0695
 1403SOL     OW15844   2.693   4.489  13.757 -0.0437  0.3403  0.1307
 1403SOL    HW115845   2.663   4.574  13.724  0.0601  0.1240 -0.5141
 1403SOL    HW215846   2.623   4.465  13.818 -0.1450 -3.7658 -1.5629
 1404SOL     OW15847   2.296   1.880   3.265  0.0519  0.6164 -1.0708
 1404SOL    HW115848   2.385   1.907   3.243 -0.0048 -0.3762 -2.5333
 1404SOL    HW215849   2.293   1.912   3.355  1.2761  0.8783 -1.1217
 1405SOL     OW15850   2.573   4.379  13.529 -0.5168 -0.5857  0.3438
 1405SOL    HW115851   2.620   4.439  13.587 -0.5440  1.3002 -1.5536
 1405SOL    HW215852   2.527   4.432  13.464  1.4574  2.8525  1.7513
 1406SOL     OW15853   1.901   0.835   5.561  0.5024 -0.2963  0.1403
 1406SOL    HW115854   1.864   0.845   5.474  0.5744  1.0113  0.2484
 1406SOL    HW215855   1.825   0.799   5.606 -0.8593  1.9475 -0.3575
 1407SOL     OW15856   3.221   1.984  11.165 -0.6177 -0.8519  0.2579
 1407SOL    HW115857   3.245   1.896  11.193  2.4023  0.6425  2.3438
 1407SOL    HW215858   3.199   2.023  11.250 -1.8092  0.2215 -0.5451
 1408SOL     OW15859   3.739   2.396   3.949 -0.0863 -0.2539  0.4156
 1408SOL    HW115860   3.759   2.382   3.856  1.2335  0.8453  0.5435
 1408SOL    HW215861   3.716   2.488   3.952 -3.2100 -1.0355 -0.0534
 1409SOL     OW15862   3.598   1.702   5.327 -0.5872 -0.8351 -0.1883
 1409SOL    HW115863   3.613   1.616   5.366 -0.9700 -0.8147  0.0023
 1409SOL    HW215864   3.509   1.693   5.293  0.3409 -1.2160 -2.4772
 1410SOL     OW15865   2.807   3.998   2.692  0.3356 -0.6187 -0.2488
 1410SOL    HW115866   2.771   4.079   2.655  1.6835 -0.6122 -1.5135
 1410SOL    HW215867   2.758   3.987   2.774  0.5242  0.1875 -0.0230
 1411SOL     OW15868   1.038   4.019   6.642  0.9772  0.1875  0.0901
 1411SOL    HW115869   1.015   3.926   6.645  0.7324  0.2276 -0.5303
 1411SOL    HW215870   0.994   4.032   6.558  3.7978  2.0896 -1.0986
 1412SOL     OW15871   1.705   2.033   3.431  0.6234  0.4470  0.0698
 1412SOL    HW115872   1.784   1.981   3.419  1.3628  1.0017  2.4000
 1412SOL    HW215873   1.639   1.971   3.461 -1.9382  3.1443  0.0537
 1413SOL     OW15874   4.232   3.147   5.609  0.3658  0.2094 -0.1228
 1413SOL    HW115875   4.312   3.095   5.616 -0.3398 -1.0538 -1.4613
 1413SOL    HW215876   4.249   3.201   5.532 -2.6208  1.3722  0.0161
 1414SOL     OW15877   2.896   0.408   4.225 -0.3686  0.0305 -0.0629
 1414SOL    HW115878   2.900   0.389   4.319 -0.0277 -0.5280 -0.1852
 1414SOL    HW215879   2.955   0.338   4.195 -0.1052 -0.0199  0.5802
 1415SOL     OW15880   0.496   4.068  13.912 -0.1098  0.3169  0.3621
 1415SOL    HW115881   0.466   3.988  13.955 -0.6222  0.1124 -0.3667
 1415SOL    HW215882   0.559   4.027  13.853  0.7387  0.3291  1.2709
 1416SOL     OW15883   0.088   4.538  13.135  0.1729  0.3063  0.7426
 1416SOL    HW115884   0.179   4.525  13.108  0.3837 -1.4828  2.2644
 1416SOL    HW215885   0.060   4.450  13.158 -2.7596  1.0151 -0.1114
 1417SOL     OW15886   3.419   1.249   4.144  0.0318  0.1997  0.1181
 1417SOL    HW115887   3.488   1.280   4.086 -1.1190  1.6624 -0.4676
 1417SOL    HW215888   3.417   1.322   4.206 -2.7597 -2.4475  3.1575
 1418SOL     OW15889   0.566   0.186   0.006  0.3152 -0.1069 -0.7029
 1418SOL    HW115890   0.479   0.156   0.033  0.4740 -0.7093 -0.8497
 1418SOL    HW215891   0.588   0.243   0.080 -0.0173 -0.5183 -0.2818
 1419SOL     OW15892   1.174   0.161   5.882 -0.6379  0.0026  0.4347
 1419SOL    HW115893   1.101   0.216   5.852 -0.6726  0.3387  1.1297
 1419SOL    HW215894   1.129   0.080   5.906  0.2544 -0.7422 -0.4090
 1420SOL     OW15895   0.295   0.764   2.016  0.0884  0.4975  0.3386
 1420SOL    HW115896   0.236   0.823   1.970 -2.4405 -0.7398  2.0030
 1420SOL    HW215897   0.242   0.744   2.094  1.2316 -1.4428  0.6116
 1421SOL     OW15898   1.607   2.525  12.716 -0.3409  0.6198  0.6609
 1421SOL    HW115899   1.699   2.529  12.741 -0.5572 -1.9324  1.8702
 1421SOL    HW215900   1.615   2.496  12.625 -1.8729 -1.5140  1.2057
 1422SOL     OW15901   0.284   2.530   3.616 -0.2173 -0.0718 -0.5131
 1422SOL    HW115902   0.249   2.612   3.583 -0.2350 -0.0168 -0.3563
 1422SOL    HW215903   0.322   2.490   3.537  0.3152  2.0310 -1.3003
 1423SOL     OW15904   2.747   0.235   6.569 -0.5101 -0.1246  0.6132
 1423SOL    HW115905   2.703   0.223   6.653 -1.2229  0.5317  0.3322
 1423SOL    HW215906   2.724   0.326   6.548  1.3308  0.1447 -0.2212
 1424SOL     OW15907   2.576   1.917  10.709  0.2933  0.3815 -0.7800
 1424SOL    HW115908   2.596   1.977  10.637 -1.9586  1.5620 -0.4437
 1424SOL    HW215909   2.633   1.947  10.779  1.8315 -0.1552 -1.8127
 1425SOL     OW15910   0.173   1.711   5.718 -0.0704  0.2308 -0.3310
 1425SOL    HW115911   0.229   1.774   5.673  1.1484 -0.6423 -0.0243
 1425SOL    HW215912   0.188   1.636   5.659  0.9315  2.1655 -2.5425
 1426SOL     OW15913   2.926   0.687   7.310 -0.2617  0.2412  0.1604
 1426SOL    HW115914   2.968   0.602   7.316 -1.9831 -0.6472 -0.3183
 1426SOL    HW215915   2.994   0.739   7.267  0.7209 -2.7778 -1.8889
 1427SOL     OW15916   1.868   3.419   3.004  0.4875  0.2169  0.2369
 1427SOL    HW115917   1.909   3.467   3.077  0.6864 -0.1956  0.3925
 1427SOL    HW215918   1.949   3.415   2.952  0.4183 -2.2278  0.3236
 1428SOL     OW15919   2.402   3.203   5.334  0.2337 -0.3328 -0.4943
 1428SOL    HW115920   2.428   3.118   5.299  1.1414 -1.6772  3.5335
 1428SOL    HW215921   2.309   3.204   5.309  0.0832  0.3087  0.0838
 1429SOL     OW15922   0.107   2.544   7.834 -0.0067 -0.0997 -0.2352
 1429SOL    HW115923   0.129   2.634   7.811  1.6664 -0.6327 -0.7083
 1429SOL    HW215924   0.182   2.492   7.807  0.7175  0.5400  0.5373
 1430SOL     OW15925   3.714   1.713  14.213  0.3976  0.6391 -0.3746
 1430SOL    HW115926   3.634   1.754  14.247  2.0076  2.3397  1.3577
 1430SOL    HW215927   3.775   1.741  14.280  1.5119  0.8923 -1.5048
 1431SOL     OW15928   3.047   2.210   1.988  0.0897  0.1307 -0.0568
 1431SOL    HW115929   3.031   2.122   2.022 -0.2933  0.1872 -0.0887
 1431SOL    HW215930   3.086   2.192   1.902 -1.6017  0.0383 -0.8183
 1432SOL     OW15931   1.699   2.621   0.164  0.2244  0.8554 -0.0823
 1432SOL    HW115932   1.669   2.630   0.073 -1.3636 -1.0269  0.2532
 1432SOL    HW215933   1.792   2.616   0.142 -0.0705  1.2552 -1.4240
 1433SOL     OW15934   2.185   1.462  13.610  0.1202 -1.0294 -0.2608
 1433SOL    HW115935   2.111   1.486  13.665 -0.0613 -2.3765  0.0807
 1433SOL    HW215936   2.256   1.475  13.673  1.0572  0.4419 -1.5791
 1434SOL     OW15937   1.774   1.156  16.240  0.6535 -0.2133 -0.8084
 1434SOL    HW115938   1.866   1.174  16.263  0.2761 -1.6954  1.8897
 1434SOL    HW215939   1.794   1.088  16.175 -1.1984 -1.6165  0.1101
 1435SOL     OW15940   0.745   4.110   6.926  0.5372  0.1086 -0.3073
 1435SOL    HW115941   0.780   4.022   6.940 -1.0520 -0.5664 -0.5032
 1435SOL    HW215942   0.822   4.153   6.963  2.1293 -1.3942 -1.8898
 1436SOL     OW15943   2.723   1.348  16.085 -0.9261 -0.2656 -0.1184
 1436SOL    HW115944   2.798   1.409  16.089 -1.6276  0.6880 -1.7821
 1436SOL    HW215945   2.759   1.290  16.018 -1.1928  0.5981 -1.0031
 1437SOL     OW15946   0.290   0.605   4.594  0.2275  0.0685  0.2426
 1437SOL    HW115947   0.200   0.600   4.628 -0.2790 -0.5014 -1.1749
 1437SOL    HW215948   0.279   0.602   4.499  2.1440  1.6424 -0.0276
 1438SOL     OW15949   0.651   1.474   3.322  0.0743  0.5367  0.0856
 1438SOL    HW115950   0.741   1.461   3.352  0.0988  2.2246  0.7189
 1438SOL    HW215951   0.646   1.567   3.303  0.7300  0.1440 -1.9240
 1439SOL     OW15952   1.703   0.330  10.291  0.4048 -0.0459  0.4404
 1439SOL    HW115953   1.689   0.419  10.259  1.1097  0.3752  1.2832
 1439SOL    HW215954   1.616   0.315  10.330 -0.8949  3.4494 -1.1191
 1440SOL     OW15955   3.534   3.851  17.620 -0.9402 -0.0750 -0.5766
 1440SOL    HW115956   3.568   3.772  17.662 -0.9629 -0.6322 -1.6132
 1440SOL    HW215957   3.442   3.827  17.609 -0.8726 -1.1694  1.2140
 1441SOL     OW15958   3.378   3.115   3.638 -0.0541  0.1564 -0.0744
 1441SOL    HW115959   3.436   3.038   3.636 -0.0143  0.2077 -0.8558
 1441SOL    HW215960   3.413   3.177   3.574 -1.7341 -0.4985 -1.6211
 1442SOL     OW15961   4.080   1.128   0.880  0.0580 -0.0577  0.0908
 1442SOL    HW115962   3.999   1.086   0.853  0.9365 -1.6674 -0.0654
 1442SOL    HW215963   4.092   1.213   0.837 -0.1447 -0.8568 -1.5410
 1443SOL     OW15964   3.244   0.954   0.214  0.3924 -0.5423 -0.3397
 1443SOL    HW115965   3.309   0.970   0.146  0.1386  2.4878  0.0945
 1443SOL    HW215966   3.240   1.030   0.272  0.5843 -0.3823 -0.5370
 1444SOL     OW15967   0.177   0.177  16.944  0.2011 -0.0454  0.1660
 1444SOL    HW115968   0.128   0.158  17.024  0.2241 -0.5430  0.0651
 1444SOL    HW215969   0.267   0.155  16.969 -0.2507 -1.2219  0.7370
 1445SOL     OW15970   4.640   4.113  16.456 -0.5195 -0.2383  0.3446
 1445SOL    HW115971   4.571   4.122  16.521  0.0978  0.6401  0.8728
 1445SOL    HW215972   4.598   4.169  16.390 -1.0841  0.6798  1.4870
 1446SOL     OW15973   2.177   1.037   0.445 -0.4439 -0.0775 -0.4041
 1446SOL    HW115974   2.180   1.132   0.456 -0.1250 -0.1297 -0.0248
 1446SOL    HW215975   2.257   1.021   0.395  1.6080  2.2657  2.0978
 1447SOL     OW15976   2.494   0.895  12.045  0.4218 -0.4136  0.3659
 1447SOL    HW115977   2.500   0.836  11.971 -2.2646  1.1631 -1.1250
 1447SOL    HW215978   2.526   0.976  12.006  0.4041 -0.7818 -0.4070
 1448SOL     OW15979   4.464   4.143   3.576 -0.2503  0.1697 -0.3693
 1448SOL    HW115980   4.513   4.066   3.604  1.2152  1.1247 -0.3243
 1448SOL    HW215981   4.394   4.101   3.526  2.6496 -1.8661 -2.6785
 1449SOL     OW15982   3.175   2.116   3.967 -0.5221 -0.2176  0.7233
 1449SOL    HW115983   3.233   2.186   3.999 -1.2691  1.5717 -1.8871
 1449SOL    HW215984   3.187   2.049   4.035 -0.0105 -2.4601 -1.5788
 1450SOL     OW15985   4.695   4.303  14.223  0.2410  0.2403  0.2202
 1450SOL    HW115986   4.694   4.264  14.311 -0.3156 -0.5319 -0.1192
 1450SOL    HW215987   4.654   4.236  14.167  0.0345  0.1822  0.4416
 1451SOL     OW15988   0.394   2.729   4.434 -0.0930  0.1259 -0.1669
 1451SOL    HW115989   0.337   2.654   4.424 -0.9874  0.9897 -1.5392
 1451SOL    HW215990   0.333   2.798   4.460 -0.5520 -0.5159  0.4537
 1452SOL     OW15991   0.225   1.934  17.240  0.0851 -0.2009  0.3983
 1452SOL    HW115992   0.178   2.015  17.260 -1.0788 -0.7535 -0.0961
 1452SOL    HW215993   0.313   1.968  17.227  0.7729 -2.7312 -1.5775
 1453SOL     OW15994   2.819   1.938   3.111 -0.0817 -0.1213  0.1414
 1453SOL    HW115995   2.802   1.879   3.185  1.2542  0.0770  0.6046
 1453SOL    HW215996   2.871   2.006   3.153 -0.0779  0.3747 -0.6716
 1454SOL     OW15997   0.612   0.174   3.551 -0.1768 -0.6032 -0.1635
 1454SOL    HW115998   0.705   0.166   3.530  0.0489  1.4075  0.0138
 1454SOL    HW215999   0.612   0.223   3.634 -0.9668  0.3455 -0.7142
 1455SOL     OW16000   3.768   2.638   9.488 -0.5475  0.1647  0.2140
 1455SOL    HW116001   3.698   2.586   9.526 -0.6878 -0.1209 -0.4394
 1455SOL    HW216002   3.775   2.714   9.546 -0.4178  0.3442 -0.0356
 1456SOL     OW16003   0.561   0.863   7.313  0.2395 -0.0527 -0.2936
 1456SOL    HW116004   0.564   0.956   7.290  0.5354 -0.0805 -0.3610
 1456SOL    HW216005   0.492   0.864   7.380 -0.1569  0.1505 -0.6975
 1457SOL     OW16006   0.549   3.174   7.197  0.2579  0.0314 -0.5593
 1457SOL    HW116007   0.566   3.154   7.289  1.6471  2.3020 -0.3142
 1457SOL    HW216008   0.458   3.146   7.192 -0.2024  1.7454 -1.7729
 1458SOL     OW16009   1.009   2.264   5.325 -0.3166  0.0646  0.4792
 1458SOL    HW116010   0.949   2.231   5.258  0.7771 -1.6395  0.3476
 1458SOL    HW216011   0.990   2.358   5.325 -0.2014  0.0877  0.5646
 1459SOL     OW16012   4.203   2.623   7.093  0.0672 -0.6391 -0.5458
 1459SOL    HW116013   4.113   2.616   7.060  0.0279  1.7656 -0.9322
 1459SOL    HW216014   4.243   2.680   7.027 -0.4958  1.9164  1.3430
 1460SOL     OW16015   3.654   1.092   3.130  0.1698 -0.7802  0.4326
 1460SOL    HW116016   3.631   1.078   3.222  0.5203 -1.2087  0.4576
 1460SOL    HW216017   3.691   1.180   3.136  0.0709 -0.7436  0.5117
 1461SOL     OW16018   3.444   4.089   2.154  0.1571 -0.0071 -0.2452
 1461SOL    HW116019   3.535   4.083   2.184  0.1677 -0.3177 -0.3319
 1461SOL    HW216020   3.403   4.030   2.217 -1.2479  0.9461 -0.2838
 1462SOL     OW16021   0.657   3.856   4.981 -0.1974 -0.6360  0.3954
 1462SOL    HW116022   0.613   3.909   4.915  0.5967 -1.5561 -0.8714
 1462SOL    HW216023   0.750   3.870   4.965 -0.7888  0.8144 -1.6121
 1463SOL     OW16024   4.140   2.097   8.296  0.6573  0.1622  0.2778
 1463SOL    HW116025   4.111   2.010   8.325 -1.9545  0.8000 -0.3894
 1463SOL    HW216026   4.222   2.071   8.256  0.9043  1.0711  0.1971
 1464SOL     OW16027   4.164   0.274   3.996 -0.5946  0.0020 -0.6739
 1464SOL    HW116028   4.109   0.199   3.974 -2.7683  1.8923 -1.6570
 1464SOL    HW216029   4.172   0.266   4.091 -1.6568 -0.0544 -0.5877
 1465SOL     OW16030   0.681   3.308   2.398  0.1418 -0.1474 -0.1627
 1465SOL    HW116031   0.702   3.371   2.329  1.1719  2.1185  2.2194
 1465SOL    HW216032   0.717   3.358   2.471 -1.4613 -2.8517  2.4737
 1466SOL     OW16033   1.237   3.235  14.959  0.0462 -0.7012  0.0975
 1466SOL    HW116034   1.252   3.233  14.865 -1.2808  1.6839 -0.1684
 1466SOL    HW216035   1.292   3.163  14.990 -0.4629 -0.8009  0.7704
 1467SOL     OW16036   3.580   0.756   3.248 -0.4242 -0.0755 -0.0481
 1467SOL    HW116037   3.648   0.781   3.185 -1.1285 -0.9679 -1.1613
 1467SOL    HW216038   3.500   0.743   3.196 -1.1227  1.1276  0.7119
 1468SOL     OW16039   3.446   2.790   4.323 -0.0095 -0.4769 -0.9203
 1468SOL    HW116040   3.493   2.845   4.386  0.3529  0.0900 -1.6859
 1468SOL    HW216041   3.473   2.842   4.247  2.8263 -0.7401 -0.1046
 1469SOL     OW16042   0.739   1.724   4.853 -0.2525  0.1835  0.0447
 1469SOL    HW116043   0.741   1.647   4.795 -2.7709  0.7726 -0.8288
 1469SOL    HW216044   0.730   1.794   4.788  3.1469  0.5868  0.0231
 1470SOL     OW16045   1.029   1.360  15.021  0.3137  0.1680 -0.2767
 1470SOL    HW116046   1.028   1.411  14.940 -0.7291 -1.9078 -1.5900
 1470SOL    HW216047   0.950   1.306  15.018  0.3159  0.2237 -1.4972
 1471SOL     OW16048   3.780   0.591   3.954 -0.4753 -0.1350 -0.6460
 1471SOL    HW116049   3.810   0.647   3.883 -2.4084  0.0327 -1.3106
 1471SOL    HW216050   3.765   0.509   3.909 -1.2861  0.5049 -1.5387
 1472SOL     OW16051   3.265   3.637   2.205  0.1747 -0.4860  0.7892
 1472SOL    HW116052   3.301   3.549   2.195 -1.8856 -1.1563 -0.5965
 1472SOL    HW216053   3.202   3.623   2.276 -0.0048 -0.0674  0.7155
 1473SOL     OW16054   2.300   3.356  10.997  0.0279  0.3519 -0.3931
 1473SOL    HW116055   2.352   3.284  11.034 -0.5407  0.1417 -0.0071
 1473SOL    HW216056   2.290   3.316  10.911 -0.2862  1.5103 -0.8946
 1474SOL     OW16057   3.064   0.672  13.659 -0.3066 -0.4774  0.5378
 1474SOL    HW116058   3.005   0.725  13.605 -0.3310 -1.9416 -0.8845
 1474SOL    HW216059   3.133   0.725  13.697  0.8769 -0.8237 -1.1549
 1475SOL     OW16060   2.282   2.660  10.210 -0.5655  0.1803 -0.1850
 1475SOL    HW116061   2.287   2.623  10.298  1.5104  0.0476 -0.3497
 1475SOL    HW216062   2.371   2.654  10.173 -0.6114 -1.4968 -0.0229
 1476SOL     OW16063   4.429   4.411   6.650  0.1730  0.3470  0.3508
 1476SOL    HW116064   4.394   4.500   6.650 -1.3881 -0.2850  3.4619
 1476SOL    HW216065   4.363   4.375   6.709  0.3256  0.0620  0.3460
 1477SOL     OW16066   3.972   0.985  14.231  0.6306  0.3733  0.4584
 1477SOL    HW116067   3.985   0.923  14.159  0.2516 -1.7829  2.2281
 1477SOL    HW216068   4.046   0.953  14.284 -0.0694 -1.0120  0.6038
 1478SOL     OW16069   1.629   2.698   3.096  0.1208 -0.0620  0.5070
 1478SOL    HW116070   1.678   2.657   3.168 -0.9766 -0.3508  1.1017
 1478SOL    HW216071   1.698   2.715   3.033 -0.7343 -0.2758 -0.4877
 1479SOL     OW16072   2.050   3.588   8.258 -0.2754  0.1280 -0.5122
 1479SOL    HW116073   2.136   3.594   8.298 -1.0424  0.6400  1.0498
 1479SOL    HW216074   2.002   3.532   8.319  0.3467 -0.3025 -0.4260
 1480SOL     OW16075   0.927   1.620   5.718  0.2000 -0.0097  0.0304
 1480SOL    HW116076   0.993   1.689   5.726  0.7937 -0.7836  1.7680
 1480SOL    HW216077   0.965   1.563   5.784  0.4177 -0.7903 -0.7606
 1481SOL     OW16078   0.793   1.490   6.688  0.4705 -0.0983 -0.1625
 1481SOL    HW116079   0.862   1.446   6.640  0.1225  0.7382 -1.4221
 1481SOL    HW216080   0.734   1.513   6.616 -1.4838  1.4185  1.8893
 1482SOL     OW16081   1.066   0.458   2.078 -0.8066 -0.0759 -0.4090
 1482SOL    HW116082   1.058   0.553   2.076 -1.8980 -0.1855 -1.5645
 1482SOL    HW216083   0.992   0.430   2.023 -0.0969 -1.6558 -0.5807
 1483SOL     OW16084   0.606   1.547   9.444  0.5536  0.2379 -0.2037
 1483SOL    HW116085   0.633   1.459   9.470 -1.3607 -0.0301  0.8605
 1483SOL    HW216086   0.681   1.567   9.388 -0.5068 -0.0652 -1.7343
 1484SOL     OW16087   1.105   4.368   3.642  0.2268  0.3117  0.1617
 1484SOL    HW116088   1.086   4.283   3.603  1.9729  0.2674 -0.5833
 1484SOL    HW216089   1.195   4.363   3.673 -0.2922 -0.2015  1.5772
 1485SOL     OW16090   1.403   0.183   7.392 -0.0998  0.4454  0.4043
 1485SOL    HW116091   1.484   0.215   7.432  0.5064  0.0321 -0.4872
 1485SOL    HW216092   1.405   0.095   7.429 -0.3172  0.2861  0.0396
 1486SOL     OW16093   2.299   1.809   8.598 -0.1477 -0.0931  0.2671
 1486SOL    HW116094   2.218   1.852   8.626 -0.6085 -0.9908  0.3226
 1486SOL    HW216095   2.347   1.809   8.680 -0.3012 -0.6623  0.3533
 1487SOL     OW16096   4.330   3.536   4.797 -0.6336  0.4604 -0.2199
 1487SOL    HW116097   4.328   3.442   4.815  0.9540  0.6518  0.9496
 1487SOL    HW216098   4.247   3.540   4.750 -0.7355  0.2683 -0.0545
 1488SOL     OW16099   3.174   1.489  13.159  0.0041 -0.2480  0.2975
 1488SOL    HW116100   3.261   1.484  13.200  0.9823  3.2575 -1.3453
 1488SOL    HW216101   3.143   1.405  13.192 -0.0639 -0.3583 -0.0519
 1489SOL     OW16102   3.799   0.178  17.543  0.3601 -0.3394  0.1757
 1489SOL    HW116103   3.849   0.114  17.492  1.0699  0.2495  0.1406
 1489SOL    HW216104   3.736   0.206  17.476  2.0763  1.7465 -0.5436
 1490SOL     OW16105   0.354   1.603  13.964  0.0562  0.1204  0.5145
 1490SOL    HW116106   0.299   1.612  13.886 -0.8041 -4.0019  0.6523
 1490SOL    HW216107   0.286   1.610  14.032 -1.3926  1.8801 -1.1197
 1491SOL     OW16108   3.540   0.559   2.036  0.2357 -0.2134  0.5869
 1491SOL    HW116109   3.518   0.557   1.943  0.8631  1.4548  0.3851
 1491SOL    HW216110   3.543   0.653   2.054 -1.1630 -0.2870  1.1716
 1492SOL     OW16111   1.325   3.751   3.466  0.2658  0.0579 -0.0652
 1492SOL    HW116112   1.293   3.679   3.520  0.9330  0.3552  0.7104
 1492SOL    HW216113   1.404   3.706   3.437 -0.1178 -0.3383 -0.4882
 1493SOL     OW16114   3.588   4.628   5.590 -0.0610  0.1111 -0.2685
 1493SOL    HW116115   3.603   4.619   5.496  1.4515 -1.4084  0.1103
 1493SOL    HW216116   3.646   4.568   5.638 -1.7582 -0.8661  0.6128
 1494SOL     OW16117   1.627   4.683   5.225 -0.2390 -0.0670 -0.6221
 1494SOL    HW116118   1.716   4.652   5.209  0.3794  1.8838 -1.0781
 1494SOL    HW216119   1.576   4.634   5.161 -2.8596  2.9343 -0.8765
 1495SOL     OW16120   4.658   3.670  14.701 -0.0748 -0.1632 -0.6567
 1495SOL    HW116121   4.629   3.696  14.789 -1.6964  2.3877 -1.9176
 1495SOL    HW216122   4.610   3.588  14.691  1.6278 -1.1275 -0.6864
 1496SOL     OW16123   2.517   1.839   5.397 -0.5104 -0.0481  0.2593
 1496SOL    HW116124   2.422   1.833   5.385 -0.5327  3.3879 -1.2378
 1496SOL    HW216125   2.520   1.888   5.479 -0.6511  1.4227 -0.6034
 1497SOL     OW16126   2.386   3.788   6.115  0.1760 -0.3538  0.1925
 1497SOL    HW116127   2.453   3.855   6.103 -1.2544  0.9959 -0.2616
 1497SOL    HW216128   2.311   3.835   6.078  0.9512  0.5090 -0.2546
 1498SOL     OW16129   2.799   3.010  10.616 -0.3205  0.5355  0.4553
 1498SOL    HW116130   2.834   3.098  10.632 -0.5967  0.9765 -1.3907
 1498SOL    HW216131   2.861   2.990  10.546 -1.6573  0.8244 -0.8112
 1499SOL     OW16132   3.100   0.531   2.162 -0.6412 -0.6497 -0.1551
 1499SOL    HW116133   3.171   0.594   2.147 -1.4850  0.1373 -0.8774
 1499SOL    HW216134   3.026   0.588   2.179 -0.7461 -0.9272  0.3015
 1500SOL     OW16135   0.028   2.677  10.329 -0.3060  0.1072 -0.1169
 1500SOL    HW116136   4.690   2.637  10.296 -0.4329 -1.9915  2.7135
 1500SOL    HW216137   0.061   2.601  10.378  0.4094 -0.0138 -0.7902
 1501SOL     OW16138   2.125   1.156  12.300  0.4484  0.4621 -0.4353
 1501SOL    HW116139   2.067   1.225  12.332 -0.9397 -0.6556 -0.5541
 1501SOL    HW216140   2.072   1.077  12.290 -0.3008  1.0759 -1.4149
 1502SOL     OW16141   4.597   0.960   2.839  0.0987  0.1484  0.5614
 1502SOL    HW116142   4.583   0.886   2.779 -0.5094  0.5804  0.1777
 1502SOL    HW216143   4.656   1.009   2.781  0.2676  1.2271  1.6560
 1503SOL     OW16144   4.634   0.455  15.363 -0.0278 -0.2069  0.7354
 1503SOL    HW116145   4.675   0.472  15.278  1.3728  0.2623  1.5016
 1503SOL    HW216146   4.663   0.367  15.386 -0.1618 -0.0407  1.5179
 1504SOL     OW16147   1.179   2.746   8.835  0.1873 -0.4197  0.3420
 1504SOL    HW116148   1.203   2.772   8.924  1.2892 -0.7587  0.1362
 1504SOL    HW216149   1.175   2.651   8.844 -1.4484 -0.5030 -1.1607
 1505SOL     OW16150   4.461   3.688   2.428  0.3286  0.0752 -0.4633
 1505SOL    HW116151   4.447   3.704   2.335 -1.8403 -0.4826 -0.2343
 1505SOL    HW216152   4.553   3.664   2.426  0.0889 -0.7536 -1.3487
 1506SOL     OW16153   1.693   1.592  13.070 -0.1539 -0.2374 -0.8542
 1506SOL    HW116154   1.752   1.621  13.140 -0.7961 -2.2523  0.5212
 1506SOL    HW216155   1.632   1.666  13.070 -0.5034 -0.5222  0.7944
 1507SOL     OW16156   2.745   1.698   4.274 -0.2858 -0.1907 -0.5851
 1507SOL    HW116157   2.806   1.770   4.291 -0.0847  0.0393 -2.2812
 1507SOL    HW216158   2.770   1.667   4.187  0.0695  0.9287 -0.8844
 1508SOL     OW16159   0.827   3.270  11.989  0.0412 -0.3500 -0.4309
 1508SOL    HW116160   0.790   3.357  12.003 -0.4134 -0.4664 -0.8873
 1508SOL    HW216161   0.753   3.223  11.950  0.4595 -0.4111 -1.1501
 1509SOL     OW16162   3.274   2.762   7.180  0.6796 -0.1121 -0.1361
 1509SOL    HW116163   3.253   2.695   7.245  1.0989 -0.7391 -0.6510
 1509SOL    HW216164   3.229   2.842   7.209 -0.4212 -0.4709 -0.8520
 1510SOL     OW16165   2.228   3.657   3.200 -0.7310  0.5621 -0.4007
 1510SOL    HW116166   2.236   3.740   3.247  0.0383 -0.1552  0.7436
 1510SOL    HW216167   2.316   3.634   3.169 -0.3092  1.4991  0.0801
 1511SOL     OW16168   1.745   1.641  15.294  0.2055 -0.1884 -0.5653
 1511SOL    HW116169   1.708   1.726  15.319 -0.9254 -0.7355 -0.3732
 1511SOL    HW216170   1.662   1.593  15.292 -1.1431  2.1106  0.6008
 1512SOL     OW16171   4.470   2.398   6.437 -0.4664  0.2810 -0.3625
 1512SOL    HW116172   4.425   2.481   6.454  1.0698  1.1335 -0.4682
 1512SOL    HW216173   4.563   2.416   6.446 -0.2446 -0.5987 -0.9197
 1513SOL     OW16174   2.499   2.258   7.075 -0.3823 -0.2634  0.1489
 1513SOL    HW116175   2.514   2.194   7.005 -0.2264  1.2705 -1.2145
 1513SOL    HW216176   2.560   2.225   7.142  0.1698  1.1931  0.3536
 1514SOL     OW16177   4.051   0.940  16.502 -0.0693 -0.0783 -0.7332
 1514SOL    HW116178   3.987   0.993  16.550 -1.8209 -3.3875  0.5879
 1514SOL    HW216179   4.134   0.971  16.538 -0.8226  1.8486 -0.6933
 1515SOL     OW16180   2.746   0.641  12.821  0.1968  0.0370 -0.1080
 1515SOL    HW116181   2.820   0.601  12.866  1.6556  3.1557  0.3079
 1515SOL    HW216182   2.751   0.575  12.753  0.5072 -0.5848  0.5205
 1516SOL     OW16183   0.788   4.269  16.123  0.0838  0.0374  0.2331
 1516SOL    HW116184   0.711   4.214  16.134 -0.8790  1.2280 -0.5958
 1516SOL    HW216185   0.808   4.288  16.215 -0.4065 -1.0724  0.5625
 1517SOL     OW16186   2.546   2.823   3.630  0.4093 -0.3407  0.0730
 1517SOL    HW116187   2.630   2.780   3.612  0.1265 -1.9478  2.5951
 1517SOL    HW216188   2.508   2.760   3.691 -0.3539 -0.3727 -0.4353
 1518SOL     OW16189   4.108   2.135  11.836 -0.3110 -0.2721 -0.5292
 1518SOL    HW116190   4.179   2.094  11.884 -1.1656 -1.0748  0.0524
 1518SOL    HW216191   4.154   2.183  11.767  0.3568  0.5040  0.4701
 1519SOL     OW16192   3.271   2.894  15.675  0.1107  0.0803 -0.0820
 1519SOL    HW116193   3.244   2.829  15.611 -1.5321  0.3548  0.3351
 1519SOL    HW216194   3.189   2.904  15.724  0.7372  0.8556  0.8156
 1520SOL     OW16195   4.238   0.290   3.617 -0.6725 -0.3180  0.1929
 1520SOL    HW116196   4.162   0.246   3.579 -0.1897 -0.6549 -0.3910
 1520SOL    HW216197   4.180   0.351   3.663  0.6430  2.2914 -1.6322
 1521SOL     OW16198   3.345   1.085   6.815  0.0542 -0.4269 -0.2424
 1521SOL    HW116199   3.406   1.159   6.812  2.1815 -2.2014 -0.7187
 1521SOL    HW216200   3.411   1.016   6.823 -1.0083 -1.5036 -0.7588
 1522SOL     OW16201   1.347   3.646   8.700  0.2186 -0.2472  0.2262
 1522SOL    HW116202   1.345   3.703   8.777 -1.5618 -0.3658  0.2668
 1522SOL    HW216203   1.397   3.700   8.639  1.0969  0.5596  1.6465
 1523SOL     OW16204   3.499   2.694  15.715  0.3397 -0.4422 -0.2172
 1523SOL    HW116205   3.414   2.734  15.697  0.9024  0.2931 -1.2870
 1523SOL    HW216206   3.491   2.627  15.648 -0.5912  1.0066 -1.5484
 1524SOL     OW16207   2.203   3.494   0.943 -0.2708 -0.0045 -0.2220
 1524SOL    HW116208   2.180   3.424   1.004  2.7601  0.1333  1.1178
 1524SOL    HW216209   2.127   3.493   0.886  0.9559  0.2321 -1.8595
 1525SOL     OW16210   0.795   2.256   7.339 -0.1319  0.1160  0.5342
 1525SOL    HW116211   0.768   2.348   7.343 -2.4404 -0.5297 -0.2643
 1525SOL    HW216212   0.717   2.206   7.316  0.0780  0.4211 -0.8447
 1526SOL     OW16213   2.332   4.235   6.983 -0.7531 -0.8134  0.4836
 1526SOL    HW116214   2.267   4.291   7.024 -0.2702  0.7078 -0.8012
 1526SOL    HW216215   2.275   4.187   6.922  0.3960  0.1049 -1.3151
 1527SOL     OW16216   3.209   0.475   2.829 -0.5936 -0.2825 -0.1144
 1527SOL    HW116217   3.127   0.524   2.838 -0.9689 -1.0305  0.4549
 1527SOL    HW216218   3.230   0.464   2.922 -0.5816  1.1225  0.0515
 1528SOL     OW16219   4.126   0.049   0.185  0.0684  0.1854 -0.0464
 1528SOL    HW116220   4.208   0.027   0.230  0.2742  1.0955  0.0218
 1528SOL    HW216221   4.153   0.098   0.107  0.2398 -1.3707 -0.9710
 1529SOL     OW16222   3.413   3.128   5.251 -0.4318  0.6875  0.3337
 1529SOL    HW116223   3.329   3.134   5.208 -0.1782 -1.9897 -0.5164
 1529SOL    HW216224   3.417   3.211   5.299 -0.0664  0.9040 -0.0687
 1530SOL     OW16225   4.547   4.460   7.566  0.5115  0.1187 -0.0935
 1530SOL    HW116226   4.485   4.464   7.639  1.8620 -0.1154  1.0476
 1530SOL    HW216227   4.619   4.511   7.602  1.5705 -0.2715 -1.6646
 1531SOL     OW16228   3.673   2.945   8.284 -0.1115 -1.0302 -0.2298
 1531SOL    HW116229   3.681   2.919   8.376 -0.7596 -2.2149 -0.5139
 1531SOL    HW216230   3.766   2.956   8.264 -0.3527 -0.1206 -0.8591
 1532SOL     OW16231   2.211   3.236  17.541 -0.7797 -0.3996 -0.8363
 1532SOL    HW116232   2.157   3.189  17.478  1.7008 -3.3542 -0.7118
 1532SOL    HW216233   2.210   3.327  17.513  2.6436  0.5596  2.1319
 1533SOL     OW16234   4.395   2.774  12.025 -0.0537 -0.4205  0.0034
 1533SOL    HW116235   4.434   2.709  11.967  1.7087  2.8440 -2.4483
 1533SOL    HW216236   4.440   2.847  11.983  0.3150  0.0139  1.1314
 1534SOL     OW16237   0.442   2.062   3.895  0.0036  0.3426  0.3774
 1534SOL    HW116238   0.535   2.073   3.880 -0.2673  2.2743  0.1180
 1534SOL    HW216239   0.444   1.967   3.905 -0.3290  0.2336 -0.5713
 1535SOL     OW16240   1.532   3.591   2.654 -0.0509 -0.0387  0.7181
 1535SOL    HW116241   1.525   3.656   2.584  2.1143  0.4046  0.9439
 1535SOL    HW216242   1.456   3.611   2.709 -0.4738  0.2485  0.0342
 1536SOL     OW16243   2.090   3.842   4.263  0.2147  0.1920  0.3229
 1536SOL    HW116244   2.131   3.844   4.350  2.6053 -0.1409 -0.8208
 1536SOL    HW216245   2.006   3.887   4.274  0.0881  0.0775 -0.1977
 1537SOL     OW16246   1.330   2.008   3.242 -0.1319  0.3121  0.3156
 1537SOL    HW116247   1.301   2.090   3.282  0.0888 -0.3751  1.8668
 1537SOL    HW216248   1.356   2.042   3.156  1.0369 -1.4133 -0.0013
 1538SOL     OW16249   2.174   4.610   6.182 -0.0056  0.1186  0.5469
 1538SOL    HW116250   2.184   4.524   6.221  1.8274  0.5217  0.9264
 1538SOL    HW216251   2.259   4.637   6.147 -0.0036  1.4545  1.5679
 1539SOL     OW16252   3.006   0.064  10.328  0.0830 -0.3470  0.1725
 1539SOL    HW116253   2.949   4.730  10.325 -0.8005  0.2379  1.8929
 1539SOL    HW216254   2.943   0.134  10.314  0.3409 -0.0505  0.4784
 1540SOL     OW16255   1.056   3.168   2.927  0.7308  0.0657  0.4764
 1540SOL    HW116256   1.045   3.243   2.986  0.3439  0.2511  0.1656
 1540SOL    HW216257   1.121   3.113   2.970  1.2212  0.9270  0.8350
 1541SOL     OW16258   1.447   2.569   3.352 -0.1510 -0.1471  0.0377
 1541SOL    HW116259   1.528   2.526   3.323  0.3595  0.9677 -0.2256
 1541SOL    HW216260   1.419   2.508   3.419 -0.2583  2.6178  2.5147
 1542SOL     OW16261   2.746   0.451  12.319  0.9023  0.1991 -0.1544
 1542SOL    HW116262   2.678   0.385  12.321  0.1584  0.8565 -3.4026
 1542SOL    HW216263   2.707   0.521  12.267  0.1935  0.8672  1.2832
 1543SOL     OW16264   1.914   3.962   8.751 -0.2027  0.2701  0.4052
 1543SOL    HW116265   1.952   4.029   8.807 -3.6304  0.9557  1.9245
 1543SOL    HW216266   1.972   3.891   8.778 -0.9869  0.0901  1.5761
 1544SOL     OW16267   1.673   3.885   5.539  0.7757  0.6362  0.0753
 1544SOL    HW116268   1.708   3.880   5.450 -1.5390  1.1681 -0.8668
 1544SOL    HW216269   1.651   3.977   5.555 -0.5432 -0.1720  2.7673
 1545SOL     OW16270   3.357   1.566   6.829 -0.8928 -0.7365  0.3092
 1545SOL    HW116271   3.280   1.553   6.773  0.5184 -1.5468 -1.4450
 1545SOL    HW216272   3.325   1.629   6.894  2.0508  1.2507 -0.2067
 1546SOL     OW16273   4.036   1.227   4.946 -0.1065 -0.0928 -0.1188
 1546SOL    HW116274   3.980   1.158   4.980  1.4490 -2.1381 -1.6637
 1546SOL    HW216275   4.125   1.193   4.957  0.7743  2.6469  1.3100
 1547SOL     OW16276   0.305   1.645  17.167 -0.2237 -0.5306 -0.4763
 1547SOL    HW116277   0.339   1.654  17.256 -1.5079 -0.2118 -0.0150
 1547SOL    HW216278   0.273   1.731  17.141  1.1168 -0.0881 -0.6538
 1548SOL     OW16279   3.939   1.346   9.648 -0.2409  0.4284 -0.3289
 1548SOL    HW116280   3.954   1.259   9.687  1.5221 -0.3351 -2.7017
 1548SOL    HW216281   3.851   1.360   9.681  0.4306 -1.9100  2.4671
 1549SOL     OW16282   2.231   0.563   6.114  0.2195 -0.1682  0.1186
 1549SOL    HW116283   2.216   0.563   6.209  1.0300 -2.5014  0.2612
 1549SOL    HW216284   2.231   0.657   6.098 -0.3074  0.3579  3.1440
 1550SOL     OW16285   4.260   3.351   7.467  0.2669  0.3239 -0.6804
 1550SOL    HW116286   4.191   3.305   7.515  0.5950  1.4756  0.9023
 1550SOL    HW216287   4.240   3.323   7.377 -1.1575  3.8468 -1.4615
 1551SOL     OW16288   1.533   4.391  17.264 -0.2348  0.3838 -0.1431
 1551SOL    HW116289   1.512   4.427  17.178  1.6079  1.8787  0.0214
 1551SOL    HW216290   1.542   4.472  17.315 -0.5769 -1.2241  2.4907
 1552SOL     OW16291   0.431   2.691  13.257 -0.0102  0.2521 -0.1322
 1552SOL    HW116292   0.420   2.669  13.350 -0.3136 -2.2623 -0.7525
 1552SOL    HW216293   0.520   2.667  13.231  0.8945  1.0346  2.2636
 1553SOL     OW16294   4.665   3.329   1.863 -0.5654  0.4640  0.4960
 1553SOL    HW116295   4.576   3.297   1.879 -1.2989  1.8290 -0.7925
 1553SOL    HW216296   4.684   3.286   1.780 -1.0799  0.5288  0.3450
 1554SOL     OW16297   3.480   4.348   2.035 -0.0185  0.2587 -0.1161
 1554SOL    HW116298   3.454   4.276   2.094  0.2016 -0.4450 -0.8756
 1554SOL    HW216299   3.394   4.379   2.005 -1.4095 -1.2796  2.2637
 1555SOL     OW16300   3.854   4.414   1.838  0.4303  0.3902 -0.3508
 1555SOL    HW116301   3.865   4.369   1.755 -1.4822  1.8773 -1.4024
 1555SOL    HW216302   3.942   4.444   1.862  0.6597  0.5279 -1.3994
 1556SOL     OW16303   1.400   0.757   7.181 -0.0955 -0.4618 -0.7257
 1556SOL    HW116304   1.402   0.701   7.259  0.1812  0.8485  0.2071
 1556SOL    HW216305   1.409   0.843   7.222  1.8808 -1.9363  1.9107
 1557SOL     OW16306   3.151   0.633   4.138 -0.3321  0.7417  0.0364
 1557SOL    HW116307   3.130   0.715   4.183 -0.4634  0.4461  0.5159
 1557SOL    HW216308   3.077   0.584   4.173  0.0498 -1.1206 -1.7781
 1558SOL     OW16309   1.108   4.191   8.733 -0.1011 -0.3327 -0.3074
 1558SOL    HW116310   1.179   4.254   8.722  0.9005 -1.6766 -1.4814
 1558SOL    HW216311   1.148   4.108   8.708 -0.1105  0.1919 -2.0682
 1559SOL     OW16312   0.932   0.859   3.785 -0.7410 -0.6754  0.2091
 1559SOL    HW116313   0.901   0.798   3.718 -1.3146 -0.9089  0.6844
 1559SOL    HW216314   0.993   0.810   3.840 -0.3868 -0.2467  0.1915
 1560SOL     OW16315   4.197   3.487  13.455 -0.1811 -0.1503 -1.1212
 1560SOL    HW116316   4.151   3.496  13.538  0.1176  3.2745 -1.3038
 1560SOL    HW216317   4.128   3.492  13.389  0.2801  1.2140 -1.4999
 1561SOL     OW16318   4.653   3.247   8.211 -0.3375 -0.6327 -0.5234
 1561SOL    HW116319   4.676   3.206   8.295  3.0239  1.3290 -0.4456
 1561SOL    HW216320   4.564   3.216   8.198 -0.7535  0.9801 -1.5591
 1562SOL     OW16321   2.210   2.834   8.906 -0.2649  0.0171 -0.4004
 1562SOL    HW116322   2.286   2.884   8.877  0.2186 -0.7470 -0.4478
 1562SOL    HW216323   2.143   2.897   8.882  0.0899  0.4919 -0.1412
 1563SOL     OW16324   2.237   4.358   1.650 -0.1978 -0.2680  0.4603
 1563SOL    HW116325   2.177   4.328   1.718 -0.4872  1.7995  1.1143
 1563SOL    HW216326   2.178   4.396   1.585  0.1631  0.9102  0.8394
 1564SOL     OW16327   4.146   1.917   5.652  0.2902  0.1724  0.4521
 1564SOL    HW116328   4.134   1.880   5.740 -3.2097  0.3858  0.0506
 1564SOL    HW216329   4.104   1.854   5.593  0.2215  0.4916  0.1652
 1565SOL     OW16330   1.263   4.068  14.663  0.2514 -0.4519  0.2149
 1565SOL    HW116331   1.319   4.107  14.597 -0.7260 -0.3993 -0.5901
 1565SOL    HW216332   1.182   4.101  14.623  1.1278 -1.0298 -2.0044
 1566SOL     OW16333   1.893   1.305  12.730 -0.0505 -0.7647 -0.1984
 1566SOL    HW116334   1.902   1.395  12.763  1.1763 -0.0055 -2.6275
 1566SOL    HW216335   1.840   1.315  12.651  1.7504  3.0517 -0.9655
 1567SOL     OW16336   4.680   3.629   4.452  0.2332 -0.1604 -0.2266
 1567SOL    HW116337   0.006   3.685   4.491 -1.2652  1.4585  0.0931
 1567SOL    HW216338   4.611   3.668   4.507  0.2181 -0.3418 -0.1172
 1568SOL     OW16339   2.116   4.693  15.878  0.1221  0.2692 -0.1160
 1568SOL    HW116340   2.145   0.041  15.883 -0.1749  0.2556  1.8476
 1568SOL    HW216341   2.194   4.656  15.837  1.1515  0.7903  1.3655
 1569SOL     OW16342   1.560   0.733   1.118 -0.2410 -0.1370 -0.4504
 1569SOL    HW116343   1.644   0.780   1.119  0.0238 -0.6194  0.1826
 1569SOL    HW216344   1.593   0.643   1.123 -0.6563 -0.3658 -2.0050
 1570SOL     OW16345   3.121   3.550  15.119  0.1956  0.3990  0.2071
 1570SOL    HW116346   3.193   3.613  15.131  0.0915  0.6672 -0.5641
 1570SOL    HW216347   3.106   3.537  15.025  0.9215  1.9547 -0.1345
 1571SOL     OW16348   4.160   1.413   6.480  0.5046 -0.6422 -0.2626
 1571SOL    HW116349   4.134   1.326   6.449  0.4577 -0.6219 -0.2817
 1571SOL    HW216350   4.080   1.461   6.502  1.3998  0.7963 -0.1427
 1572SOL     OW16351   2.103   4.041   7.151  0.2291 -0.0756 -0.2485
 1572SOL    HW116352   2.086   4.125   7.110 -1.6440  0.2073  1.1330
 1572SOL    HW216353   2.181   4.055   7.205 -1.3342 -1.7106  2.4316
 1573SOL     OW16354   1.971   1.592  13.765 -0.7840  0.1756  0.2214
 1573SOL    HW116355   1.889   1.633  13.791 -0.2017  1.3480  0.2467
 1573SOL    HW216356   2.032   1.617  13.835 -1.8758  0.7091  0.9914
 1574SOL     OW16357   1.676   2.933  12.643 -0.3803  0.5460 -0.1106
 1574SOL    HW116358   1.696   2.848  12.603 -1.5522  0.6962 -1.0232
 1574SOL    HW216359   1.700   2.920  12.735  0.1736 -0.0393 -0.3369
 1575SOL     OW16360   4.558   3.229   4.933  0.6540 -0.7560 -0.3379
 1575SOL    HW116361   4.587   3.143   4.903 -1.3420 -1.3585 -0.5796
 1575SOL    HW216362   4.480   3.237   4.877  0.8457 -1.3532 -0.6851
 1576SOL     OW16363   4.621   4.218   6.565  0.2741  0.1122 -0.1381
 1576SOL    HW116364   4.645   4.153   6.630  0.1720  0.6695  0.4589
 1576SOL    HW216365   4.550   4.274   6.597  0.0896  0.1418 -0.6020
 1577SOL     OW16366   2.438   3.939  14.313  0.5984  0.2866 -0.0789
 1577SOL    HW116367   2.396   4.018  14.347 -1.1480 -0.4799 -0.4434
 1577SOL    HW216368   2.476   3.900  14.392 -2.7850 -1.1842  0.8303
 1578SOL     OW16369   1.120   1.997   1.782 -0.3686  0.3368 -0.2131
 1578SOL    HW116370   1.056   2.067   1.794  0.4717  1.3425 -1.6243
 1578SOL    HW216371   1.093   1.931   1.845 -1.2214  1.4394  0.5691
 1579SOL     OW16372   3.957   2.682   3.632  1.1301 -1.0984 -0.3665
 1579SOL    HW116373   3.875   2.703   3.588  0.2242 -1.1841  1.2674
 1579SOL    HW216374   3.963   2.590   3.606 -1.3336 -0.5454 -2.8982
 1580SOL     OW16375   2.087   3.373   1.707 -0.4787 -0.1945  0.2423
 1580SOL    HW116376   2.099   3.318   1.629 -0.9139 -0.4727  0.3677
 1580SOL    HW216377   2.010   3.333   1.747 -1.7024 -1.1601 -3.1144
 1581SOL     OW16378   4.045   2.280  12.256 -0.3848  0.1886 -0.3819
 1581SOL    HW116379   4.005   2.285  12.168  0.7075 -3.1718 -1.0630
 1581SOL    HW216380   3.968   2.251  12.305  0.4943  0.2688  1.0128
 1582SOL     OW16381   3.331   4.270   4.694 -0.5467  0.5600 -0.4534
 1582SOL    HW116382   3.372   4.185   4.677 -0.9119  0.3284 -0.1848
 1582SOL    HW216383   3.254   4.264   4.638 -0.3866  0.4438 -0.6629
 1583SOL     OW16384   1.128   2.653   7.567  0.6224 -0.0050 -0.0772
 1583SOL    HW116385   1.144   2.581   7.507  2.2481 -0.0333  0.3939
 1583SOL    HW216386   1.083   2.714   7.508  1.0134  1.1160  0.7783
 1584SOL     OW16387   0.037   3.920  11.883 -0.5631 -0.3382  0.4650
 1584SOL    HW116388   0.050   3.828  11.904 -0.1411 -0.0776  1.3762
 1584SOL    HW216389   4.707   3.949  11.939 -0.4574  2.0968 -0.6472
 1585SOL     OW16390   4.455   4.409  16.619  0.4184  0.4959  0.0711
 1585SOL    HW116391   4.439   4.428  16.526 -1.9365 -1.1697  0.1362
 1585SOL    HW216392   4.436   4.315  16.617 -3.5217  1.3323 -1.6439
 1586SOL     OW16393   1.490   0.121   3.911  0.8969  0.1513  0.0201
 1586SOL    HW116394   1.502   0.123   3.816 -1.3175 -0.3882 -0.2867
 1586SOL    HW216395   1.482   0.214   3.932 -0.5135  0.0796 -0.1467
 1587SOL     OW16396   0.924   1.699   3.044  0.2703  0.0940 -0.1162
 1587SOL    HW116397   0.925   1.607   3.016  4.2797 -0.2375  1.0331
 1587SOL    HW216398   0.887   1.742   2.967  0.1286  0.4982  0.1802
 1588SOL     OW16399   1.182   3.204  13.100 -0.0856  0.1183  0.3879
 1588SOL    HW116400   1.101   3.216  13.050  1.3055 -2.0075 -2.4013
 1588SOL    HW216401   1.145   3.196  13.188 -0.8990  1.1723  0.1457
 1589SOL     OW16402   2.152   2.069   8.503 -0.1974  0.4401  0.1750
 1589SOL    HW116403   2.229   2.122   8.480 -0.4611  1.2303  1.1193
 1589SOL    HW216404   2.107   2.081   8.420 -1.8413 -0.2108  0.9731
 1590SOL     OW16405   0.704   0.030  17.615  0.3945 -0.4494  0.4324
 1590SOL    HW116406   0.659   0.092  17.673 -0.4647 -0.9499  0.3012
 1590SOL    HW216407   0.630   4.713  17.603  1.3762 -1.1861 -1.8889
 1591SOL     OW16408   2.125   2.255   7.757 -0.2340  0.3710  0.3419
 1591SOL    HW116409   2.121   2.350   7.747  1.0458  0.3688 -0.1394
 1591SOL    HW216410   2.035   2.220   7.752 -0.0526 -0.1178  0.4289
 1592SOL     OW16411   1.743   1.197   6.055 -0.5208 -0.0816  0.5649
 1592SOL    HW116412   1.667   1.234   6.010 -0.8329 -0.0419  1.1199
 1592SOL    HW216413   1.708   1.117   6.095 -0.6376  0.4577  1.5246
 1593SOL     OW16414   0.906   0.237   1.971  0.5081 -0.0255 -0.2026
 1593SOL    HW116415   0.864   0.159   2.009 -1.0952  0.2835 -1.3583
 1593SOL    HW216416   0.849   0.263   1.898 -0.0721 -1.6925 -0.3403
 1594SOL     OW16417   4.163   0.480   2.576  0.2254 -0.0125  0.1414
 1594SOL    HW116418   4.070   0.467   2.554  0.0988  0.8081  0.1920
 1594SOL    HW216419   4.219   0.410   2.543  0.1619 -1.1077  2.3067
 1595SOL     OW16420   1.517   3.735   3.956  0.2829 -0.2485 -0.1207
 1595SOL    HW116421   1.599   3.702   3.918  0.6314 -0.3998  0.7555
 1595SOL    HW216422   1.536   3.813   4.008  0.3705  0.6293 -1.4543
 1596SOL     OW16423   1.413   0.257   1.874 -0.4051  0.4207  0.2642
 1596SOL    HW116424   1.447   0.333   1.826 -0.3043  1.1371  1.4493
 1596SOL    HW216425   1.325   0.245   1.838  0.1970  0.0228 -1.0500
 1597SOL     OW16426   1.463   3.896   7.057  0.4285  0.4179 -0.0719
 1597SOL    HW116427   1.442   3.899   7.150  5.2975  1.2068  0.9957
 1597SOL    HW216428   1.389   3.945   7.022  2.8447  2.6080 -2.1373
 1598SOL     OW16429   1.916   2.523   6.221  0.4714 -0.4826  0.0467
 1598SOL    HW116430   1.828   2.500   6.192  0.5062 -1.2802  0.5815
 1598SOL    HW216431   1.972   2.490   6.151  0.3832 -1.7924  0.6083
 1599SOL     OW16432   3.200   4.079   4.188  0.7609  0.1605 -0.0226
 1599SOL    HW116433   3.114   4.119   4.174  1.2123  0.4562 -1.8498
 1599SOL    HW216434   3.213   4.031   4.106  2.1028  0.8048 -0.1838
 1600SOL     OW16435   1.184   1.728   8.595  0.4152 -0.0803  0.0953
 1600SOL    HW116436   1.089   1.735   8.590  0.4301  0.3997  0.4584
 1600SOL    HW216437   1.220   1.812   8.566  0.4919 -0.6863 -1.5100
 1601SOL     OW16438   2.328   0.212   6.922 -0.0953  0.0406 -0.2439
 1601SOL    HW116439   2.407   0.234   6.971  0.4446  1.6121 -1.8326
 1601SOL    HW216440   2.306   0.301   6.896  0.0664  0.9262  2.6710
 1602SOL     OW16441   3.900   2.859   4.073 -0.0051  0.2607 -0.3295
 1602SOL    HW116442   3.939   2.932   4.025  2.3787  0.8045  2.4261
 1602SOL    HW216443   3.980   2.806   4.075  0.6410  1.1124 -3.2245
 1603SOL     OW16444   0.611   0.893   5.779 -0.2847  0.1779 -0.0189
 1603SOL    HW116445   0.629   0.820   5.720 -0.1698  1.7436 -1.9401
 1603SOL    HW216446   0.529   0.861   5.818  0.2174 -0.5844  0.3959
 1604SOL     OW16447   0.246   3.716   6.178  0.2670  0.1580  0.6405
 1604SOL    HW116448   0.170   3.707   6.235 -1.4605  0.4548 -1.5904
 1604SOL    HW216449   0.194   3.715   6.097  0.1319  0.2048  0.7271
 1605SOL     OW16450   2.438   0.773  13.939 -0.0912  0.2940  0.7199
 1605SOL    HW116451   2.366   0.817  13.985 -0.9834 -1.4023  0.9553
 1605SOL    HW216452   2.402   0.771  13.850  0.6947 -1.9602  0.4749
 1606SOL     OW16453   3.364   2.173  14.552  0.8788  0.0424 -0.3906
 1606SOL    HW116454   3.363   2.131  14.638 -0.1779  0.1955 -0.3328
 1606SOL    HW216455   3.457   2.194  14.542  1.4901 -2.0890  0.8270
 1607SOL     OW16456   1.471   2.537  16.066  0.0135 -0.2841  0.2883
 1607SOL    HW116457   1.382   2.551  16.096  0.0144  0.2631  0.0375
 1607SOL    HW216458   1.443   2.536  15.974 -0.7312  2.3305  0.4826
 1608SOL     OW16459   4.610   4.465   3.087  0.2941  0.2916  0.4060
 1608SOL    HW116460   4.703   4.474   3.108 -0.2424  1.6559  2.2408
 1608SOL    HW216461   4.586   4.555   3.063  0.3170 -0.1820 -1.3988
 1609SOL     OW16462   3.000   2.281   8.993 -0.4076  0.0717  0.7771
 1609SOL    HW116463   2.964   2.192   8.995  0.7278 -0.4396 -1.3079
 1609SOL    HW216464   3.055   2.284   9.071  1.0854  1.1647 -0.3308
 1610SOL     OW16465   2.914   2.613   7.322  0.0175  0.2010 -0.4236
 1610SOL    HW116466   2.926   2.536   7.266 -1.8254 -1.6815  1.7886
 1610SOL    HW216467   2.820   2.611   7.342  0.3477  1.9936  1.1966
 1611SOL     OW16468   2.674   3.930   1.605 -0.1402  0.5331 -0.1652
 1611SOL    HW116469   2.651   3.893   1.520  2.2660  1.1374 -1.0750
 1611SOL    HW216470   2.758   3.971   1.584 -0.3653  0.1143 -1.8762
 1612SOL     OW16471   1.376   0.488   1.407 -0.2434 -0.0978 -0.5708
 1612SOL    HW116472   1.472   0.487   1.407 -0.2469  0.6096 -2.1701
 1612SOL    HW216473   1.355   0.582   1.413  0.6411  0.0781 -0.0945
 1613SOL     OW16474   3.591   4.545  17.508  0.4358 -0.2202  0.4291
 1613SOL    HW116475   3.607   4.480  17.576  3.2955  1.9329  1.8016
 1613SOL    HW216476   3.574   4.623  17.561 -1.4499  0.0053 -0.4898
 1614SOL     OW16477   4.706   1.435   3.614 -0.5004  0.4700  0.3057
 1614SOL    HW116478   4.647   1.507   3.637  1.7333  3.2843 -2.6427
 1614SOL    HW216479   0.041   1.469   3.657  0.1522 -1.5992  0.7542
 1615SOL     OW16480   2.388   1.964   2.426 -0.3163  0.3507 -0.3859
 1615SOL    HW116481   2.340   1.908   2.365  1.2391  1.6591 -2.8011
 1615SOL    HW216482   2.418   1.907   2.497  2.1536  1.4007 -0.5745
 1616SOL     OW16483   0.977   2.163   4.818  0.0963 -0.4720  0.4496
 1616SOL    HW116484   0.906   2.114   4.776 -0.7036  1.9218 -0.9756
 1616SOL    HW216485   0.958   2.243   4.769  0.9059 -0.2244  0.5473
 1617SOL     OW16486   2.138   2.464   1.270 -0.4983  0.2857 -0.1169
 1617SOL    HW116487   2.177   2.519   1.337  0.1392  0.4029 -0.5861
 1617SOL    HW216488   2.183   2.385   1.299 -1.3497 -0.1914 -0.0903
 1618SOL     OW16489   0.521   2.806   8.237  0.7835  0.1128  0.0336
 1618SOL    HW116490   0.445   2.777   8.287 -0.1082 -0.5469 -1.6942
 1618SOL    HW216491   0.515   2.902   8.243 -1.1884 -0.1257  1.7847
 1619SOL     OW16492   3.964   2.225  15.006 -0.1080 -0.1866 -0.0099
 1619SOL    HW116493   4.015   2.304  15.024  1.4652 -1.3300  0.6408
 1619SOL    HW216494   4.035   2.163  14.987 -0.8891 -1.4177  1.0345
 1620SOL     OW16495   2.260   2.194  15.264 -0.3662 -0.1730  0.4062
 1620SOL    HW116496   2.235   2.103  15.251  2.6118 -1.3388  2.7372
 1620SOL    HW216497   2.180   2.242  15.242  0.5476  1.2309  0.1127
 1621SOL     OW16498   3.850   4.125   5.577 -0.1978 -0.1309 -0.6075
 1621SOL    HW116499   3.837   4.220   5.583 -1.8368 -0.4917  1.5084
 1621SOL    HW216500   3.944   4.115   5.560 -0.5312 -1.6647 -1.4986
 1622SOL     OW16501   4.503   2.962  11.167  0.0637  0.3949  0.1420
 1622SOL    HW116502   4.453   2.960  11.085  0.6485  0.4782 -0.2206
 1622SOL    HW216503   4.448   2.908  11.223 -1.2181 -1.1124 -2.5717
 1623SOL     OW16504   4.463   1.572  10.568 -0.3594  0.2965 -0.0868
 1623SOL    HW116505   4.398   1.538  10.629 -0.5135  0.0364 -0.3959
 1623SOL    HW216506   4.432   1.521  10.493  1.5596 -0.0218 -0.6822
 1624SOL     OW16507   4.344   3.930   0.749 -0.4559 -0.1063  0.1649
 1624SOL    HW116508   4.424   3.922   0.697 -0.6707  0.1416 -0.2025
 1624SOL    HW216509   4.362   3.880   0.828  1.7617  1.6382  0.8031
 1625SOL     OW16510   3.652   1.825   8.238 -0.3018  0.1125 -0.0805
 1625SOL    HW116511   3.602   1.829   8.156 -0.6817 -0.2385  0.1321
 1625SOL    HW216512   3.612   1.897   8.288  1.8197  1.3583 -0.2030
 1626SOL     OW16513   1.051   2.152   2.907  0.0926 -0.0454 -0.0529
 1626SOL    HW116514   0.999   2.211   2.962  1.1507  1.3034 -0.4761
 1626SOL    HW216515   0.991   2.089   2.868 -0.2987  0.6993 -0.6625
 1627SOL     OW16516   4.604   0.579   9.240  0.6604  0.0446  0.3432
 1627SOL    HW116517   4.544   0.567   9.166  2.3355  2.0393 -1.3429
 1627SOL    HW216518   4.594   0.672   9.261 -1.4042 -0.0498 -0.1470
 1628SOL     OW16519   0.751   3.533   2.221 -0.6533 -1.1704  0.4558
 1628SOL    HW116520   0.819   3.536   2.154  1.6750  1.5813  2.9626
 1628SOL    HW216521   0.679   3.578   2.177  0.6786 -0.3822 -0.9065
 1629SOL     OW16522   1.361   2.518   3.981 -0.3353 -0.0806 -0.1359
 1629SOL    HW116523   1.357   2.425   3.958 -1.5753 -0.1252  0.2560
 1629SOL    HW216524   1.380   2.555   3.894 -2.7581  2.5109  0.4531
 1630SOL     OW16525   2.581   3.661   8.657  0.7151 -0.8817 -0.0853
 1630SOL    HW116526   2.675   3.678   8.666  0.7240 -0.5992 -0.7289
 1630SOL    HW216527   2.558   3.595   8.723  0.5298 -0.2735  0.4566
 1631SOL     OW16528   0.051   4.015   7.754  0.1576  0.4375 -0.2671
 1631SOL    HW116529   0.015   4.090   7.706  1.8477  2.0992  1.0612
 1631SOL    HW216530   0.102   3.970   7.686 -0.1305 -0.0701 -0.1478
 1632SOL     OW16531   1.556   1.598   4.482 -0.0564  0.1942 -0.0351
 1632SOL    HW116532   1.491   1.668   4.474  1.4234  1.5832 -0.0189
 1632SOL    HW216533   1.559   1.544   4.403 -3.1248  0.7786 -0.5622
 1633SOL     OW16534   1.857   2.572  12.787  0.4044  0.2010 -0.2763
 1633SOL    HW116535   1.915   2.522  12.730  2.6456  0.8696  1.4178
 1633SOL    HW216536   1.907   2.653  12.802 -0.3929  0.9807 -1.7862
 1634SOL     OW16537   4.301   1.267   8.409  0.4272  0.1561  0.0911
 1634SOL    HW116538   4.394   1.285   8.419  0.4742 -0.0461  0.0295
 1634SOL    HW216539   4.281   1.227   8.495 -1.6273 -1.0727 -0.9396
 1635SOL     OW16540   1.084   4.652   3.554  0.0499  0.7177  0.0235
 1635SOL    HW116541   1.093   4.567   3.598  0.9211  0.2611 -1.0357
 1635SOL    HW216542   1.172   4.664   3.518  0.6786  0.8920  1.6016
 1636SOL     OW16543   0.170   2.789  10.104 -0.1549 -0.4159  0.4812
 1636SOL    HW116544   0.127   2.740  10.173 -1.8031  0.5924  0.1629
 1636SOL    HW216545   0.232   2.843  10.154  1.9044 -2.8499  0.5671
 1637SOL     OW16546   2.806   1.079   9.722  0.3828  0.2965 -0.4429
 1637SOL    HW116547   2.877   1.078   9.787 -0.8689  2.6898  0.9589
 1637SOL    HW216548   2.735   1.044   9.775  0.8645  1.7660  1.1807
 1638SOL     OW16549   1.071   3.813   8.940  0.0963 -0.1637 -0.4222
 1638SOL    HW116550   1.017   3.735   8.954  0.4823 -0.1058  1.4971
 1638SOL    HW216551   1.013   3.866   8.887  0.0804 -0.0895 -0.3306
 1639SOL     OW16552   3.776   1.461   4.137 -0.3705 -0.4282 -0.4541
 1639SOL    HW116553   3.860   1.501   4.115  0.8504 -2.0365  1.2897
 1639SOL    HW216554   3.740   1.545   4.166  1.4342  0.2675 -0.2439
 1640SOL     OW16555   2.447   0.679  17.661  0.0753  0.1789  0.0002
 1640SOL    HW116556   2.488   0.623  17.595 -0.6110 -0.2060 -0.1082
 1640SOL    HW216557   2.375   0.720  17.613 -1.4168 -1.0570  1.1845
 1641SOL     OW16558   0.067   3.959   4.900 -0.0205  0.1014  0.0087
 1641SOL    HW116559   4.720   3.986   4.918  0.0628 -0.8809  1.8279
 1641SOL    HW216560   0.086   3.930   4.989  1.0882  1.2363  0.1549
 1642SOL     OW16561   3.195   1.501   2.126 -0.2537  0.1683  0.1219
 1642SOL    HW116562   3.287   1.475   2.127 -0.6119 -1.1146  0.7544
 1642SOL    HW216563   3.165   1.451   2.202  0.6665 -2.1972 -1.0764
 1643SOL     OW16564   1.881   0.637   6.754  0.0867 -0.0706 -0.1568
 1643SOL    HW116565   1.792   0.613   6.728  0.1143  1.6666 -1.8090
 1643SOL    HW216566   1.921   0.692   6.687  1.1451 -3.0372 -1.9669
 1644SOL     OW16567   3.895   2.336   6.116 -0.2023 -0.3488 -0.1159
 1644SOL    HW116568   3.938   2.260   6.157 -1.3644 -0.0357  1.6935
 1644SOL    HW216569   3.810   2.334   6.161  0.7977  1.7003  1.8222
 1645SOL     OW16570   0.281   1.901   8.273 -0.3530 -0.1608 -0.2608
 1645SOL    HW116571   0.263   1.995   8.264  0.1251 -0.0624 -0.1461
 1645SOL    HW216572   0.225   1.867   8.203 -0.0354  1.5974 -1.3716
 1646SOL     OW16573   2.695   3.992   8.785  0.2424  0.0989  0.2316
 1646SOL    HW116574   2.606   4.007   8.754 -0.4103 -0.6790  1.7291
 1646SOL    HW216575   2.761   4.042   8.737 -1.1675  1.8203  0.0851
 1647SOL     OW16576   1.504   1.484   1.302 -0.0377  0.5871 -0.5243
 1647SOL    HW116577   1.523   1.488   1.209 -0.8082 -0.2932 -0.7139
 1647SOL    HW216578   1.596   1.494   1.327 -0.4278 -1.5909  1.7764
 1648SOL     OW16579   2.469   2.566   5.204  0.5509  0.0959 -0.0485
 1648SOL    HW116580   2.524   2.627   5.253  3.6394 -1.7352 -1.2763
 1648SOL    HW216581   2.529   2.545   5.133  2.6903  1.5722  1.3507
 1649SOL     OW16582   3.714   1.315   5.069 -0.0660 -0.1007 -0.4582
 1649SOL    HW116583   3.746   1.284   5.154  1.2512 -0.4332 -1.0763
 1649SOL    HW216584   3.722   1.239   5.011 -0.8145  1.0178 -2.0198
 1650SOL     OW16585   0.603   3.604   1.420 -0.3895  0.1747  0.1583
 1650SOL    HW116586   0.688   3.637   1.449 -0.0137 -2.6786  2.3802
 1650SOL    HW216587   0.637   3.522   1.383 -0.1136  0.9807 -1.3754
 1651SOL     OW16588   2.192   3.836   8.455 -0.0162 -0.3808 -0.5384
 1651SOL    HW116589   2.225   3.843   8.545 -3.2477  1.7853  0.5155
 1651SOL    HW216590   2.099   3.817   8.465  0.3824 -1.9595  0.0825
 1652SOL     OW16591   2.261   2.023   5.346  0.7677  0.1209 -0.0530
 1652SOL    HW116592   2.310   2.049   5.268  0.8703  2.3970  0.7927
 1652SOL    HW216593   2.231   1.936   5.318  1.7535 -0.9771  2.2688
 1653SOL     OW16594   1.199   0.674   3.641 -0.6615 -0.0245 -0.0196
 1653SOL    HW116595   1.129   0.610   3.630 -0.6777 -0.1411  0.7906
 1653SOL    HW216596   1.238   0.691   3.555 -0.2978 -1.1307 -0.0679
 1654SOL     OW16597   0.052   2.371   2.437  0.0231 -0.5711 -0.6216
 1654SOL    HW116598   0.105   2.327   2.504 -1.6914 -0.4495  0.8321
 1654SOL    HW216599   0.103   2.447   2.412 -2.0746  2.2121  3.5642
 1655SOL     OW16600   2.616   0.905   6.282 -0.6333  0.2129 -0.1657
 1655SOL    HW116601   2.659   0.842   6.340  1.1943  0.7484 -0.9382
 1655SOL    HW216602   2.540   0.932   6.334 -1.0798  0.5899 -1.0171
 1656SOL     OW16603   2.792   3.685   9.736  0.6448  0.5926 -0.5073
 1656SOL    HW116604   2.882   3.715   9.750  0.8187 -0.8323  1.3574
 1656SOL    HW216605   2.786   3.625   9.810  0.2204 -1.9084 -2.5614
 1657SOL     OW16606   3.733   3.274   2.639 -0.0555  0.0812 -0.3186
 1657SOL    HW116607   3.699   3.343   2.697 -0.6066  0.3735 -0.9914
 1657SOL    HW216608   3.699   3.192   2.676  2.3893 -0.8348 -0.1215
 1658SOL     OW16609   2.069   4.335  11.293 -0.4664  0.4580  0.5223
 1658SOL    HW116610   2.129   4.276  11.338  1.8922  1.2018 -1.6333
 1658SOL    HW216611   2.128   4.379  11.232 -0.8564  0.6040  0.2500
 1659SOL     OW16612   3.659   0.437   9.017  0.0775  0.7524  0.2494
 1659SOL    HW116613   3.630   0.416   9.106 -1.6417  1.7055 -0.0865
 1659SOL    HW216614   3.666   0.353   8.971 -0.5814  0.0776  1.3702
 1660SOL     OW16615   1.260   2.483   8.923  0.2871  0.1817 -0.0967
 1660SOL    HW116616   1.307   2.543   8.981  1.1093 -1.8716  1.3859
 1660SOL    HW216617   1.302   2.495   8.838  0.7943 -0.3001  0.0854
 1661SOL     OW16618   4.713   3.110   4.572 -0.2032  0.6565  0.5642
 1661SOL    HW116619   4.701   3.079   4.482 -1.1467 -1.0237  1.2553
 1661SOL    HW216620   4.667   3.194   4.573  1.7490  1.7163  1.2595
 1662SOL     OW16621   4.374   1.754   6.719 -0.2110  0.3450  0.0647
 1662SOL    HW116622   4.390   1.689   6.650  0.4415  2.9669 -2.2152
 1662SOL    HW216623   4.296   1.797   6.686  0.7336  2.3191  0.4032
 1663SOL     OW16624   1.748   1.531   1.427 -0.1827 -0.9652  0.6714
 1663SOL    HW116625   1.759   1.625   1.443  0.7664 -1.5133  3.2260
 1663SOL    HW216626   1.782   1.500   1.511 -2.6751  0.5548  2.2948
 1664SOL     OW16627   4.363   0.732   9.481  0.1970  0.1341  0.3163
 1664SOL    HW116628   4.336   0.693   9.565 -1.1335  1.9349  0.7196
 1664SOL    HW216629   4.302   0.685   9.423  2.2038 -1.2606 -0.6489
 1665SOL     OW16630   1.502   2.877   7.773 -0.4773 -0.1407 -0.0335
 1665SOL    HW116631   1.586   2.880   7.818  0.4716  0.0813 -1.7802
 1665SOL    HW216632   1.486   2.970   7.754  0.6979 -0.4808 -2.6970
 1666SOL     OW16633   4.461   3.054  12.004  0.0147  0.1563  0.2055
 1666SOL    HW116634   4.489   3.054  12.095 -0.4404  1.2197  0.3448
 1666SOL    HW216635   4.530   3.101  11.957  1.9083 -0.3702  2.4619
 1667SOL     OW16636   1.453   1.053   5.524  0.1838  0.3519  0.2628
 1667SOL    HW116637   1.541   1.091   5.525 -0.4849  1.9945 -1.7236
 1667SOL    HW216638   1.426   1.071   5.614  0.9481 -1.3612  0.8317
 1668SOL     OW16639   3.706   1.392   2.115  0.7046  0.3373  0.3157
 1668SOL    HW116640   3.681   1.303   2.139 -1.2587  0.6461 -0.6198
 1668SOL    HW216641   3.650   1.414   2.040  2.2624 -0.1986 -1.0110
 1669SOL     OW16642   1.897   0.073   5.221  0.0773  0.0674  0.0328
 1669SOL    HW116643   1.967   0.009   5.208  0.4994  1.2236 -3.3799
 1669SOL    HW216644   1.941   0.157   5.218 -1.8548  1.0607 -0.1930
 1670SOL     OW16645   0.378   0.347   3.184 -0.0581  0.2307  0.1937
 1670SOL    HW116646   0.467   0.310   3.177  0.2314  1.0027 -0.2425
 1670SOL    HW216647   0.358   0.350   3.277 -2.3053  0.4908 -0.2954
 1671SOL     OW16648   4.722   2.219  14.219 -0.7574 -0.0050  0.1335
 1671SOL    HW116649   4.672   2.289  14.178  1.5226  2.0209  0.7997
 1671SOL    HW216650   0.066   2.248  14.190 -1.1330  1.4673  0.4659
 1672SOL     OW16651   4.712   4.624   1.801  0.8150 -0.1551  0.0901
 1672SOL    HW116652   0.058   4.592   1.818  1.4593  0.9853 -1.1894
 1672SOL    HW216653   4.716   4.717   1.819  1.2359 -0.3749  1.1317
 1673SOL     OW16654   1.289   1.457   4.472 -0.2980  0.0742  0.3726
 1673SOL    HW116655   1.247   1.499   4.547  0.4472  1.3348  0.0899
 1673SOL    HW216656   1.379   1.483   4.489 -0.1381 -0.4424  0.3000
 1674SOL     OW16657   1.018   4.571   7.284 -0.2024 -0.6974  0.2998
 1674SOL    HW116658   1.105   4.579   7.246  0.1825 -1.5237  0.9987
 1674SOL    HW216659   0.988   4.483   7.258 -2.3226  0.1155 -0.0242
 1675SOL     OW16660   3.318   3.399   4.663  0.6812  0.1102 -0.5884
 1675SOL    HW116661   3.235   3.364   4.632  1.1228 -2.0402  0.6679
 1675SOL    HW216662   3.337   3.341   4.737  1.3505 -0.3687 -1.1315
 1676SOL     OW16663   2.698   1.188  16.317 -0.2215 -0.8603 -0.4328
 1676SOL    HW116664   2.763   1.224  16.377 -2.5846  1.5246  0.6915
 1676SOL    HW216665   2.706   1.252  16.246 -1.8038 -0.6086 -0.3950
 1677SOL     OW16666   4.092   4.496   1.992 -0.1841 -0.0657 -0.4717
 1677SOL    HW116667   4.056   4.537   2.071  1.3634  2.6316 -1.1604
 1677SOL    HW216668   4.180   4.509   2.027 -0.0317  0.4677 -1.0479
 1678SOL     OW16669   2.345   3.509   1.591  0.2376 -0.7980  0.1794
 1678SOL    HW116670   2.274   3.507   1.655  1.4393 -1.3238  1.5037
 1678SOL    HW216671   2.291   3.522   1.513 -0.6624 -2.2937  0.5421
 1679SOL     OW16672   4.060   3.654  12.016 -0.0382  0.1357  0.0921
 1679SOL    HW116673   4.124   3.587  11.994 -0.9873 -0.0424 -2.1313
 1679SOL    HW216674   3.984   3.640  11.960 -1.0609 -0.6125  1.6599
 1680SOL     OW16675   1.382   0.906  10.949  0.2596 -0.1533 -0.1764
 1680SOL    HW116676   1.374   0.817  10.985 -0.1224  0.4082  1.1163
 1680SOL    HW216677   1.298   0.944  10.975  0.9042  1.2652 -0.1761
 1681SOL     OW16678   2.013   0.787  17.575 -0.2697 -0.0021 -0.2086
 1681SOL    HW116679   1.964   0.805  17.494  0.8743  0.5642 -0.7864
 1681SOL    HW216680   2.080   0.855  17.576 -2.7455  2.4370  0.1259
 1682SOL     OW16681   4.549   1.923   9.585  0.0453  0.2593 -0.1135
 1682SOL    HW116682   4.557   2.018   9.582 -1.2817  0.3794  0.2192
 1682SOL    HW216683   4.519   1.909   9.675  1.9063 -0.2556  0.4455
 1683SOL     OW16684   0.206   1.863   1.964 -0.2258 -0.4309 -0.0604
 1683SOL    HW116685   0.126   1.811   1.952 -1.1647  1.2163 -1.0293
 1683SOL    HW216686   0.268   1.797   1.933  0.1787 -0.9314  1.8023
 1684SOL     OW16687   2.766   3.807  10.528  0.1562 -0.2653  0.2861
 1684SOL    HW116688   2.828   3.844  10.465 -1.4558 -0.3798 -1.3603
 1684SOL    HW216689   2.729   3.737  10.475  0.9142 -1.1251  0.9142
 1685SOL     OW16690   1.630   0.149   3.651  0.1379 -0.0516  0.0293
 1685SOL    HW116691   1.546   0.196   3.639 -0.6778 -0.9659  2.2315
 1685SOL    HW216692   1.642   0.117   3.562  2.5648  0.9286  0.0076
 1686SOL     OW16693   1.436   2.586  15.775 -0.3418  0.4061  0.4290
 1686SOL    HW116694   1.505   2.639  15.736 -0.3599 -0.1402 -0.3421
 1686SOL    HW216695   1.366   2.651  15.766  1.2956  2.0940 -0.2209
 1687SOL     OW16696   0.509   3.002  16.254 -0.2260 -0.4809  0.0735
 1687SOL    HW116697   0.414   3.006  16.243  0.0502  0.6108 -1.8013
 1687SOL    HW216698   0.540   3.087  16.287 -0.0249 -1.4299  2.3777
 1688SOL     OW16699   2.001   2.396   9.896  0.2049  0.4076 -0.8962
 1688SOL    HW116700   2.089   2.371   9.867  0.6499 -1.4475  2.0342
 1688SOL    HW216701   2.023   2.462   9.961  2.0702  1.0824 -2.2171
 1689SOL     OW16702   4.224   3.986  11.364  0.2703  0.6024  0.4276
 1689SOL    HW116703   4.178   4.018  11.286  1.6067  2.0041  0.2105
 1689SOL    HW216704   4.153   3.930  11.394  0.4265 -1.7515 -3.5623
 1690SOL     OW16705   3.376   3.556   2.637  0.2446  0.1775  0.3657
 1690SOL    HW116706   3.305   3.575   2.699 -0.3515  1.3756 -0.6873
 1690SOL    HW216707   3.337   3.481   2.591  1.5323  0.5624 -1.3064
 1691SOL     OW16708   1.226   4.456   3.989  0.2923  0.1277 -0.1067
 1691SOL    HW116709   1.234   4.549   4.010  0.4178  0.6491 -2.4176
 1691SOL    HW216710   1.131   4.448   3.995  0.2148  1.7056  0.8628
 1692SOL     OW16711   0.599   1.715   6.883  0.2686  0.6111  0.5699
 1692SOL    HW116712   0.675   1.770   6.861  0.9420 -0.1967  0.8754
 1692SOL    HW216713   0.632   1.646   6.941 -1.0119  0.7131  1.4045
 1693SOL     OW16714   3.161   3.745   7.097 -0.7310 -0.9860  0.4578
 1693SOL    HW116715   3.166   3.723   7.004  2.0669 -0.9451  0.6183
 1693SOL    HW216716   3.236   3.803   7.107 -0.2687 -1.2535 -1.4240
 1694SOL     OW16717   2.863   0.494  16.886 -0.1658 -0.2849 -0.1709
 1694SOL    HW116718   2.851   0.456  16.799  0.3463 -0.0943 -0.3291
 1694SOL    HW216719   2.773   0.510  16.914 -0.3871  0.4540 -1.3149
 1695SOL     OW16720   2.464   4.098   0.982  0.5627 -0.1925  0.0412
 1695SOL    HW116721   2.464   4.014   1.028  1.5941  0.0859  0.5456
 1695SOL    HW216722   2.432   4.078   0.894 -0.9574 -1.6075  0.9265
 1696SOL     OW16723   4.006   0.337   9.252  0.3040 -0.1340 -0.1384
 1696SOL    HW116724   4.001   0.402   9.182  4.1851  0.8171  0.4657
 1696SOL    HW216725   3.918   0.308   9.278 -0.1925  2.0772  0.6707
 1697SOL     OW16726   4.584   2.591  14.686 -0.4555  0.9937  0.2151
 1697SOL    HW116727   4.662   2.640  14.712  0.9871 -0.7947 -0.7150
 1697SOL    HW216728   4.519   2.658  14.704 -2.0546 -1.5153  3.9696
 1698SOL     OW16729   3.515   4.142  16.681 -0.1451 -0.5544 -0.0401
 1698SOL    HW116730   3.420   4.134  16.672 -0.4459  1.2236  1.7248
 1698SOL    HW216731   3.531   4.130  16.774  1.8721  0.0725 -0.2984
 1699SOL     OW16732   2.858   0.831   3.040  0.4307  0.4523  0.1463
 1699SOL    HW116733   2.938   0.882   3.057  1.1907 -1.2565  1.7203
 1699SOL    HW216734   2.799   0.901   3.065 -0.7880 -0.4139 -0.3086
 1700SOL     OW16735   2.164   2.408   9.466  0.7501  0.0904 -0.2723
 1700SOL    HW116736   2.089   2.428   9.521  0.9050 -1.8322  0.6399
 1700SOL    HW216737   2.209   2.492   9.462 -1.9803  1.4144 -3.1251
 1701SOL     OW16738   3.417   1.446   4.320  0.0060 -0.7653 -0.6808
 1701SOL    HW116739   3.413   1.527   4.371  0.5966 -1.1725  0.0145
 1701SOL    HW216740   3.436   1.389   4.394 -0.9764 -0.6835 -0.3758
 1702SOL     OW16741   1.733   1.603   8.745  0.5026 -0.1540  0.0403
 1702SOL    HW116742   1.688   1.658   8.681  1.6941 -1.2820 -1.7878
 1702SOL    HW216743   1.781   1.552   8.679 -0.1741 -1.6857  0.7207
 1703SOL     OW16744   2.590   1.969  11.904 -0.1860 -0.2467  0.0761
 1703SOL    HW116745   2.544   1.907  11.846  0.7005  0.0745 -0.9684
 1703SOL    HW216746   2.616   1.908  11.973  2.4546 -0.1230 -0.8180
 1704SOL     OW16747   4.504   1.922   6.891 -0.0193  0.1668  0.2889
 1704SOL    HW116748   4.495   1.847   6.832 -0.6824  0.0376  0.5588
 1704SOL    HW216749   4.434   1.976   6.855 -0.2072 -0.8502 -0.8521
 1705SOL     OW16750   4.251   2.829   2.084 -0.2772 -0.6012  0.6556
 1705SOL    HW116751   4.206   2.860   2.005  1.9574 -2.4745 -1.3452
 1705SOL    HW216752   4.270   2.909   2.133  2.0044  0.3844 -1.8303
 1706SOL     OW16753   0.047   0.070  11.804 -0.2802  0.6730  0.1326
 1706SOL    HW116754   0.113   0.019  11.850 -1.4854  0.8790  2.0909
 1706SOL    HW216755   0.085   0.064  11.716 -0.4418 -2.1439  0.2674
 1707SOL     OW16756   2.704   2.693   1.792 -0.1493 -0.1034 -0.1168
 1707SOL    HW116757   2.671   2.741   1.868 -0.6483  0.5040 -0.7225
 1707SOL    HW216758   2.765   2.756   1.753  0.8527 -0.8590  0.2195
 1708SOL     OW16759   1.587   4.341   6.093  0.2194  0.1427  0.2819
 1708SOL    HW116760   1.614   4.253   6.118 -0.5000  0.4973  2.3636
 1708SOL    HW216761   1.583   4.384   6.179  1.5125 -1.5166  1.1650
 1709SOL     OW16762   1.171   0.710   7.010  0.0645 -0.3271  0.2218
 1709SOL    HW116763   1.239   0.715   7.077  0.4946  0.8911 -0.3240
 1709SOL    HW216764   1.126   0.632   7.042 -1.3148  1.2183  2.0689
 1710SOL     OW16765   2.867   4.535  16.018  0.1784 -0.6978 -0.1141
 1710SOL    HW116766   2.805   4.608  16.012  1.0914 -0.0533 -1.4539
 1710SOL    HW216767   2.915   4.568  16.094  2.1469 -2.1998 -0.7328
 1711SOL     OW16768   3.373   1.214  14.794 -0.2742 -0.4198 -0.0388
 1711SOL    HW116769   3.358   1.217  14.700 -1.1649  0.6734  0.1340
 1711SOL    HW216770   3.290   1.237  14.837  1.8106  2.1901  2.6024
 1712SOL     OW16771   3.409   1.444   5.916 -0.0250 -0.1492 -0.1945
 1712SOL    HW116772   3.323   1.404   5.927  0.2711 -1.1007 -1.2289
 1712SOL    HW216773   3.399   1.522   5.969  1.9829 -0.6247  0.8858
 1713SOL     OW16774   1.803   0.331  17.761  0.1102 -0.6239 -0.3690
 1713SOL    HW116775   1.709   0.314  17.753 -0.3901  1.4652  0.9216
 1713SOL    HW216776   1.804   0.419  17.722  0.0306 -1.0526 -1.3414
 1714SOL     OW16777   2.850   2.237  11.126  0.1298 -0.6737 -0.3453
 1714SOL    HW116778   2.946   2.244  11.128 -0.1553  2.8557  0.7271
 1714SOL    HW216779   2.846   2.228  11.031 -0.1060 -1.3525 -0.2723
 1715SOL     OW16780   1.020   3.430  14.735 -0.0888  0.0154 -0.0255
 1715SOL    HW116781   0.968   3.507  14.710 -1.9138 -1.0446  0.5176
 1715SOL    HW216782   1.049   3.409  14.646 -0.7635  0.9679 -0.4808
 1716SOL     OW16783   0.272   0.903  12.401 -0.1395  0.6896  0.1596
 1716SOL    HW116784   0.187   0.884  12.441  0.3263  0.9675  1.2863
 1716SOL    HW216785   0.262   0.991  12.363  0.2527  0.9164  0.5769
 1717SOL     OW16786   0.986   1.266   0.331  0.0530  0.0237 -0.1585
 1717SOL    HW116787   0.894   1.260   0.354  0.0704 -1.3562 -0.4609
 1717SOL    HW216788   1.005   1.357   0.353  3.7135 -0.5517 -0.9455
 1718SOL     OW16789   1.112   1.539   4.690  0.2919 -0.3643  0.0756
 1718SOL    HW116790   1.125   1.452   4.728 -0.6349  0.4490  2.2334
 1718SOL    HW216791   1.090   1.598   4.763  0.0853 -0.2262 -0.0963
 1719SOL     OW16792   3.095   0.499   8.070  0.2294  0.4309 -0.2224
 1719SOL    HW116793   3.017   0.550   8.046 -0.3494 -0.5835 -0.5013
 1719SOL    HW216794   3.116   0.543   8.152 -2.1279 -1.1493  1.2572
 1720SOL     OW16795   0.315   0.140  17.569 -0.0893  0.5944 -0.5370
 1720SOL    HW116796   0.309   0.079  17.642  2.1466  0.7408 -0.2529
 1720SOL    HW216797   0.353   0.215  17.613 -0.9989 -0.1042  1.4278
 1721SOL     OW16798   0.505   1.315   7.341  0.4238  0.1722 -0.2764
 1721SOL    HW116799   0.554   1.390   7.375 -2.2995  0.9668  1.9218
 1721SOL    HW216800   0.531   1.243   7.399  0.5913  1.9470  1.8771
 1722SOL     OW16801   1.893   4.181   6.903 -0.1582 -0.6016  0.2348
 1722SOL    HW116802   1.881   4.180   6.808  0.1984 -2.0116  0.1999
 1722SOL    HW216803   1.974   4.231   6.908 -1.3606  1.5071 -1.4917
 1723SOL     OW16804   2.300   0.642   7.006  0.1675 -0.9293  0.9115
 1723SOL    HW116805   2.277   0.707   6.940 -1.6717 -0.1804  2.2766
 1723SOL    HW216806   2.229   0.578   6.997 -0.0625 -0.5184 -0.1979
 1724SOL     OW16807   1.210   2.104   4.658  0.1589  0.0830 -0.4243
 1724SOL    HW116808   1.155   2.142   4.727  1.2875  0.7270  0.1273
 1724SOL    HW216809   1.245   2.021   4.691 -1.0691 -0.0412  0.5384
 1725SOL     OW16810   4.566   1.525   2.068 -0.2359 -0.2909 -0.0633
 1725SOL    HW116811   4.627   1.599   2.060 -0.0873 -0.2817  1.1298
 1725SOL    HW216812   4.529   1.542   2.154 -0.3628 -2.0164  0.2312
 1726SOL     OW16813   2.315   0.596   2.385 -0.8023  0.1140  0.3124
 1726SOL    HW116814   2.251   0.622   2.319 -1.1156  0.6097  0.8119
 1726SOL    HW216815   2.368   0.537   2.332 -0.9478 -0.4229  0.7612
 1727SOL     OW16816   3.335   1.159   5.966  0.7997  0.2922 -0.4650
 1727SOL    HW116817   3.359   1.170   6.058 -0.6356 -1.0992  0.0829
 1727SOL    HW216818   3.247   1.196   5.955 -0.0163 -1.6856 -0.5362
 1728SOL     OW16819   2.122   3.036   3.164  0.3612  0.2802  0.1197
 1728SOL    HW116820   2.191   2.969   3.166  1.2761  1.2695  2.4150
 1728SOL    HW216821   2.084   3.024   3.251  0.0144  0.2173 -0.0422
 1729SOL     OW16822   2.678   3.292   8.260  0.0820  0.4595 -0.3948
 1729SOL    HW116823   2.622   3.344   8.318 -1.9436 -3.0076  0.8138
 1729SOL    HW216824   2.765   3.280   8.298 -0.4145 -1.0556  0.2729
 1730SOL     OW16825   4.619   1.133   8.956 -0.0419  0.1076 -0.6543
 1730SOL    HW116826   4.646   1.041   8.955  1.0541  0.4106  0.9301
 1730SOL    HW216827   4.659   1.165   9.037  0.9880 -0.8804 -0.7815
 1731SOL     OW16828   2.561   3.829  14.851 -0.4263  0.4810  0.4097
 1731SOL    HW116829   2.470   3.846  14.876 -0.9377 -2.2789  0.4847
 1731SOL    HW216830   2.611   3.873  14.920 -0.0091  0.9615 -0.2066
 1732SOL     OW16831   2.718   4.476   6.767  0.3800 -0.1050 -0.0769
 1732SOL    HW116832   2.751   4.446   6.852  0.8242 -0.2225 -0.2922
 1732SOL    HW216833   2.731   4.570   6.775 -0.7599  0.0922 -0.4963
 1733SOL     OW16834   0.025   4.069  13.249  0.5022  0.7055  0.0134
 1733SOL    HW116835   4.696   4.118  13.288 -1.5772 -2.1993 -0.1456
 1733SOL    HW216836   0.082   4.135  13.210 -0.0609  2.1535  1.6890
 1734SOL     OW16837   0.171   0.499   3.596  0.1686 -0.4600 -0.0761
 1734SOL    HW116838   0.190   0.573   3.538 -0.4163 -1.2371 -1.2733
 1734SOL    HW216839   0.122   0.443   3.536 -0.6567 -0.8243  0.9372
 1735SOL     OW16840   2.015   3.646   8.655 -0.1551 -0.9537  0.0343
 1735SOL    HW116841   1.923   3.672   8.662 -0.1529 -0.3393 -2.1794
 1735SOL    HW216842   2.002   3.560   8.614 -0.8023  0.3415 -2.5166
 1736SOL     OW16843   2.522   0.641   4.792  0.0557  0.3038 -0.2219
 1736SOL    HW116844   2.454   0.606   4.735 -1.1731  1.8401  0.3047
 1736SOL    HW216845   2.475   0.704   4.846  0.9704  0.0648  0.8502
 1737SOL     OW16846   4.350   1.472  16.801 -0.1460  0.4153 -0.1211
 1737SOL    HW116847   4.303   1.520  16.870 -2.0056 -0.2287 -0.9731
 1737SOL    HW216848   4.424   1.526  16.773  0.2731  0.5144  1.1428
 1738SOL     OW16849   4.490   2.298   1.586  0.2692 -0.0967 -0.1083
 1738SOL    HW116850   4.489   2.378   1.638 -0.4679 -0.3576  0.2722
 1738SOL    HW216851   4.584   2.283   1.595 -0.2740 -2.0994  2.2876
 1739SOL     OW16852   0.710   2.653   5.426  0.0529  0.4864  0.5663
 1739SOL    HW116853   0.730   2.746   5.441  0.6811  0.6730 -1.4174
 1739SOL    HW216854   0.629   2.668   5.378 -0.2106 -0.0405  0.8551
 1740SOL     OW16855   2.529   1.370  15.438  0.0653  0.4462 -0.1492
 1740SOL    HW116856   2.452   1.357  15.493 -0.2103 -0.1226 -0.6653
 1740SOL    HW216857   2.554   1.280  15.417  0.4351 -0.0789  2.5502
 1741SOL     OW16858   3.237   3.011  17.581  0.2519 -0.2371  0.2203
 1741SOL    HW116859   3.288   3.066  17.522 -0.0468 -0.8748 -0.6232
 1741SOL    HW216860   3.222   2.932  17.529 -0.6211  0.4629 -0.5883
 1742SOL     OW16861   4.535   0.256   5.361 -0.4982 -0.3090  0.0745
 1742SOL    HW116862   4.459   0.200   5.375 -0.2028 -0.8514 -0.4726
 1742SOL    HW216863   4.600   0.194   5.394 -1.1417  0.1077  2.1280
 1743SOL     OW16864   3.390   0.232   8.480 -0.6379 -0.2406 -0.0236
 1743SOL    HW116865   3.342   0.195   8.554 -0.3411 -0.7891 -0.1034
 1743SOL    HW216866   3.405   0.323   8.507  1.3567 -0.1245 -1.4923
 1744SOL     OW16867   2.214   2.296   7.044 -0.1935  0.1574  0.1454
 1744SOL    HW116868   2.305   2.267   7.053  0.2421  1.7172  0.6311
 1744SOL    HW216869   2.199   2.332   7.131 -0.6734 -1.2449  0.6499
 1745SOL     OW16870   0.845   2.122   5.123  0.7265 -0.3577  0.0165
 1745SOL    HW116871   0.849   2.152   5.032  1.9145  0.0752  0.2171
 1745SOL    HW216872   0.757   2.086   5.136  1.2433 -1.4906  0.3655
 1746SOL     OW16873   1.343   1.802   4.968  0.3863 -0.0447 -0.2475
 1746SOL    HW116874   1.394   1.874   5.006  0.4868 -0.4913  0.4774
 1746SOL    HW216875   1.416   1.742   4.952  0.3095 -0.7111  1.8637
 1747SOL     OW16876   4.738   0.621   7.633  0.4390 -0.0043  0.1092
 1747SOL    HW116877   4.682   0.682   7.586 -0.1325 -0.4688  0.1934
 1747SOL    HW216878   0.047   0.587   7.560 -1.9299 -2.0012 -0.6266
 1748SOL     OW16879   1.960   1.289   4.190 -0.1160 -0.1746 -0.3416
 1748SOL    HW116880   1.992   1.202   4.212 -0.2956 -0.4173 -1.0456
 1748SOL    HW216881   1.968   1.342   4.269 -0.9008  1.4948 -1.3588
 1749SOL     OW16882   0.090   2.048   1.484  0.3002  0.5852 -0.0483
 1749SOL    HW116883   0.034   2.078   1.412 -2.1059 -0.6338  1.3326
 1749SOL    HW216884   0.176   2.061   1.445  0.0657  0.8570 -0.4785
 1750SOL     OW16885   3.484   0.250   3.047  0.2236  0.5836 -0.0601
 1750SOL    HW116886   3.422   0.322   3.031  0.0106  0.8436  1.9209
 1750SOL    HW216887   3.567   0.298   3.046  1.0473 -0.8401  0.1089
 1751SOL     OW16888   0.817   2.143   4.126  0.2479 -0.2903  0.3832
 1751SOL    HW116889   0.891   2.083   4.133  0.6508  0.3483  1.5594
 1751SOL    HW216890   0.794   2.142   4.033  0.1011 -0.5304  0.4228
 1752SOL     OW16891   4.441   4.506  12.215 -0.5025  0.3635  0.4305
 1752SOL    HW116892   4.415   4.485  12.305 -2.2926  0.8025  0.0285
 1752SOL    HW216893   4.514   4.567  12.216  2.1682 -2.8268 -1.0772
 1753SOL     OW16894   1.813   3.168   2.041  0.2729  0.3001 -0.8405
 1753SOL    HW116895   1.775   3.097   2.092 -2.5500  1.6145 -1.1152
 1753SOL    HW216896   1.883   3.197   2.099  2.2708 -2.0589 -2.0797
 1754SOL     OW16897   4.427   2.313   5.882  0.0929 -0.0214  0.3538
 1754SOL    HW116898   4.366   2.379   5.850 -2.0827 -1.5171  1.4442
 1754SOL    HW216899   4.481   2.365   5.941 -0.0413 -1.2690  1.5684
 1755SOL     OW16900   4.606   0.816   7.510  0.2594 -0.7875 -1.2825
 1755SOL    HW116901   4.573   0.904   7.527 -0.8596 -1.2805 -0.9511
 1755SOL    HW216902   4.612   0.820   7.414 -0.1509 -2.4073 -1.3777
 1756SOL     OW16903   0.349   2.987   3.452  0.3761 -0.3456  0.1988
 1756SOL    HW116904   0.297   3.065   3.470  0.4881 -0.2031 -0.1030
 1756SOL    HW216905   0.367   2.991   3.358 -0.6296  0.3097  0.0343
 1757SOL     OW16906   4.484   0.373   8.839 -0.1380 -0.3349  0.0707
 1757SOL    HW116907   4.460   0.283   8.819 -1.8557  0.4396 -1.4218
 1757SOL    HW216908   4.570   0.374   8.796 -0.1364 -2.3090  0.0626
 1758SOL     OW16909   3.062   3.644  11.022 -0.2836  0.4023  0.1054
 1758SOL    HW116910   2.990   3.594  11.061  0.4710 -0.0168  0.9595
 1758SOL    HW216911   3.050   3.734  11.051  0.4953 -0.4119  2.9676
 1759SOL     OW16912   1.595   3.016   4.870  0.2958  0.5656 -0.1410
 1759SOL    HW116913   1.633   3.048   4.787 -0.0928  1.3506 -0.0202
 1759SOL    HW216914   1.535   2.953   4.830  2.4961 -0.6387 -1.5766
 1760SOL     OW16915   4.113   0.533   5.551 -0.4538 -0.2483  0.2186
 1760SOL    HW116916   4.124   0.567   5.640 -1.1331  1.3215 -0.3101
 1760SOL    HW216917   4.155   0.447   5.555  0.1981  0.0834  0.5503
 1761SOL     OW16918   3.142   1.570   6.678 -0.1787 -0.6439 -0.0015
 1761SOL    HW116919   3.145   1.488   6.629  0.4944 -0.6493  0.0444
 1761SOL    HW216920   3.051   1.569   6.708 -0.3930 -2.2771 -0.7011
 1762SOL     OW16921   2.111   1.477   6.552 -0.0897 -0.1905  0.3524
 1762SOL    HW116922   2.051   1.493   6.479  0.1716 -1.2454 -0.0976
 1762SOL    HW216923   2.169   1.550   6.532  0.0039 -0.8193 -1.6561
 1763SOL     OW16924   4.614   2.033   9.270  0.1162  0.0302 -0.1502
 1763SOL    HW116925   4.670   1.967   9.309 -2.0025  0.0637  2.9333
 1763SOL    HW216926   4.685   2.089   9.238  1.9698 -1.8247  0.7440
 1764SOL     OW16927   2.502   2.310   2.501 -0.3717  0.3183  0.0405
 1764SOL    HW116928   2.558   2.364   2.557  0.0920  1.0545 -1.1445
 1764SOL    HW216929   2.518   2.335   2.410 -0.8477  2.7827  0.6357
 1765SOL     OW16930   4.530   1.639   8.783 -0.1609  0.6069 -0.0697
 1765SOL    HW116931   4.488   1.700   8.844  0.0043  0.3501  0.2969
 1765SOL    HW216932   4.460   1.574   8.776 -1.6269  1.9216  2.5345
 1766SOL     OW16933   4.682   0.981   6.214 -0.0521  0.5388 -0.7596
 1766SOL    HW116934   4.716   1.067   6.190  0.3092  0.2166 -1.4158
 1766SOL    HW216935   4.680   0.950   6.123  2.7054 -0.4240 -0.4974
 1767SOL     OW16936   3.074   3.554   1.447 -0.1025  0.0040 -0.3097
 1767SOL    HW116937   3.148   3.547   1.506 -0.3093 -2.1690 -0.2963
 1767SOL    HW216938   3.004   3.532   1.509  2.0404 -2.0145  1.4047
 1768SOL     OW16939   3.707   4.393   2.909  0.3464  0.2060 -0.0950
 1768SOL    HW116940   3.676   4.306   2.884  2.2072 -0.6917  0.7127
 1768SOL    HW216941   3.631   4.430   2.954  0.7708 -1.2886  1.8543
 1769SOL     OW16942   0.617   0.041  16.098 -0.4319  0.5825 -0.1909
 1769SOL    HW116943   0.613   4.741  16.013  2.0099  1.3092 -0.6806
 1769SOL    HW216944   0.600   4.705  16.149  1.4127  0.5608  0.3956
 1770SOL     OW16945   3.817   4.711  14.756 -0.3195  0.2662  0.4752
 1770SOL    HW116946   3.800   4.674  14.842 -2.4488  0.1076 -0.0124
 1770SOL    HW216947   3.875   0.044  14.767  0.2302  0.1171 -1.3172
 1771SOL     OW16948   4.466   4.081   7.179  0.2233 -0.4231 -0.1975
 1771SOL    HW116949   4.420   4.156   7.141  1.4382  0.9055  1.0159
 1771SOL    HW216950   4.535   4.079   7.113 -0.3607  1.3173 -0.8423
 1772SOL     OW16951   3.378   0.355   2.176  0.2333  0.1842 -0.2994
 1772SOL    HW116952   3.424   0.437   2.158  0.7938 -0.3253 -1.2237
 1772SOL    HW216953   3.288   0.382   2.196 -0.0274  0.1531 -1.4385
 1773SOL     OW16954   1.164   2.245   6.567 -0.3507 -0.3993 -0.3163
 1773SOL    HW116955   1.172   2.150   6.567 -0.0774 -0.3748 -0.2863
 1773SOL    HW216956   1.250   2.285   6.564 -0.9747  0.8134 -1.8756
 1774SOL     OW16957   1.201   1.191   1.555  0.1601 -0.3512  0.2094
 1774SOL    HW116958   1.111   1.224   1.554  0.0444 -0.6460  1.1939
 1774SOL    HW216959   1.225   1.220   1.467  1.1009  0.6060  0.7763
 1775SOL     OW16960   3.730   0.830   6.998 -0.0662  0.2410  0.0815
 1775SOL    HW116961   3.740   0.789   7.084  1.1920 -0.5086 -0.4420
 1775SOL    HW216962   3.790   0.904   7.003  0.2879 -0.1524  1.7336
 1776SOL     OW16963   1.445   1.105  12.396  0.5183  0.5607  0.9632
 1776SOL    HW116964   1.498   1.082  12.319  0.5445  2.2335  0.4946
 1776SOL    HW216965   1.500   1.073  12.468 -1.3934 -1.8152  1.3868
 1777SOL     OW16966   3.694   3.421   6.153  0.4506 -0.2058  0.2097
 1777SOL    HW116967   3.656   3.483   6.091  1.7926  0.4686  0.0613
 1777SOL    HW216968   3.611   3.394   6.190 -0.7671  2.8031 -0.2907
 1778SOL     OW16969   1.694   3.770   8.480  0.1257 -0.0086 -0.7500
 1778SOL    HW116970   1.750   3.752   8.405 -1.9681 -0.9499 -2.0689
 1778SOL    HW216971   1.725   3.700   8.539  1.5873  2.2298  1.1630
 1779SOL     OW16972   1.723   0.911   1.458 -0.2676 -0.3955 -0.4846
 1779SOL    HW116973   1.810   0.935   1.427 -0.4475 -0.6746 -1.1992
 1779SOL    HW216974   1.667   0.983   1.429  1.8257  1.9761  1.4585
 1780SOL     OW16975   4.329   2.715  12.583 -0.1639 -0.2827 -0.1558
 1780SOL    HW116976   4.315   2.781  12.516  0.3907  0.2691  0.2783
 1780SOL    HW216977   4.242   2.712  12.622 -0.6278  0.3106 -1.1374
 1781SOL     OW16978   2.707   0.250  12.113 -0.3203  0.0232  0.8365
 1781SOL    HW116979   2.749   0.170  12.082  1.0562  1.1811 -0.3366
 1781SOL    HW216980   2.622   0.217  12.140 -0.4423 -0.3961 -0.0456
 1782SOL     OW16981   3.075   1.995  13.854 -0.0835  0.1629 -0.5681
 1782SOL    HW116982   3.088   1.977  13.761 -0.7239 -1.2399 -0.3841
 1782SOL    HW216983   2.981   2.008  13.863 -0.1237 -1.2786  1.0941
 1783SOL     OW16984   0.413   3.366   1.528  0.4467 -0.4408  0.1935
 1783SOL    HW116985   0.470   3.432   1.489  0.0724 -0.0996  0.2237
 1783SOL    HW216986   0.342   3.416   1.568  0.8193  0.2475 -0.0015
 1784SOL     OW16987   0.496   1.418   6.307 -0.3690 -0.4318 -0.1048
 1784SOL    HW116988   0.474   1.457   6.222  2.1717 -0.2901 -0.6779
 1784SOL    HW216989   0.410   1.380   6.325 -0.9868 -1.0050 -4.2274
 1785SOL     OW16990   1.989   3.788   3.507  0.4719  0.4380  0.3026
 1785SOL    HW116991   2.030   3.806   3.422  1.1354 -0.9499  0.3301
 1785SOL    HW216992   1.969   3.875   3.542  0.5665  0.5330  0.1220
 1786SOL     OW16993   2.248   0.273  17.289  0.3118 -0.4615 -0.0867
 1786SOL    HW116994   2.263   0.305  17.378  0.3655  0.7893 -0.5522
 1786SOL    HW216995   2.275   0.352  17.244 -1.1132 -1.1824 -2.2092
 1787SOL     OW16996   4.233   1.185   7.634  0.2295 -0.3695 -0.1237
 1787SOL    HW116997   4.225   1.254   7.700  1.7395  1.0584 -1.4659
 1787SOL    HW216998   4.322   1.200   7.605 -0.6397 -2.2526 -3.7473
 1788SOL     OW16999   2.735   1.622  13.330  0.0604 -0.7705  0.1366
 1788SOL    HW117000   2.802   1.566  13.368  1.3154  1.3752  1.0839
 1788SOL    HW217001   2.659   1.600  13.384  0.0311  1.1479  0.8934
 1789SOL     OW17002   4.639   2.166   6.382 -0.4505  0.2792  0.2400
 1789SOL    HW117003   4.719   2.195   6.427 -0.8255  0.4574  0.7800
 1789SOL    HW217004   4.569   2.223   6.414 -2.8091 -1.8521 -1.1466
 1790SOL     OW17005   3.053   3.223   7.605 -0.0200  0.0385  0.0428
 1790SOL    HW117006   3.012   3.168   7.672 -2.7716  0.9647 -0.9051
 1790SOL    HW217007   3.130   3.170   7.583  0.1880 -1.0699  3.3945
 1791SOL     OW17008   3.158   4.685  16.138  0.6239  0.8114  0.4212
 1791SOL    HW117009   3.144   0.036  16.153 -1.3358  0.5992 -0.0243
 1791SOL    HW217010   3.138   4.676  16.045  0.4778  2.6036  0.2963
 1792SOL     OW17011   1.013   1.437   5.936  0.0335 -0.2795 -0.3508
 1792SOL    HW117012   1.071   1.464   6.008 -1.2015 -0.1214  0.5723
 1792SOL    HW217013   0.948   1.396   5.992 -0.5215  0.0028 -0.7860
 1793SOL     OW17014   4.184   3.228   7.256 -0.7225  0.3948 -0.1490
 1793SOL    HW117015   4.234   3.154   7.219  0.3529  0.9784  0.1212
 1793SOL    HW217016   4.096   3.203   7.228 -1.5694  0.2185  2.6222
 1794SOL     OW17017   0.818   3.275  10.275 -0.3238  0.2757  0.2780
 1794SOL    HW117018   0.892   3.259  10.334  1.3083 -1.5339 -2.2920
 1794SOL    HW217019   0.746   3.290  10.336 -1.7672  0.2636 -1.4563
 1795SOL     OW17020   2.009   3.490   6.477  0.5641  0.3549  0.1246
 1795SOL    HW117021   1.941   3.556   6.472 -0.5814 -0.8475 -0.0484
 1795SOL    HW217022   2.032   3.484   6.570  0.1262 -0.9291  0.1576
 1796SOL     OW17023   3.938   4.090   3.587  0.3900 -0.0723  0.6455
 1796SOL    HW117024   3.904   4.038   3.514  1.9457  0.4851 -0.4694
 1796SOL    HW217025   3.985   4.025   3.639 -1.2439 -0.4890  1.6123
 1797SOL     OW17026   1.758   4.144  10.046  0.1309 -0.6072  0.3068
 1797SOL    HW117027   1.744   4.058  10.084  0.2522 -0.7802 -0.0443
 1797SOL    HW217028   1.849   4.161  10.073  0.2767  0.2951 -0.7533
 1798SOL     OW17029   0.368   4.216   6.679 -0.1840 -0.1374  0.5102
 1798SOL    HW117030   0.413   4.199   6.596  0.2100 -1.5092  1.0071
 1798SOL    HW217031   0.422   4.174   6.745 -2.6386 -0.6945  2.1605
 1799SOL     OW17032   3.384   3.390  11.362 -0.1055 -0.4147  0.2527
 1799SOL    HW117033   3.467   3.343  11.359 -0.2791 -0.9073  4.2093
 1799SOL    HW217034   3.361   3.385  11.455 -1.1315 -1.1054 -0.0244
 1800SOL     OW17035   1.796   1.928  12.495  0.7418  0.0810  0.0570
 1800SOL    HW117036   1.755   1.986  12.432 -1.8190  1.3715  2.8951
 1800SOL    HW217037   1.830   1.996  12.554  0.4377  1.5065 -1.4076
 1801SOL     OW17038   2.412   4.519  14.398  0.2375  0.0245  0.2666
 1801SOL    HW117039   2.410   4.612  14.374  1.5182 -0.1803 -0.6466
 1801SOL    HW217040   2.329   4.492  14.358  0.0119  0.4535  0.4408
 1802SOL     OW17041   1.901   2.836   3.252 -0.2364 -0.5515 -1.0385
 1802SOL    HW117042   1.883   2.764   3.313  0.6980  0.1398  0.0578
 1802SOL    HW217043   1.996   2.825   3.259 -0.2566  0.6833  1.0323
 1803SOL     OW17044   1.057   3.093  17.758  0.0570  0.4642  0.5586
 1803SOL    HW117045   1.081   3.182  17.732 -2.3843  1.1401  0.6000
 1803SOL    HW217046   1.028   3.105   0.080  0.2269  1.0259  0.5390
 1804SOL     OW17047   0.772   3.080   7.795  0.1097 -0.6629 -0.2120
 1804SOL    HW117048   0.755   3.174   7.790 -0.0231 -0.6976 -0.4310
 1804SOL    HW217049   0.864   3.076   7.768  0.2230 -0.2092  0.1162
 1805SOL     OW17050   0.219   2.755   2.709  0.0685 -0.1101 -0.4387
 1805SOL    HW117051   0.303   2.801   2.703  0.0191  0.0979  0.4991
 1805SOL    HW217052   0.211   2.709   2.625 -1.5019  2.0771 -1.4924
 1806SOL     OW17053   2.301   3.582   8.395  0.4405 -0.2258 -1.1309
 1806SOL    HW117054   2.278   3.673   8.415 -1.6127 -1.1643  0.7380
 1806SOL    HW217055   2.397   3.586   8.394  0.4112  0.7825 -0.4819
 1807SOL     OW17056   3.990   0.240   7.090  0.1727  0.0183 -0.0137
 1807SOL    HW117057   3.934   0.317   7.101 -0.5416 -0.2879 -1.4359
 1807SOL    HW217058   3.963   0.198   7.171 -0.1090  0.4419  0.1127
 1808SOL     OW17059   2.133   4.275   0.957  0.3858 -0.0935 -0.1349
 1808SOL    HW117060   2.211   4.280   1.012 -0.6787 -1.8019  1.5285
 1808SOL    HW217061   2.124   4.181   0.938 -0.2058 -0.1486  0.4304
 1809SOL     OW17062   2.557   1.107  15.337 -0.4897  0.4535  0.3074
 1809SOL    HW117063   2.536   1.182  15.281 -1.1001 -0.0602 -0.1597
 1809SOL    HW217064   2.490   1.044  15.309 -0.8152  1.8947 -2.1651
 1810SOL     OW17065   2.086   2.998   1.369  1.2151  0.0339 -0.2825
 1810SOL    HW117066   2.122   2.940   1.435 -0.8318 -1.2792 -0.3311
 1810SOL    HW217067   2.082   2.933   1.299 -3.3110 -0.5610  0.4694
 1811SOL     OW17068   4.267   1.488   9.319  0.2846  0.0038  0.4499
 1811SOL    HW117069   4.260   1.395   9.297  3.5171 -0.5415  1.8638
 1811SOL    HW217070   4.188   1.510   9.369  0.5113  1.4912  0.1583
 1812SOL     OW17071   3.128   1.923   9.697 -0.1017 -0.3785  0.1482
 1812SOL    HW117072   3.134   1.982   9.771  0.3839 -1.3378  0.8726
 1812SOL    HW217073   3.056   1.864   9.723 -1.6184  1.2549 -0.3516
 1813SOL     OW17074   2.934   4.623   4.219 -0.1838 -0.5567 -0.6545
 1813SOL    HW117075   2.841   4.629   4.197  0.2802  1.1230 -2.1767
 1813SOL    HW217076   2.941   4.533   4.252  1.7372 -0.3438 -0.4436
 1814SOL     OW17077   2.305   3.229   8.876  0.1384 -0.0961 -0.4265
 1814SOL    HW117078   2.374   3.218   8.941  1.6378  0.5446 -1.9119
 1814SOL    HW217079   2.315   3.150   8.822 -0.1150 -1.7041  1.8760
 1815SOL     OW17080   0.799   3.968   7.523  0.3229  0.1905 -0.3064
 1815SOL    HW117081   0.795   4.063   7.538 -0.5113 -0.1613  1.7508
 1815SOL    HW217082   0.732   3.925   7.576  0.3855  0.6349  0.1388
 1816SOL     OW17083   3.331   4.161  13.896  0.2768 -0.5038  0.2440
 1816SOL    HW117084   3.293   4.121  13.817  1.1377 -0.9537  0.0527
 1816SOL    HW217085   3.365   4.242  13.859 -0.9244 -0.7568 -1.4404
 1817SOL     OW17086   3.739   2.777   2.871  0.2403  0.2761  0.0369
 1817SOL    HW117087   3.786   2.694   2.862  1.0686  0.7967 -0.4566
 1817SOL    HW217088   3.800   2.832   2.919  0.4091 -0.6847  0.9325
 1818SOL     OW17089   2.046   0.893  14.295 -0.0493 -0.0569  0.5779
 1818SOL    HW117090   1.963   0.872  14.251  1.1717  0.4392 -1.9775
 1818SOL    HW217091   2.097   0.869  14.218  1.6644  0.4406  1.5588
 1819SOL     OW17092   3.556   0.361  14.260 -0.0268  0.5991  0.4838
 1819SOL    HW117093   3.492   0.409  14.207 -1.1083 -1.1285  0.2226
 1819SOL    HW217094   3.522   0.379  14.347 -1.5102  1.8920 -0.3625
 1820SOL     OW17095   0.528   1.377  10.819 -0.0736 -0.0842  0.1729
 1820SOL    HW117096   0.535   1.472  10.827 -2.1251  0.1733 -1.1358
 1820SOL    HW217097   0.534   1.340  10.907 -1.3863  2.8732  1.5035
 1821SOL     OW17098   2.959   3.582   5.607  0.1162 -0.0396 -0.1067
 1821SOL    HW117099   2.912   3.508   5.644  0.6001  0.7583  2.1084
 1821SOL    HW217100   2.940   3.644   5.677 -0.5587 -1.2792  0.8093
 1822SOL     OW17101   1.111   3.089   5.397 -0.0092  0.0343  0.1415
 1822SOL    HW117102   1.201   3.068   5.371 -0.9431 -2.3213 -1.2951
 1822SOL    HW217103   1.087   3.147   5.325 -2.5640  0.5300  1.4193
 1823SOL     OW17104   2.710   2.036   6.486 -0.3353 -0.0810 -0.5428
 1823SOL    HW117105   2.726   1.958   6.539  1.2883 -0.4598 -1.5991
 1823SOL    HW217106   2.786   2.045   6.428  0.8925  2.9815  1.5273
 1824SOL     OW17107   2.001   3.974   2.354  0.3456  0.1372 -0.3806
 1824SOL    HW117108   2.042   3.919   2.287 -0.4600 -0.3170 -0.4945
 1824SOL    HW217109   1.952   3.904   2.396  2.2808  0.7466  2.9001
 1825SOL     OW17110   1.363   3.794   2.924 -0.3075 -0.3169  0.9372
 1825SOL    HW117111   1.357   3.788   2.828 -0.4549 -0.0820  0.9309
 1825SOL    HW217112   1.285   3.846   2.944  0.6223  1.0441  1.0151
 1826SOL     OW17113   1.894   3.843  14.977  0.1461 -0.3673  0.0366
 1826SOL    HW117114   1.910   3.769  15.036  0.0860 -0.1963  0.2681
 1826SOL    HW217115   1.954   3.907  15.015 -2.1836  2.0642 -0.3995
 1827SOL     OW17116   4.275   2.032  15.447 -0.2068 -0.2006  0.1117
 1827SOL    HW117117   4.224   2.088  15.389 -0.8809 -1.6453 -0.7160
 1827SOL    HW217118   4.315   2.094  15.508 -2.6229 -1.1443  2.6761
 1828SOL     OW17119   4.198   3.163  11.911 -0.1832 -0.0430 -0.8266
 1828SOL    HW117120   4.167   3.120  11.991  0.3711 -1.1894 -1.2174
 1828SOL    HW217121   4.278   3.111  11.896  1.2082  1.4964  1.3239
 1829SOL     OW17122   2.041   0.967   6.129  0.6231  0.2488 -0.0371
 1829SOL    HW117123   1.984   0.918   6.188  0.3867 -1.6430 -1.8644
 1829SOL    HW217124   1.999   0.933   6.050 -0.0442  1.6137 -0.2818
 1830SOL     OW17125   2.623   0.728   2.910  0.5564  0.2054  0.1305
 1830SOL    HW117126   2.600   0.669   2.982  0.1050 -1.1946 -1.1750
 1830SOL    HW217127   2.704   0.764   2.946  0.3844 -0.8094  1.5602
 1831SOL     OW17128   1.907   1.502   8.222 -0.5279  0.1898 -0.1005
 1831SOL    HW117129   1.931   1.531   8.310 -0.0779 -0.0142 -0.1610
 1831SOL    HW217130   1.965   1.429   8.203  0.4115  1.3827 -1.8284
 1832SOL     OW17131   0.030   3.276   3.399  0.1721  0.0351 -0.1778
 1832SOL    HW117132   0.121   3.270   3.430  1.0889 -0.1444 -2.8745
 1832SOL    HW217133   0.040   3.329   3.320 -0.3216 -0.5217 -0.6069
 1833SOL     OW17134   4.189   3.101  10.656  0.2473  0.4171  0.3008
 1833SOL    HW117135   4.272   3.138  10.626  1.8799 -2.2764  1.4115
 1833SOL    HW217136   4.153   3.053  10.582  0.9759  0.6183 -0.1841
 1834SOL     OW17137   0.466   2.187   9.655 -0.2002  0.2591 -0.2454
 1834SOL    HW117138   0.514   2.113   9.692 -3.1913  0.4695  4.1222
 1834SOL    HW217139   0.535   2.251   9.668  0.4423 -0.2294 -1.2841
 1835SOL     OW17140   3.143   3.753  17.010 -0.4003  0.0046  0.1964
 1835SOL    HW117141   3.131   3.822  17.076 -1.1239 -1.1334  1.2432
 1835SOL    HW217142   3.079   3.771  16.942  0.0596 -2.4878 -0.8990
 1836SOL     OW17143   1.246   2.316   8.639 -0.0556 -0.0391  0.4958
 1836SOL    HW117144   1.252   2.242   8.699 -2.4672  0.3588  1.1940
 1836SOL    HW217145   1.241   2.273   8.553  0.8370  0.5279  0.1545
 1837SOL     OW17146   4.087   4.212   7.910 -0.5149 -0.3318  0.2604
 1837SOL    HW117147   4.141   4.276   7.957  0.1573 -0.3294 -0.5109
 1837SOL    HW217148   4.153   4.143   7.916 -1.0595 -0.7130  1.8021
 1838SOL     OW17149   1.943   0.533   4.143 -0.3071 -0.1820 -0.3198
 1838SOL    HW117150   1.922   0.451   4.097 -0.7809 -0.3450  0.1771
 1838SOL    HW217151   1.905   0.521   4.230 -1.0408  1.5081 -0.4058
 1839SOL     OW17152   4.582   2.163   7.958  0.3061  0.0207 -0.1602
 1839SOL    HW117153   4.497   2.131   7.988  0.5298  1.3198  1.8518
 1839SOL    HW217154   4.636   2.088   7.981 -0.9075 -0.3460  1.4717
 1840SOL     OW17155   0.750   0.403   7.767 -0.2888  0.7355  0.0342
 1840SOL    HW117156   0.777   0.347   7.694 -2.5216 -3.3966  2.3716
 1840SOL    HW217157   0.666   0.370   7.799 -0.2577  0.0647 -0.5597
 1841SOL     OW17158   0.233   0.846   6.437  0.0280 -0.5188  0.0821
 1841SOL    HW117159   0.328   0.841   6.444 -0.1354 -0.6112  2.3234
 1841SOL    HW217160   0.224   0.941   6.447  0.5195 -0.1194 -3.2542
 1842SOL     OW17161   2.256   1.404  15.557 -0.2189  0.2484 -0.6259
 1842SOL    HW117162   2.249   1.475  15.620  1.0232  0.1530 -0.3910
 1842SOL    HW217163   2.164   1.410  15.530 -0.0407 -0.9396 -1.5037
 1843SOL     OW17164   1.120   1.386   7.196 -0.1008  0.5568  0.7790
 1843SOL    HW117165   1.121   1.306   7.249  0.2177 -0.0643 -0.1489
 1843SOL    HW217166   1.058   1.436   7.249 -1.6834 -0.3805 -0.1693
 1844SOL     OW17167   1.016   3.043   8.356 -0.4625  0.0067  0.2419
 1844SOL    HW117168   0.975   3.048   8.442  0.8921  0.7406  0.8441
 1844SOL    HW217169   0.963   3.103   8.304  0.5952 -0.2566 -1.1706
 1845SOL     OW17170   4.106   0.167  13.160  0.7173  0.4239  0.6127
 1845SOL    HW117171   4.115   0.210  13.074 -1.7631 -1.1565 -0.4212
 1845SOL    HW217172   4.161   0.090  13.147 -1.3481 -0.5135 -2.3977
 1846SOL     OW17173   1.008   0.876   0.106 -0.0576 -0.2692  0.1622
 1846SOL    HW117174   0.949   0.947   0.081  0.1913  0.6717  2.2408
 1846SOL    HW217175   1.043   0.893   0.194  2.6276  0.5256 -1.0665
 1847SOL     OW17176   3.158   3.533   9.279  0.1553  0.0057 -0.1718
 1847SOL    HW117177   3.084   3.480   9.312  1.1535  1.7288  4.8413
 1847SOL    HW217178   3.186   3.568   9.363 -0.7621  1.7075 -0.5883
 1848SOL     OW17179   1.903   0.295   6.428 -0.0405  0.1620 -0.2358
 1848SOL    HW117180   1.980   0.344   6.455  0.0670  0.7145 -1.5388
 1848SOL    HW217181   1.946   0.218   6.390  0.1206  0.2474 -0.2285
 1849SOL     OW17182   2.660   0.695  12.232 -0.0105  0.3632  0.5154
 1849SOL    HW117183   2.577   0.709  12.187  1.6437  1.0797 -2.3348
 1849SOL    HW217184   2.653   0.749  12.311  3.0488 -0.1381  1.1275
 1850SOL     OW17185   0.163   3.257   6.759 -0.2815  0.3285 -0.4737
 1850SOL    HW117186   0.078   3.215   6.745 -0.0074  0.5649 -2.8772
 1850SOL    HW217187   0.200   3.234   6.674  1.7496  1.7102  0.0534
 1851SOL     OW17188   2.180   0.147   6.636  0.1955  0.3181  0.0930
 1851SOL    HW117189   2.116   0.097   6.686  0.8880 -0.8413 -0.1600
 1851SOL    HW217190   2.228   0.076   6.593  0.3476  0.4471  0.0487
 1852SOL     OW17191   3.740   4.565   8.403  0.4471  1.0111  0.3246
 1852SOL    HW117192   3.822   4.614   8.405  1.7115 -1.0845 -0.3342
 1852SOL    HW217193   3.680   4.638   8.386 -1.7884 -0.5554  1.5712
 1853SOL     OW17194   3.661   2.508  14.830  0.1373 -0.3054  0.2028
 1853SOL    HW117195   3.701   2.575  14.885  0.9202  0.8434 -1.7539
 1853SOL    HW217196   3.693   2.529  14.742 -0.9427  0.9769  0.1197
 1854SOL     OW17197   2.295   0.516   7.359 -0.5922  0.0225 -0.5081
 1854SOL    HW117198   2.362   0.455   7.390  0.4101  0.9125 -0.9340
 1854SOL    HW217199   2.347   0.581   7.312  0.7408 -1.3634 -0.9746
 1855SOL     OW17200   2.692   0.399  14.971  0.4457  0.0501 -0.4333
 1855SOL    HW117201   2.734   0.462  14.912 -0.8438  1.7250  0.4412
 1855SOL    HW217202   2.716   0.440  15.054  3.2043 -0.6675 -0.8787
 1856SOL     OW17203   2.903   1.275   6.378 -0.4823 -0.3757 -0.3048
 1856SOL    HW117204   2.857   1.359   6.381 -1.2100 -0.8289  1.1288
 1856SOL    HW217205   2.833   1.239   6.323  0.1545  1.1410 -2.1257
 1857SOL     OW17206   0.575   3.412   6.033  1.0080 -0.2206  0.5553
 1857SOL    HW117207   0.602   3.490   6.082  0.4153  1.3431 -1.6003
 1857SOL    HW217208   0.483   3.406   6.060  0.7098 -1.2230 -0.7212
 1858SOL     OW17209   3.753   3.407   6.440  0.1965  0.1900  0.0003
 1858SOL    HW117210   3.753   3.419   6.345  1.8249  0.6063  0.0528
 1858SOL    HW217211   3.832   3.447   6.477  0.5049  1.2562 -1.7981
 1859SOL     OW17212   3.638   2.629   4.677 -0.1468 -0.2420 -0.1181
 1859SOL    HW117213   3.612   2.664   4.762 -0.2362 -0.6362  0.0144
 1859SOL    HW217214   3.646   2.538   4.705  1.2245 -0.2980 -0.7164
 1860SOL     OW17215   2.293   2.871   5.437 -0.7209  0.2837 -0.5120
 1860SOL    HW117216   2.290   2.955   5.482  0.1286  0.4669 -0.7823
 1860SOL    HW217217   2.320   2.812   5.507 -0.4962  0.2566 -0.6193
 1861SOL     OW17218   4.570   4.593  15.229 -0.4222 -0.4894 -0.0463
 1861SOL    HW117219   4.548   4.539  15.153 -2.3553  0.9040 -0.4813
 1861SOL    HW217220   4.613   4.652  15.166 -0.5767  0.2608  0.5490
 1862SOL     OW17221   3.528   4.019   4.931  0.5091 -0.0150  0.6763
 1862SOL    HW117222   3.563   4.089   4.876 -1.3476  0.0258 -0.4783
 1862SOL    HW217223   3.531   3.949   4.867  0.8557 -0.6041  1.3468
 1863SOL     OW17224   1.782   0.324   4.638  0.4019  0.3915 -0.3421
 1863SOL    HW117225   1.724   0.390   4.677  0.8323  0.8286 -0.4502
 1863SOL    HW217226   1.798   0.253   4.700  0.4294 -0.1039 -0.9305
 1864SOL     OW17227   3.523   0.281   6.672  0.7554 -0.0555  0.1176
 1864SOL    HW117228   3.580   0.255   6.745  0.3173 -0.7057  0.2288
 1864SOL    HW217229   3.513   0.202   6.619  1.5001  0.4879 -0.8138
 1865SOL     OW17230   0.054   3.133   2.041 -0.3922  0.2934  0.5782
 1865SOL    HW117231   4.709   3.170   2.046 -0.0772  0.8761  1.6723
 1865SOL    HW217232   0.075   3.119   2.133 -0.1162 -1.0252  0.3165
 1866SOL     OW17233   4.328   2.937  10.977  0.4456  1.1488 -0.0254
 1866SOL    HW117234   4.250   2.983  10.947  1.6262  1.5513 -2.4537
 1866SOL    HW217235   4.304   2.846  10.958  2.5209  0.9476 -1.7336
 1867SOL     OW17236   1.372   2.103   1.811 -0.4393 -0.9838  0.2854
 1867SOL    HW117237   1.404   2.117   1.900  2.4146  0.2050 -0.9334
 1867SOL    HW217238   1.281   2.074   1.822 -0.2188 -1.8600 -0.2022
 1868SOL     OW17239   1.619   4.549   1.617 -0.3623 -0.0498 -0.5648
 1868SOL    HW117240   1.643   4.590   1.535  0.8185 -0.2317 -0.3126
 1868SOL    HW217241   1.558   4.616   1.647  1.0866 -0.3839  3.1606
 1869SOL     OW17242   1.800   0.148   5.739  0.1645  0.0098  0.5632
 1869SOL    HW117243   1.775   0.084   5.672 -0.4604 -1.2251  1.9731
 1869SOL    HW217244   1.753   0.108   5.812 -1.7617  1.0533 -0.1116
 1870SOL     OW17245   4.406   3.908  12.539  0.0967 -0.1426  0.2689
 1870SOL    HW117246   4.317   3.916  12.574 -0.4612  0.1747 -1.2215
 1870SOL    HW217247   4.388   3.892  12.447  0.9619 -0.4193  0.1452
 1871SOL     OW17248   4.535   4.718  10.905 -0.2859 -0.3901 -0.2140
 1871SOL    HW117249   4.505   4.730  10.815 -2.0204  0.0151  0.4196
 1871SOL    HW217250   4.564   0.059  10.941 -2.2115  0.6982 -1.1431
 1872SOL     OW17251   1.997   2.139   7.035 -0.2348  0.4374  0.1998
 1872SOL    HW117252   1.995   2.115   7.127 -1.3271  2.3883  0.6663
 1872SOL    HW217253   2.088   2.169   7.029 -1.1048  2.7174 -1.3785
 1873SOL     OW17254   0.187   0.811   5.309 -0.1135  0.3235  0.0129
 1873SOL    HW117255   0.259   0.836   5.367 -0.7032  0.8218  0.5343
 1873SOL    HW217256   0.205   0.874   5.240  0.6667  0.7994  0.6394
 1874SOL     OW17257   0.467   2.796   9.097  0.1888  0.2599 -0.4487
 1874SOL    HW117258   0.433   2.879   9.063 -0.9862  0.6440  1.6182
 1874SOL    HW217259   0.563   2.794   9.102  0.1230 -2.1885 -0.3320
 1875SOL     OW17260   4.709   4.217   7.575 -0.6968 -0.1570  0.4894
 1875SOL    HW117261   4.645   4.269   7.527 -0.6399  0.0715  0.6603
 1875SOL    HW217262   0.048   4.243   7.532 -1.2125  0.2392 -0.2575
 1876SOL     OW17263   0.313   1.087   2.884 -0.0311  0.4164  0.5381
 1876SOL    HW117264   0.251   1.087   2.957 -0.5664 -1.2705  0.0827
 1876SOL    HW217265   0.333   0.993   2.890  0.4734  0.4697 -0.3420
 1877SOL     OW17266   2.701   2.452   0.894  0.7286 -0.0363  0.2784
 1877SOL    HW117267   2.740   2.453   0.807 -1.6828  1.0866 -0.7745
 1877SOL    HW217268   2.623   2.401   0.874  0.0711  0.5522  1.2928
 1878SOL     OW17269   3.269   0.110   8.714  0.4083  0.3321  0.2567
 1878SOL    HW117270   3.256   0.198   8.750  0.0705  0.3033  0.2047
 1878SOL    HW217271   3.229   0.051   8.778  3.3724  0.1225  1.9389
 1879SOL     OW17272   0.079   1.430   2.529 -0.1356  0.1942 -0.3884
 1879SOL    HW117273   0.171   1.449   2.507  1.0813 -4.7265  0.5006
 1879SOL    HW217274   0.097   1.348   2.575  0.0945 -0.1572 -1.1103
 1880SOL     OW17275   2.053   3.489  14.376 -0.3553 -0.4016 -0.5231
 1880SOL    HW117276   2.029   3.463  14.287  1.6168 -0.7280 -0.9681
 1880SOL    HW217277   2.011   3.416  14.422 -1.8554  0.5084 -0.4494
 1881SOL     OW17278   2.559   4.002  16.295  0.2612  0.4468 -0.2025
 1881SOL    HW117279   2.560   4.073  16.231 -1.0907 -1.2111 -2.0730
 1881SOL    HW217280   2.551   3.919  16.247 -3.9988  0.7985 -0.0468
 1882SOL     OW17281   0.467   0.448   1.040 -0.3976 -0.0911  0.3371
 1882SOL    HW117282   0.516   0.528   1.023 -0.7499  0.0599  0.0390
 1882SOL    HW217283   0.435   0.477   1.125  2.2173  0.4835  1.1262
 1883SOL     OW17284   2.617   1.530   9.041  0.4483 -0.1989  0.4027
 1883SOL    HW117285   2.669   1.601   9.078 -1.8422  1.6919  0.0601
 1883SOL    HW217286   2.678   1.522   8.968 -1.9069  0.0788 -1.6049
 1884SOL     OW17287   1.732   3.691   2.132 -0.5985 -0.5361 -0.5215
 1884SOL    HW117288   1.674   3.638   2.077 -0.0075 -0.2001 -1.4710
 1884SOL    HW217289   1.755   3.623   2.196 -1.8507 -0.9554 -0.5201
 1885SOL     OW17290   0.950   4.330   3.396 -0.3615  0.5180 -0.8347
 1885SOL    HW117291   0.988   4.360   3.479 -1.8364 -1.0411  0.4122
 1885SOL    HW217292   0.918   4.242   3.416  1.1802 -0.0268 -0.7600
 1886SOL     OW17293   4.480   3.422   5.583  0.0772  0.2575  0.0938
 1886SOL    HW117294   4.550   3.388   5.640  0.2682 -0.2077 -0.4237
 1886SOL    HW217295   4.399   3.409   5.631  0.1643 -0.2852  0.0886
 1887SOL     OW17296   1.929   1.122   0.803 -0.1570  0.0244  0.2724
 1887SOL    HW117297   1.948   1.028   0.800 -2.7564 -0.5192  0.2218
 1887SOL    HW217298   1.915   1.128   0.897 -0.1149  0.5271  0.2455
 1888SOL     OW17299   4.348   2.528   3.359  0.5875 -0.2237  0.1922
 1888SOL    HW117300   4.439   2.523   3.330 -0.1295 -1.6947 -1.8091
 1888SOL    HW217301   4.308   2.446   3.329 -1.0406  0.6116  0.0937
 1889SOL     OW17302   0.709   3.761   8.644  0.3504  0.3390 -0.5522
 1889SOL    HW117303   0.803   3.744   8.649  0.4980  0.4003 -3.4060
 1889SOL    HW217304   0.668   3.686   8.687  0.0736  1.5426  1.2752
 1890SOL     OW17305   2.266   0.237   2.467  0.1558  0.4187 -0.0207
 1890SOL    HW117306   2.232   0.158   2.426  1.4832  0.2906 -0.8509
 1890SOL    HW217307   2.193   0.288   2.503 -0.2126 -0.2798  0.2172
 1891SOL     OW17308   4.674   1.003  12.591  0.0851  0.0325 -1.4814
 1891SOL    HW117309   4.658   0.910  12.578 -0.6562 -0.0720  0.1900
 1891SOL    HW217310   4.586   1.025  12.621 -0.1335  0.3037 -2.3431
 1892SOL     OW17311   0.903   3.965   4.280  0.4245 -0.4391 -0.0035
 1892SOL    HW117312   0.837   3.981   4.212  2.0576 -0.5167 -1.5986
 1892SOL    HW217313   0.979   3.945   4.226  1.6760 -0.3928  1.7650
 1893SOL     OW17314   0.020   3.900  14.449  0.0689  0.8080  0.6362
 1893SOL    HW117315   4.687   3.848  14.421  1.1555 -0.4757  0.0906
 1893SOL    HW217316   0.077   3.840  14.496 -2.8121 -2.0450  0.5083
 1894SOL     OW17317   3.819   3.001  10.586 -0.4267  0.5525  0.2675
 1894SOL    HW117318   3.854   2.926  10.635 -0.1590  1.7563  1.9183
 1894SOL    HW217319   3.834   2.971  10.496  0.8695  1.6752  0.0967
 1895SOL     OW17320   2.173   2.398   2.746 -0.0662  0.0358 -0.0853
 1895SOL    HW117321   2.172   2.438   2.833  0.9046 -0.7262  0.2713
 1895SOL    HW217322   2.268   2.387   2.743 -0.0091  0.3673  0.5753
 1896SOL     OW17323   0.323   3.575   4.350 -0.0648  0.2974 -0.1718
 1896SOL    HW117324   0.416   3.557   4.362  0.0222  0.6538 -0.3136
 1896SOL    HW217325   0.309   3.656   4.398  2.4966 -0.2263  1.4298
 1897SOL     OW17326   1.988   4.186  14.423 -0.0432 -0.4603 -0.3788
 1897SOL    HW117327   1.911   4.141  14.388 -0.8222  1.2569 -0.8664
 1897SOL    HW217328   2.021   4.114  14.476 -1.1578 -0.2371  0.6111
 1898SOL     OW17329   2.775   2.014   5.988  0.1442  0.1203 -0.0388
 1898SOL    HW117330   2.804   2.069   6.060 -1.5594  0.1036  0.6693
 1898SOL    HW217331   2.755   2.089   5.932  0.3006 -0.1127 -0.4097
 1899SOL     OW17332   4.057   1.203   4.655 -0.7435  0.6485 -0.2448
 1899SOL    HW117333   4.059   1.214   4.750  2.1256  0.2844 -0.2411
 1899SOL    HW217334   3.983   1.261   4.638 -1.0080  0.1357 -0.8430
 1900SOL     OW17335   2.862   0.731   8.367 -1.1022  0.6564 -0.4422
 1900SOL    HW117336   2.841   0.823   8.383 -1.3646  0.4192  0.5514
 1900SOL    HW217337   2.779   0.702   8.328 -1.1670 -1.2540  1.1139
 1901SOL     OW17338   4.162   1.083   4.300  0.4279 -0.1214 -0.4009
 1901SOL    HW117339   4.196   1.107   4.386 -2.2917  0.1593  0.6024
 1901SOL    HW217340   4.067   1.091   4.311  0.5895  0.0621  0.9097
 1902SOL     OW17341   0.475   3.657   9.061 -0.0151  0.6678 -0.0122
 1902SOL    HW117342   0.422   3.643   9.140 -0.3965  0.5169 -0.2986
 1902SOL    HW217343   0.561   3.668   9.103  0.4762 -0.6341 -0.6930
 1903SOL     OW17344   2.979   2.980   9.606 -0.0019 -0.2303 -0.8107
 1903SOL    HW117345   2.901   2.938   9.642 -0.6368  2.3793  0.8906
 1903SOL    HW217346   3.046   2.912   9.614 -0.6523 -0.7739  0.0313
 1904SOL     OW17347   3.619   4.495  14.467  0.5956  0.1801  0.3089
 1904SOL    HW117348   3.570   4.577  14.474 -0.7701 -0.6038 -0.0506
 1904SOL    HW217349   3.557   4.435  14.509  2.5582 -1.3926  0.9389
 1905SOL     OW17350   4.524   2.219  10.955  0.6395  0.0302  0.3719
 1905SOL    HW117351   4.462   2.170  11.009  0.5628 -0.9531 -0.6001
 1905SOL    HW217352   4.606   2.191  10.995  0.5216 -0.3653  0.3401
 1906SOL     OW17353   3.224   2.247  12.064 -0.3613  0.5206 -0.1160
 1906SOL    HW117354   3.242   2.154  12.076 -0.7177  0.2826 -1.4617
 1906SOL    HW217355   3.142   2.246  12.113  0.7351  1.1617  1.7181
 1907SOL     OW17356   0.063   0.033   7.763  0.2935 -0.1503 -0.2727
 1907SOL    HW117357   0.150   0.042   7.803  0.9113 -0.4480 -1.5217
 1907SOL    HW217358   0.012   0.075   7.832 -1.6980 -2.1327 -0.5285
 1908SOL     OW17359   2.080   2.970   9.283  0.0102 -0.6994 -0.1114
 1908SOL    HW117360   2.133   3.038   9.243 -2.2279  0.6902 -0.7337
 1908SOL    HW217361   2.136   2.896   9.261  1.5293  0.6262 -0.7345
 1909SOL     OW17362   4.214   0.213   2.308  0.7562 -0.4440  0.2265
 1909SOL    HW117363   4.220   0.185   2.217 -1.2206 -1.0154  0.2689
 1909SOL    HW217364   4.124   0.245   2.299  1.1046  0.4136 -0.1840
 1910SOL     OW17365   4.704   0.010  16.279 -0.3532 -0.2590  0.6761
 1910SOL    HW117366   4.719   0.041  16.368  1.6688  0.4767  0.0764
 1910SOL    HW217367   4.614   0.041  16.264  0.1675  2.1828  2.6377
 1911SOL     OW17368   0.268   3.579   3.842  0.0079 -0.1678  0.1194
 1911SOL    HW117369   0.181   3.611   3.868  0.5375  1.3290  0.0206
 1911SOL    HW217370   0.306   3.581   3.930 -1.8442  0.4214  0.9092
 1912SOL     OW17371   0.742   1.447   1.837  0.2406  0.1386  0.1006
 1912SOL    HW117372   0.757   1.439   1.742  2.5814  1.8523  0.3481
 1912SOL    HW217373   0.670   1.511   1.835  0.7360  0.6120 -3.1289
 1913SOL     OW17374   3.829   4.233   8.020  0.2822  0.7070  0.6227
 1913SOL    HW117375   3.912   4.214   7.977  0.5574 -0.6352  1.7401
 1913SOL    HW217376   3.800   4.143   8.030 -1.4873  1.2408  0.3610
 1914SOL     OW17377   2.036   4.228   1.785  0.2858 -0.2115 -0.1715
 1914SOL    HW117378   2.015   4.166   1.714 -1.5071 -1.0806  1.1151
 1914SOL    HW217379   1.954   4.276   1.794 -0.3726 -1.1957 -0.7993
 1915SOL     OW17380   4.652   3.904   0.942  0.0208 -0.1361 -0.0999
 1915SOL    HW117381   4.712   3.934   1.011 -0.3589 -1.8947  1.0071
 1915SOL    HW217382   4.719   3.864   0.887  1.1035 -1.7165  2.3306
 1916SOL     OW17383   3.387   1.195   5.684 -0.4629  0.4826 -1.0046
 1916SOL    HW117384   3.327   1.170   5.755  0.0754  3.1975  0.4351
 1916SOL    HW217385   3.472   1.177   5.724 -0.6870  1.4261 -0.0812
 1917SOL     OW17386   3.580   3.752   3.438 -0.0361 -0.0720  0.2063
 1917SOL    HW117387   3.501   3.805   3.450  0.0428 -0.2203  1.3662
 1917SOL    HW217388   3.605   3.758   3.346  0.7423  0.8580  0.4643
 1918SOL     OW17389   4.659   0.208   3.894 -0.0737 -0.9694  0.3634
 1918SOL    HW117390   4.645   0.216   3.800 -0.3117 -1.7295  0.3313
 1918SOL    HW217391   4.565   0.213   3.914 -0.2189 -0.7659 -0.3734
 1919SOL     OW17392   1.083   4.665  12.480  0.2238 -0.0144  0.9945
 1919SOL    HW117393   1.059   4.736  12.539 -1.5264 -0.4699  0.8490
 1919SOL    HW217394   1.093   4.717  12.400 -0.1596 -0.3588  0.7175
 1920SOL     OW17395   4.576   1.237   2.071 -0.3338  0.1320 -0.3714
 1920SOL    HW117396   4.554   1.330   2.062  3.3284  1.0179  0.0152
 1920SOL    HW217397   4.552   1.201   1.986 -0.1567 -1.0008  0.0619
 1921SOL     OW17398   0.533   3.879   1.889 -0.2852  0.2275  0.4357
 1921SOL    HW117399   0.574   3.964   1.898  3.1686 -1.3049 -0.7927
 1921SOL    HW217400   0.453   3.910   1.847 -0.7052  2.0783  2.6460
 1922SOL     OW17401   4.339   1.858   3.324 -0.0097  0.8027 -0.6050
 1922SOL    HW117402   4.375   1.825   3.242  1.5639  1.5703 -0.2205
 1922SOL    HW217403   4.398   1.810   3.382 -1.8186 -1.3623 -0.5435
 1923SOL     OW17404   1.575   2.483   0.465 -0.3052 -0.3670 -0.4255
 1923SOL    HW117405   1.591   2.566   0.509  0.4311 -0.8744  0.2664
 1923SOL    HW217406   1.659   2.472   0.421  0.3137 -2.3542  1.2267
 1924SOL     OW17407   4.475   2.839   4.884  0.1523  0.3002 -1.1346
 1924SOL    HW117408   4.506   2.749   4.879  0.1985  0.1606  1.6279
 1924SOL    HW217409   4.544   2.877   4.828 -0.3685  3.4345  0.3448
 1925SOL     OW17410   3.445   0.324  17.316 -0.0359 -0.1024  0.1790
 1925SOL    HW117411   3.362   0.282  17.292 -0.2575  1.2047 -1.3221
 1925SOL    HW217412   3.452   0.331  17.411 -1.1070  1.1521  0.1633
 1926SOL     OW17413   4.509   1.412   9.219 -0.6509 -0.2825  0.0245
 1926SOL    HW117414   4.582   1.423   9.157  0.2627 -2.4486  0.7070
 1926SOL    HW217415   4.478   1.323   9.200  2.1012 -1.1489 -0.4169
 1927SOL     OW17416   3.276   1.697   5.688  0.1479  0.0552  0.6172
 1927SOL    HW117417   3.328   1.632   5.642  0.6009  0.9122 -0.0840
 1927SOL    HW217418   3.186   1.672   5.669  0.9965 -2.8964  0.5193
 1928SOL     OW17419   1.197   2.728   3.297  0.0083 -0.1590 -0.0486
 1928SOL    HW117420   1.226   2.642   3.266  1.4389  0.2938  0.0331
 1928SOL    HW217421   1.271   2.757   3.351  0.0742 -0.4595  0.0238
 1929SOL     OW17422   3.584   3.328  16.718 -0.6302  0.2873 -0.3273
 1929SOL    HW117423   3.508   3.334  16.775 -0.8111  0.3297 -0.5729
 1929SOL    HW217424   3.633   3.269  16.775 -0.0571  2.6703  1.6685
 1930SOL     OW17425   4.133   3.760   7.470  0.3011 -0.2354  0.2515
 1930SOL    HW117426   4.181   3.755   7.387 -1.4772  1.0673 -0.8627
 1930SOL    HW217427   4.183   3.820   7.525 -1.8639  0.2931  1.6370
 1931SOL     OW17428   3.916   4.499   7.063  0.6502  0.1241  0.0892
 1931SOL    HW117429   3.957   4.466   7.143 -2.0509  0.8934  1.7885
 1931SOL    HW217430   3.823   4.483   7.081  0.5533 -0.2898 -0.7829
 1932SOL     OW17431   0.812   2.886   1.339 -0.2905  0.3517 -0.5800
 1932SOL    HW117432   0.789   2.857   1.428  0.4315 -1.5620 -1.0166
 1932SOL    HW217433   0.817   2.798   1.303 -0.9999  1.0200 -2.3205
 1933SOL     OW17434   1.265   0.807   9.812 -0.0859  0.1952 -0.6383
 1933SOL    HW117435   1.237   0.728   9.858 -1.0804  0.9935  0.1075
 1933SOL    HW217436   1.243   0.782   9.722 -2.2761  0.6757 -0.2225
 1934SOL     OW17437   0.750   0.197   3.972 -0.3826  0.5576 -0.2656
 1934SOL    HW117438   0.787   0.236   3.893  2.4939 -0.3459  0.6647
 1934SOL    HW217439   0.761   0.269   4.033  0.4556 -0.0244  0.2641
 1935SOL     OW17440   3.905   2.570   2.837  0.0823  0.7860  0.9435
 1935SOL    HW117441   3.901   2.479   2.866  1.5494  0.1605 -0.8552
 1935SOL    HW217442   3.884   2.553   2.745 -1.6288 -0.4893  1.5652
 1936SOL     OW17443   1.499   1.496  15.270  0.5789  0.3044 -0.1637
 1936SOL    HW117444   1.447   1.535  15.340  1.2331 -1.5138  1.3557
 1936SOL    HW217445   1.433   1.439  15.231 -0.0645  0.0765  1.2381
 1937SOL     OW17446   3.916   3.380   2.492 -0.7442  0.2982  0.2638
 1937SOL    HW117447   3.987   3.324   2.524  0.1346  1.7632  0.8797
 1937SOL    HW217448   3.847   3.342   2.546  0.9609 -2.8287  0.2505
 1938SOL     OW17449   1.295   3.654  15.194  0.3164 -0.2088 -0.1021
 1938SOL    HW117450   1.276   3.598  15.119 -5.1686  1.1947  0.1909
 1938SOL    HW217451   1.243   3.730  15.166 -3.7019 -2.1445  2.0139
 1939SOL     OW17452   3.243   0.412   3.095  0.0213  0.4462 -0.6400
 1939SOL    HW117453   3.193   0.332   3.076 -0.5168  0.1148  2.1731
 1939SOL    HW217454   3.231   0.400   3.190  1.0636  4.3443 -0.0452
 1940SOL     OW17455   1.902   1.048   6.597  0.6514  0.1010 -0.2077
 1940SOL    HW117456   1.845   1.041   6.673 -1.1382 -2.3200 -1.7743
 1940SOL    HW217457   1.854   0.995   6.533 -0.2925 -0.5153  1.0213
 1941SOL     OW17458   2.920   3.087   6.745  0.3509  1.0157  0.0584
 1941SOL    HW117459   2.899   3.051   6.659 -3.3159  1.8205  0.6044
 1941SOL    HW217460   2.881   3.173   6.732 -0.3610  0.6952  0.0606
 1942SOL     OW17461   2.245   2.906   3.589 -0.3499  0.0321 -0.5825
 1942SOL    HW117462   2.242   2.961   3.512 -1.2123 -0.9928 -1.2731
 1942SOL    HW217463   2.335   2.875   3.579 -0.3482  0.0728 -0.6848
 1943SOL     OW17464   4.571   4.518  14.982  0.2160 -0.2003 -1.0584
 1943SOL    HW117465   4.625   4.577  14.929  0.2716  0.2214 -0.5435
 1943SOL    HW217466   4.590   4.438  14.933  0.2450  0.2283 -1.7419
 1944SOL     OW17467   1.525   2.179  16.169  0.4122  0.1477  0.4209
 1944SOL    HW117468   1.508   2.088  16.194 -0.0556 -0.8117 -3.4458
 1944SOL    HW217469   1.441   2.210  16.134  0.2339  1.1792  1.7607
 1945SOL     OW17470   3.204   3.712   6.833 -0.2743 -0.5147  0.7939
 1945SOL    HW117471   3.221   3.626   6.793 -0.3122 -0.1750  0.0597
 1945SOL    HW217472   3.213   3.769   6.757 -2.6971 -2.2423 -0.7830
 1946SOL     OW17473   2.748   4.653   5.897  0.5789  0.6884 -0.2071
 1946SOL    HW117474   2.739   0.005   5.897 -1.0774  0.5259  3.4342
 1946SOL    HW217475   2.791   4.642   5.982  1.6663  0.1058 -0.8311
 1947SOL     OW17476   0.157   3.576   9.595  0.3176 -0.3760  0.4968
 1947SOL    HW117477   0.097   3.649   9.579  0.6709 -0.3041 -0.5264
 1947SOL    HW217478   0.184   3.595   9.684 -0.3914 -1.9092  1.0425
 1948SOL     OW17479   3.867   2.209  14.740  0.6124  0.0906  0.2223
 1948SOL    HW117480   3.911   2.243  14.818 -3.1403 -0.4828  2.6209
 1948SOL    HW217481   3.851   2.117  14.761 -2.0606  0.6661  0.7255
 1949SOL     OW17482   3.382   3.290   4.905  1.1386 -0.7895  0.4599
 1949SOL    HW117483   3.414   3.201   4.898  0.7317 -0.9781  1.0189
 1949SOL    HW217484   3.460   3.335   4.939  0.0199  0.8313  0.9035
 1950SOL     OW17485   2.733   2.697   6.089  0.7404  0.4063  0.5184
 1950SOL    HW117486   2.738   2.602   6.094 -0.4225  0.3211  0.1901
 1950SOL    HW217487   2.715   2.713   6.182  1.3257  0.7587  0.5701
 1951SOL     OW17488   2.538   4.192   3.613 -0.2503 -0.2444 -0.0968
 1951SOL    HW117489   2.630   4.171   3.593  0.5497  1.9010  1.2831
 1951SOL    HW217490   2.548   4.281   3.647 -2.4270 -1.3197  3.3470
 1952SOL     OW17491   2.208   0.592   6.409  0.6708  0.1025 -0.2265
 1952SOL    HW117492   2.275   0.630   6.466 -0.8952  1.8024  0.5101
 1952SOL    HW217493   2.206   0.498   6.423  0.0987  0.3421  1.2797
 1953SOL     OW17494   0.605   1.879   2.552 -0.0009  0.0175 -0.1967
 1953SOL    HW117495   0.688   1.910   2.518 -1.0073  1.0108 -1.7545
 1953SOL    HW217496   0.616   1.784   2.548 -2.9714 -0.3029 -0.9510
 1954SOL     OW17497   2.553   1.058  11.121 -0.1360 -0.4694 -0.1937
 1954SOL    HW117498   2.502   1.021  11.049  0.2459 -1.1325 -0.1336
 1954SOL    HW217499   2.493   1.118  11.164  2.3414  1.2941  0.7755
 1955SOL     OW17500   3.833   3.085   4.252 -0.1737 -0.3235 -0.0295
 1955SOL    HW117501   3.891   3.013   4.227  0.9269  0.3411  0.5859
 1955SOL    HW217502   3.896   3.152   4.225  1.3829 -1.9262 -0.3603
 1956SOL     OW17503   0.904   3.345   7.493 -0.4394 -0.1782  0.0625
 1956SOL    HW117504   0.893   3.253   7.467  0.2575  0.8109 -3.6017
 1956SOL    HW217505   0.994   3.374   7.480  0.2383 -2.6926 -0.9615
 1957SOL     OW17506   1.980   1.249   1.454 -0.2829  0.1109 -0.3114
 1957SOL    HW117507   1.991   1.304   1.531 -0.2741 -1.6721  0.9398
 1957SOL    HW217508   1.998   1.316   1.387 -1.2935  0.8769  0.1667
 1958SOL     OW17509   2.137   1.726   7.975  0.2945  0.0816  0.1206
 1958SOL    HW117510   2.111   1.808   8.018 -1.5630  0.2375 -1.2965
 1958SOL    HW217511   2.187   1.680   8.042  0.8837  0.6468  0.0636
 1959SOL     OW17512   3.911   0.043  16.908 -0.3345 -0.2896  0.2975
 1959SOL    HW117513   3.823   0.043  16.946 -1.5693 -1.1290 -2.5434
 1959SOL    HW217514   3.890   0.098  16.833  0.8316  0.3770  0.4640
 1960SOL     OW17515   0.865   4.298   8.635 -0.1675 -0.2075  0.9788
 1960SOL    HW117516   0.944   4.246   8.649  1.0198  0.2933 -4.0979
 1960SOL    HW217517   0.888   4.367   8.573 -0.1351 -1.3243 -0.2478
 1961SOL     OW17518   3.331   1.959   8.202 -0.3786 -0.0257  0.2447
 1961SOL    HW117519   3.321   1.897   8.130 -1.6696 -0.1510  0.5304
 1961SOL    HW217520   3.260   1.940   8.263  0.3836 -3.3096  0.0812
 1962SOL     OW17521   0.264   2.226   5.042  0.0663  0.4242 -0.3202
 1962SOL    HW117522   0.275   2.304   5.096  0.0333  1.3524 -1.6400
 1962SOL    HW217523   0.271   2.149   5.099 -0.0115  1.0279  0.5009
 1963SOL     OW17524   4.296   2.921   6.074  0.0547  0.1415  0.6212
 1963SOL    HW117525   4.386   2.900   6.050 -0.6763 -0.7397 -1.3418
 1963SOL    HW217526   4.247   2.865   6.014  0.9931 -0.1513  0.1367
 1964SOL     OW17527   1.873   2.439  10.609 -0.7983 -0.1283  0.5128
 1964SOL    HW117528   1.791   2.448  10.561 -1.2506  0.9086  1.4793
 1964SOL    HW217529   1.888   2.346  10.589 -3.1321 -0.2707 -0.5561
 1965SOL     OW17530   3.016   4.218  17.132 -0.0764 -0.3942  0.4654
 1965SOL    HW117531   3.011   4.122  17.129 -1.2318 -0.3561  1.1563
 1965SOL    HW217532   2.973   4.246  17.213 -1.6247 -0.8575 -0.1908
 1966SOL     OW17533   0.857   3.595  11.069 -0.6760 -0.4056 -0.0001
 1966SOL    HW117534   0.851   3.562  11.158 -1.2234 -0.9759 -0.2484
 1966SOL    HW217535   0.905   3.523  11.028 -1.3165 -1.3697  0.9355
 1967SOL     OW17536   2.021   2.997   5.731 -0.4886  0.0277 -0.1072
 1967SOL    HW117537   1.977   2.916   5.754 -1.1872  0.9838  1.9664
 1967SOL    HW217538   1.974   3.050   5.796 -2.4017 -2.0749  0.2350
 1968SOL     OW17539   3.170   1.363   9.650  0.8532 -0.0395 -0.4083
 1968SOL    HW117540   3.085   1.356   9.693  0.5153  0.6413 -0.9658
 1968SOL    HW217541   3.167   1.453   9.618  1.4567  0.3822  0.7119
 1969SOL     OW17542   3.971   4.396   8.561 -0.4287  0.4463  0.1283
 1969SOL    HW117543   3.906   4.362   8.500 -0.0869  0.9466 -0.5252
 1969SOL    HW217544   4.003   4.477   8.521  1.7813 -1.2179 -1.4284
 1970SOL     OW17545   2.586   3.380  15.552 -0.0977  0.1542 -0.1701
 1970SOL    HW117546   2.530   3.350  15.480  0.6597  0.2713 -0.8184
 1970SOL    HW217547   2.544   3.464  15.569  1.4713  1.0465 -0.6874
 1971SOL     OW17548   1.255   1.508   7.496 -0.1490  0.1091  0.0594
 1971SOL    HW117549   1.349   1.504   7.480 -0.1334 -1.4046  0.6202
 1971SOL    HW217550   1.246   1.434   7.555  2.0592  0.5472  0.9060
 1972SOL     OW17551   1.546   1.726   6.871  0.1656 -0.5208  0.4138
 1972SOL    HW117552   1.462   1.716   6.828 -0.0451 -0.7978  0.8837
 1972SOL    HW217553   1.583   1.761   6.790  0.7949  2.7780  2.1052
 1973SOL     OW17554   4.508   3.237   6.102  0.0795 -0.3970  0.7179
 1973SOL    HW117555   4.448   3.291   6.154 -0.8490  0.2441 -1.0043
 1973SOL    HW217556   4.459   3.222   6.021 -1.2118 -1.5823  1.7143
 1974SOL     OW17557   0.109   3.288  16.467  0.0269 -0.4443 -0.4127
 1974SOL    HW117558   0.073   3.285  16.556  2.2329 -3.0450  0.3985
 1974SOL    HW217559   0.041   3.325  16.411  0.7142  0.6106 -0.5438
 1975SOL     OW17560   3.859   0.987  17.277  0.3660  0.7947 -1.0904
 1975SOL    HW117561   3.871   0.970  17.184 -0.4290  0.0840 -1.0575
 1975SOL    HW217562   3.874   1.082  17.278 -0.2789  0.8925 -0.4015
 1976SOL     OW17563   1.722   1.968   5.228 -0.3112  0.1483  0.1254
 1976SOL    HW117564   1.677   2.023   5.292  0.7839  0.4819  0.6074
 1976SOL    HW217565   1.656   1.952   5.161  0.3516 -3.6076  0.3614
 1977SOL     OW17566   1.484   4.224  10.957  0.4386 -0.4090  0.1110
 1977SOL    HW117567   1.528   4.153  11.003  1.0688 -0.6073 -0.8051
 1977SOL    HW217568   1.557   4.282  10.936  0.0849 -0.1626 -0.4451
 1978SOL     OW17569   2.423   0.072   8.480  0.2594  0.0390 -0.1473
 1978SOL    HW117570   2.378   0.078   8.396 -1.1106  1.6223  0.7043
 1978SOL    HW217571   2.459   4.727   8.464 -0.4894 -0.0902 -1.0691
 1979SOL     OW17572   2.314   1.521   1.332  0.3574 -0.1492 -0.0212
 1979SOL    HW117573   2.391   1.541   1.385 -2.5943  2.5795  3.2491
 1979SOL    HW217574   2.241   1.556   1.382 -0.2360 -1.1330 -0.1997
 1980SOL     OW17575   0.022   4.542   8.449 -0.6014 -0.2244  0.6420
 1980SOL    HW117576   0.005   4.506   8.535 -1.2212 -0.7454  0.2996
 1980SOL    HW217577   4.741   4.466   8.396 -1.4667  0.2760  0.3061
 1981SOL     OW17578   3.429   4.390   0.508  0.6050  0.2884  0.3488
 1981SOL    HW117579   3.434   4.324   0.578  1.5239 -1.6368 -1.5117
 1981SOL    HW217580   3.339   4.371   0.484  0.2077  0.7359  1.5097
 1982SOL     OW17581   0.274   0.788   6.781 -0.3869  0.4320 -0.2317
 1982SOL    HW117582   0.197   0.842   6.766 -0.8092 -0.1663 -0.2088
 1982SOL    HW217583   0.244   0.733   6.853  0.7437  0.0003 -0.0921
 1983SOL     OW17584   4.012   0.932   8.277  0.0681 -0.1070 -0.0668
 1983SOL    HW117585   4.103   0.905   8.285  0.3146  0.1796 -2.0701
 1983SOL    HW217586   4.022   1.002   8.213  2.1754  0.0036  0.3975
 1984SOL     OW17587   2.164   3.920   5.997 -0.2257 -0.4731  0.2657
 1984SOL    HW117588   2.159   4.012   5.969  0.7709 -1.9199 -4.5570
 1984SOL    HW217589   2.133   3.869   5.923 -1.2907  0.0252  0.3547
 1985SOL     OW17590   0.691   0.201   1.519  0.5895 -0.0381 -0.4648
 1985SOL    HW117591   0.777   0.159   1.524  0.3422 -0.4834  0.1509
 1985SOL    HW217592   0.654   0.176   1.434  0.1611  0.8663 -0.5438
 1986SOL     OW17593   4.214   3.219   7.766 -0.1113 -0.2856  0.1877
 1986SOL    HW117594   4.243   3.301   7.727  0.3721  0.4114  2.0302
 1986SOL    HW217595   4.269   3.149   7.732  0.9088  0.6727 -0.1344
 1987SOL     OW17596   4.154   0.591   8.665  0.4793  0.1946  0.1775
 1987SOL    HW117597   4.060   0.597   8.677  0.7058 -0.6424  2.3906
 1987SOL    HW217598   4.151   0.583   8.570 -1.7325  0.7982  0.2007
 1988SOL     OW17599   4.350   3.213   5.881 -0.2070  0.4123 -0.0900
 1988SOL    HW117600   4.280   3.277   5.870 -1.1203 -0.6375 -0.4779
 1988SOL    HW217601   4.317   3.153   5.814  0.9317  0.4259 -0.6538
 1989SOL     OW17602   1.674   2.743   7.347  1.0613 -0.2883  0.0082
 1989SOL    HW117603   1.694   2.772   7.259 -1.5308 -1.3442 -0.9125
 1989SOL    HW217604   1.620   2.817   7.375 -0.7944 -0.7172 -2.4979
 1990SOL     OW17605   4.569   3.401  14.679  0.0508  0.1383 -0.2018
 1990SOL    HW117606   4.487   3.353  14.671  0.8546 -1.1754 -0.6341
 1990SOL    HW217607   4.604   3.385  14.591 -0.8780  0.7882 -0.6887
 1991SOL     OW17608   1.129   3.916  13.628 -0.4652  0.2117  0.6151
 1991SOL    HW117609   1.177   3.841  13.592 -1.3621 -0.8639  1.6492
 1991SOL    HW217610   1.170   3.919  13.714 -0.5461 -1.2368  0.7078
 1992SOL     OW17611   0.530   2.901   5.090  0.7010  0.0868  0.3640
 1992SOL    HW117612   0.602   2.847   5.059 -0.9310 -2.8926  1.8165
 1992SOL    HW217613   0.524   2.977   5.032 -1.5980 -0.0296  0.4336
 1993SOL     OW17614   4.525   2.661   5.666  0.5630 -0.2866  0.0946
 1993SOL    HW117615   4.461   2.590   5.667 -0.5854  0.7690  1.6138
 1993SOL    HW217616   4.559   2.654   5.577 -0.1105 -1.9533 -0.0354
 1994SOL     OW17617   4.724   0.789   8.186 -0.0206 -0.8656 -0.1730
 1994SOL    HW117618   0.036   0.717   8.156  0.5662 -0.5763  0.1853
 1994SOL    HW217619   0.049   0.852   8.212 -0.3784 -0.4326 -0.2979
 1995SOL     OW17620   0.956   3.132   9.581  0.8398 -0.0508 -0.3098
 1995SOL    HW117621   0.988   3.182   9.656  3.9354 -0.3135 -1.4192
 1995SOL    HW217622   0.982   3.043   9.605 -1.8188 -0.7826 -0.1877
 1996SOL     OW17623   2.265   1.828   8.330  0.4238 -0.0770 -1.4075
 1996SOL    HW117624   2.296   1.835   8.420 -0.3257  1.4655 -1.2623
 1996SOL    HW217625   2.173   1.844   8.352  0.8348  2.7393 -1.7577
 1997SOL     OW17626   1.264   2.514   4.267  0.2060  0.1085  0.1032
 1997SOL    HW117627   1.304   2.516   4.180  0.2253  0.0400  0.1103
 1997SOL    HW217628   1.181   2.475   4.241  0.5996  0.1729 -1.2414
 1998SOL     OW17629   2.603   0.376   2.492 -0.3631 -0.1594 -0.5796
 1998SOL    HW117630   2.582   0.441   2.559  1.2253  0.3989 -0.6198
 1998SOL    HW217631   2.697   0.393   2.482  0.1617 -2.7878 -0.1740
 1999SOL     OW17632   0.029   0.615   7.197  0.4708  0.4069  0.2562
 1999SOL    HW117633   0.121   0.624   7.221 -0.0864  1.6879  1.9055
 1999SOL    HW217634   4.730   0.699   7.215  1.8070  1.3324 -0.9952
 2000SOL     OW17635   1.841   1.493   7.066 -0.1569 -0.0719 -0.6266
 2000SOL    HW117636   1.758   1.467   7.026 -0.5910  0.8202 -0.3060
 2000SOL    HW217637   1.800   1.550   7.131  1.9725  0.1904  0.4748
 2001SOL     OW17638   4.176   2.279  16.890  0.2100  0.1883  0.2171
 2001SOL    HW117639   4.232   2.317  16.823  0.3330  0.1457  0.2942
 2001SOL    HW217640   4.216   2.301  16.974 -1.9249 -1.3430  1.6282
 2002SOL     OW17641   4.451   1.706   1.154  0.2358  0.5356  0.2791
 2002SOL    HW117642   4.372   1.658   1.180  0.7154  0.4796  1.6498
 2002SOL    HW217643   4.474   1.655   1.077  0.5393 -0.3317  0.9352
 2003SOL     OW17644   4.667   4.354  10.917 -0.8022 -0.3407 -0.0440
 2003SOL    HW117645   4.742   4.339  10.860 -0.2656 -2.1685  1.1008
 2003SOL    HW217646   4.662   4.266  10.956 -0.2976 -0.4179 -0.1455
 2004SOL     OW17647   4.289   3.226  13.483  0.5774  0.0065 -0.3144
 2004SOL    HW117648   4.252   3.313  13.470  0.2878  0.0128  0.5777
 2004SOL    HW217649   4.291   3.194  13.392 -0.2679 -1.6184  0.2300
 2005SOL     OW17650   0.176   1.744   5.241  0.1836 -0.1815  0.0154
 2005SOL    HW117651   0.117   1.775   5.172 -0.8047  2.8586  2.1538
 2005SOL    HW217652   0.197   1.654   5.218  0.3388 -0.6666  2.0647
 2006SOL     OW17653   1.402   0.284   4.277  0.3143  0.3274  0.3252
 2006SOL    HW117654   1.422   0.377   4.287 -0.8683  0.5338  0.7822
 2006SOL    HW217655   1.483   0.247   4.241 -1.1993 -1.9989 -0.6196
 2007SOL     OW17656   1.173   1.044  17.615  0.3453  0.1015  0.2669
 2007SOL    HW117657   1.212   1.102  17.550  0.4660 -0.3422 -0.0545
 2007SOL    HW217658   1.178   1.100  17.693 -0.2451  0.5948 -0.0484
 2008SOL     OW17659   0.491   4.100   6.463 -0.2451  0.2438 -0.3213
 2008SOL    HW117660   0.560   4.137   6.409 -1.2355 -0.0241 -1.7703
 2008SOL    HW217661   0.550   4.050   6.519 -2.6330  0.0632  2.0502
 2009SOL     OW17662   3.836   4.114   1.086 -0.0083 -0.5890  0.3783
 2009SOL    HW117663   3.869   4.148   1.003 -3.5281 -1.1711 -1.2299
 2009SOL    HW217664   3.800   4.030   1.056 -1.0595  0.6032 -1.6098
 2010SOL     OW17665   4.055   4.720   3.855  0.1555  0.0648  0.1644
 2010SOL    HW117666   4.094   4.695   3.772  1.1797 -0.4276  0.7954
 2010SOL    HW217667   3.965   4.693   3.835  0.0408  0.6736 -0.1534
 2011SOL     OW17668   3.725   2.619  12.278 -0.3129 -0.6971 -0.4554
 2011SOL    HW117669   3.694   2.697  12.233 -1.2655 -1.3000 -0.8468
 2011SOL    HW217670   3.768   2.575  12.204  3.8405  1.7862  0.5124
 2012SOL     OW17671   0.026   0.983  10.098  0.0838 -0.2158  0.5023
 2012SOL    HW117672   4.736   0.893  10.087 -0.6175  0.0907  0.1023
 2012SOL    HW217673   0.107   0.976  10.048  1.5741 -0.7107  3.0004
 2013SOL     OW17674   3.395   3.866  11.889 -0.2271 -0.4180  0.0413
 2013SOL    HW117675   3.453   3.870  11.965  1.3001  1.0257 -1.2022
 2013SOL    HW217676   3.402   3.955  11.856  2.1463 -0.5452  0.2203
 2014SOL     OW17677   0.668   1.811   0.379 -0.0283 -0.2658  0.5851
 2014SOL    HW117678   0.653   1.768   0.296 -0.9216  2.4136 -0.6523
 2014SOL    HW217679   0.658   1.905   0.362  0.2411 -0.2528  0.4968
 2015SOL     OW17680   0.726   0.268   3.142 -0.2912  0.2811  0.2454
 2015SOL    HW117681   0.679   0.186   3.156  0.2892  0.0227  0.6717
 2015SOL    HW217682   0.808   0.232   3.178 -0.2484 -0.9799 -1.1125
 2016SOL     OW17683   0.143   0.080   8.749 -0.1877  0.4290  0.4753
 2016SOL    HW117684   0.174   0.007   8.802 -0.4344 -0.4776 -0.6270
 2016SOL    HW217685   0.127   0.138   8.824  0.4000  0.3014  0.6963
 2017SOL     OW17686   4.624   3.339   1.460  0.4407  0.2755 -0.5606
 2017SOL    HW117687   4.576   3.406   1.411  2.2029  0.5745 -1.8877
 2017SOL    HW217688   4.591   3.260   1.416  3.0293 -0.5637 -0.9818
 2018SOL     OW17689   4.621   0.052   5.943 -0.0935  0.0040 -0.3087
 2018SOL    HW117690   4.584   0.137   5.967  0.1775  0.0063  0.1042
 2018SOL    HW217691   4.694   0.087   5.892 -1.0108 -1.3083 -2.5188
 2019SOL     OW17692   1.274   2.524   1.749  0.3620 -0.2475 -0.2103
 2019SOL    HW117693   1.220   2.550   1.675 -2.5802 -2.1678  1.2790
 2019SOL    HW217694   1.340   2.470   1.704 -0.6390 -0.0116 -1.9674
 2020SOL     OW17695   0.498   3.726   7.243 -0.2219 -0.3823 -0.4530
 2020SOL    HW117696   0.418   3.680   7.219  0.1172 -2.1008  1.7635
 2020SOL    HW217697   0.478   3.768   7.327  1.3622  1.9779 -1.2416
 2021SOL     OW17698   3.690   3.482  13.892  0.0896 -0.1010 -0.2984
 2021SOL    HW117699   3.709   3.575  13.905  0.1701 -0.4627  2.1465
 2021SOL    HW217700   3.616   3.480  13.953  1.9560  0.2136  1.9586
 2022SOL     OW17701   1.172   1.944   6.642 -0.3177  0.3888 -0.0932
 2022SOL    HW117702   1.111   1.993   6.696 -0.7825  0.5212 -0.7378
 2022SOL    HW217703   1.149   1.856   6.672  0.3695 -0.9049 -3.3509
 2023SOL     OW17704   3.409   1.474   5.581 -0.1966 -0.0663 -0.3554
 2023SOL    HW117705   3.503   1.464   5.590 -0.3169  0.3401  1.4270
 2023SOL    HW217706   3.374   1.399   5.630 -0.4434 -0.3518 -0.9765
 2024SOL     OW17707   1.194   1.059   0.607  0.1974  0.3254  0.1990
 2024SOL    HW117708   1.274   1.010   0.591 -0.5376 -0.3996 -1.2677
 2024SOL    HW217709   1.170   1.037   0.697  3.0457 -1.3126  0.5672
 2025SOL     OW17710   3.531   0.037   8.719  0.7578 -0.1897  0.2646
 2025SOL    HW117711   3.519   4.697   8.672 -0.6670  1.1403 -1.7412
 2025SOL    HW217712   3.443   0.071   8.707  0.5204 -0.4912  1.2336
 2026SOL     OW17713   0.709   2.185   4.545  0.1287 -0.4935 -0.9967
 2026SOL    HW117714   0.640   2.227   4.493  0.5454  3.1874  1.4363
 2026SOL    HW217715   0.720   2.097   4.507  0.9241 -0.6498 -0.3995
 2027SOL     OW17716   0.479   2.231   8.028  0.2287  0.6776 -0.7773
 2027SOL    HW117717   0.482   2.137   8.009  3.1666  0.2264  1.8187
 2027SOL    HW217718   0.547   2.229   8.095  0.4668  3.1248 -0.9671
 2028SOL     OW17719   1.898   2.842   7.783  0.1970  0.0599  0.0899
 2028SOL    HW117720   1.818   2.848   7.835  0.8508 -0.6134  1.1668
 2028SOL    HW217721   1.866   2.773   7.726  0.8699  0.0847 -0.3082
 2029SOL     OW17722   1.129   1.007   5.205 -0.0469  0.2479  0.1612
 2029SOL    HW117723   1.145   1.040   5.294  1.5494 -1.3887  0.4713
 2029SOL    HW217724   1.083   0.928   5.236  0.5751 -0.0052  0.4347
 2030SOL     OW17725   0.176   0.115  14.844 -0.2103 -0.3098  0.5771
 2030SOL    HW117726   0.217   0.033  14.819  0.0001  0.6329 -2.1404
 2030SOL    HW217727   0.083   0.094  14.833  0.1441 -1.4348 -0.2373
 2031SOL     OW17728   2.848   1.352  11.058  1.0484  0.4246  0.2920
 2031SOL    HW117729   2.876   1.434  11.018  0.4207  0.7725  0.5668
 2031SOL    HW217730   2.755   1.376  11.062  0.0467 -3.6073  1.7884
 2032SOL     OW17731   2.285   1.976   5.627  0.1923  1.0688  0.0155
 2032SOL    HW117732   2.237   2.048   5.666  0.4916  0.6991  1.0610
 2032SOL    HW217733   2.266   1.987   5.534 -0.4217 -0.1644 -0.0144
 2033SOL     OW17734   3.149   0.557   3.873 -0.8906  0.4724  0.2547
 2033SOL    HW117735   3.083   0.617   3.840 -1.4982 -0.8125 -0.8753
 2033SOL    HW217736   3.155   0.581   3.966  1.0987 -3.4142  1.1390
 2034SOL     OW17737   4.142   3.200  11.135 -0.2750  0.2250 -0.1519
 2034SOL    HW117738   4.151   3.292  11.113 -2.1170  0.9082  1.9769
 2034SOL    HW217739   4.131   3.156  11.051  0.2236  0.1134 -0.1578
 2035SOL     OW17740   1.956   3.398   8.446 -0.0400 -0.5963  0.5683
 2035SOL    HW117741   2.005   3.317   8.461 -3.2283 -2.0182  3.1797
 2035SOL    HW217742   1.865   3.383   8.472  0.0557 -1.8714  0.1744
 2036SOL     OW17743   0.800   3.151   1.539 -0.0713 -0.4682 -0.3517
 2036SOL    HW117744   0.756   3.131   1.456 -0.0244 -0.2995 -0.4159
 2036SOL    HW217745   0.724   3.130   1.593  1.4774  0.0243  2.0405
 2037SOL     OW17746   2.384   3.598   2.936 -0.6810 -0.6282  0.5607
 2037SOL    HW117747   2.352   3.653   2.865 -1.2478 -1.1719  0.3964
 2037SOL    HW217748   2.425   3.656   3.000 -0.7096 -1.3972  1.2639
 2038SOL     OW17749   0.044   3.816   8.880  0.1033 -0.4195 -0.1545
 2038SOL    HW117750   0.116   3.856   8.928 -1.2154 -0.3271  1.7554
 2038SOL    HW217751   0.064   3.722   8.878  0.5367 -0.2659 -2.6046
 2039SOL     OW17752   4.055   1.577  16.842  0.0277  0.1712  0.2308
 2039SOL    HW117753   4.086   1.668  16.836  0.1814  0.1000 -0.0706
 2039SOL    HW217754   3.962   1.595  16.859 -0.0717 -1.6012  1.6052
 2040SOL     OW17755   0.774   3.338   6.572 -0.0473 -0.0160  0.6663
 2040SOL    HW117756   0.818   3.421   6.556  0.2738  0.0602  1.9422
 2040SOL    HW217757   0.842   3.290   6.619 -0.7121 -1.2363  0.3697
 2041SOL     OW17758   4.337   0.464   7.017 -0.0491  0.2104  0.2055
 2041SOL    HW117759   4.418   0.506   7.044 -0.6998 -0.0295  2.5308
 2041SOL    HW217760   4.296   0.452   7.103  0.1372 -3.3068 -0.1874
 2042SOL     OW17761   3.801   0.797   8.185  0.4164  0.2464 -0.3535
 2042SOL    HW117762   3.812   0.819   8.093 -1.6074  2.6274 -0.0104
 2042SOL    HW217763   3.850   0.865   8.231 -1.3704  1.1903  0.1638
 2043SOL     OW17764   0.200   1.555   6.305 -0.6525  0.3160 -0.2743
 2043SOL    HW117765   0.199   1.522   6.215 -1.3521 -1.2568  0.3138
 2043SOL    HW217766   0.277   1.612   6.306 -0.9025  0.6198  1.8319
 2044SOL     OW17767   4.625   1.773   5.614 -0.6159 -0.4740  0.0557
 2044SOL    HW117768   4.660   1.798   5.699 -1.4123 -1.6749  0.7415
 2044SOL    HW217769   4.539   1.815   5.614  0.3153  1.4439  0.1938
 2045SOL     OW17770   0.229   2.868   9.737  0.4982  0.5911  0.0762
 2045SOL    HW117771   0.136   2.845   9.737  1.2140 -2.2982  2.5909
 2045SOL    HW217772   0.266   2.798   9.682  0.4916  0.2992  0.4431
 2046SOL     OW17773   2.019   1.900  11.788  0.0601 -0.0952  0.6869
 2046SOL    HW117774   1.993   1.811  11.813 -1.9796  0.8991  2.0918
 2046SOL    HW217775   2.091   1.888  11.726 -0.1154 -1.4566  0.7550
 2047SOL     OW17776   0.974   2.860   8.593  0.6162  0.0210 -0.0216
 2047SOL    HW117777   0.986   2.946   8.632 -0.9400  0.6533 -0.9240
 2047SOL    HW217778   0.879   2.870   8.603  0.5461  0.0583 -0.7019
 2048SOL     OW17779   3.137   4.156   5.563 -0.6127 -0.0836 -0.4902
 2048SOL    HW117780   3.046   4.130   5.551 -1.0208  0.6118  1.1972
 2048SOL    HW217781   3.124   4.247   5.589 -0.1702 -0.6554  1.7468
 2049SOL     OW17782   0.193   2.989   6.334  0.2267  0.4064 -0.0641
 2049SOL    HW117783   0.241   2.927   6.389  0.3727  2.0697  1.6748
 2049SOL    HW217784   0.235   2.987   6.248  0.7465 -0.1060  0.2027
 2050SOL     OW17785   4.332   4.444   5.583  0.3092 -0.2102 -0.2577
 2050SOL    HW117786   4.268   4.514   5.599  0.6201 -0.0599  0.3451
 2050SOL    HW217787   4.397   4.465   5.650  0.2416  0.0525 -0.2725
 2051SOL     OW17788   2.443   0.044   2.928 -0.2275  0.5059  0.5154
 2051SOL    HW117789   2.454   0.039   2.833 -0.0996 -0.2696  0.5693
 2051SOL    HW217790   2.528   0.081   2.951 -0.7930  0.9046  1.9296
 2052SOL     OW17791   2.610   4.563   9.023 -0.4820  0.2404 -0.3142
 2052SOL    HW117792   2.644   4.503   8.957 -1.0282  0.3308 -0.6804
 2052SOL    HW217793   2.528   4.585   8.979  0.7001  1.6936 -1.8123
 2053SOL     OW17794   4.266   0.331   9.572 -0.3257  0.2626  0.0566
 2053SOL    HW117795   4.272   0.350   9.666  0.6982  0.2219  0.0001
 2053SOL    HW217796   4.358   0.308   9.560 -0.1781  1.5772 -1.3356
 2054SOL     OW17797   2.987   4.144   3.337 -0.1839  0.2601  0.5601
 2054SOL    HW117798   2.965   4.237   3.329  0.7833  0.1495 -3.3810
 2054SOL    HW217799   2.916   4.103   3.386 -0.9836  0.9980  0.0204
 2055SOL     OW17800   0.196   0.559   8.256  0.1359 -0.2767 -0.7657
 2055SOL    HW117801   0.272   0.503   8.242 -0.3116 -0.7588 -1.2444
 2055SOL    HW217802   0.229   0.619   8.323 -0.4397 -0.9819  0.1599
 2056SOL     OW17803   1.817   0.422   4.372 -0.2559  0.1170 -0.3482
 2056SOL    HW117804   1.804   0.376   4.455  2.7904 -1.1342 -0.5448
 2056SOL    HW217805   1.732   0.464   4.372  0.2516  1.1432  0.5596
 2057SOL     OW17806   3.429   3.693   6.299 -0.3550  0.2744 -0.3945
 2057SOL    HW117807   3.351   3.681   6.244 -0.8643 -2.5276  0.9482
 2057SOL    HW217808   3.412   3.777   6.342  1.1628  2.2226 -3.6269
 2058SOL     OW17809   2.410   3.415   3.808 -0.0186  0.1444  0.3416
 2058SOL    HW117810   2.339   3.477   3.789  0.1597  0.0468 -0.6466
 2058SOL    HW217811   2.377   3.358   3.877 -0.2503 -0.2470 -0.0883
 2059SOL     OW17812   1.886   3.521   1.064 -0.0330  0.0487 -0.1375
 2059SOL    HW117813   1.844   3.448   1.109  1.5019 -0.4193  0.5420
 2059SOL    HW217814   1.903   3.481   0.979  0.5663 -1.3794  0.6588
 2060SOL     OW17815   2.434   4.301   7.264  0.2144 -0.0181  0.0789
 2060SOL    HW117816   2.401   4.388   7.243 -0.1127  0.0642  0.9472
 2060SOL    HW217817   2.431   4.253   7.181  2.7760 -0.3423  0.1925
 2061SOL     OW17818   1.493   4.705   5.762  0.3957  0.3878 -0.0829
 2061SOL    HW117819   1.535   4.708   5.848 -0.1580 -2.9589  0.3333
 2061SOL    HW217820   1.465   0.053   5.757 -0.4087  0.1118 -0.6537
 2062SOL     OW17821   1.217   2.187   3.722 -0.2565  0.0696 -0.3508
 2062SOL    HW117822   1.155   2.177   3.650  1.0690 -0.7513 -1.3919
 2062SOL    HW217823   1.169   2.247   3.778 -0.1464  0.1223 -0.3130
 2063SOL     OW17824   3.175   2.680   5.646 -0.1953  0.2871 -0.5185
 2063SOL    HW117825   3.187   2.602   5.592  1.7655 -0.5023  1.0019
 2063SOL    HW217826   3.093   2.714   5.611 -0.3057  0.2723 -0.2751
 2064SOL     OW17827   2.129   3.788   0.276  0.0279 -0.7426 -0.3868
 2064SOL    HW117828   2.181   3.823   0.204  2.3990 -0.2251  1.5407
 2064SOL    HW217829   2.201   3.759   0.333  1.7655  1.5227 -1.4161
 2065SOL     OW17830   3.037   1.202   7.537 -0.0369  0.7851  0.2118
 2065SOL    HW117831   3.010   1.149   7.461  0.8910 -0.1240  0.5175
 2065SOL    HW217832   3.003   1.141   7.603  2.2720 -1.6105 -0.7665
 2066SOL     OW17833   3.444   4.174   0.668 -0.1294  0.3038 -0.1030
 2066SOL    HW117834   3.389   4.097   0.650  1.2926  0.1858 -4.0697
 2066SOL    HW217835   3.458   4.171   0.762  1.5482  1.0036 -0.3322
 2067SOL     OW17836   1.752   3.577  15.978  0.4966 -0.2255  0.1264
 2067SOL    HW117837   1.708   3.630  16.045 -0.2537 -0.9322  0.1946
 2067SOL    HW217838   1.828   3.635  15.975  1.2797 -1.2378  0.1351
 2068SOL     OW17839   1.181   2.162   3.418  0.5716  0.0739 -0.9901
 2068SOL    HW117840   1.129   2.082   3.424  0.9835 -0.2734 -1.9024
 2068SOL    HW217841   1.137   2.202   3.343 -2.2712 -1.8681 -0.3384
 2069SOL     OW17842   4.532   0.294   5.995  0.2775  0.6095 -0.1734
 2069SOL    HW117843   4.593   0.364   5.972 -0.6192  2.0220  1.7770
 2069SOL    HW217844   4.482   0.323   6.071  0.1349  1.1983 -0.4888
 2070SOL     OW17845   4.655   0.068   7.494 -0.7439  0.3735  0.1972
 2070SOL    HW117846   4.702   0.062   7.411  0.7239 -0.6337  1.1142
 2070SOL    HW217847   4.724   0.088   7.557  1.4659  0.3973 -2.1908
 2071SOL     OW17848   1.650   1.260   7.519  0.2611 -0.3443  0.1799
 2071SOL    HW117849   1.674   1.178   7.562  1.2364 -0.6042 -0.8561
 2071SOL    HW217850   1.687   1.323   7.580 -0.3303 -0.8453  1.0481
 2072SOL     OW17851   4.659   2.645   5.401  0.3960 -0.3725  0.8100
 2072SOL    HW117852   4.617   2.679   5.321  1.8417  2.4273  1.2371
 2072SOL    HW217853   0.005   2.678   5.387 -0.1826  0.9766  0.3214
 2073SOL     OW17854   3.529   4.255  10.447 -0.2903 -0.1299 -0.2391
 2073SOL    HW117855   3.479   4.336  10.454 -1.2865 -0.7647 -0.0775
 2073SOL    HW217856   3.620   4.280  10.430 -0.5176 -1.0982 -2.9653
 2074SOL     OW17857   3.854   2.168  12.404 -0.1487  0.0471 -0.1030
 2074SOL    HW117858   3.902   2.194  12.482 -1.6116 -0.0022  0.8195
 2074SOL    HW217859   3.768   2.170  12.446  0.2553 -0.3718  0.7239
 2075SOL     OW17860   3.538   4.076   1.450 -0.1195 -0.3524 -0.3201
 2075SOL    HW117861   3.477   4.105   1.517  0.6784  2.6872 -0.9169
 2075SOL    HW217862   3.608   4.059   1.512  0.1803 -1.3711 -0.9338
 2076SOL     OW17863   1.642   0.065   5.973 -1.0942  0.0406 -0.3669
 2076SOL    HW117864   1.631   0.156   5.998 -0.9355  0.1401 -0.6673
 2076SOL    HW217865   1.701   0.028   6.040 -0.6310 -1.2891 -1.4976
 2077SOL     OW17866   4.447   0.346   4.496 -0.0969  0.3411 -0.2432
 2077SOL    HW117867   4.374   0.409   4.489  0.2552  0.7655 -0.0962
 2077SOL    HW217868   4.477   0.345   4.587 -1.0630 -0.4399  0.0597
 2078SOL     OW17869   1.917   3.061   7.073 -0.0144 -0.8117 -0.4933
 2078SOL    HW117870   1.963   3.080   6.991  0.8467  1.4848  0.5336
 2078SOL    HW217871   1.969   3.102   7.141 -3.8039 -0.7610  2.4027
 2079SOL     OW17872   0.348   3.276   7.825  0.1270  0.1617 -0.1952
 2079SOL    HW117873   0.310   3.357   7.860 -0.8172 -1.5862  2.7991
 2079SOL    HW217874   0.439   3.286   7.851 -0.1037 -0.9954  1.0544
 2080SOL     OW17875   2.523   3.355   6.208  0.1603  0.1615  0.8989
 2080SOL    HW117876   2.545   3.267   6.178  0.2775  0.4687  0.1008
 2080SOL    HW217877   2.435   3.345   6.243 -0.9113 -1.6089 -2.3825
 2081SOL     OW17878   2.493   1.578  14.231  0.5404 -0.1564  0.1193
 2081SOL    HW117879   2.482   1.483  14.243 -2.8673  0.6263  3.0983
 2081SOL    HW217880   2.537   1.594  14.315  1.5236  1.7283 -0.7465
 2082SOL     OW17881   1.622   0.071   4.656  0.4340 -0.7786  0.3869
 2082SOL    HW117882   1.600   0.103   4.744  0.7618  0.6248 -0.0406
 2082SOL    HW217883   1.540   0.084   4.608  1.7842  0.0018 -1.7043
 2083SOL     OW17884   3.044   0.579   9.967  0.4595  0.4521  0.2471
 2083SOL    HW117885   2.978   0.643   9.993  0.3372  0.3671  0.1481
 2083SOL    HW217886   2.984   0.525   9.915 -1.6374  1.9734  1.1060
 2084SOL     OW17887   2.898   3.788   6.614  0.0520 -0.1309  0.1749
 2084SOL    HW117888   2.910   3.881   6.595 -1.9473  0.4625  1.8227
 2084SOL    HW217889   2.979   3.759   6.572  0.2479 -2.1103  1.9789
 2085SOL     OW17890   4.333   1.933  11.927  0.2334  0.3032  0.0576
 2085SOL    HW117891   4.423   1.965  11.923  0.4080 -0.1069  0.5602
 2085SOL    HW217892   4.308   1.968  12.012 -0.4547 -1.5056  0.6064
 2086SOL     OW17893   1.579   3.186   3.859  0.4461  0.5805  0.0303
 2086SOL    HW117894   1.652   3.240   3.829  1.5056 -0.8610  0.0355
 2086SOL    HW217895   1.507   3.211   3.801  1.2041  3.7022  0.4494
 2087SOL     OW17896   4.297   4.674  17.120  0.0684 -0.5911  0.1530
 2087SOL    HW117897   4.255   4.644  17.040  0.9809  0.0438 -0.5560
 2087SOL    HW217898   4.297   4.590  17.167  0.3758 -0.3888  0.5131
 2088SOL     OW17899   3.418   1.685   4.491 -0.3898  0.1214 -0.3581
 2088SOL    HW117900   3.409   1.641   4.576 -2.6229  0.0354 -0.6452
 2088SOL    HW217901   3.509   1.716   4.495 -0.9830  2.1279 -2.5579
 2089SOL     OW17902   2.766   3.125  16.345 -0.1134 -0.0089  0.6994
 2089SOL    HW117903   2.815   3.043  16.340 -0.9729 -0.3724 -1.3583
 2089SOL    HW217904   2.754   3.148  16.437 -1.5526  2.5928 -0.1526
 2090SOL     OW17905   2.805   1.533   3.606 -0.2239 -0.1557 -0.6056
 2090SOL    HW117906   2.883   1.532   3.550  0.5401  1.1435  0.4293
 2090SOL    HW217907   2.820   1.589   3.682 -2.8557  0.9079 -0.8815
 2091SOL     OW17908   1.439   4.092   2.437  0.0438  0.0030 -0.4667
 2091SOL    HW117909   1.356   4.061   2.472  0.9338 -0.6506  1.0668
 2091SOL    HW217910   1.419   4.185   2.448 -0.2343 -0.1300  0.1678
 2092SOL     OW17911   1.512   1.341   5.172 -0.2726 -0.0018  0.3308
 2092SOL    HW117912   1.465   1.260   5.192 -0.6431  0.2619  0.5394
 2092SOL    HW217913   1.461   1.402   5.225 -0.1409  0.0674  0.3774
 2093SOL     OW17914   1.459   0.512   5.236 -0.3863  0.0609  0.0714
 2093SOL    HW117915   1.412   0.535   5.316  1.4794  2.9568  0.3642
 2093SOL    HW217916   1.529   0.456   5.271  1.2615  0.7946 -2.0268
 2094SOL     OW17917   1.572   0.339   2.835 -0.3323  0.3836  0.0472
 2094SOL    HW117918   1.599   0.429   2.858 -0.2624  1.5426 -4.6551
 2094SOL    HW217919   1.638   0.314   2.770 -1.2348 -0.0707 -0.6886
 2095SOL     OW17920   3.459   4.732   6.655  0.1514 -0.1948  0.0684
 2095SOL    HW117921   3.364   4.739   6.671  0.3488  2.9578 -0.1386
 2095SOL    HW217922   3.484   4.677   6.729  0.0556 -0.9819 -0.4880
 2096SOL     OW17923   1.687   2.174   3.141  0.0079 -0.7485  0.6541
 2096SOL    HW117924   1.699   2.176   3.236  0.7117  0.2792  0.5440
 2096SOL    HW217925   1.735   2.093   3.123  1.0793  0.3609 -1.5545
 2097SOL     OW17926   1.408   2.374   6.558  0.2067  0.0474  0.0176
 2097SOL    HW117927   1.391   2.421   6.640 -0.5730  0.1193 -0.1914
 2097SOL    HW217928   1.429   2.444   6.497  2.6885  1.1951  2.1690
 2098SOL     OW17929   1.581   4.050   6.308 -0.0738  0.3135  0.6765
 2098SOL    HW117930   1.562   4.112   6.378  2.8924  0.1397  1.6549
 2098SOL    HW217931   1.494   4.011   6.298 -0.6401  1.6045  0.6163
 2099SOL     OW17932   1.139   2.392  15.818 -0.4735 -0.4503  0.0963
 2099SOL    HW117933   1.210   2.379  15.755  0.4274 -1.4041  1.3261
 2099SOL    HW217934   1.085   2.320  15.787  0.9968 -1.1275 -0.8945
 2100SOL     OW17935   4.297   4.467  13.406 -0.2053 -0.6247 -0.5432
 2100SOL    HW117936   4.299   4.550  13.455 -0.0301 -1.5613  1.0270
 2100SOL    HW217937   4.221   4.422  13.441  0.0557 -0.2935  0.4615
 2101SOL     OW17938   4.121   4.611   6.380  0.5410  0.1208  0.4615
 2101SOL    HW117939   4.187   4.612   6.310  0.3978  2.0046  0.3410
 2101SOL    HW217940   4.171   4.665   6.441 -0.6458  0.8713  0.7779
 2102SOL     OW17941   4.394   4.149  16.612 -0.0287  0.0075  0.0483
 2102SOL    HW117942   4.313   4.141  16.562  0.3570  2.6598 -0.9587
 2102SOL    HW217943   4.392   4.060  16.650 -1.7559 -0.5444 -1.3614
 2103SOL     OW17944   0.561   4.422   5.592  0.3636  0.4862  0.5294
 2103SOL    HW117945   0.541   4.387   5.506  0.7300 -1.2771  1.1632
 2103SOL    HW217946   0.503   4.495   5.612 -0.6763  0.1540 -1.3289
 2104SOL     OW17947   2.346   0.825   6.031  0.1476 -0.3124  0.2586
 2104SOL    HW117948   2.331   0.900   6.089 -2.6315  0.8608 -2.0180
 2104SOL    HW217949   2.414   0.863   5.974  0.1154 -0.4307  0.1433
 2105SOL     OW17950   3.238   1.135   0.434 -1.1241 -1.0077 -0.6847
 2105SOL    HW117951   3.239   1.101   0.523  0.1298 -2.4930 -1.2589
 2105SOL    HW217952   3.198   1.217   0.462 -2.6118 -1.6425 -0.8872
 2106SOL     OW17953   2.846   2.758   9.764  0.3084  0.2863 -0.2260
 2106SOL    HW117954   2.815   2.734   9.852  0.2670 -0.7500 -0.5184
 2106SOL    HW217955   2.886   2.675   9.738  0.0811  0.8403 -2.3144
 2107SOL     OW17956   1.040   3.358   5.892 -0.0801 -0.2222 -0.3555
 2107SOL    HW117957   0.992   3.384   5.970  0.0874  1.1011 -0.6986
 2107SOL    HW217958   0.971   3.370   5.828 -0.4316  2.8077  0.6156
 2108SOL     OW17959   2.107   1.994  15.085  0.3314 -0.6269 -0.0303
 2108SOL    HW117960   2.172   2.009  15.015  1.7084 -1.2649  1.1114
 2108SOL    HW217961   2.030   1.973  15.032 -0.4840  0.8769  0.5697
 2109SOL     OW17962   3.936   2.799  11.203 -0.0388  0.2553 -0.2735
 2109SOL    HW117963   3.915   2.706  11.192 -0.5237  0.5129 -1.4686
 2109SOL    HW217964   3.976   2.819  11.118  0.2598 -0.0999 -0.2168
 2110SOL     OW17965   1.803   3.947   2.080 -0.2592 -0.2682 -0.1016
 2110SOL    HW117966   1.723   3.980   2.121  0.4267  1.2761 -0.0057
 2110SOL    HW217967   1.789   3.853   2.092  0.3366 -0.4568 -0.9539
 2111SOL     OW17968   1.546   2.897   1.966 -0.2103 -0.2706  0.3801
 2111SOL    HW117969   1.496   2.818   1.945 -0.5987  0.1927 -0.4064
 2111SOL    HW217970   1.621   2.856   2.011 -1.3931 -1.4206  1.3197
 2112SOL     OW17971   0.463   2.430  15.152  0.0915 -0.6351 -0.2492
 2112SOL    HW117972   0.424   2.489  15.216  0.0339  0.7817 -1.5935
 2112SOL    HW217973   0.412   2.440  15.071 -1.8875 -1.1778  0.9345
 2113SOL     OW17974   1.681   0.601   7.256 -0.0243 -0.2516 -0.0694
 2113SOL    HW117975   1.721   0.677   7.297  0.3786  0.0699 -1.0606
 2113SOL    HW217976   1.647   0.639   7.175 -0.9157 -1.0348 -0.0744
 2114SOL     OW17977   0.950   1.239   5.333 -0.3917 -0.0866 -0.1351
 2114SOL    HW117978   0.954   1.203   5.244  0.4405  2.4692 -1.1174
 2114SOL    HW217979   1.044   1.247   5.348 -0.1331  1.0825 -2.4709
 2115SOL     OW17980   0.588   0.247   4.251 -0.6383 -0.3364  0.1665
 2115SOL    HW117981   0.576   0.164   4.204 -2.1037 -0.1041  0.1439
 2115SOL    HW217982   0.580   0.225   4.343 -2.6435 -0.1217  0.0481
 2116SOL     OW17983   1.794   4.225  10.368  0.6398  0.0899 -0.5799
 2116SOL    HW117984   1.853   4.186  10.304  1.2200  2.8086 -1.6803
 2116SOL    HW217985   1.722   4.164  10.352 -0.5724  1.1217  0.8263
 2117SOL     OW17986   4.169   2.608   3.042  0.2383  0.0498 -0.5315
 2117SOL    HW117987   4.145   2.685   2.991 -1.2506 -0.6135 -0.8378
 2117SOL    HW217988   4.264   2.616   3.045  0.2149 -0.6769  2.1129
 2118SOL     OW17989   2.114   4.273   5.273 -0.1394  0.0411  0.2153
 2118SOL    HW117990   2.022   4.270   5.298 -0.1255 -1.0629  0.1412
 2118SOL    HW217991   2.147   4.197   5.320 -0.4344 -1.7272 -2.4377
 2119SOL     OW17992   2.322   2.544  10.472  0.0763 -0.1481 -0.3448
 2119SOL    HW117993   2.334   2.633  10.504 -1.8048  0.7453 -2.0826
 2119SOL    HW217994   2.330   2.488  10.549 -1.1240  1.3357  0.8613
 2120SOL     OW17995   1.039   3.222   8.930  0.0206 -0.9370 -0.4524
 2120SOL    HW117996   1.054   3.285   8.858 -2.4042  1.6447  1.2871
 2120SOL    HW217997   1.020   3.277   9.006 -0.7783 -1.0836 -0.5468
 2121SOL     OW17998   0.555   0.174   6.189  0.2975 -0.5483  0.4075
 2121SOL    HW117999   0.582   0.119   6.116 -0.8661  1.7791 -1.8045
 2121SOL    HW218000   0.576   0.259   6.150  0.9087 -1.1050 -0.4678
 2122SOL     OW18001   3.545   1.691   2.164  0.2237  0.3486 -0.2491
 2122SOL    HW118002   3.503   1.618   2.210  1.5154 -0.5440 -0.4682
 2122SOL    HW218003   3.628   1.691   2.212 -0.7229 -0.0593  1.3971
 2123SOL     OW18004   0.017   3.181   1.174 -0.1120 -0.0240  0.1244
 2123SOL    HW118005   4.672   3.160   1.204  0.5017 -1.4971  0.9162
 2123SOL    HW218006   0.025   3.253   1.112 -0.3318  0.3336  0.5168
 2124SOL     OW18007   0.549   0.356   2.945  0.2037  0.4649 -0.0122
 2124SOL    HW118008   0.511   0.270   2.927 -1.1006  0.4393  2.8066
 2124SOL    HW218009   0.611   0.345   3.018  1.7353 -0.4203 -1.4478
 2125SOL     OW18010   4.063   3.473   1.740 -0.3992  0.3774 -0.3155
 2125SOL    HW118011   4.057   3.444   1.831  1.4333  0.7329 -0.0586
 2125SOL    HW218012   4.070   3.569   1.746  2.0875  0.2347 -0.7498
 2126SOL     OW18013   2.191   0.096   7.831 -0.4545 -0.0073  0.3695
 2126SOL    HW118014   2.142   0.014   7.824  2.6938 -1.8724  0.3867
 2126SOL    HW218015   2.251   0.088   7.757  0.7141  3.1094  0.9783
 2127SOL     OW18016   3.414   1.132   5.047 -0.4693 -0.3834  0.1213
 2127SOL    HW118017   3.363   1.052   5.034 -0.7077 -0.0823 -0.7807
 2127SOL    HW218018   3.468   1.095   5.116 -0.0174 -2.3060 -1.2632
 2128SOL     OW18019   1.129   3.223  11.503  0.2986 -0.0551 -0.0488
 2128SOL    HW118020   1.140   3.164  11.577  1.3890  0.4548  0.1884
 2128SOL    HW218021   1.051   3.191  11.457  0.4144  0.4820 -0.6301
 2129SOL     OW18022   0.638   3.914  11.583 -0.1495  0.4006  0.1689
 2129SOL    HW118023   0.604   3.883  11.667  0.1888  0.4395  0.3203
 2129SOL    HW218024   0.561   3.960  11.551  0.3555  0.0997 -1.4708
 2130SOL     OW18025   2.629   2.536  15.800  0.7801 -0.0116  0.2356
 2130SOL    HW118026   2.617   2.476  15.727  0.4203  1.2183 -0.7261
 2130SOL    HW218027   2.568   2.604  15.768 -0.0252 -1.4482 -1.2663
 2131SOL     OW18028   3.665   0.405   5.998 -0.0775  0.3363  0.2053
 2131SOL    HW118029   3.658   0.475   6.063 -1.1984 -0.4919  0.9923
 2131SOL    HW218030   3.631   0.449   5.920 -0.1299  1.3608  0.8030
 2132SOL     OW18031   3.061   1.232   7.059  0.0056 -0.7170  0.0761
 2132SOL    HW118032   2.982   1.196   7.100 -0.4204  1.7100  1.3503
 2132SOL    HW218033   3.072   1.314   7.106  3.0969 -0.1276 -1.6670
 2133SOL     OW18034   4.310   1.130  14.449  0.1207 -0.3740  0.3913
 2133SOL    HW118035   4.364   1.204  14.475 -3.6423  1.9424  1.4981
 2133SOL    HW218036   4.254   1.132  14.526 -0.9667  0.5053 -0.4287
 2134SOL     OW18037   1.561   4.391   8.293  0.6526  0.5402 -0.2230
 2134SOL    HW118038   1.557   4.385   8.388 -0.3474 -0.8739 -0.3544
 2134SOL    HW218039   1.526   4.478   8.274  2.3627  1.1459 -0.6641
 2135SOL     OW18040   0.841   2.782  15.952 -0.7293  0.2111 -0.7013
 2135SOL    HW118041   0.832   2.836  15.874 -1.8366  0.4635 -0.4020
 2135SOL    HW218042   0.935   2.764  15.951 -0.9725 -1.2320  1.3647
 2136SOL     OW18043   0.850   4.433   2.091  0.2895  0.2969  0.1977
 2136SOL    HW118044   0.808   4.474   2.167  0.9366  0.1107  0.6531
 2136SOL    HW218045   0.875   4.347   2.124 -1.8196 -0.0572  0.9148
 2137SOL     OW18046   1.472   4.370   5.823 -0.6954 -0.0208  0.5353
 2137SOL    HW118047   1.528   4.447   5.817 -0.5072 -0.1773  0.2973
 2137SOL    HW218048   1.403   4.408   5.769 -0.0526  1.0768  0.4970
 2138SOL     OW18049   3.192   3.995   3.914  0.2353  0.1360 -0.3390
 2138SOL    HW118050   3.099   3.991   3.939  0.1708 -1.0266 -0.7539
 2138SOL    HW218051   3.183   4.055   3.839  1.1506  0.0767 -0.4932
 2139SOL     OW18052   2.335   1.239   8.557 -0.1251  0.0346  0.1438
 2139SOL    HW118053   2.284   1.310   8.518 -0.8334 -0.6995 -0.2635
 2139SOL    HW218054   2.299   1.238   8.646 -0.1914  0.3944  0.1231
 2140SOL     OW18055   1.516   3.348   6.824  0.0029 -0.1730  0.0854
 2140SOL    HW118056   1.527   3.268   6.876 -0.6043 -0.6884 -0.5750
 2140SOL    HW218057   1.543   3.312   6.739 -1.7120  1.2682 -1.0792
 2141SOL     OW18058   2.447   2.990   8.421 -0.0279  0.0418 -0.5367
 2141SOL    HW118059   2.513   3.033   8.475 -0.2035  0.8753 -0.9853
 2141SOL    HW218060   2.491   2.907   8.404  1.6242  0.6383  0.8322
 2142SOL     OW18061   1.822   4.314   3.139  0.1090  0.1193 -0.1349
 2142SOL    HW118062   1.899   4.367   3.155 -0.5554  0.3101  2.3999
 2142SOL    HW218063   1.792   4.368   3.065 -1.0975 -0.3607 -0.0037
 2143SOL     OW18064   2.287   2.344   6.298  0.0191 -0.2394  0.5059
 2143SOL    HW118065   2.365   2.315   6.345  0.7499  1.0824  0.1067
 2143SOL    HW218066   2.247   2.257   6.303 -1.5851  0.4694  0.1087
 2144SOL     OW18067   4.134   3.291   3.886 -0.2631 -0.1136  0.1696
 2144SOL    HW118068   4.166   3.366   3.835 -0.6737  0.0058  0.0861
 2144SOL    HW218069   4.195   3.291   3.960  1.0394  1.6356 -0.9035
 2145SOL     OW18070   4.739   0.075   5.377  0.0151 -0.2548  0.2012
 2145SOL    HW118071   4.727   4.723   5.385  0.2331 -0.0914  2.5039
 2145SOL    HW218072   0.089   0.088   5.355  0.2995 -0.1434  1.4878
 2146SOL     OW18073   3.758   4.313  11.725 -0.2876  0.2831 -0.4183
 2146SOL    HW118074   3.725   4.402  11.735 -1.3390 -0.1276 -0.1719
 2146SOL    HW218075   3.715   4.274  11.801  1.4873 -2.8537 -1.0094
 2147SOL     OW18076   2.996   3.816  12.478 -0.1428 -0.8785  0.2577
 2147SOL    HW118077   3.035   3.846  12.396 -2.6473  1.8168  0.0574
 2147SOL    HW218078   2.992   3.900  12.524 -0.5903 -1.4290  1.2407
 2148SOL     OW18079   1.018   0.512  15.668 -0.4699  0.4148  0.0623
 2148SOL    HW118080   1.076   0.481  15.737 -2.1092  0.1368  1.3020
 2148SOL    HW218081   1.035   0.606  15.657 -1.3155  0.8236  2.3061
 2149SOL     OW18082   1.151   3.925  15.509  0.2903  0.0305 -0.1418
 2149SOL    HW118083   1.155   3.960  15.598  1.8112  0.1833 -0.2657
 2149SOL    HW218084   1.106   3.999  15.469  0.6364 -0.6539 -1.7707
 2150SOL     OW18085   2.354   2.083   6.610  0.6452  0.2524 -0.6025
 2150SOL    HW118086   2.365   2.023   6.684  1.9886  0.9632 -0.2144
 2150SOL    HW218087   2.259   2.087   6.601  0.8178  2.2380 -1.5612
 2151SOL     OW18088   0.521   0.861   1.825  0.8171 -0.7261 -0.3350
 2151SOL    HW118089   0.427   0.863   1.807  0.8518  0.3796 -0.3910
 2151SOL    HW218090   0.564   0.821   1.750  0.0689  3.2887 -2.9206
 2152SOL     OW18091   4.306   0.646   9.736  0.2208 -0.2798 -0.5299
 2152SOL    HW118092   4.390   0.600   9.727  1.3653  1.7868 -0.4791
 2152SOL    HW218093   4.296   0.675   9.826  1.2979  0.5127 -0.6565
 2153SOL     OW18094   2.867   1.017   7.375  0.3137  0.0943 -0.6950
 2153SOL    HW118095   2.826   1.015   7.461 -0.7787  0.3876 -1.2091
 2153SOL    HW218096   2.894   0.926   7.360  1.9185  0.0872  2.1959
 2154SOL     OW18097   3.575   2.787   1.948 -0.1012  0.1126 -0.0508
 2154SOL    HW118098   3.665   2.819   1.945  0.4397 -1.3450  0.7759
 2154SOL    HW218099   3.593   2.693   1.945 -3.8873 -0.6143 -0.3013
 2155SOL     OW18100   0.385   1.107  10.941 -0.4522 -1.2557  0.1926
 2155SOL    HW118101   0.341   1.141  11.019  1.0152  1.9413 -0.3833
 2155SOL    HW218102   0.475   1.140  10.948 -1.6749  1.7311  2.0979
 2156SOL     OW18103   1.546   1.825  12.508  0.0469  0.2795  0.1154
 2156SOL    HW118104   1.486   1.891  12.474 -1.4562 -1.4653 -0.6296
 2156SOL    HW218105   1.636   1.844  12.481  0.0622  1.1935  0.8029
 2157SOL     OW18106   1.290   2.876   1.755 -0.2287 -0.2529  0.0820
 2157SOL    HW118107   1.312   2.820   1.830 -2.2784  0.1767  0.9806
 2157SOL    HW218108   1.203   2.901   1.784  0.0473  1.2645 -0.3810
 2158SOL     OW18109   3.395   3.915  12.437 -0.8701 -0.0041 -0.3131
 2158SOL    HW118110   3.398   3.845  12.502  1.2087 -1.0371 -1.5370
 2158SOL    HW218111   3.324   3.965  12.477 -0.9569 -1.3825  1.2632
 2159SOL     OW18112   4.131   2.943   9.544  0.1655  0.0475  0.4746
 2159SOL    HW118113   4.200   3.006   9.520  1.0405 -0.1311  2.5511
 2159SOL    HW218114   4.183   2.863   9.551  0.3611  0.1768  0.4898
 2160SOL     OW18115   3.457   3.174   5.917  0.0107 -0.9387 -0.2113
 2160SOL    HW118116   3.435   3.240   5.852 -2.7150  0.0686  1.7240
 2160SOL    HW218117   3.552   3.179   5.916  0.0809 -2.5265 -0.6901
 2161SOL     OW18118   1.363   2.673  17.531  0.6864  0.2566 -0.1452
 2161SOL    HW118119   1.329   2.718  17.608  0.7419  0.4002 -0.2055
 2161SOL    HW218120   1.412   2.745  17.490  1.9555 -0.0937  0.7532
 2162SOL     OW18121   3.263   1.756  11.274 -0.9243 -0.4902  0.0345
 2162SOL    HW118122   3.305   1.766  11.359 -1.2069 -3.3484  0.4871
 2162SOL    HW218123   3.214   1.675  11.284  0.0262 -1.0197  0.4179
 2163SOL     OW18124   3.366   0.868   2.470 -0.3980 -0.2593 -0.3419
 2163SOL    HW118125   3.451   0.838   2.436 -0.4794 -1.5280  0.6143
 2163SOL    HW218126   3.400   0.940   2.523 -1.0307  0.3386 -0.7446
 2164SOL     OW18127   1.385   4.240   5.246  0.1604 -0.5679  0.2495
 2164SOL    HW118128   1.451   4.224   5.178  0.3987  2.0394 -0.1559
 2164SOL    HW218129   1.307   4.273   5.203 -0.8489 -0.3516  2.2288
 2165SOL     OW18130   1.879   1.961  17.047  0.0874 -0.5410  0.2651
 2165SOL    HW118131   1.955   1.975  17.103  0.4488  2.3921 -0.9332
 2165SOL    HW218132   1.804   1.985  17.102 -0.2550 -0.1971 -0.3460
 2166SOL     OW18133   3.379   2.174  10.057  0.2735 -0.0278 -0.1804
 2166SOL    HW118134   3.377   2.080  10.044 -1.2057 -0.0224 -0.0704
 2166SOL    HW218135   3.440   2.188  10.130 -1.0217  1.2450  0.6624
 2167SOL     OW18136   2.917   4.153   7.229  0.1685  0.4661  0.1219
 2167SOL    HW118137   2.914   4.082   7.165  0.6351  1.9254 -1.5312
 2167SOL    HW218138   2.995   4.135   7.281  0.9540  0.4936 -1.0593
 2168SOL     OW18139   1.571   1.415   2.560  0.4519 -0.5473 -0.0751
 2168SOL    HW118140   1.579   1.322   2.540  0.2058 -0.3207 -1.2313
 2168SOL    HW218141   1.596   1.415   2.652  2.8802  0.2574 -0.7478
 2169SOL     OW18142   4.303   1.050  11.133 -0.4095  0.6630 -0.0454
 2169SOL    HW118143   4.363   1.081  11.200 -2.7098  0.9569  1.8947
 2169SOL    HW218144   4.268   0.969  11.172  0.5638  0.0502 -0.4532
 2170SOL     OW18145   4.190   3.060   8.897 -0.2668 -0.0355  0.2710
 2170SOL    HW118146   4.194   3.060   8.992  3.0029 -0.7606  0.1338
 2170SOL    HW218147   4.097   3.045   8.879 -0.0965  1.0738 -1.5143
 2171SOL     OW18148   3.951   0.531   2.103  0.7143  0.2368  0.3080
 2171SOL    HW118149   4.008   0.547   2.027 -0.2142 -1.6632 -0.7978
 2171SOL    HW218150   3.873   0.499   2.057  3.9024 -3.2627 -2.7706
 2172SOL     OW18151   3.950   1.434   8.898 -0.2077 -0.4565  0.2759
 2172SOL    HW118152   3.965   1.348   8.936  2.3427 -1.6379 -3.4196
 2172SOL    HW218153   3.983   1.420   8.810 -0.7874  1.5351 -0.2749
 2173SOL     OW18154   0.533   2.119   2.644  0.0560 -0.1418 -0.2035
 2173SOL    HW118155   0.596   2.158   2.705  2.5654 -0.5876 -2.5398
 2173SOL    HW218156   0.565   2.036   2.608 -0.2616 -0.3144 -0.0914
 2174SOL     OW18157   0.279   0.710   8.458 -0.4879  0.5523 -0.2458
 2174SOL    HW118158   0.365   0.751   8.453  0.4602 -1.1036  2.5098
 2174SOL    HW218159   0.232   0.754   8.529  0.8984  0.1863  0.8896
 2175SOL     OW18160   1.554   4.002   6.725  0.1079  0.6301 -0.4362
 2175SOL    HW118161   1.568   4.058   6.802  1.9976  0.2532 -0.5032
 2175SOL    HW218162   1.463   4.025   6.707 -0.4985 -0.0278  1.7749
 2176SOL     OW18163   1.341   0.805   2.880 -0.3252  0.1745 -0.0575
 2176SOL    HW118164   1.413   0.745   2.900 -2.1331 -1.9440  0.1529
 2176SOL    HW218165   1.270   0.745   2.901 -0.0395 -0.2564 -0.3186
 2177SOL     OW18166   4.277   0.979   9.853  0.0059 -0.1008  0.5320
 2177SOL    HW118167   4.230   1.020   9.926  0.1197  0.5707  0.2291
 2177SOL    HW218168   4.342   0.923   9.897 -2.0792 -0.7316  2.8530
 2178SOL     OW18169   0.884   2.632  11.791 -0.2304 -0.1071  0.4441
 2178SOL    HW118170   0.900   2.557  11.849  2.7936  0.1589 -0.0619
 2178SOL    HW218171   0.807   2.605  11.740 -1.2499 -0.0726  1.9662
 2179SOL     OW18172   3.711   1.231   1.719  0.5199 -0.0238  0.1989
 2179SOL    HW118173   3.761   1.297   1.671  0.3393 -0.3636 -0.4411
 2179SOL    HW218174   3.770   1.219   1.794 -0.4611 -1.4761  0.7334
 2180SOL     OW18175   2.937   1.718   8.561 -0.0298  0.0419  0.5885
 2180SOL    HW118176   3.027   1.706   8.592 -0.0706 -0.9815  0.3115
 2180SOL    HW218177   2.923   1.813   8.554  1.2313  0.3304  1.9770
 2181SOL     OW18178   1.708   3.919   5.929 -0.7117  0.7615 -0.3777
 2181SOL    HW118179   1.764   3.920   5.851  0.2320 -3.6892  0.2675
 2181SOL    HW218180   1.623   3.897   5.891 -0.4489 -2.2938  0.8404
 2182SOL     OW18181   4.302   4.301   1.202 -0.4077  0.5501  0.4091
 2182SOL    HW118182   4.300   4.308   1.107  2.3405 -0.2644  0.2911
 2182SOL    HW218183   4.209   4.320   1.214 -0.2681  0.7162  1.2165
 2183SOL     OW18184   1.865   2.787   5.795  0.1503  0.7235 -0.0957
 2183SOL    HW118185   1.846   2.693   5.793 -0.7112  0.8824  0.3099
 2183SOL    HW218186   1.785   2.825   5.758  0.3670 -0.0527 -1.3326
 2184SOL     OW18187   0.334   1.523   2.478  0.0055 -0.5402 -0.2052
 2184SOL    HW118188   0.360   1.562   2.394 -0.4538  0.9985  0.3596
 2184SOL    HW218189   0.413   1.471   2.492  0.2835  0.1247  0.6541
 2185SOL     OW18190   0.453   1.193  15.596  0.6778 -0.2131  0.2810
 2185SOL    HW118191   0.497   1.232  15.672  0.8437 -0.3745  0.2677
 2185SOL    HW218192   0.522   1.162  15.538  1.2387  1.4295  0.0654
 2186SOL     OW18193   0.024   0.254   6.379 -0.3771  0.0274 -0.2169
 2186SOL    HW118194   0.114   0.240   6.407 -0.2958 -1.7370 -1.2926
 2186SOL    HW218195   0.035   0.254   6.284 -1.8932  1.2388 -0.3950
 2187SOL     OW18196   3.286   1.699   7.928  0.3823 -0.0736 -0.1954
 2187SOL    HW118197   3.190   1.704   7.921  0.3228 -0.3778  0.4445
 2187SOL    HW218198   3.300   1.612   7.967  1.2709  0.5706  0.9186
 2188SOL     OW18199   0.735   0.721   8.300 -0.0103  0.6626  0.4074
 2188SOL    HW118200   0.775   0.786   8.358 -1.7496  1.0993  1.1119
 2188SOL    HW218201   0.804   0.680   8.248 -0.8493 -0.0130 -0.1897
 2189SOL     OW18202   0.838   3.845   3.626  0.5183 -0.3605 -0.1485
 2189SOL    HW118203   0.774   3.906   3.662 -0.2181 -0.5011 -1.2191
 2189SOL    HW218204   0.822   3.780   3.694  0.7962  1.5640  1.7595
 2190SOL     OW18205   0.277   0.029   9.156  0.0732  0.0542 -0.2294
 2190SOL    HW118206   0.282   0.052   9.248  0.4052 -0.8137 -0.0275
 2190SOL    HW218207   0.369   0.035   9.132  0.1665  1.1220  0.3927
 2191SOL     OW18208   0.719   1.520   4.667 -0.0940 -0.3835 -0.3786
 2191SOL    HW118209   0.745   1.432   4.694 -0.3869 -0.8075 -1.4751
 2191SOL    HW218210   0.633   1.502   4.629  0.5057 -1.1220 -1.3875
 2192SOL     OW18211   3.931   3.193   7.183  0.1765  0.4627  0.1435
 2192SOL    HW118212   3.910   3.100   7.185 -1.9809  0.9258 -0.8924
 2192SOL    HW218213   3.839   3.219   7.178  1.1649  4.1676  1.4170
 2193SOL     OW18214   4.509   3.505   6.626  0.2256 -0.4706 -0.2565
 2193SOL    HW118215   4.541   3.478   6.712 -1.0465  0.5113  0.5073
 2193SOL    HW218216   4.414   3.497   6.626  0.3246 -1.7079 -2.1933
 2194SOL     OW18217   4.172   2.662  14.048  0.4166  0.1516  0.1016
 2194SOL    HW118218   4.085   2.679  14.084 -0.2860 -0.1677 -1.4771
 2194SOL    HW218219   4.163   2.568  14.035 -3.5136  0.3938  1.1503
 2195SOL     OW18220   3.766   1.129   9.161  0.2090  0.2322  0.5805
 2195SOL    HW118221   3.690   1.161   9.212 -0.2714 -0.6700  0.4300
 2195SOL    HW218222   3.834   1.170   9.214  1.2166  0.1901 -0.6993
 2196SOL     OW18223   2.348   4.172  14.424 -0.0359 -0.4418  0.3763
 2196SOL    HW118224   2.362   4.148  14.516  1.6697 -2.2630 -0.3538
 2196SOL    HW218225   2.289   4.248  14.430 -0.7092 -0.8305 -1.3635
 2197SOL     OW18226   1.003   3.789  10.930 -0.1574  0.3005  0.2933
 2197SOL    HW118227   0.964   3.744  11.005  1.0345  0.1813  0.8352
 2197SOL    HW218228   1.025   3.711  10.879  0.2368  0.8268 -0.3469
 2198SOL     OW18229   1.364   4.110   8.189  0.1356 -0.3819  0.0462
 2198SOL    HW118230   1.357   4.175   8.119  0.6737  0.1254  0.4680
 2198SOL    HW218231   1.452   4.116   8.225  1.0936  1.1518 -2.5649
 2199SOL     OW18232   3.215   1.735  17.625  0.3016 -0.4319 -0.0294
 2199SOL    HW118233   3.162   1.791  17.568 -0.3219  1.4943  2.4269
 2199SOL    HW218234   3.247   1.685  17.550 -1.0062 -1.7499  0.2864
 2200SOL     OW18235   4.056   4.234   0.121  0.0710 -0.0955 -0.0686
 2200SOL    HW118236   4.030   4.142   0.123 -3.2388  0.8136 -1.2012
 2200SOL    HW218237   3.977   4.275   0.156 -0.3273  0.6698 -1.8882
 2201SOL     OW18238   4.329   2.488   5.663 -0.2700 -0.3707  0.5814
 2201SOL    HW118239   4.248   2.438   5.667 -0.9190  0.5361 -1.3328
 2201SOL    HW218240   4.372   2.428   5.602  0.2341  1.2469 -0.6712
 2202SOL     OW18241   0.584   3.558   4.720 -0.5231 -0.9052  0.2351
 2202SOL    HW118242   0.533   3.620   4.669  1.5911  1.0001  0.4324
 2202SOL    HW218243   0.673   3.593   4.711 -0.5789 -0.8153  0.0348
 2203SOL     OW18244   0.847   4.452  10.427  0.0798 -0.5461  0.2731
 2203SOL    HW118245   0.852   4.504  10.347 -2.5651  1.7647  1.6209
 2203SOL    HW218246   0.890   4.371  10.399  3.9494  1.8999 -0.9329
 2204SOL     OW18247   4.685   0.297   1.940 -0.0064  0.2906  0.2445
 2204SOL    HW118248   4.617   0.308   1.873  0.6811  2.1418 -0.1361
 2204SOL    HW218249   4.641   0.227   1.989  2.3546 -2.2216 -1.2328
 2205SOL     OW18250   1.420   1.541  13.363 -0.1227  0.0135  0.3278
 2205SOL    HW118251   1.473   1.463  13.377 -0.9531 -0.8758 -1.5084
 2205SOL    HW218252   1.483   1.610  13.384  0.1118 -0.0179 -0.2776
 2206SOL     OW18253   2.341   2.978   7.747  0.0770  0.1921 -0.3157
 2206SOL    HW118254   2.386   3.061   7.766  1.9436 -1.1322  1.0112
 2206SOL    HW218255   2.410   2.918   7.776 -1.5726 -0.5332  2.0449
 2207SOL     OW18256   4.447   0.328   5.059 -0.4763 -0.2804 -0.1045
 2207SOL    HW118257   4.512   0.284   5.113 -0.8518  0.6650  1.1167
 2207SOL    HW218258   4.372   0.275   5.087 -0.8125  0.3837  0.2697
 2208SOL     OW18259   1.050   0.803  10.942 -0.2820 -0.0309 -0.1243
 2208SOL    HW118260   1.093   0.885  10.965  1.1618 -0.3534 -1.6233
 2208SOL    HW218261   1.031   0.773  11.031  0.1804 -1.1872 -0.4075
 2209SOL     OW18262   3.801   3.554   4.833 -0.2241  0.2052 -0.5761
 2209SOL    HW118263   3.735   3.564   4.765 -0.1816  2.0560 -0.3300
 2209SOL    HW218264   3.745   3.563   4.910  3.0821  0.5312  1.7854
 2210SOL     OW18265   1.453   2.126   7.347  0.1333 -0.1691 -0.1591
 2210SOL    HW118266   1.369   2.154   7.310  0.4007  0.4472 -0.3001
 2210SOL    HW218267   1.475   2.197   7.406  0.3274 -0.2244 -0.1648
 2211SOL     OW18268   2.041   3.863   6.594 -0.5062  0.7532  0.6659
 2211SOL    HW118269   2.008   3.837   6.680  0.1505  0.6588  0.8934
 2211SOL    HW218270   1.993   3.803   6.537 -0.5199  1.4275 -0.0240
 2212SOL     OW18271   2.562   2.084  17.040  0.1071  0.4830 -0.0799
 2212SOL    HW118272   2.538   2.114  16.952 -0.6985 -0.4043 -0.1569
 2212SOL    HW218273   2.654   2.069  17.020  0.1505  2.4943 -1.3987
 2213SOL     OW18274   1.460   2.919   6.913 -0.3941 -0.3219 -0.0087
 2213SOL    HW118275   1.483   2.885   6.999  1.3846  1.6658  0.3156
 2213SOL    HW218276   1.496   3.008   6.919  0.8290 -1.0876  3.5420
 2214SOL     OW18277   1.844   2.429   0.408  0.2451  0.2994 -0.2663
 2214SOL    HW118278   1.921   2.474   0.443  0.4217 -0.6395  0.5788
 2214SOL    HW218279   1.856   2.449   0.316  1.7709 -1.0896 -0.3803
 2215SOL     OW18280   4.378   1.764   4.793  0.0079 -0.5741  0.6054
 2215SOL    HW118281   4.387   1.680   4.840 -0.6739 -1.5330 -0.9754
 2215SOL    HW218282   4.471   1.783   4.782  0.2935 -1.3304  1.6893
 2216SOL     OW18283   0.317   1.030   4.790  0.5716 -0.3324 -0.2951
 2216SOL    HW118284   0.409   1.045   4.814  0.2372 -1.9902  1.9954
 2216SOL    HW218285   0.314   0.961   4.724 -1.2042  0.3229 -0.8940
 2217SOL     OW18286   2.041   4.626   6.543 -0.4943  0.4679  0.7223
 2217SOL    HW118287   1.955   4.614   6.583  0.0950  2.0720  2.4746
 2217SOL    HW218288   2.072   4.536   6.529 -2.3359 -0.0993  0.2561
 2218SOL     OW18289   3.484   3.291   6.325  0.3267  0.0414  0.1559
 2218SOL    HW118290   3.476   3.223   6.259 -1.4222  0.6612 -0.2518
 2218SOL    HW218291   3.402   3.337   6.312 -0.6818 -1.2145  1.9932
 2219SOL     OW18292   2.755   2.645   6.826 -0.4405 -0.2198 -0.8333
 2219SOL    HW118293   2.760   2.674   6.735  1.1968  1.0821 -0.3434
 2219SOL    HW218294   2.695   2.710   6.863 -0.3484 -0.0045 -1.0610
 2220SOL     OW18295   4.299   3.809   6.244  0.4556 -0.5458 -0.6176
 2220SOL    HW118296   4.215   3.803   6.200 -0.0553 -1.0787  0.4372
 2220SOL    HW218297   4.303   3.905   6.247 -1.1715 -0.5231  0.7616
 2221SOL     OW18298   2.885   3.525   4.035  0.8784 -0.5995 -0.1490
 2221SOL    HW118299   2.864   3.515   4.128 -1.7573 -0.3004 -0.7209
 2221SOL    HW218300   2.922   3.438   4.020  2.8823 -0.0681  1.6415
 2222SOL     OW18301   0.013   2.120  12.480  0.0168 -0.4708 -0.2162
 2222SOL    HW118302   0.100   2.112  12.519 -0.3255 -1.2845  0.3772
 2222SOL    HW218303   4.734   2.208  12.510 -2.3253 -0.7265 -1.1952
 2223SOL     OW18304   1.957   3.878   9.043 -0.1110 -0.4355 -0.0621
 2223SOL    HW118305   1.942   3.833   9.126  0.0455  0.0713  0.2399
 2223SOL    HW218306   1.874   3.858   8.999  0.0094  2.2389 -1.4687
 2224SOL     OW18307   3.188   0.700   3.346  0.1703 -0.1461  0.2660
 2224SOL    HW118308   3.119   0.645   3.382 -0.0766 -0.1820 -0.2490
 2224SOL    HW218309   3.239   0.702   3.427  2.3746  0.3560 -1.1337
 2225SOL     OW18310   3.885   2.306   6.459  0.4177  0.2104  0.5237
 2225SOL    HW118311   3.822   2.305   6.386  0.6388 -0.5511  0.3504
 2225SOL    HW218312   3.856   2.392   6.492  1.2770  0.9248 -0.5824
 2226SOL     OW18313   2.792   3.615  14.141 -0.3472 -0.4114 -0.1254
 2226SOL    HW118314   2.724   3.607  14.074 -1.1827 -1.2508  0.8233
 2226SOL    HW218315   2.737   3.638  14.217 -0.0990 -0.7392  0.1526
 2227SOL     OW18316   4.204   0.598   6.816 -0.0092 -0.7050  0.1257
 2227SOL    HW118317   4.252   0.532   6.865  1.0956  0.0934  0.1145
 2227SOL    HW218318   4.159   0.642   6.889 -2.9551 -0.2659 -1.9268
 2228SOL     OW18319   3.111   0.702   0.779 -0.5917 -0.7668  0.1103
 2228SOL    HW118320   3.133   0.612   0.802 -0.6357  0.0064  3.0983
 2228SOL    HW218321   3.019   0.726   0.793  0.1625  1.3308  1.3915
 2229SOL     OW18322   1.228   0.543   5.598 -0.0396  0.3519  0.0997
 2229SOL    HW118323   1.237   0.630   5.558 -0.6118 -0.3931 -1.6682
 2229SOL    HW218324   1.169   0.501   5.535  0.8402  0.4885 -0.8054
 2230SOL     OW18325   0.710   3.335   5.505 -0.2370 -0.0531 -0.1612
 2230SOL    HW118326   0.676   3.263   5.452 -1.0909  0.5780 -0.4572
 2230SOL    HW218327   0.640   3.398   5.492  0.6078  1.0544  0.6892
 2231SOL     OW18328   0.031   2.242   1.040 -0.2401  0.5823  0.2591
 2231SOL    HW118329   0.020   2.208   1.129 -3.8838 -1.6964 -1.0342
 2231SOL    HW218330   0.111   2.293   1.041 -0.1295  0.4253 -0.8599
 2232SOL     OW18331   4.635   3.077   4.319  0.5612 -0.2412  0.1802
 2232SOL    HW118332   4.591   3.047   4.239  1.2760  1.6536 -0.9112
 2232SOL    HW218333   4.643   3.172   4.307  0.3325 -0.3198 -0.5681
 2233SOL     OW18334   3.275   4.166  14.682 -0.1804 -0.2300 -0.4409
 2233SOL    HW118335   3.217   4.233  14.646  1.9556  1.9154  0.0594
 2233SOL    HW218336   3.237   4.080  14.665 -0.1653 -0.8357  2.7122
 2234SOL     OW18337   2.218   0.095   3.290  0.6271  0.3333 -0.1539
 2234SOL    HW118338   2.230   0.074   3.383 -0.0820 -0.1872 -0.1798
 2234SOL    HW218339   2.241   0.009   3.257 -1.4459  0.2608 -1.4041
 2235SOL     OW18340   0.718   2.991   6.836  0.7150 -0.7424  0.1774
 2235SOL    HW118341   0.738   2.897   6.840 -1.1972 -1.2072 -1.1758
 2235SOL    HW218342   0.776   3.022   6.766  1.8303 -0.9113  1.0310
 2236SOL     OW18343   0.733   2.913   7.200 -1.1499 -0.2553 -0.3530
 2236SOL    HW118344   0.811   2.924   7.145 -0.8590  0.9788  0.3316
 2236SOL    HW218345   0.694   3.000   7.201  0.2566  0.3538  1.2013
 2237SOL     OW18346   1.279   2.453   7.711 -0.3070 -0.1001 -0.0856
 2237SOL    HW118347   1.224   2.531   7.703 -0.6615 -0.3353  0.0591
 2237SOL    HW218348   1.212   2.386   7.723 -2.1703  1.9191  0.7940
 2238SOL     OW18349   0.183   3.655   9.852 -0.0771  0.0429  0.2359
 2238SOL    HW118350   0.257   3.712   9.831 -0.3399  1.0903  2.1423
 2238SOL    HW218351   0.198   3.623   9.941 -0.6928  0.8525  0.6267
 2239SOL     OW18352   0.894   2.684   9.723  0.1810  0.0750 -0.3153
 2239SOL    HW118353   0.959   2.749   9.696  1.2348 -1.1447 -0.6991
 2239SOL    HW218354   0.935   2.599   9.710 -0.5206 -0.6127  2.1080
 2240SOL     OW18355   0.535   2.886   3.009 -0.3162 -0.2104 -0.4554
 2240SOL    HW118356   0.562   2.853   2.924 -0.4728  1.3684 -1.1301
 2240SOL    HW218357   0.604   2.855   3.067 -2.2257 -2.8456  0.4384
 2241SOL     OW18358   0.251   3.859   6.831 -0.4349  0.2235  0.1326
 2241SOL    HW118359   0.200   3.786   6.796  0.3050 -0.7010  0.9622
 2241SOL    HW218360   0.329   3.809   6.857 -0.4379 -1.6762 -3.4584
 2242SOL     OW18361   4.439   3.546   8.864 -0.7362  0.4335 -0.0291
 2242SOL    HW118362   4.509   3.514   8.807  0.0745 -0.8221  1.6373
 2242SOL    HW218363   4.471   3.633   8.885  0.4469 -0.0590  0.2411
 2243SOL     OW18364   4.388   3.111   7.102  0.4280 -0.6500  0.0499
 2243SOL    HW118365   4.442   3.133   7.178 -0.0229  1.4665 -0.2533
 2243SOL    HW218366   4.454   3.103   7.033  0.4988 -2.0595  0.2755
 2244SOL     OW18367   0.515   3.606   3.090 -0.4951 -0.8720  0.1615
 2244SOL    HW118368   0.559   3.689   3.074 -0.4875 -1.3225 -2.1536
 2244SOL    HW218369   0.490   3.580   3.002  2.5143  0.2826 -1.0222
 2245SOL     OW18370   2.083   0.815   7.324  0.2517 -0.5841  0.6287
 2245SOL    HW118371   2.067   0.759   7.249  1.6935 -0.7591  0.4473
 2245SOL    HW218372   2.101   0.740   7.382  0.6156 -0.8050  0.2280
 2246SOL     OW18373   3.407   2.287   7.495  0.6398  0.0054 -0.0383
 2246SOL    HW118374   3.447   2.205   7.521  1.7758 -0.1479 -2.3017
 2246SOL    HW218375   3.373   2.274   7.407 -1.0325  0.9826  0.4377
 2247SOL     OW18376   3.789   2.532   7.813 -0.2387  0.7707  1.0725
 2247SOL    HW118377   3.750   2.454   7.775  1.7783  0.0938  0.4106
 2247SOL    HW218378   3.713   2.565   7.862  0.5425  3.0763  0.7698
 2248SOL     OW18379   0.908   1.734   8.560  0.0043  0.0638 -0.4338
 2248SOL    HW118380   0.849   1.668   8.522 -0.9923  1.0497 -0.6085
 2248SOL    HW218381   0.861   1.775   8.633 -0.6880 -0.7537 -0.4160
 2249SOL     OW18382   0.206   2.065  10.217 -0.5577 -0.2992  0.5791
 2249SOL    HW118383   0.265   2.043  10.145 -2.1687 -0.7321 -0.6096
 2249SOL    HW218384   0.220   1.983  10.266  0.0330 -0.8916 -0.5936
 2250SOL     OW18385   1.808   2.277   5.879 -0.3233  0.5956 -0.4537
 2250SOL    HW118386   1.790   2.304   5.969 -0.6314  3.2824 -1.3276
 2250SOL    HW218387   1.887   2.225   5.893  0.0419  1.3861  0.4312
 2251SOL     OW18388   1.365   3.940  13.783  0.4046  0.1283 -0.2201
 2251SOL    HW118389   1.402   4.000  13.719  0.8837 -1.3153 -1.2805
 2251SOL    HW218390   1.409   3.961  13.866 -1.7345 -0.5918  1.0863
 2252SOL     OW18391   2.662   2.491   4.988  0.0584  0.1271 -0.1814
 2252SOL    HW118392   2.614   2.413   4.959  1.2937 -0.6554 -0.1355
 2252SOL    HW218393   2.675   2.544   4.910 -0.0627 -1.3916 -1.2197
 2253SOL     OW18394   3.396   1.965   4.477  0.1202  0.1792  0.0523
 2253SOL    HW118395   3.433   1.967   4.565  0.5342  0.4647 -0.1270
 2253SOL    HW218396   3.375   1.871   4.478 -0.1775  0.2492  0.4175
 2254SOL     OW18397   2.827   3.490   4.300 -0.2371  0.3228 -0.0799
 2254SOL    HW118398   2.900   3.486   4.361 -2.3266 -0.7093  2.3482
 2254SOL    HW218399   2.773   3.557   4.342  0.3558  0.2428  0.7997
 2255SOL     OW18400   1.622   3.402   8.953  0.2992  0.7266  0.3598
 2255SOL    HW118401   1.608   3.497   8.948  1.3335  0.9590  1.7943
 2255SOL    HW218402   1.619   3.387   9.047  1.6277 -0.9828  0.1137
 2256SOL     OW18403   3.467   0.927   5.864  0.1777  0.4811  0.4394
 2256SOL    HW118404   3.539   0.988   5.851  1.8299 -1.6208 -0.2200
 2256SOL    HW218405   3.408   0.991   5.906  0.1815  0.7516  0.0294
 2257SOL     OW18406   0.729   2.811   3.405  0.0430  0.0181 -0.0097
 2257SOL    HW118407   0.691   2.787   3.321 -0.5076 -0.5048  0.3938
 2257SOL    HW218408   0.818   2.833   3.375  0.0770 -0.8846 -0.5736
 2258SOL     OW18409   3.624   3.611  12.218  0.2522  0.3242  0.1900
 2258SOL    HW118410   3.544   3.561  12.232  0.7697 -0.8501 -1.0470
 2258SOL    HW218411   3.587   3.700  12.212 -1.3398 -0.4699 -1.7637
 2259SOL     OW18412   1.436   4.085   3.058  0.1299 -0.2832  0.2596
 2259SOL    HW118413   1.511   4.026   3.068  1.5345  1.6780  1.1730
 2259SOL    HW218414   1.362   4.031   3.086 -0.6950 -0.0942 -1.5484
 2260SOL     OW18415   1.414   2.446   6.063  0.5303  0.3046  0.2551
 2260SOL    HW118416   1.370   2.406   6.138  1.2463  0.7024  0.8884
 2260SOL    HW218417   1.367   2.529   6.064 -0.4787 -0.2430 -2.5793
 2261SOL     OW18418   1.304   0.012   2.514  0.0272  0.4755 -0.3845
 2261SOL    HW118419   1.365   0.083   2.497  0.5598 -0.1526 -1.0540
 2261SOL    HW218420   1.226   0.061   2.541 -0.5367  0.4483 -1.9887
 2262SOL     OW18421   1.040   3.636   8.410 -0.4726  0.0018 -0.2289
 2262SOL    HW118422   1.091   3.674   8.339  0.4551  0.6540  0.7780
 2262SOL    HW218423   1.063   3.544   8.397  0.2925  0.1232  0.2125
 2263SOL     OW18424   1.380   2.851   4.816  0.0358  0.2166  0.1378
 2263SOL    HW118425   1.316   2.922   4.818  0.2661  0.4581 -1.0878
 2263SOL    HW218426   1.343   2.780   4.764  0.5610  0.3401 -0.4042
 2264SOL     OW18427   0.948   1.966   3.823 -0.4544 -0.0221  0.4159
 2264SOL    HW118428   1.009   1.910   3.776 -0.4566  0.6887 -0.4279
 2264SOL    HW218429   0.904   1.898   3.874  1.0611 -2.1791 -1.1631
 2265SOL     OW18430   1.601   0.166   4.931  0.5499  0.2530  0.0867
 2265SOL    HW118431   1.512   0.133   4.939  0.9728 -1.0409 -0.5054
 2265SOL    HW218432   1.621   0.171   5.025 -1.2449 -0.2903  0.4922
 2266SOL     OW18433   2.677   2.351  17.746 -0.1396  0.1404 -0.5301
 2266SOL    HW118434   2.672   2.299   0.059 -0.5799  1.4577  0.2889
 2266SOL    HW218435   2.759   2.315  17.712 -0.5572 -1.8146  0.5479
 2267SOL     OW18436   1.071   1.258   4.058  0.2070  0.9369 -0.0710
 2267SOL    HW118437   1.040   1.211   4.136 -2.1658  1.5126 -0.6643
 2267SOL    HW218438   1.158   1.219   4.046 -0.1665  0.9981 -2.8387
 2268SOL     OW18439   3.371   3.168   4.374 -0.0103  0.8859  0.1988
 2268SOL    HW118440   3.311   3.096   4.392 -0.2344  0.8524 -0.7014
 2268SOL    HW218441   3.336   3.233   4.436 -0.0977 -0.2227  1.3209
 2269SOL     OW18442   0.827   0.950   5.328  0.2958  0.6181 -0.3075
 2269SOL    HW118443   0.840   0.878   5.266  2.5822  0.0222  0.8664
 2269SOL    HW218444   0.740   0.978   5.298 -0.2671 -2.6961 -1.7592
 2270SOL     OW18445   1.003   3.513   6.851  0.1231 -0.2743  0.6136
 2270SOL    HW118446   1.097   3.533   6.857 -0.0376  0.0663  2.0012
 2270SOL    HW218447   0.993   3.426   6.891 -0.4293 -1.2831 -1.7110
 2271SOL     OW18448   1.361   1.456   7.122 -0.0895  0.0528  0.3607
 2271SOL    HW118449   1.365   1.545   7.160 -0.1350 -0.3740  1.3732
 2271SOL    HW218450   1.289   1.422   7.175 -1.1509 -1.6270 -2.2010
 2272SOL     OW18451   1.305   4.066   4.875  0.6040 -0.0103 -0.0342
 2272SOL    HW118452   1.341   4.003   4.937 -0.2995 -0.2580  0.2456
 2272SOL    HW218453   1.333   4.034   4.790 -1.0202  0.2780 -0.6857
 2273SOL     OW18454   0.297   2.015   5.237  0.1419  0.1740 -0.1065
 2273SOL    HW118455   0.247   2.057   5.307 -1.2308  0.0300 -0.9907
 2273SOL    HW218456   0.263   1.926   5.247  0.0659  0.4679  2.1871
 2274SOL     OW18457   0.815   2.280   2.493  0.4230  0.7077 -0.4312
 2274SOL    HW118458   0.863   2.307   2.571  0.0918  0.9154 -0.3003
 2274SOL    HW218459   0.878   2.240   2.432  1.8339  2.6263 -0.1995
 2275SOL     OW18460   3.093   0.200  14.819  1.0007  0.4765  0.2417
 2275SOL    HW118461   3.008   0.208  14.862  0.4182 -1.4896 -0.5476
 2275SOL    HW218462   3.056   0.198  14.731 -1.8564  2.1111  1.4212
 2276SOL     OW18463   0.653   0.302   5.807 -0.2627  0.0113  0.4196
 2276SOL    HW118464   0.650   0.317   5.902 -0.0827  1.0380  0.2662
 2276SOL    HW218465   0.623   0.389   5.780 -0.5298 -0.0708  0.4447
 2277SOL     OW18466   0.816   0.712  16.879  0.1066  0.0624 -0.3758
 2277SOL    HW118467   0.725   0.709  16.847  0.2245  0.6077 -0.7575
 2277SOL    HW218468   0.833   0.635  16.933 -4.1618 -0.5088  0.1826
 2278SOL     OW18469   4.114   0.768   6.106 -0.6473  0.1259  0.2625
 2278SOL    HW118470   4.128   0.679   6.137 -0.3648 -0.6993 -2.2354
 2278SOL    HW218471   4.195   0.789   6.061 -0.3157  0.6085  1.0903
 2279SOL     OW18472   3.706   3.830   8.309  0.0453 -0.0732 -0.3228
 2279SOL    HW118473   3.711   3.925   8.308  0.4242 -0.1223 -2.4946
 2279SOL    HW218474   3.651   3.815   8.233  0.5793 -0.5672 -0.6158
 2280SOL     OW18475   3.626   0.203   4.727 -0.5251 -0.3617 -0.1953
 2280SOL    HW118476   3.652   0.289   4.760 -0.5967  0.4937 -2.4182
 2280SOL    HW218477   3.539   0.199   4.766 -0.4967  0.0540 -0.0840
 2281SOL     OW18478   2.879   3.114   0.970 -0.1562  0.3344  0.4985
 2281SOL    HW118479   2.794   3.069   0.968 -0.3568  0.7059  0.6745
 2281SOL    HW218480   2.908   3.103   0.879 -1.2679 -0.3263  0.2214
 2282SOL     OW18481   2.033   0.668   3.399  0.3891  0.3300 -0.3740
 2282SOL    HW118482   2.095   0.733   3.431 -0.0184  0.6130 -0.1492
 2282SOL    HW218483   2.044   0.687   3.306  3.9483 -0.6103 -0.1501
 2283SOL     OW18484   0.891   4.026   6.418  0.1909  0.3107  0.1690
 2283SOL    HW118485   0.808   4.070   6.400  0.7103  2.0265  1.9754
 2283SOL    HW218486   0.907   3.999   6.328 -0.8029  1.0574 -0.2287
 2284SOL     OW18487   1.249   3.655   1.948 -0.4975  0.0495  0.2288
 2284SOL    HW118488   1.190   3.610   1.887 -3.2234  0.5481  2.5004
 2284SOL    HW218489   1.319   3.683   1.889  0.3277 -3.9486 -0.7035
 2285SOL     OW18490   1.301   4.111   3.784  0.2450  0.0821  0.1671
 2285SOL    HW118491   1.332   4.198   3.758  1.2265  0.1019  1.3915
 2285SOL    HW218492   1.357   4.054   3.731 -1.2371 -0.3482 -0.9593
 2286SOL     OW18493   3.782   0.357   3.781  0.3058 -0.4367 -0.2227
 2286SOL    HW118494   3.708   0.322   3.732  0.8701  4.0264 -4.1988
 2286SOL    HW218495   3.836   0.278   3.790 -1.6026 -2.1934 -4.1506
 2287SOL     OW18496   2.215   1.740   5.409 -0.2555  0.1912  0.6844
 2287SOL    HW118497   2.206   1.649   5.437  1.7622 -0.2837 -0.2277
 2287SOL    HW218498   2.138   1.789   5.438 -0.2569 -0.3907  1.6678
 2288SOL     OW18499   3.708   1.688   1.643 -0.3052 -0.2570 -0.1885
 2288SOL    HW118500   3.665   1.773   1.638 -1.2868 -0.8939 -2.4864
 2288SOL    HW218501   3.677   1.662   1.730 -0.3658 -0.4222 -0.2607
 2289SOL     OW18502   4.516   2.855   8.995 -0.8548 -0.0936  0.7459
 2289SOL    HW118503   4.497   2.842   8.902  1.1482  1.1313  0.1673
 2289SOL    HW218504   4.517   2.950   8.984  1.3041 -0.6091 -3.3724
 2290SOL     OW18505   2.133   0.624  10.422 -0.4755 -0.4936  0.5838
 2290SOL    HW118506   2.109   0.595  10.510 -0.1094  0.4763  1.0009
 2290SOL    HW218507   2.090   0.708  10.411  0.5673 -0.0989 -0.4858
 2291SOL     OW18508   3.008   4.705   3.525  0.2793 -0.2841  0.3601
 2291SOL    HW118509   2.949   4.646   3.572  1.3431  0.7396  2.9814
 2291SOL    HW218510   2.993   0.049   3.563 -0.3413  0.8159 -2.3689
 2292SOL     OW18511   4.136   3.925   7.973  0.0065  0.1959  0.1134
 2292SOL    HW118512   4.148   3.834   7.946  0.1287  0.5691 -1.0798
 2292SOL    HW218513   4.145   3.910   8.068  2.3680 -1.6215 -0.3957
 2293SOL     OW18514   0.587   3.119   2.554  0.2834 -0.2188 -0.0823
 2293SOL    HW118515   0.627   3.174   2.487 -1.7620  0.6229 -0.6066
 2293SOL    HW218516   0.656   3.128   2.620 -1.4397 -2.6977  2.0467
 2294SOL     OW18517   3.184   2.779   4.268 -0.4159  0.6789  0.2269
 2294SOL    HW118518   3.154   2.698   4.308 -1.5714  1.5348  1.0934
 2294SOL    HW218519   3.273   2.780   4.304  1.2566 -1.0375 -3.8047
 2295SOL     OW18520   2.650   2.105   2.989  0.4487  0.0932 -0.1080
 2295SOL    HW118521   2.664   2.083   2.896  0.2829 -0.0273 -0.1054
 2295SOL    HW218522   2.719   2.048   3.023  0.3650  1.5785  2.4677
 2296SOL     OW18523   1.896   1.631   5.232 -0.5512 -0.0689  0.1359
 2296SOL    HW118524   1.905   1.726   5.242  1.8549 -0.1683 -1.1619
 2296SOL    HW218525   1.954   1.606   5.160 -0.5883 -0.0259  0.0910
 2297SOL     OW18526   1.368   0.381  12.564 -0.1252 -0.0302  0.3044
 2297SOL    HW118527   1.345   0.289  12.571  0.7540 -0.2623  0.1979
 2297SOL    HW218528   1.324   0.419  12.640 -0.4828  2.8664 -1.2969
 2298SOL     OW18529   0.138   2.660   5.001  0.3676 -0.0889 -0.0658
 2298SOL    HW118530   0.100   2.692   4.919  2.9467 -1.2855 -1.7007
 2298SOL    HW218531   0.212   2.614   4.962 -0.7502 -0.6710 -1.5200
 2299SOL     OW18532   2.473   1.363   9.218 -0.0492 -0.0755  0.6411
 2299SOL    HW118533   2.523   1.408   9.150  0.5836 -0.3520  0.9159
 2299SOL    HW218534   2.430   1.440   9.255  1.1091  0.8065  0.1430
 2300SOL     OW18535   2.121   1.593   4.822 -0.0001  0.2355  0.0190
 2300SOL    HW118536   2.055   1.660   4.802  0.4364 -0.3105 -3.1464
 2300SOL    HW218537   2.066   1.518   4.843  1.0142  0.1620  2.4301
 2301SOL     OW18538   1.936   2.789   2.317  0.5152 -0.1825  0.0430
 2301SOL    HW118539   2.032   2.789   2.327  0.4964  0.0043  0.2110
 2301SOL    HW218540   1.920   2.702   2.354  0.3294  0.1167  0.6512
 2302SOL     OW18541   4.588   2.609   3.143 -0.0404  0.0572  0.8085
 2302SOL    HW118542   4.667   2.637   3.098 -1.3639  1.2982 -0.7647
 2302SOL    HW218543   4.598   2.660   3.224  4.0415 -0.7193  0.7874
 2303SOL     OW18544   3.846   2.974   5.535  0.1804  0.0235 -0.0220
 2303SOL    HW118545   3.830   2.888   5.497  0.8079 -1.2084  2.5389
 2303SOL    HW218546   3.770   2.982   5.592  1.6675 -2.5723  2.3157
 2304SOL     OW18547   3.443   1.319  11.324  0.1775  0.1774 -0.3245
 2304SOL    HW118548   3.364   1.267  11.314  0.7211 -0.9401  1.2100
 2304SOL    HW218549   3.496   1.264  11.381  0.9057  1.3766  0.1756
 2305SOL     OW18550   0.532   0.790   8.134 -0.2697 -0.5274 -0.1163
 2305SOL    HW118551   0.618   0.761   8.163 -0.1737 -0.5926 -0.4610
 2305SOL    HW218552   0.501   0.828   8.216  1.1875  0.2242  0.0774
 2306SOL     OW18553   4.282   1.934   0.654  0.1087  0.4162 -0.8447
 2306SOL    HW118554   4.208   1.875   0.642  1.2983 -1.2535  0.0124
 2306SOL    HW218555   4.237   2.018   0.649  0.8622  0.6020 -4.8576
 2307SOL     OW18556   0.251   2.371   9.668 -0.4690 -0.2950  0.0327
 2307SOL    HW118557   0.296   2.427   9.732 -0.5588 -0.2383  0.0458
 2307SOL    HW218558   0.322   2.315   9.636 -1.4171 -0.0394 -2.4455
 2308SOL     OW18559   4.574   3.644   5.433  0.3787 -0.0288  0.2015
 2308SOL    HW118560   4.542   3.578   5.494 -1.4855  1.1273  0.4675
 2308SOL    HW218561   4.637   3.588   5.388  0.1685 -0.6523  0.6992
 2309SOL     OW18562   0.599   0.792   9.895 -0.0934  0.0535 -0.2791
 2309SOL    HW118563   0.608   0.830   9.982  1.3351 -0.9094 -0.0009
 2309SOL    HW218564   0.686   0.762   9.867 -0.1058 -0.2279 -0.0009
 2310SOL     OW18565   0.154   2.650   7.033 -0.3102  0.3505  0.8375
 2310SOL    HW118566   0.200   2.658   6.949 -1.2647  1.2696  0.4018
 2310SOL    HW218567   0.150   2.554   7.034  0.3198  0.2991 -0.9769
 2311SOL     OW18568   1.077   3.358   9.153 -0.5855 -0.3790 -0.0327
 2311SOL    HW118569   1.153   3.334   9.206  0.2200  3.7819  0.6665
 2311SOL    HW218570   1.028   3.403   9.222 -1.6172 -2.0202  0.3247
 2312SOL     OW18571   3.612   0.883   4.978  0.4030  0.3054  0.1656
 2312SOL    HW118572   3.627   0.918   5.065  1.0489 -3.0174  1.4093
 2312SOL    HW218573   3.596   0.960   4.924 -1.0176 -0.3589 -0.3593
 2313SOL     OW18574   1.396   3.948   4.669 -0.0006  0.2470 -0.3937
 2313SOL    HW118575   1.361   3.967   4.582  2.2936 -0.1167 -1.3951
 2313SOL    HW218576   1.464   3.883   4.656  1.6876  2.2860 -1.8490
 2314SOL     OW18577   2.927   4.671   7.050 -0.2968  0.8714  0.0122
 2314SOL    HW118578   2.918   4.591   7.102 -2.1710  1.6229  0.8635
 2314SOL    HW218579   3.018   4.662   7.024 -0.8619 -1.2858 -1.2424
 2315SOL     OW18580   4.641   3.509   3.524 -0.1744  0.3249  0.1652
 2315SOL    HW118581   4.616   3.561   3.447 -0.2630  3.1731  2.1063
 2315SOL    HW218582   4.641   3.421   3.486  0.9736 -0.2642  1.5313
 2316SOL     OW18583   1.140   0.286   1.800 -0.4859 -0.7057  0.3151
 2316SOL    HW118584   1.080   0.344   1.754 -0.3298 -1.1796 -0.4945
 2316SOL    HW218585   1.105   0.288   1.889  0.7517  2.1294  0.7359
 2317SOL     OW18586   1.291   0.496   6.477 -0.5525 -0.2996  0.7246
 2317SOL    HW118587   1.320   0.433   6.411 -0.2783  0.7302 -0.1345
 2317SOL    HW218588   1.205   0.526   6.447  0.6002 -0.1061 -2.4329
 2318SOL     OW18589   1.316   1.083  16.226  0.3664  1.1144  0.8624
 2318SOL    HW118590   1.284   1.082  16.136  2.8600  2.1166 -0.0167
 2318SOL    HW218591   1.330   1.175  16.249 -0.9404  1.6896 -0.6049
 2319SOL     OW18592   2.172   0.188   1.622 -0.2377 -0.0493  0.3225
 2319SOL    HW118593   2.199   0.255   1.686 -0.8951  0.7884 -0.2766
 2319SOL    HW218594   2.186   0.110   1.676  0.1036  0.1195  0.4776
 2320SOL     OW18595   1.389   3.221   2.779  0.1829  0.2251 -0.0455
 2320SOL    HW118596   1.390   3.125   2.786 -2.4103  0.0251 -2.2089
 2320SOL    HW218597   1.442   3.238   2.857  1.9366 -1.9561 -0.7677
 2321SOL     OW18598   3.005   3.295   4.016 -0.1551  0.2978 -0.3671
 2321SOL    HW118599   3.093   3.260   4.027  0.3549  0.6552 -3.4343
 2321SOL    HW218600   2.952   3.215   4.005  0.1522 -0.0375  0.5573
 2322SOL     OW18601   4.580   1.648  17.611  0.0296  0.4096  0.1133
 2322SOL    HW118602   4.609   1.566  17.653 -0.7349  0.0669 -0.0220
 2322SOL    HW218603   4.527   1.615  17.539  0.3397 -1.5964  0.8046
 2323SOL     OW18604   0.040   1.954  17.034 -0.2660 -0.0751 -0.3016
 2323SOL    HW118605   0.100   1.950  17.109 -2.1990  0.2444  1.2481
 2323SOL    HW218606   0.086   1.880  16.995 -0.7792  0.2591 -1.5252
 2324SOL     OW18607   1.417   3.151  16.026 -0.3220  0.5974  0.4128
 2324SOL    HW118608   1.506   3.146  15.991  0.0109  0.2779  1.3017
 2324SOL    HW218609   1.412   3.243  16.051 -4.5793  0.1343  1.2706
 2325SOL     OW18610   1.543   4.683   9.037  0.1137  0.3895  0.5854
 2325SOL    HW118611   1.449   4.688   9.057  0.2431  1.1632  0.9975
 2325SOL    HW218612   1.576   0.027   9.060 -0.3314  1.3914 -2.6276
 2326SOL     OW18613   4.733   4.032  15.372 -0.3552 -0.3273 -0.0563
 2326SOL    HW118614   4.725   4.099  15.304 -1.2067 -1.5099 -1.1162
 2326SOL    HW218615   4.680   4.075  15.439  0.9056  2.3456 -0.7814
 2327SOL     OW18616   2.674   0.821  14.430  0.3036  0.0122 -0.3774
 2327SOL    HW118617   2.644   0.820  14.339  1.4276 -1.0999 -0.7462
 2327SOL    HW218618   2.594   0.854  14.469  0.4062 -1.4816  1.0908
 2328SOL     OW18619   1.922   1.527  16.286 -0.3743  0.5256 -0.2344
 2328SOL    HW118620   1.918   1.615  16.324 -3.3013  0.7129 -0.9433
 2328SOL    HW218621   1.892   1.470  16.358 -0.4670 -1.0163 -1.4940
 2329SOL     OW18622   1.808   2.585   5.286 -0.2171  0.2472 -0.1567
 2329SOL    HW118623   1.811   2.681   5.280  0.1153  0.2383 -0.1330
 2329SOL    HW218624   1.885   2.577   5.342  0.4378 -0.4335 -1.1417
 2330SOL     OW18625   0.453   3.004   5.786 -1.2845  0.3281  0.1821
 2330SOL    HW118626   0.377   3.020   5.842 -1.8621 -0.2739 -0.4454
 2330SOL    HW218627   0.421   3.045   5.706 -1.7775  0.0041  0.2156
 2331SOL     OW18628   0.708   2.120   3.832 -0.2277 -0.1305 -0.1655
 2331SOL    HW118629   0.794   2.079   3.820 -0.9338 -1.3972 -0.8372
 2331SOL    HW218630   0.718   2.204   3.788  1.6274  0.7584  1.9343
 2332SOL     OW18631   4.278   2.452   9.924  0.2927  0.1741 -0.2955
 2332SOL    HW118632   4.336   2.392   9.878  1.8351  2.4187 -1.2939
 2332SOL    HW218633   4.261   2.518   9.857  3.1814  1.3774  0.1402
 2333SOL     OW18634   4.119   2.729   9.173  0.3949  0.3227 -1.0023
 2333SOL    HW118635   4.087   2.662   9.234 -0.6784  1.6408 -0.1014
 2333SOL    HW218636   4.078   2.807   9.213 -1.6875  0.0831 -2.6787
 2334SOL     OW18637   0.592   3.181  13.206  0.0811  0.2362 -0.1151
 2334SOL    HW118638   0.598   3.275  13.223  0.5151 -0.1556  1.8496
 2334SOL    HW218639   0.499   3.186  13.185 -0.0352 -0.1728  0.3031
 2335SOL     OW18640   3.556   0.585  17.308 -0.2002  0.2566  0.3644
 2335SOL    HW118641   3.527   0.510  17.257 -1.2945  0.7770  0.2205
 2335SOL    HW218642   3.487   0.651  17.298 -0.7074 -0.3191  0.0833
 2336SOL     OW18643   2.082   2.078   2.746  0.0145 -0.0043  0.2119
 2336SOL    HW118644   2.102   2.128   2.667  0.9204 -2.7642 -1.3133
 2336SOL    HW218645   2.127   1.996   2.725  0.8541  0.6030 -0.3425
 2337SOL     OW18646   1.888   0.708   3.704 -0.4037  0.1655 -0.1866
 2337SOL    HW118647   1.880   0.802   3.716  1.5760  0.3407 -0.3596
 2337SOL    HW218648   1.937   0.714   3.622 -3.1956  1.2724 -1.7627
 2338SOL     OW18649   2.296   0.428  16.563 -0.3265 -0.4243 -0.6545
 2338SOL    HW118650   2.293   0.333  16.556 -2.9285 -0.2472 -1.6207
 2338SOL    HW218651   2.380   0.453  16.602 -0.6552  0.3224 -0.4237
 2339SOL     OW18652   3.324   2.996   5.553  0.9858  0.1669  0.1600
 2339SOL    HW118653   3.332   3.070   5.492 -2.4270 -0.2085 -0.7529
 2339SOL    HW218654   3.247   3.018   5.606  0.4549 -1.2752 -0.0068
 2340SOL     OW18655   0.443   4.118   7.638 -0.3369 -0.2392  0.3592
 2340SOL    HW118656   0.478   4.083   7.556 -0.7168 -1.5041  0.7292
 2340SOL    HW218657   0.411   4.203   7.607  0.3931 -0.1518 -0.1552
 2341SOL     OW18658   1.516   0.831   4.390 -0.2597  0.2794  0.2722
 2341SOL    HW118659   1.421   0.842   4.398 -0.4445 -1.8874  1.0308
 2341SOL    HW218660   1.537   0.899   4.326 -0.5415  0.2133  0.1108
 2342SOL     OW18661   3.290   3.933   8.762  0.5694  0.0246 -0.1522
 2342SOL    HW118662   3.316   3.983   8.839 -1.7510  0.4174  0.3876
 2342SOL    HW218663   3.378   3.908   8.735  1.4524  0.6488  2.1572
 2343SOL     OW18664   4.376   4.488  16.350  0.5402 -0.1682 -0.0568
 2343SOL    HW118665   4.346   4.551  16.416  1.2278  0.3600 -0.2400
 2343SOL    HW218666   4.313   4.497  16.279  0.4134  1.5847  0.2807
 2344SOL     OW18667   2.679   1.473   5.171 -0.1724 -0.5633 -0.3629
 2344SOL    HW118668   2.635   1.483   5.087 -3.0737 -2.4979  0.9283
 2344SOL    HW218669   2.688   1.378   5.163 -1.9267 -0.7179 -0.4956
 2345SOL     OW18670   2.960   1.295  17.108  0.1264 -0.3445 -0.3531
 2345SOL    HW118671   2.964   1.204  17.080 -0.0967 -0.4583 -0.0203
 2345SOL    HW218672   3.049   1.315  17.081 -0.5730  2.0816 -0.9066
 2346SOL     OW18673   1.819   3.640   4.140 -0.5537  0.3699 -0.7782
 2346SOL    HW118674   1.835   3.722   4.094 -0.5068  0.3037 -0.8805
 2346SOL    HW218675   1.796   3.581   4.069 -0.9991  0.0697 -0.3821
 2347SOL     OW18676   1.400   1.623   1.519  0.1399 -0.2043 -0.0317
 2347SOL    HW118677   1.449   1.598   1.440  0.5957 -0.3679  0.3039
 2347SOL    HW218678   1.313   1.629   1.479  0.9690 -1.1849 -2.0056
 2348SOL     OW18679   2.364   0.326   3.499  0.6382  0.6511  0.7878
 2348SOL    HW118680   2.349   0.250   3.554  0.5225  0.5276  0.5858
 2348SOL    HW218681   2.444   0.294   3.456 -0.7149 -1.9581  0.2310
 2349SOL     OW18682   1.852   3.200   1.711  0.0763 -0.5514  0.0975
 2349SOL    HW118683   1.758   3.182   1.720  0.4051 -1.6665  1.3393
 2349SOL    HW218684   1.891   3.136   1.771  0.8598  0.9591  1.1780
 2350SOL     OW18685   4.713   2.287  10.513  0.9479 -0.0919  0.0260
 2350SOL    HW118686   0.021   2.368  10.504  2.1270 -0.4839  3.0750
 2350SOL    HW218687   0.002   2.263  10.600 -1.1411 -0.6265  0.6240
 2351SOL     OW18688   4.359   4.186  13.545  0.3014 -0.0045 -0.2051
 2351SOL    HW118689   4.435   4.230  13.507 -0.8050  0.2307 -2.1489
 2351SOL    HW218690   4.307   4.181  13.464 -0.1826 -0.8630  0.1618
 2352SOL     OW18691   4.651   4.243  14.882  0.4247  0.4359  0.0438
 2352SOL    HW118692   4.615   4.191  14.810 -1.7385 -0.6475  1.9154
 2352SOL    HW218693   4.734   4.267  14.841 -0.2560  0.7939 -1.1325
 2353SOL     OW18694   1.034   2.115   1.418 -0.2089 -0.2301  0.1242
 2353SOL    HW118695   1.043   2.104   1.324  0.7438  2.1138 -0.0528
 2353SOL    HW218696   1.039   2.209   1.435  4.9380 -0.7627  1.4836
 2354SOL     OW18697   0.914   0.757   3.290 -0.2075  0.0963  0.1345
 2354SOL    HW118698   0.993   0.730   3.244  0.5171  0.4182  1.2008
 2354SOL    HW218699   0.907   0.851   3.276  0.0427  0.3916  2.0585
 2355SOL     OW18700   4.596   4.297  12.168  0.6210 -0.0566 -0.1573
 2355SOL    HW118701   4.546   4.376  12.191 -1.1394 -1.3796  0.5315
 2355SOL    HW218702   4.684   4.335  12.170 -0.0970  1.5346  1.6258
 2356SOL     OW18703   4.059   0.944   1.980  1.0454  0.1401 -0.2870
 2356SOL    HW118704   4.111   0.868   1.956 -0.5503 -1.2346  0.5881
 2356SOL    HW218705   4.115   1.003   2.030 -0.9763  1.5739  0.2956
 2357SOL     OW18706   0.326   1.865   7.533  0.0478  0.5670  0.3723
 2357SOL    HW118707   0.256   1.916   7.493  0.7583  0.1867 -1.3747
 2357SOL    HW218708   0.382   1.940   7.555  0.7858 -0.0723  0.6499
 2358SOL     OW18709   4.592   3.859   6.343 -0.7810  0.3869  0.1250
 2358SOL    HW118710   4.624   3.949   6.334  1.5108 -0.6560 -2.1560
 2358SOL    HW218711   4.548   3.864   6.428  0.2726 -2.6864  0.8619
 2359SOL     OW18712   4.611   2.254  13.435  0.6278 -0.1271 -0.3563
 2359SOL    HW118713   4.690   2.271  13.487  2.2786 -0.9253 -2.6100
 2359SOL    HW218714   4.569   2.337  13.412 -0.9262 -0.4182  1.3910
 2360SOL     OW18715   2.622   0.654   8.305  0.1034 -0.6771 -0.1605
 2360SOL    HW118716   2.539   0.702   8.307  0.9866  0.8473  0.2346
 2360SOL    HW218717   2.611   0.597   8.229  0.5641  0.6385 -1.2203
 2361SOL     OW18718   4.070   2.717  12.413  0.2456  0.1500 -0.4414
 2361SOL    HW118719   4.110   2.694  12.329 -1.5031  0.0530 -1.2410
 2361SOL    HW218720   4.033   2.802  12.391  0.1211  0.0033 -0.8058
 2362SOL     OW18721   4.068   3.112  12.142 -0.0406  0.0622  0.8407
 2362SOL    HW118722   4.057   3.201  12.175  2.6200 -0.3564  2.8278
 2362SOL    HW218723   4.051   3.056  12.218  1.7440 -2.4906 -0.6050
 2363SOL     OW18724   1.420   0.110  16.281  0.0897 -0.4878 -0.1921
 2363SOL    HW118725   1.474   0.078  16.353 -0.6005 -0.1483  0.4770
 2363SOL    HW218726   1.381   0.192  16.313 -3.3652 -1.7821 -1.0728
 2364SOL     OW18727   2.820   0.146  12.364  0.1788  0.6634 -0.0230
 2364SOL    HW118728   2.737   0.187  12.390 -0.2603  0.3005 -0.8867
 2364SOL    HW218729   2.802   0.059  12.399  0.0162  1.1408  1.0903
 2365SOL     OW18730   3.517   2.388   2.382  0.0244  0.5406 -0.0719
 2365SOL    HW118731   3.562   2.404   2.465  3.5585 -1.6162 -1.5849
 2365SOL    HW218732   3.592   2.364   2.328 -0.3437  0.7185 -0.6639
 2366SOL     OW18733   2.707   4.346   1.835 -0.0999 -0.3283 -0.5381
 2366SOL    HW118734   2.662   4.366   1.753 -1.6163  0.7422  0.5686
 2366SOL    HW218735   2.768   4.275   1.814 -1.1318 -0.8766 -1.7249
 2367SOL     OW18736   0.432   3.367   5.219 -0.1984 -0.2643 -0.2256
 2367SOL    HW118737   0.500   3.434   5.224  0.2995 -0.8270  0.5807
 2367SOL    HW218738   0.404   3.382   5.129  0.3307 -2.2292 -0.7175
 2368SOL     OW18739   0.303   2.321  11.402 -0.1923  0.2915  0.2317
 2368SOL    HW118740   0.341   2.360  11.481 -1.3957  0.2972  0.8110
 2368SOL    HW218741   0.386   2.288  11.367  0.1349 -0.3450  1.5841
 2369SOL     OW18742   2.437   3.039  17.349 -0.1467  0.5862  0.2099
 2369SOL    HW118743   2.507   2.974  17.338 -1.4096 -0.5966 -0.8534
 2369SOL    HW218744   2.460   3.077  17.434 -0.4990  1.7744 -0.2340
 2370SOL     OW18745   2.585   4.135  15.616 -0.5789  0.3191 -0.1750
 2370SOL    HW118746   2.645   4.068  15.584 -1.3808  0.4585 -1.9607
 2370SOL    HW218747   2.516   4.124  15.551 -1.3293 -0.7333  0.7908
 2371SOL     OW18748   4.637   4.321   8.349 -0.3980 -0.2622  0.2487
 2371SOL    HW118749   4.603   4.279   8.428  0.6699 -0.7397  0.4435
 2371SOL    HW218750   4.614   4.251   8.288  1.1846 -1.2440  0.7970
 2372SOL     OW18751   2.629   3.802   6.477  0.0251  0.5930  0.2208
 2372SOL    HW118752   2.579   3.870   6.522  2.1272  1.8600  0.6552
 2372SOL    HW218753   2.705   3.786   6.533 -1.0706  1.6826  2.0336
 2373SOL     OW18754   4.647   1.202  12.834  0.3893  0.8849  0.1496
 2373SOL    HW118755   4.720   1.180  12.891  1.3418  1.1343 -0.9722
 2373SOL    HW218756   4.685   1.278  12.791 -2.2055  2.3602  0.4641
 2374SOL     OW18757   4.170   0.969   8.951 -0.3407  0.4512 -0.1213
 2374SOL    HW118758   4.223   1.027   8.895  0.1976  1.5465  1.5270
 2374SOL    HW218759   4.082   1.006   8.951 -0.7995 -0.6090 -1.3063
 2375SOL     OW18760   1.959   2.230  11.570 -0.0737 -0.5005  0.3771
 2375SOL    HW118761   2.021   2.229  11.497  1.0128 -0.4091  1.3106
 2375SOL    HW218762   1.912   2.149  11.551  1.0564 -1.0059 -0.2249
 2376SOL     OW18763   3.687   4.031  16.490  0.8241 -0.2255  0.2804
 2376SOL    HW118764   3.639   4.074  16.562  1.2256  0.3830  0.1797
 2376SOL    HW218765   3.715   3.954  16.540 -1.0156 -0.1265  1.4880
 2377SOL     OW18766   0.279   2.472   2.821  0.3917  0.3458 -0.0540
 2377SOL    HW118767   0.287   2.567   2.814 -0.5162  0.6312  2.9340
 2377SOL    HW218768   0.192   2.447   2.792  0.2014  1.7454 -0.7167
 2378SOL     OW18769   1.762   0.625   3.247  0.0219 -0.2281 -0.4036
 2378SOL    HW118770   1.768   0.720   3.242 -1.2857 -0.0595  1.0487
 2378SOL    HW218771   1.849   0.600   3.277 -0.8051 -3.1908 -0.5075
 2379SOL     OW18772   1.038   2.887  11.865 -0.1284 -0.8684  0.3572
 2379SOL    HW118773   1.008   2.808  11.820  1.4311  0.8470 -3.7058
 2379SOL    HW218774   0.966   2.888  11.928  0.5407  0.4890  1.1011
 2380SOL     OW18775   3.009   4.424   5.398 -0.1345 -0.2980  0.6711
 2380SOL    HW118776   3.082   4.450   5.453  0.0770 -1.4030  0.8969
 2380SOL    HW218777   3.040   4.466   5.318 -0.7186 -0.6774  0.2411
 2381SOL     OW18778   3.578   3.465   7.530 -0.3597  0.1001 -0.1413
 2381SOL    HW118779   3.592   3.483   7.438 -1.2925  0.9674 -0.1038
 2381SOL    HW218780   3.546   3.377   7.508  0.5701 -0.7864  1.9646
 2382SOL     OW18781   3.870   2.565   2.547 -0.0370  0.0896 -0.0988
 2382SOL    HW118782   3.848   2.654   2.519 -1.1214 -0.5796 -1.3761
 2382SOL    HW218783   3.919   2.538   2.469 -1.4450  1.3433 -1.4140
 2383SOL     OW18784   1.058   4.543   2.680  0.1124 -0.6274 -0.4859
 2383SOL    HW118785   1.086   4.610   2.743 -0.2459 -0.5784 -0.3792
 2383SOL    HW218786   1.081   4.462   2.725  1.4955  0.4845  0.8213
 2384SOL     OW18787   4.598   3.643   3.287  0.5072  0.1317 -0.3253
 2384SOL    HW118788   4.614   3.600   3.203  1.0197 -0.9832  0.3498
 2384SOL    HW218789   4.503   3.655   3.289  0.2201 -2.1675 -0.8783
 2385SOL     OW18790   4.560   3.905   0.597 -0.0063  0.1638 -0.2644
 2385SOL    HW118791   4.613   3.962   0.652 -1.1597  0.8228  0.1620
 2385SOL    HW218792   4.585   3.816   0.622  2.1060  0.2402 -2.1350
 2386SOL     OW18793   4.316   3.271   4.804  0.1423  0.4470  0.3603
 2386SOL    HW118794   4.240   3.261   4.860  0.1058  1.7645  0.5485
 2386SOL    HW218795   4.288   3.235   4.720  1.9126 -0.1968  0.0487
 2387SOL     OW18796   1.361   0.811   1.298 -0.2196  0.0156  0.2032
 2387SOL    HW118797   1.438   0.775   1.254  0.0729 -0.7235  1.3162
 2387SOL    HW218798   1.321   0.858   1.225  2.4234  3.5517  1.0363
 2388SOL     OW18799   3.296   1.065   3.913 -0.9728  0.0275 -0.1072
 2388SOL    HW118800   3.275   0.992   3.971 -1.6138  0.9185  0.7845
 2388SOL    HW218801   3.337   1.120   3.979  1.3253 -2.3123  0.4126
 2389SOL     OW18802   4.072   0.112   6.871  0.5440 -0.3979  0.3567
 2389SOL    HW118803   4.039   0.170   6.939 -0.0264  1.7004 -1.6959
 2389SOL    HW218804   4.021   0.031   6.871  0.8533 -0.5918  0.6924
 2390SOL     OW18805   0.789   2.614   1.274  0.1325 -0.5715  0.2876
 2390SOL    HW118806   0.835   2.553   1.216 -1.5702  0.4910 -2.1730
 2390SOL    HW218807   0.732   2.559   1.327  1.3697 -0.3861  1.8248
 2391SOL     OW18808   2.110   4.317   7.119 -0.3027  0.2390 -0.3057
 2391SOL    HW118809   2.129   4.329   7.212  1.8678  0.7860 -0.8210
 2391SOL    HW218810   2.060   4.395   7.099  1.4300  0.7433 -2.6490
 2392SOL     OW18811   4.509   0.099   2.010 -0.2506  0.2191 -0.0991
 2392SOL    HW118812   4.415   0.100   2.030 -0.2054  1.7709  0.0837
 2392SOL    HW218813   4.543   0.042   2.078 -0.4479 -2.2573 -2.0688
 2393SOL     OW18814   4.718   0.493   5.981  0.2271 -0.5010 -0.0430
 2393SOL    HW118815   0.042   0.541   6.030  0.7149  1.5443 -2.7052
 2393SOL    HW218816   0.014   0.500   5.894  1.6727  1.4750  0.7640
 2394SOL     OW18817   1.598   1.867   9.627 -0.2374 -0.1288  0.4697
 2394SOL    HW118818   1.566   1.923   9.557  0.2000  1.2814  1.3811
 2394SOL    HW218819   1.528   1.802   9.636  0.7556 -1.2801 -0.0673
 2395SOL     OW18820   1.726   1.726  16.940  0.1101 -0.0817  0.5026
 2395SOL    HW118821   1.746   1.667  17.012 -1.3284 -0.4041  0.6463
 2395SOL    HW218822   1.808   1.774  16.946  1.3269 -1.6235 -3.9262
 2396SOL     OW18823   3.814   0.125  14.367 -0.2525  0.2801 -0.0906
 2396SOL    HW118824   3.907   0.111  14.380 -0.3615 -0.8632 -0.5441
 2396SOL    HW218825   3.795   0.061  14.298 -0.9009 -0.9316  1.2057
 2397SOL     OW18826   1.542   1.083   1.955 -0.2222  0.1672  0.4014
 2397SOL    HW118827   1.470   1.138   1.986 -0.4175  0.1561 -0.0265
 2397SOL    HW218828   1.530   1.082   1.860  2.7852 -2.9537  0.0598
 2398SOL     OW18829   2.093   2.793   1.223 -0.6579 -0.5101  0.0518
 2398SOL    HW118830   2.180   2.819   1.192  0.2963 -1.6404  1.8061
 2398SOL    HW218831   2.106   2.699   1.214 -0.6233 -0.6521  1.6424
 2399SOL     OW18832   1.604   4.666   9.578 -0.3683  0.3240 -0.0332
 2399SOL    HW118833   1.657   4.737   9.614 -0.8525  1.1388 -0.9498
 2399SOL    HW218834   1.600   4.610   9.656 -0.0562 -0.2706 -0.4473
 2400SOL     OW18835   3.894   3.457   8.498 -0.0065  0.6472  0.3700
 2400SOL    HW118836   3.960   3.497   8.554 -2.2105  1.8030  2.1436
 2400SOL    HW218837   3.938   3.387   8.450  0.1789  2.1491 -1.6339
 2401SOL     OW18838   3.730   2.819  17.397 -0.3189  0.2452 -0.0936
 2401SOL    HW118839   3.825   2.822  17.390 -0.1715 -0.1982  1.5753
 2401SOL    HW218840   3.719   2.910  17.370 -1.6945  0.6331  1.7724
 2402SOL     OW18841   3.288   4.056  15.491  0.2355  0.2551 -0.0469
 2402SOL    HW118842   3.257   4.096  15.573 -2.4854 -2.1483  0.1015
 2402SOL    HW218843   3.380   4.043  15.513  0.2211  0.9079  0.3951
 2403SOL     OW18844   1.046   2.123   2.352  0.7827 -0.4726 -0.0557
 2403SOL    HW118845   1.126   2.075   2.333  0.3852 -1.9447  2.0686
 2403SOL    HW218846   1.078   2.204   2.311 -0.9652 -0.9584 -2.3885
 2404SOL     OW18847   2.846   0.359   4.996 -0.2434 -0.1083 -0.3096
 2404SOL    HW118848   2.829   0.353   5.090 -1.1538 -1.7205 -0.5845
 2404SOL    HW218849   2.756   0.367   4.963 -0.8008  1.5784  1.5947
 2405SOL     OW18850   3.239   4.228   6.123 -0.5822 -0.3527  0.0421
 2405SOL    HW118851   3.327   4.214   6.087 -0.2695  1.4981  0.0466
 2405SOL    HW218852   3.258   4.280   6.202  2.5260  1.7188 -2.0601
 2406SOL     OW18853   4.238   1.364   4.007  0.2791  0.1061 -0.4371
 2406SOL    HW118854   4.309   1.364   3.942 -0.7671  0.2014 -1.5868
 2406SOL    HW218855   4.280   1.385   4.091  1.7780  2.6148 -1.7974
 2407SOL     OW18856   3.042   3.587   4.490  0.1885 -0.1676  0.3169
 2407SOL    HW118857   3.098   3.641   4.435  0.8520 -1.5994 -0.3970
 2407SOL    HW218858   3.106   3.518   4.506  0.1949 -0.6159 -1.6229
 2408SOL     OW18859   0.922   1.962   2.778 -0.4815 -0.8309 -0.1784
 2408SOL    HW118860   0.936   1.958   2.684 -1.1150  3.0585 -0.4085
 2408SOL    HW218861   0.853   1.896   2.787  0.3080 -1.7917 -1.0999
 2409SOL     OW18862   0.997   2.883   6.155 -0.3512 -0.3535 -0.5183
 2409SOL    HW118863   0.904   2.860   6.145 -0.5067 -0.6703  1.6000
 2409SOL    HW218864   1.016   2.935   6.077 -3.0423  1.0222 -0.2530
 2410SOL     OW18865   2.420   0.611   4.058  0.1077 -0.1890 -0.5287
 2410SOL    HW118866   2.384   0.522   4.061 -1.6131  0.4915 -1.3159
 2410SOL    HW218867   2.346   0.670   4.066  0.0132 -0.4325  0.4780
 2411SOL     OW18868   0.570   1.832   3.883 -0.0220  0.0308  0.2157
 2411SOL    HW118869   0.565   1.834   3.787  0.0644 -1.9909  0.1590
 2411SOL    HW218870   0.661   1.811   3.901 -0.3774 -1.9875 -0.2921
 2412SOL     OW18871   1.064   4.410   6.178  0.2976  0.1062  0.4668
 2412SOL    HW118872   1.124   4.338   6.201 -0.1054 -0.7294 -1.1127
 2412SOL    HW218873   1.109   4.460   6.110 -1.0362  0.7165  0.0481
 2413SOL     OW18874   1.650   3.603  16.516  0.7945  0.2326 -0.9805
 2413SOL    HW118875   1.701   3.522  16.503 -0.1549 -0.6623  0.8187
 2413SOL    HW218876   1.565   3.577  16.481  0.5230 -0.2279  0.0120
 2414SOL     OW18877   0.144   0.112   1.899 -0.0271  0.4326  0.2520
 2414SOL    HW118878   0.105   0.199   1.898  2.0723  1.3575 -3.2633
 2414SOL    HW218879   0.235   0.132   1.924 -0.3921  2.3904  0.0383
 2415SOL     OW18880   0.049   3.964   6.074 -0.4250 -0.2334 -0.4866
 2415SOL    HW118881   0.009   4.011   6.001 -0.1684 -0.6835 -0.9211
 2415SOL    HW218882   0.072   4.038   6.131  0.4740 -0.6396 -0.3133
 2416SOL     OW18883   3.547   3.960  13.919  0.2951 -0.1509  0.5953
 2416SOL    HW118884   3.510   4.024  13.980 -0.2577  3.0160 -3.0764
 2416SOL    HW218885   3.583   4.013  13.848 -1.1793  1.6974  1.2180
 2417SOL     OW18886   3.985   0.737   2.638  0.2302  0.1790  0.6435
 2417SOL    HW118887   4.075   0.758   2.614  0.2581 -0.0567  0.5387
 2417SOL    HW218888   4.003   0.755   2.730  3.8823  1.1492 -0.2615
 2418SOL     OW18889   0.271   3.191   6.529  0.2202  0.3851  0.0091
 2418SOL    HW118890   0.363   3.198   6.554  0.0363 -0.2256  0.8634
 2418SOL    HW218891   0.278   3.111   6.477 -2.6871 -0.1369  0.4274
 2419SOL     OW18892   3.938   1.725   1.500 -0.6596  0.2945  0.0870
 2419SOL    HW118893   3.921   1.746   1.408  0.7059 -1.7626 -0.6341
 2419SOL    HW218894   3.856   1.726   1.549 -0.3796 -0.0920  0.5628
 2420SOL     OW18895   1.488   1.087   5.241 -0.3232 -0.3223  0.6445
 2420SOL    HW118896   1.453   1.057   5.325 -1.4998  0.8084  0.5673
 2420SOL    HW218897   1.494   0.999   5.203 -0.6624 -0.3629  0.6769
 2421SOL     OW18898   3.465   1.469   2.300 -0.3879 -0.9707 -0.0721
 2421SOL    HW118899   3.519   1.393   2.282 -0.2656 -0.7700 -0.5430
 2421SOL    HW218900   3.431   1.450   2.387 -2.1365  1.6974 -0.1635
 2422SOL     OW18901   3.153   1.354   5.921 -0.2664  0.3807 -0.1234
 2422SOL    HW118902   3.060   1.334   5.915 -0.2371  1.0010 -2.7021
 2422SOL    HW218903   3.163   1.442   5.885  0.7450  0.0476 -0.6558
 2423SOL     OW18904   3.901   3.999   8.593  0.0349 -0.0457  0.3261
 2423SOL    HW118905   3.918   4.029   8.504 -0.3824  0.5848  0.4591
 2423SOL    HW218906   3.979   4.043   8.628 -0.2580  0.9826 -0.2966
 2424SOL     OW18907   2.703   4.391  10.507 -0.3672  0.1199  0.2376
 2424SOL    HW118908   2.711   4.433  10.593  0.1712  0.8299 -0.1701
 2424SOL    HW218909   2.679   4.303  10.537  2.8852 -0.5715  0.8613
 2425SOL     OW18910   3.296   4.461   5.579  0.5994 -0.7047 -0.2419
 2425SOL    HW118911   3.353   4.536   5.595 -0.3340  0.1306 -0.8618
 2425SOL    HW218912   3.314   4.437   5.488  1.5585  0.8902 -0.4717
 2426SOL     OW18913   0.170   2.054   7.157 -0.1240 -0.1214 -0.1035
 2426SOL    HW118914   0.203   1.965   7.149 -0.0015 -0.2509  1.7142
 2426SOL    HW218915   0.118   2.057   7.077  0.0526  0.6286 -0.1896
 2427SOL     OW18916   2.547   0.713   8.607 -0.0947  0.1171  0.2780
 2427SOL    HW118917   2.485   0.783   8.586 -1.7790 -1.5748 -0.3519
 2427SOL    HW218918   2.592   0.717   8.522 -2.2629 -1.2656 -0.9379
 2428SOL     OW18919   2.368   1.550   0.083 -0.2941  0.4463  0.4487
 2428SOL    HW118920   2.305   1.495   0.130  2.1925 -1.2686  1.7847
 2428SOL    HW218921   2.304   1.619   0.066 -0.1168  0.6835  0.7379
 2429SOL     OW18922   2.660   1.336   4.344  0.0976  0.0030  0.1658
 2429SOL    HW118923   2.590   1.400   4.359  1.8979  2.0432 -0.1001
 2429SOL    HW218924   2.698   1.330   4.432  1.2178 -2.8738 -0.5057
 2430SOL     OW18925   2.135   0.903   4.752 -0.4340  0.4212 -0.5567
 2430SOL    HW118926   2.091   0.959   4.687 -0.8857 -0.2806 -0.8511
 2430SOL    HW218927   2.076   0.907   4.827  0.0022 -0.4043 -0.1704
 2431SOL     OW18928   1.942   1.924   4.158  0.0944  0.2578  0.2734
 2431SOL    HW118929   2.016   1.970   4.117 -1.2471  0.8633 -1.4310
 2431SOL    HW218930   1.959   1.917   4.252 -0.9646 -2.9128  0.2193
 2432SOL     OW18931   3.898   1.791   9.487 -0.3738  0.9126  0.0734
 2432SOL    HW118932   3.803   1.777   9.489 -0.7433  3.4667  0.4598
 2432SOL    HW218933   3.906   1.845   9.409 -2.3220  0.0843 -0.6980
 2433SOL     OW18934   0.932   1.547   2.010 -0.4271  0.3134 -0.1677
 2433SOL    HW118935   0.907   1.503   2.091 -0.7448  1.9130  0.5845
 2433SOL    HW218936   0.866   1.521   1.945  0.9689  1.1840 -1.9324
 2434SOL     OW18937   0.211   0.523   4.932 -0.0789 -0.4449 -0.0990
 2434SOL    HW118938   0.245   0.612   4.945  2.9580 -1.6226 -0.1296
 2434SOL    HW218939   0.154   0.530   4.856  0.9797  3.6620 -0.5074
 2435SOL     OW18940   0.044   1.167   5.917 -0.1798  0.4277 -0.4944
 2435SOL    HW118941   0.024   1.186   6.008  0.5908 -0.2201 -0.1915
 2435SOL    HW218942   0.035   1.252   5.874 -1.8070  0.6492  0.2686
 2436SOL     OW18943   2.779   1.550   4.027  0.5707  0.6213 -0.0656
 2436SOL    HW118944   2.754   1.459   4.011  1.1793  0.5203 -0.4571
 2436SOL    HW218945   2.856   1.532   4.082  1.1847 -1.5071 -1.6081
 2437SOL     OW18946   3.488   2.613  15.965 -0.0403 -0.2759  0.4741
 2437SOL    HW118947   3.397   2.643  15.978  0.0072  0.5987 -1.3002
 2437SOL    HW218948   3.506   2.626  15.872  1.0597  1.2647  0.9108
 2438SOL     OW18949   4.188   1.489  12.491 -0.3122 -0.0243  0.2657
 2438SOL    HW118950   4.230   1.572  12.472 -0.3876  0.0280  0.3260
 2438SOL    HW218951   4.199   1.472  12.585  1.7768 -0.6085 -0.0946
 2439SOL     OW18952   0.978   0.768   4.550  0.4071 -0.0182  0.2439
 2439SOL    HW118953   0.966   0.816   4.468  0.0153 -0.3880  0.0865
 2439SOL    HW218954   0.902   0.796   4.601 -0.3939  0.4103 -1.1791
 2440SOL     OW18955   2.859   3.395  15.485 -0.2228 -0.1848 -0.0460
 2440SOL    HW118956   2.777   3.375  15.529  0.3283  0.6349  1.3476
 2440SOL    HW218957   2.866   3.307  15.448 -2.9842  0.0528 -1.1333
 2441SOL     OW18958   0.857   0.558   3.827 -0.2252  0.2616  0.4422
 2441SOL    HW118959   0.775   0.585   3.868 -1.3069 -0.0041 -1.5537
 2441SOL    HW218960   0.855   0.597   3.739 -1.6033  0.4157  0.5516
 2442SOL     OW18961   3.467   0.789   7.822 -0.1898 -0.4986  0.2275
 2442SOL    HW118962   3.426   0.706   7.798 -0.3488 -0.0177 -1.1761
 2442SOL    HW218963   3.474   0.842   7.743  1.8806 -0.4106  0.4710
 2443SOL     OW18964   4.538   0.607  17.115 -0.3681 -0.1759  0.1948
 2443SOL    HW118965   4.555   0.541  17.048 -1.4608  1.0714 -1.2841
 2443SOL    HW218966   4.476   0.551  17.163 -1.0257  0.4198  0.0303
 2444SOL     OW18967   2.540   3.197   3.157 -0.6845 -0.1320  0.2848
 2444SOL    HW118968   2.559   3.243   3.076  1.1355 -0.9143  0.2757
 2444SOL    HW218969   2.606   3.226   3.219  0.1235 -1.0167 -0.1549
 2445SOL     OW18970   1.639   2.066   7.138  0.2501  0.2110 -0.1559
 2445SOL    HW118971   1.678   2.148   7.108  0.1543  0.2600 -0.1464
 2445SOL    HW218972   1.567   2.097   7.193  0.8888  0.5634  0.4916
 2446SOL     OW18973   3.377   0.749  16.231 -0.1852 -0.2716 -0.4223
 2446SOL    HW118974   3.464   0.788  16.237 -0.4413 -0.2784  3.3222
 2446SOL    HW218975   3.349   0.761  16.140 -0.2724 -1.5656 -0.5663
 2447SOL     OW18976   3.252   4.334   5.054 -0.4197  0.0111  0.3696
 2447SOL    HW118977   3.214   4.262   5.005  0.5450 -1.1059  1.2575
 2447SOL    HW218978   3.173   4.389   5.055 -0.8638 -0.6283 -0.0363
 2448SOL     OW18979   4.137   1.582   8.175  0.0298 -0.3341  0.1639
 2448SOL    HW118980   4.221   1.612   8.142 -0.3985 -0.3608 -0.9446
 2448SOL    HW218981   4.084   1.662   8.172 -1.4891 -1.3120  0.5191
 2449SOL     OW18982   2.039   0.602   7.470  0.1582 -0.2156 -0.1090
 2449SOL    HW118983   2.112   0.554   7.431 -0.8411  0.4188 -2.7258
 2449SOL    HW218984   1.992   0.529   7.509 -0.1794  1.4256  2.5680
 2450SOL     OW18985   3.742   2.065   2.450 -0.2280  0.4817 -0.3376
 2450SOL    HW118986   3.831   2.032   2.462 -1.0010 -0.6194  2.3782
 2450SOL    HW218987   3.693   2.017   2.516  1.6880 -1.0379 -0.0387
 2451SOL     OW18988   4.049   3.992  11.596 -0.1840 -0.1104 -0.1376
 2451SOL    HW118989   4.119   4.057  11.589 -1.1448  0.7900 -1.1988
 2451SOL    HW218990   3.972   4.049  11.596 -0.6305 -0.7148  0.4197
 2452SOL     OW18991   3.161   4.103   8.149  0.2703  0.2633  0.1087
 2452SOL    HW118992   3.138   4.044   8.220 -5.4444  1.9472 -0.2794
 2452SOL    HW218993   3.204   4.040   8.091  0.7742 -0.1444  0.9205
 2453SOL     OW18994   3.486   1.797   7.563  0.0618 -0.2434  0.0688
 2453SOL    HW118995   3.563   1.760   7.520 -1.0480  0.7343 -2.7240
 2453SOL    HW218996   3.475   1.734   7.635  1.4809  1.7845  2.0711
 2454SOL     OW18997   4.486   4.619   7.352 -0.9815 -0.2659  0.1958
 2454SOL    HW118998   4.521   4.698   7.392 -2.1154  0.5127 -0.3527
 2454SOL    HW218999   4.515   4.556   7.418 -1.5323 -2.1230 -1.2958
 2455SOL     OW19000   1.876   1.010   7.904  0.1748 -0.1685  0.5527
 2455SOL    HW119001   1.857   1.041   7.993 -2.4971 -0.3047  0.0491
 2455SOL    HW219002   1.971   1.018   7.897  0.2002 -0.9483  0.0171
 2456SOL     OW19003   3.657   0.638  10.017  0.0086  0.0916  0.0273
 2456SOL    HW119004   3.587   0.610  10.076 -1.4081 -0.0671 -1.7297
 2456SOL    HW219005   3.607   0.670   9.941  0.0253  2.9627  1.2102
 2457SOL     OW19006   3.551   0.499   6.265  0.4084 -0.3055  0.4036
 2457SOL    HW119007   3.488   0.427   6.259  0.2847 -0.0401 -1.3360
 2457SOL    HW219008   3.602   0.496   6.346  1.9197  0.0536 -0.5384
 2458SOL     OW19009   3.084   3.547  14.866 -0.1843 -0.4931 -0.4649
 2458SOL    HW119010   3.011   3.499  14.826 -0.5962 -1.7978  1.8653
 2458SOL    HW219011   3.155   3.504  14.820 -0.5359 -0.6981 -0.8180
 2459SOL     OW19012   2.800   3.288  16.589  0.1756 -0.1480 -0.3631
 2459SOL    HW119013   2.889   3.254  16.594 -0.0677 -0.6692  0.4678
 2459SOL    HW219014   2.800   3.325  16.678  1.1211  1.5946 -1.0848
 2460SOL     OW19015   0.586   2.806  16.055  0.1187  0.1321  0.1689
 2460SOL    HW119016   0.567   2.872  16.122 -3.0136 -0.5419 -0.0315
 2460SOL    HW219017   0.679   2.812  16.037 -0.1128 -0.5460 -1.2159
 2461SOL     OW19018   2.503   2.610   6.294 -0.7394  0.4162  0.6195
 2461SOL    HW119019   2.567   2.552   6.253 -0.6886  0.9311 -0.0157
 2461SOL    HW219020   2.512   2.580   6.385 -0.8051  1.8470  1.1038
 2462SOL     OW19021   2.672   2.812   2.059 -0.0479  0.7954  0.0606
 2462SOL    HW119022   2.761   2.841   2.075  0.3494  0.8714 -2.2327
 2462SOL    HW219023   2.622   2.890   2.082  0.0009  0.4298  1.4124
 2463SOL     OW19024   1.861   3.109  13.890  0.1070 -0.2270  0.8340
 2463SOL    HW119025   1.923   3.053  13.937  0.3531 -0.3981  0.2985
 2463SOL    HW219026   1.897   3.195  13.909  1.8451 -0.9616  0.8159
 2464SOL     OW19027   3.799   0.451   7.054  0.6424 -0.5302 -0.0790
 2464SOL    HW119028   3.866   0.519   7.053  0.0631  0.0470  2.4379
 2464SOL    HW219029   3.715   0.493   7.072  1.0030  0.2809 -0.2862
 2465SOL     OW19030   2.541   4.395   5.398 -0.1503  0.0458 -0.6971
 2465SOL    HW119031   2.550   4.464   5.463  2.8156 -1.0901  0.0912
 2465SOL    HW219032   2.626   4.354   5.413 -0.9871  0.0519  4.0638
 2466SOL     OW19033   3.845   0.657   9.312 -0.4704  0.1642  0.0920
 2466SOL    HW119034   3.839   0.577   9.259 -0.5234 -0.3655  0.9011
 2466SOL    HW219035   3.827   0.722   9.244 -0.8339 -0.2825 -0.2430
 2467SOL     OW19036   4.379   1.241   6.027  0.0438  0.6651 -0.7783
 2467SOL    HW119037   4.342   1.190   6.098  2.3117 -1.1750 -0.9395
 2467SOL    HW219038   4.418   1.301   6.090 -2.4785 -0.8331  2.1813
 2468SOL     OW19039   3.534   4.395   3.828  0.2722  0.0882  0.1111
 2468SOL    HW119040   3.615   4.350   3.806  0.8942  1.0368  0.4720
 2468SOL    HW219041   3.494   4.324   3.878  2.4847 -1.2821 -0.0522
 2469SOL     OW19042   1.449   3.454   7.884 -0.1292 -0.4058  0.2336
 2469SOL    HW119043   1.529   3.423   7.841  0.7864  1.0994  0.8590
 2469SOL    HW219044   1.468   3.547   7.894 -1.5637 -0.2518  1.5989
 2470SOL     OW19045   0.797   4.471   3.715  0.3739 -0.2724  1.1658
 2470SOL    HW119046   0.878   4.472   3.664 -0.9828  3.1647 -0.9470
 2470SOL    HW219047   0.798   4.562   3.743 -0.9687  0.5486 -1.5361
 2471SOL     OW19048   3.010   0.923   3.365  0.0236 -0.4015  0.0802
 2471SOL    HW119049   2.932   0.867   3.361 -1.8710  2.3284 -1.0310
 2471SOL    HW219050   3.082   0.861   3.355 -0.0899 -0.3223 -1.2332
 2472SOL     OW19051   4.434   4.284   2.616  0.3564  0.3376 -0.5495
 2472SOL    HW119052   4.490   4.211   2.589 -1.6217 -1.2741 -0.3045
 2472SOL    HW219053   4.463   4.309   2.703 -1.0663 -0.3621  0.1210
 2473SOL     OW19054   1.831   3.270   1.183  0.0953 -0.4185 -0.0009
 2473SOL    HW119055   1.819   3.222   1.265 -1.2309  0.6254  0.4115
 2473SOL    HW219056   1.769   3.223   1.126  1.1655 -2.0706  0.1942
 2474SOL     OW19057   3.788   4.313   8.315 -0.7131 -0.3647 -0.4878
 2474SOL    HW119058   3.784   4.317   8.220  1.0320 -3.5114 -0.7013
 2474SOL    HW219059   3.779   4.404   8.345  0.9886 -0.4934  0.4112
 2475SOL     OW19060   3.989   4.000   1.691 -0.2221 -0.5161  0.4404
 2475SOL    HW119061   4.048   3.930   1.718  0.0206 -0.8659 -0.9644
 2475SOL    HW219062   4.041   4.079   1.703 -1.3821  0.2423  0.4535
 2476SOL     OW19063   2.669   3.076   6.521  0.0375  0.1018  0.1830
 2476SOL    HW119064   2.646   3.168   6.507  0.0256  0.1022  0.2049
 2476SOL    HW219065   2.730   3.059   6.450 -0.4422  2.3371 -0.7603
 2477SOL     OW19066   4.483   4.013   2.991 -0.3225 -0.0547  0.7784
 2477SOL    HW119067   4.495   4.018   3.086 -0.4539  1.5033  0.7216
 2477SOL    HW219068   4.388   4.016   3.006 -0.6253  2.9433 -1.6529
 2478SOL     OW19069   1.741   3.331   8.020  0.8097 -0.1053 -0.1244
 2478SOL    HW119070   1.818   3.274   8.020  0.3796 -0.6984 -1.3580
 2478SOL    HW219071   1.725   3.329   7.926  0.8839 -1.6158 -0.0981
 2479SOL     OW19072   0.336   4.379   7.567 -0.6276  0.0031 -0.2659
 2479SOL    HW119073   0.398   4.449   7.588  1.8380 -1.8059 -1.6746
 2479SOL    HW219074   0.269   4.403   7.632 -0.6359  0.3080 -0.3873
 2480SOL     OW19075   3.579   0.471  16.160 -0.0579  0.1074 -0.1708
 2480SOL    HW119076   3.611   0.553  16.122  1.8125 -0.5354  0.0214
 2480SOL    HW219077   3.558   0.493  16.250  3.2224 -1.1015  0.8852
 2481SOL     OW19078   3.518   1.775  16.813 -0.1550  0.3177  0.1465
 2481SOL    HW119079   3.594   1.830  16.795  0.6995 -0.7620  0.4745
 2481SOL    HW219080   3.495   1.791  16.905  0.0258 -2.4429  0.6667
 2482SOL     OW19081   2.265   4.101  11.857  0.2940 -0.2827 -0.2361
 2482SOL    HW119082   2.278   4.147  11.941 -0.5487 -0.6571  0.0941
 2482SOL    HW219083   2.357   4.074  11.849  1.1002  1.8980  1.3814
 2483SOL     OW19084   2.965   1.524  10.867 -0.0233  0.4673 -0.4289
 2483SOL    HW119085   3.032   1.477  10.917  1.1846  1.8328 -0.7797
 2483SOL    HW219086   2.995   1.525  10.776 -0.4102  1.1027 -0.5494
 2484SOL     OW19087   4.535   2.247   8.842  0.1686 -0.1692  0.3871
 2484SOL    HW119088   4.444   2.226   8.821  0.1358  0.8756 -0.5049
 2484SOL    HW219089   4.527   2.322   8.902  0.3612  1.6956 -1.9230
 2485SOL     OW19090   1.676   1.047   7.691  0.1255  0.9364 -0.2042
 2485SOL    HW119091   1.610   1.038   7.759 -1.1590 -1.0893 -1.7167
 2485SOL    HW219092   1.746   0.995   7.729 -1.1612 -1.4704 -1.1418
 2486SOL     OW19093   3.083   0.065   8.101  0.4724 -0.1300 -0.1717
 2486SOL    HW119094   3.114   0.148   8.139  1.0475 -0.9883  1.2264
 2486SOL    HW219095   3.170   0.032   8.077  0.5432 -0.3492  0.4064
 2487SOL     OW19096   2.944   2.154   3.218  0.0277  0.3537  0.1151
 2487SOL    HW119097   2.962   2.125   3.308  2.1326 -0.0768 -0.4575
 2487SOL    HW219098   3.012   2.219   3.205  0.4744 -0.2660 -0.6073
 2488SOL     OW19099   1.124   0.948   8.100 -0.1828 -0.1588  0.3036
 2488SOL    HW119100   1.038   0.978   8.128 -0.8627  1.1653 -3.2627
 2488SOL    HW219101   1.113   0.862   8.060  2.9144 -0.5956  0.3528
 2489SOL     OW19102   2.748   2.319   7.485  0.3849  0.4753  0.2316
 2489SOL    HW119103   2.694   2.380   7.434  0.2920 -0.8267 -1.2076
 2489SOL    HW219104   2.690   2.295   7.558 -1.3343  1.9726 -0.6184
 2490SOL     OW19105   1.911   3.612  10.501 -0.4694 -0.1009  0.1538
 2490SOL    HW119106   1.817   3.592  10.497 -0.3201 -0.7451 -0.0930
 2490SOL    HW219107   1.914   3.597  10.595 -1.9560  0.0646  0.2391
 2491SOL     OW19108   4.400   0.567   4.897  0.1383 -0.1259  0.2200
 2491SOL    HW119109   4.418   0.494   4.956  2.6120 -0.9427 -1.5363
 2491SOL    HW219110   4.436   0.644   4.941  0.2067  0.6864 -1.2538
 2492SOL     OW19111   0.025   1.274   6.169  0.0176  0.3276 -0.0749
 2492SOL    HW119112   4.683   1.313   6.188 -0.9759 -0.3945 -3.0912
 2492SOL    HW219113   0.058   1.263   6.258 -1.8244 -3.1427  0.1738
 2493SOL     OW19114   2.969   3.749   0.506 -0.2934 -0.2238  0.4611
 2493SOL    HW119115   2.898   3.685   0.517  0.0534 -0.9487 -1.4035
 2493SOL    HW219116   2.931   3.811   0.444  0.1124 -3.1421 -2.7141
 2494SOL     OW19117   0.709   0.453   7.081 -0.0444  0.3536  0.0816
 2494SOL    HW119118   0.719   0.483   7.171 -1.3190  0.6841  0.1068
 2494SOL    HW219119   0.656   0.521   7.040 -1.0226 -0.2148  0.4122
 2495SOL     OW19120   3.111   4.113   8.982 -0.2071  0.8771  0.4727
 2495SOL    HW119121   3.130   4.156   8.899 -1.4358 -2.1782 -1.3977
 2495SOL    HW219122   3.158   4.172   9.041  1.2817 -1.0232  1.2017
 2496SOL     OW19123   1.345   0.724   3.391 -0.9110  0.5263 -0.1606
 2496SOL    HW119124   1.419   0.734   3.450 -0.0878  0.3978 -1.1739
 2496SOL    HW219125   1.328   0.813   3.361 -2.3183  0.6338  0.9306
 2497SOL     OW19126   0.082   1.168   1.795 -0.4014 -0.0480  0.0172
 2497SOL    HW119127   0.001   1.141   1.838 -0.0272 -0.4515  0.4637
 2497SOL    HW219128   0.050   1.242   1.744  1.7551  0.6061 -0.3743
 2498SOL     OW19129   1.783   2.195   0.524 -0.3374 -0.0303  0.3771
 2498SOL    HW119130   1.695   2.198   0.561 -1.4622 -1.2143 -2.1774
 2498SOL    HW219131   1.778   2.268   0.462  0.2633  0.3196  0.7421
 2499SOL     OW19132   2.511   3.536   5.637 -0.1579 -0.4369 -0.3867
 2499SOL    HW119133   2.508   3.440   5.633 -0.6809 -0.3336 -2.3560
 2499SOL    HW219134   2.438   3.545   5.699 -0.2300 -1.3805 -0.3384
 2500SOL     OW19135   2.682   3.022  16.067  0.2268  0.8029  0.4904
 2500SOL    HW119136   2.736   2.997  16.142 -0.6308 -0.2748  0.7486
 2500SOL    HW219137   2.727   3.100  16.035 -0.1921  0.3260 -1.2501
 2501SOL     OW19138   0.156   3.005   8.736 -0.5947 -0.0724 -0.3746
 2501SOL    HW119139   0.241   2.964   8.717 -1.3078 -2.0124  0.6711
 2501SOL    HW219140   0.154   2.999   8.831 -0.0566 -2.4745 -0.4922
 2502SOL     OW19141   1.043   3.292   1.241  0.5430 -0.0000  0.2422
 2502SOL    HW119142   1.077   3.224   1.299 -0.0034 -1.4580 -1.1534
 2502SOL    HW219143   1.054   3.361   1.306  0.4143  0.4667 -0.2308
 2503SOL     OW19144   2.320   2.365  11.790 -0.1846  0.6520 -0.0699
 2503SOL    HW119145   2.274   2.402  11.865 -0.9969 -1.2731  0.3831
 2503SOL    HW219146   2.328   2.275  11.821  0.0302  0.4458 -0.7214
 2504SOL     OW19147   0.337   2.331  17.044 -0.1163 -0.1686 -0.0206
 2504SOL    HW119148   0.329   2.298  17.133  0.4021  1.2136  0.5475
 2504SOL    HW219149   0.330   2.248  16.997 -1.1785 -0.1703  0.1339
 2505SOL     OW19150   4.167   3.420   5.138  0.0441 -0.8139  0.8145
 2505SOL    HW119151   4.213   3.340   5.162 -0.1838 -1.0059  0.6132
 2505SOL    HW219152   4.135   3.383   5.055  0.6187 -0.8473  0.6103
 2506SOL     OW19153   1.629   4.405   5.357  0.0311 -0.5209 -0.4765
 2506SOL    HW119154   1.602   4.483   5.406  0.4532  0.2194 -1.4206
 2506SOL    HW219155   1.551   4.405   5.301 -2.2172 -0.4166  2.6403
 2507SOL     OW19156   0.420   2.840   6.571  0.1612  0.4854  0.0951
 2507SOL    HW119157   0.407   2.750   6.601  0.7613  0.5439  0.5184
 2507SOL    HW219158   0.386   2.895   6.642 -0.6630 -1.6294  1.3482
 2508SOL     OW19159   1.551   3.639   3.465 -0.1333  0.0274 -0.3658
 2508SOL    HW119160   1.594   3.656   3.381  2.8462 -1.1631  0.9143
 2508SOL    HW219161   1.633   3.630   3.513 -0.3578 -0.7157 -0.1351
 2509SOL     OW19162   0.336   1.594   4.037  0.2271  0.0258 -0.0562
 2509SOL    HW119163   0.256   1.550   4.067  0.8032 -1.0037 -0.0226
 2509SOL    HW219164   0.340   1.559   3.948  1.2506 -1.5217  0.6009
 2510SOL     OW19165   1.798   2.880  16.657  0.0252 -0.6376  0.4292
 2510SOL    HW119166   1.788   2.887  16.562  1.3416 -1.8967  0.1885
 2510SOL    HW219167   1.823   2.971  16.676  0.2137 -0.2835 -1.5169
 2511SOL     OW19168   3.313   1.996  13.994  0.3127  0.2418 -0.0724
 2511SOL    HW119169   3.266   2.010  14.076 -1.6610  0.7807 -1.3074
 2511SOL    HW219170   3.244   2.009  13.929  1.0081 -2.0796 -1.2443
 2512SOL     OW19171   0.662   1.218  16.279 -0.2078 -0.0255 -0.1712
 2512SOL    HW119172   0.660   1.306  16.242 -4.1447 -0.7717 -1.7504
 2512SOL    HW219173   0.668   1.242  16.372  1.0713  1.5393 -0.6477
 2513SOL     OW19174   0.444   2.411   6.831  0.1415 -0.4618 -0.1826
 2513SOL    HW119175   0.450   2.423   6.736  0.0879  0.9826  0.0024
 2513SOL    HW219176   0.370   2.469   6.844  0.2161 -0.3890 -0.0848
 2514SOL     OW19177   0.666   4.119   1.903  0.3216 -0.3345  0.2278
 2514SOL    HW119178   0.720   4.198   1.897  1.3261 -1.1454 -1.5414
 2514SOL    HW219179   0.586   4.168   1.917 -0.4108 -1.3755 -0.2634
 2515SOL     OW19180   1.258   0.330   0.080  0.3119  0.2244  0.1666
 2515SOL    HW119181   1.277   0.403   0.021 -2.7548  0.1825 -0.8696
 2515SOL    HW219182   1.163   0.340   0.088  0.4920  0.6158  1.8240
 2516SOL     OW19183   3.850   1.961   9.253  1.0066  0.0522  0.5663
 2516SOL    HW119184   3.763   1.948   9.215  1.2084  2.0357 -0.5539
 2516SOL    HW219185   3.842   2.053   9.277 -0.8350  0.5558 -2.0330
 2517SOL     OW19186   3.596   4.251  14.318  0.2211  0.1445  0.0411
 2517SOL    HW119187   3.636   4.327  14.360  0.6479 -0.8112  1.3505
 2517SOL    HW219188   3.531   4.296  14.264 -2.2520 -0.6230  2.3472
 2518SOL     OW19189   1.700   2.872   7.967 -0.2038  0.8086 -0.0754
 2518SOL    HW119190   1.693   2.826   8.051 -0.5680  0.9112 -0.0481
 2518SOL    HW219191   1.688   2.961   8.001 -0.2359  1.0007 -0.5948
 2519SOL     OW19192   4.574   3.209   3.203 -0.0444 -0.1881  0.0843
 2519SOL    HW119193   4.627   3.134   3.177 -0.8452 -1.0847  1.0050
 2519SOL    HW219194   4.643   3.275   3.215 -0.8049  0.8704 -1.4532
 2520SOL     OW19195   3.576   4.340  15.693  0.1748 -0.3387  0.2725
 2520SOL    HW119196   3.627   4.329  15.773 -1.4890 -1.9465  1.1092
 2520SOL    HW219197   3.529   4.419  15.721 -1.0153 -0.8984 -0.1198
 2521SOL     OW19198   2.750   0.369  16.639  0.5547  0.4918 -0.1011
 2521SOL    HW119199   2.755   0.340  16.548 -0.7270 -2.4999  0.8113
 2521SOL    HW219200   2.671   0.422  16.646  1.2182  1.8330 -2.6088
 2522SOL     OW19201   1.678   2.388   5.429  0.1182  0.4120  0.0363
 2522SOL    HW119202   1.745   2.423   5.489  1.2625 -0.8600 -0.4920
 2522SOL    HW219203   1.685   2.458   5.365 -0.3643 -1.6387 -2.2572
 2523SOL     OW19204   3.175   3.648   0.203 -0.7916  0.0345 -0.0013
 2523SOL    HW119205   3.135   3.562   0.217  0.1362 -0.1135  1.7119
 2523SOL    HW219206   3.120   3.684   0.133  1.2935  1.6610 -0.8050
 2524SOL     OW19207   4.246   3.800   5.489 -0.6516  0.2794  0.1826
 2524SOL    HW119208   4.171   3.746   5.512 -1.3257  1.1221 -0.0323
 2524SOL    HW219209   4.258   3.774   5.398 -0.8925 -1.6655  0.7089
 2525SOL     OW19210   2.575   3.542   8.406  0.5036  0.5511 -0.2382
 2525SOL    HW119211   2.596   3.560   8.498 -0.3786 -0.8158  0.2180
 2525SOL    HW219212   2.646   3.584   8.357  1.4644  0.1135  0.7880
 2526SOL     OW19213   3.506   1.834  14.367  0.5543  0.1052 -0.3359
 2526SOL    HW119214   3.498   1.906  14.304 -1.3642  0.0619 -0.1419
 2526SOL    HW219215   3.421   1.844  14.409  1.0996  0.7050  0.6167
 2527SOL     OW19216   0.849   0.993  13.548 -0.4562  0.5513  0.1784
 2527SOL    HW119217   0.896   0.927  13.600  0.8969  2.4672  1.3862
 2527SOL    HW219218   0.912   1.062  13.528 -0.0330  0.0351 -0.2824
 2528SOL     OW19219   4.230   2.310   8.770 -0.1681 -0.1010  0.1860
 2528SOL    HW119220   4.160   2.251   8.798 -0.2094  0.6864  1.7320
 2528SOL    HW219221   4.175   2.388   8.764  0.9670  0.7260  0.6432
 2529SOL     OW19222   1.889   2.536   7.066 -0.2268 -0.3299  0.3834
 2529SOL    HW119223   1.875   2.594   6.990 -0.2184  0.5318  1.0416
 2529SOL    HW219224   1.978   2.506   7.047 -1.2479 -1.6220 -2.3780
 2530SOL     OW19225   1.281   3.343   5.784 -0.0598 -0.2966  0.2181
 2530SOL    HW119226   1.194   3.357   5.822 -1.0236 -0.3191 -1.9546
 2530SOL    HW219227   1.275   3.416   5.723 -0.0980  0.5752  1.2576
 2531SOL     OW19228   3.038   3.813   3.229  0.1599  0.7253  0.3327
 2531SOL    HW119229   3.039   3.739   3.290 -0.6906  1.2166  0.9239
 2531SOL    HW219230   3.106   3.875   3.254  2.2100 -1.1553 -0.5484
 2532SOL     OW19231   2.751   1.790   3.748  0.0273 -0.0434  0.4576
 2532SOL    HW119232   2.830   1.839   3.770  1.3796 -2.1567  0.2860
 2532SOL    HW219233   2.710   1.843   3.680  2.8786  0.9216 -0.5061
 2533SOL     OW19234   2.361   4.438   9.298 -0.4613  0.2349  0.6387
 2533SOL    HW119235   2.354   4.449   9.203  0.5117 -0.9713  0.4188
 2533SOL    HW219236   2.321   4.516   9.337  1.7525  0.6665  2.0208
 2534SOL     OW19237   0.703   2.186  17.134 -0.5196  0.2430 -0.0809
 2534SOL    HW119238   0.698   2.281  17.139  0.2299  0.0882  3.2365
 2534SOL    HW219239   0.757   2.165  17.058 -0.6694 -2.1376  0.4528
 2535SOL     OW19240   1.293   1.779  16.344  0.1789 -0.3184  0.2999
 2535SOL    HW119241   1.280   1.863  16.389 -0.0350  0.4834 -1.2326
 2535SOL    HW219242   1.236   1.727  16.400 -0.4223  0.0448  0.0257
 2536SOL     OW19243   3.577   1.627   5.779 -0.4038  0.0003 -0.3229
 2536SOL    HW119244   3.523   1.690   5.826  0.1101 -0.9415  1.4943
 2536SOL    HW219245   3.552   1.547   5.826 -0.5706 -0.5592 -1.3575
 2537SOL     OW19246   1.557   0.730   8.645 -0.5443 -0.6655  0.3266
 2537SOL    HW119247   1.646   0.765   8.643 -0.8470 -0.1639 -4.0715
 2537SOL    HW219248   1.516   0.783   8.713 -1.0476  0.8765 -1.1819
 2538SOL     OW19249   3.287   0.680   9.989  0.6055 -0.8266  0.0484
 2538SOL    HW119250   3.207   0.631  10.008  0.7752 -1.4114 -0.7259
 2538SOL    HW219251   3.353   0.616  10.018  1.7653 -0.0202 -0.8369
 2539SOL     OW19252   1.002   0.987   0.378 -0.2026 -0.4059 -0.4151
 2539SOL    HW119253   1.037   1.024   0.459 -2.6859  0.3642  0.2832
 2539SOL    HW219254   0.976   1.067   0.333 -0.1037  0.3039  0.7872
 2540SOL     OW19255   2.494   2.086  17.568  0.4190 -0.6287 -0.3790
 2540SOL    HW119256   2.527   1.997  17.555 -1.8899 -1.8830  2.2584
 2540SOL    HW219257   2.474   2.107  17.477 -0.9276  0.3049  0.1370
 2541SOL     OW19258   2.162   1.334   7.617  0.0678  0.3506 -0.0827
 2541SOL    HW119259   2.148   1.276   7.542 -2.4313  2.9303 -1.5846
 2541SOL    HW219260   2.144   1.418   7.576  0.2327 -1.4248 -3.7714
 2542SOL     OW19261   3.308   0.839   8.378 -0.0546  0.1834 -0.9802
 2542SOL    HW119262   3.400   0.845   8.353  0.3469  0.4036  0.5275
 2542SOL    HW219263   3.290   0.933   8.378  1.0693  0.3982 -0.9364
 2543SOL     OW19264   4.639   0.527   6.818  0.1345  0.0931 -0.2439
 2543SOL    HW119265   4.681   0.519   6.732  1.7792  1.2098  0.4431
 2543SOL    HW219266   4.593   0.444   6.817 -3.2092  1.9399 -1.0358
 2544SOL     OW19267   4.290   2.485  12.121  0.5591 -0.7696  0.2572
 2544SOL    HW119268   4.275   2.469  12.214  0.9997 -0.1727  0.4307
 2544SOL    HW219269   4.221   2.550  12.107  0.7545 -0.8256 -0.9828
 2545SOL     OW19270   1.031   2.910  17.534 -0.2420  0.3315 -0.3242
 2545SOL    HW119271   1.109   2.948  17.492  1.2932 -1.1902  1.1877
 2545SOL    HW219272   1.029   2.953  17.619 -0.1573 -2.1012  0.8816
 2546SOL     OW19273   2.869   4.247   6.011  0.1130 -0.3405  0.0252
 2546SOL    HW119274   2.870   4.286   6.098  1.1918 -0.0480 -0.1168
 2546SOL    HW219275   2.932   4.175   6.022  0.3949 -0.1837 -0.5966
 2547SOL     OW19276   2.491   1.511   4.733 -0.4577  0.1870  0.1188
 2547SOL    HW119277   2.488   1.530   4.827 -3.5032 -0.9589  0.2715
 2547SOL    HW219278   2.565   1.451   4.740 -2.2804 -2.0060  0.6604
 2548SOL     OW19279   1.560   4.433   4.629  0.2213  0.1318 -0.1809
 2548SOL    HW119280   1.500   4.413   4.701  2.1432  0.6712  1.5462
 2548SOL    HW219281   1.619   4.492   4.675  1.1149  0.5981 -1.9276
 2549SOL     OW19282   2.563   1.399   0.984  0.2045 -0.0581 -0.1567
 2549SOL    HW119283   2.479   1.370   0.947  0.0617  0.6573 -0.3791
 2549SOL    HW219284   2.559   1.387   1.079  0.8568  4.4972  0.4473
 2550SOL     OW19285   3.268   0.525  16.399  0.3062 -0.0142 -0.1728
 2550SOL    HW119286   3.361   0.529  16.419 -0.2056 -0.1870  2.2043
 2550SOL    HW219287   3.278   0.588  16.328 -1.9056 -1.0603 -1.4579
 2551SOL     OW19288   2.330   1.090   4.689  0.5454 -0.0836 -0.5222
 2551SOL    HW119289   2.274   1.150   4.640 -0.5911 -0.7708 -0.0641
 2551SOL    HW219290   2.283   1.007   4.681  1.4731 -0.7214  0.6539
 2552SOL     OW19291   0.773   3.809   8.084  0.4964  0.3201  0.5715
 2552SOL    HW119292   0.759   3.871   8.013  1.6390  1.3775  1.2588
 2552SOL    HW219293   0.867   3.820   8.100  0.8889  0.7826 -2.0434
 2553SOL     OW19294   0.708   2.366   1.746 -0.2334 -0.2705  0.0729
 2553SOL    HW119295   0.623   2.322   1.738  0.4640 -1.2544 -1.9588
 2553SOL    HW219296   0.712   2.388   1.839 -1.2633  0.4749 -0.0640
 2554SOL     OW19297   0.198   4.334   8.153  0.1972  0.2226 -0.1759
 2554SOL    HW119298   0.190   4.313   8.247 -0.7737  1.6983  0.0649
 2554SOL    HW219299   0.207   4.252   8.105  1.1317  1.5486 -2.2570
 2555SOL     OW19300   0.611   1.723   1.115  0.3525  0.3496 -0.3067
 2555SOL    HW119301   0.611   1.801   1.060  3.0404 -0.5683 -1.6052
 2555SOL    HW219302   0.533   1.742   1.167  0.0748  0.4319 -0.7608
 2556SOL     OW19303   2.158   1.075   8.360 -0.2011  0.1221 -0.0873
 2556SOL    HW119304   2.088   1.025   8.319 -0.0709  0.2143 -0.4213
 2556SOL    HW219305   2.230   1.078   8.298 -1.2545 -2.4337 -1.4236
 2557SOL     OW19306   0.497   3.124   6.203  0.1821  0.5288  0.1546
 2557SOL    HW119307   0.475   3.217   6.208 -0.0628  0.4783  0.0017
 2557SOL    HW219308   0.587   3.124   6.237  0.1688 -0.1314  0.1850
 2558SOL     OW19309   2.705   4.381   8.828  0.1098 -0.1526 -0.5115
 2558SOL    HW119310   2.690   4.291   8.856  0.4451 -0.6124 -1.7918
 2558SOL    HW219311   2.790   4.370   8.786  0.3944  0.4903 -0.1058
 2559SOL     OW19312   3.374   2.742   5.419 -0.1128  0.2535  0.0922
 2559SOL    HW119313   3.321   2.807   5.465  1.1470  0.3003  1.4587
 2559SOL    HW219314   3.340   2.730   5.330  0.3924 -2.5992  0.3066
 2560SOL     OW19315   1.556   4.586   7.764 -0.5311  0.1582  0.4518
 2560SOL    HW119316   1.518   4.499   7.749 -1.2311  0.6093 -0.4815
 2560SOL    HW219317   1.498   4.611   7.836  0.7653 -0.4379  1.6717
 2561SOL     OW19318   1.570   3.613   5.976 -0.1730  0.0141 -0.3439
 2561SOL    HW119319   1.511   3.639   6.047  0.4511 -1.3950  0.6890
 2561SOL    HW219320   1.556   3.684   5.914 -0.4629 -1.3679 -1.8873
 2562SOL     OW19321   1.242   0.009   4.021  0.5698  0.1066  0.2499
 2562SOL    HW119322   1.251   0.076   4.089  2.2937  2.5748 -2.3817
 2562SOL    HW219323   1.299   0.053   3.958  2.0300 -0.6300  1.0513
 2563SOL     OW19324   1.189   4.735   2.097  0.4193  0.6536 -0.5328
 2563SOL    HW119325   1.150   0.022   2.179  2.6676 -0.1131  0.8005
 2563SOL    HW219326   1.106   4.710   2.057 -0.4796 -1.1171  2.4549
 2564SOL     OW19327   4.064   3.830  16.677 -0.2317 -0.2895 -0.4804
 2564SOL    HW119328   3.971   3.807  16.667 -0.5408  1.1501 -0.8527
 2564SOL    HW219329   4.105   3.768  16.617  1.3452  0.2306  0.0715
 2565SOL     OW19330   2.784   1.214   7.218 -0.5616 -0.3075 -0.3087
 2565SOL    HW119331   2.760   1.170   7.137 -2.7940 -0.7368  0.5789
 2565SOL    HW219332   2.811   1.143   7.275 -0.0581 -0.2332 -0.4561
 2566SOL     OW19333   3.813   1.228   5.304  0.0153 -0.7794 -0.5278
 2566SOL    HW119334   3.779   1.228   5.394  0.7447 -0.1900 -0.2462
 2566SOL    HW219335   3.908   1.215   5.302 -0.0243 -0.9948 -0.9831
 2567SOL     OW19336   0.267   0.378   2.340  0.3715 -0.1049 -0.3507
 2567SOL    HW119337   0.205   0.309   2.362  1.8521 -0.9204  1.2533
 2567SOL    HW219338   0.225   0.459   2.371 -0.5296 -1.1555  1.1522
 2568SOL     OW19339   4.621   1.355   7.814  0.3675  0.1247  0.1805
 2568SOL    HW119340   4.658   1.285   7.760  0.8664  1.5934 -1.3497
 2568SOL    HW219341   4.674   1.426   7.778 -0.2842  0.5725  0.1076
 2569SOL     OW19342   2.032   2.713   3.646  0.0098 -0.3953 -0.7131
 2569SOL    HW119343   2.097   2.654   3.609 -1.9843 -2.7768 -0.4798
 2569SOL    HW219344   2.079   2.796   3.643  0.9458 -0.8552  1.2233
 2570SOL     OW19345   1.318   1.118   2.498  0.2115 -0.3120 -0.0477
 2570SOL    HW119346   1.310   1.145   2.589  1.6401  2.7546 -0.8180
 2570SOL    HW219347   1.329   1.024   2.512 -0.6140 -0.5522 -0.9730
 2571SOL     OW19348   4.142   3.781   4.289  0.2092  0.0870 -0.9146
 2571SOL    HW119349   4.207   3.850   4.283  0.0600  0.2165 -1.0500
 2571SOL    HW219350   4.096   3.788   4.205  0.3947  1.5033 -0.8879
 2572SOL     OW19351   2.043   0.310   3.263  0.1599 -0.0166 -0.2958
 2572SOL    HW119352   2.100   0.235   3.278  0.7230  0.6574  0.8792
 2572SOL    HW219353   2.072   0.372   3.329  0.9966 -1.1239  0.3825
 2573SOL     OW19354   3.424   1.305   8.455 -0.8392 -0.2853 -0.1599
 2573SOL    HW119355   3.448   1.397   8.442  0.9369 -0.8575 -0.8371
 2573SOL    HW219356   3.352   1.288   8.394 -0.1797  1.6306 -1.4787
 2574SOL     OW19357   3.487   1.330   4.816  0.1205 -0.0391 -0.3697
 2574SOL    HW119358   3.506   1.348   4.908  0.2111  1.8218 -0.7678
 2574SOL    HW219359   3.559   1.267   4.803  1.1834  1.1938 -0.4256
 2575SOL     OW19360   0.062   4.693   8.199  0.2729  0.2002  0.5896
 2575SOL    HW119361   4.726   4.652   8.164  0.2589 -0.2592  1.1637
 2575SOL    HW219362   0.035   4.695   8.291 -1.1142  0.6120  0.1702
 2576SOL     OW19363   3.109   4.223   4.549 -0.5197 -0.8507  0.1331
 2576SOL    HW119364   3.101   4.131   4.523  1.8270 -0.7267 -1.0488
 2576SOL    HW219365   3.032   4.239   4.604  0.3564  0.5340  0.9638
 2577SOL     OW19366   3.252   2.414   3.401 -0.2117  1.0498  0.0652
 2577SOL    HW119367   3.209   2.353   3.462  1.4399 -1.4880 -1.3058
 2577SOL    HW219368   3.172   2.455   3.367 -0.0106  0.7201 -0.8236
 2578SOL     OW19369   4.433   3.263   9.088  0.0657  0.5195 -0.5779
 2578SOL    HW119370   4.513   3.245   9.039  0.7565  2.8135 -0.2849
 2578SOL    HW219371   4.392   3.337   9.043 -0.3269  0.1288 -0.8615
 2579SOL     OW19372   1.710   0.279   6.182  0.0338  0.0780 -0.0288
 2579SOL    HW119373   1.793   0.261   6.138  0.1419  2.2299 -0.7312
 2579SOL    HW219374   1.746   0.347   6.238  0.0885  0.7057 -0.8196
 2580SOL     OW19375   2.553   2.570   8.589  0.0034 -0.2302 -0.2484
 2580SOL    HW119376   2.495   2.502   8.555 -0.8317  0.5800 -0.4192
 2580SOL    HW219377   2.547   2.547   8.682  0.6137  0.3529 -0.0669
 2581SOL     OW19378   4.216   1.663   1.393  0.0219 -0.7370  0.0958
 2581SOL    HW119379   4.166   1.596   1.348  1.6716 -0.4295 -2.1976
 2581SOL    HW219380   4.146   1.715   1.432  0.7034 -0.8252  1.4684
 2582SOL     OW19381   1.702   2.033  17.230 -0.0747 -0.2937  0.8854
 2582SOL    HW119382   1.771   2.046  17.296  0.0095 -0.2676  0.7925
 2582SOL    HW219383   1.646   2.108  17.249  0.0816  0.7967 -2.9366
 2583SOL     OW19384   0.698   3.069   2.930  0.2066  0.1007  0.0003
 2583SOL    HW119385   0.614   3.024   2.938  0.4955 -0.4199  0.1449
 2583SOL    HW219386   0.705   3.097   3.022  2.4203  1.8448 -0.7187
 2584SOL     OW19387   2.563   1.442   7.366  0.3205  0.6062 -0.6720
 2584SOL    HW119388   2.642   1.417   7.317 -0.0759 -0.3375 -0.8227
 2584SOL    HW219389   2.505   1.369   7.346 -0.7363  1.7606 -1.7334
 2585SOL     OW19390   4.648   1.106   4.422  0.0326  0.4347 -0.4648
 2585SOL    HW119391   4.561   1.071   4.405 -0.6583  1.0733  1.7623
 2585SOL    HW219392   4.697   1.073   4.347 -1.1645  0.7021 -1.3474
 2586SOL     OW19393   1.202   2.228  11.992 -0.0716  0.3841  0.0162
 2586SOL    HW119394   1.172   2.231  12.083 -1.7368 -0.2999 -0.5117
 2586SOL    HW219395   1.206   2.133  11.979 -0.5108  0.5572 -1.3653
 2587SOL     OW19396   1.139   3.032   9.247 -0.3363  0.0945 -0.5122
 2587SOL    HW119397   1.154   2.959   9.188 -0.4556 -1.8013  1.7986
 2587SOL    HW219398   1.205   3.015   9.315 -1.0123 -2.3227 -0.4449
 2588SOL     OW19399   0.146   1.969   6.131 -0.1758 -0.0307  0.3133
 2588SOL    HW119400   0.103   1.941   6.212  1.1281 -0.0959  0.9805
 2588SOL    HW219401   0.206   1.895   6.122 -0.2939 -0.0524 -0.2805
 2589SOL     OW19402   1.709   1.687   8.140  0.0905 -0.3352 -0.0772
 2589SOL    HW119403   1.776   1.749   8.109  1.1839 -1.2730  0.4106
 2589SOL    HW219404   1.749   1.600   8.146  0.5916 -0.0410  0.7629
 2590SOL     OW19405   3.539   2.000   8.392 -0.0983  0.0742 -0.3017
 2590SOL    HW119406   3.487   1.991   8.472  1.7638  0.7097  0.9633
 2590SOL    HW219407   3.473   1.989   8.323  1.6464 -1.8928 -1.6526
 2591SOL     OW19408   4.577   2.238   4.251  0.1534  0.4675 -0.6256
 2591SOL    HW119409   4.572   2.313   4.191 -1.0606 -0.3814 -1.5919
 2591SOL    HW219410   4.506   2.178   4.229  0.1407  0.3739 -0.3283
 2592SOL     OW19411   4.435   2.413  10.653 -0.1033 -0.0785  0.3586
 2592SOL    HW119412   4.383   2.395  10.731  0.0910 -0.7432  0.3293
 2592SOL    HW219413   4.522   2.401  10.691 -0.0249  1.9919  0.8311
 2593SOL     OW19414   1.238   4.497   5.675 -0.4109 -0.4404 -0.0768
 2593SOL    HW119415   1.250   4.578   5.626  1.2036  0.8728  2.4725
 2593SOL    HW219416   1.159   4.455   5.640 -0.4521 -0.3679 -0.0692
 2594SOL     OW19417   4.665   0.144   8.441 -0.4021 -0.2564 -0.3774
 2594SOL    HW119418   4.647   0.222   8.493 -2.8076 -2.3663  1.9865
 2594SOL    HW219419   4.729   0.177   8.378 -1.4511 -1.4624 -2.0478
 2595SOL     OW19420   2.550   1.715   3.938  0.0540 -0.2778  0.0353
 2595SOL    HW119421   2.587   1.640   3.984 -0.9818 -1.1960 -0.6467
 2595SOL    HW219422   2.629   1.750   3.896  0.3717  0.5829  1.3135
 2596SOL     OW19423   0.997   0.257   6.547 -0.3627  0.5076 -0.0464
 2596SOL    HW119424   1.018   0.297   6.631 -1.9493 -2.0350  1.5406
 2596SOL    HW219425   0.973   0.170   6.577  2.3293  0.0276  0.6709
 2597SOL     OW19426   3.276   1.847   6.229 -0.1948 -0.3127 -0.4583
 2597SOL    HW119427   3.333   1.772   6.249  1.4666  1.1342  0.2241
 2597SOL    HW219428   3.194   1.798   6.233  0.4835 -1.3714  0.6863
 2598SOL     OW19429   2.780   3.108  17.457 -0.1614  0.1206  0.1698
 2598SOL    HW119430   2.835   3.084  17.531 -0.5927  0.4058  0.5796
 2598SOL    HW219431   2.710   3.042  17.465  0.5593 -0.6479  0.0805
 2599SOL     OW19432   0.570   1.698   8.956  0.1973 -0.2360  0.2075
 2599SOL    HW119433   0.583   1.605   8.972 -0.5812 -0.5368 -0.9093
 2599SOL    HW219434   0.600   1.742   9.036  1.9838 -0.1673 -0.5005
 2600SOL     OW19435   4.076   0.282  17.724 -0.1786  0.3048  0.2949
 2600SOL    HW119436   4.029   0.363  17.742 -0.6137  0.0817  0.1461
 2600SOL    HW219437   4.007   0.226  17.691  0.6735 -0.1008 -0.7902
 2601SOL     OW19438   0.598   4.613   5.835 -0.4618  0.7610  0.9991
 2601SOL    HW119439   0.605   4.624   5.930  1.3029 -0.7934  1.0543
 2601SOL    HW219440   0.633   4.523   5.834  1.0720  1.3931 -1.9696
 2602SOL     OW19441   4.685   2.304   0.446  0.0485  0.0072  0.4278
 2602SOL    HW119442   4.714   2.291   0.355 -0.5968  0.0780  0.2073
 2602SOL    HW219443   4.594   2.330   0.431  0.0245  0.0608  0.6695
 2603SOL     OW19444   0.854   3.456   5.716 -0.0338 -0.6093  0.7333
 2603SOL    HW119445   0.798   3.411   5.653 -1.2157  2.0450 -0.1173
 2603SOL    HW219446   0.786   3.461   5.783 -0.4296  1.9786  0.1336
 2604SOL     OW19447   2.114   3.191   6.844  0.7096 -0.0968  0.1499
 2604SOL    HW119448   2.144   3.144   6.766 -1.8934 -0.7286 -0.4539
 2604SOL    HW219449   2.197   3.216   6.885  1.9219 -3.3284 -0.3658
 2605SOL     OW19450   4.248   3.653   3.340  0.1055  0.1703 -0.0003
 2605SOL    HW119451   4.168   3.706   3.343 -0.6857 -0.8734 -2.3281
 2605SOL    HW219452   4.286   3.683   3.258 -2.0650  2.2305 -0.2394
 2606SOL     OW19453   1.991   3.687  15.938 -0.1323 -0.3266 -0.2909
 2606SOL    HW119454   2.039   3.652  15.863 -0.5265 -0.3526 -0.5353
 2606SOL    HW219455   2.052   3.663  16.007  0.0308 -0.6158 -0.5356
 2607SOL     OW19456   2.373   3.626   6.521  0.2437 -0.0177 -0.3694
 2607SOL    HW119457   2.461   3.641   6.485 -0.5149 -1.7247 -2.9132
 2607SOL    HW219458   2.320   3.667   6.452 -1.8149 -0.2071  1.1053
 2608SOL     OW19459   4.714   3.384   3.977  0.2322  0.0299  0.1686
 2608SOL    HW119460   0.033   3.351   4.043  0.2638  0.6309  0.4429
 2608SOL    HW219461   4.742   3.476   3.982 -0.0496  0.0345  1.7719
 2609SOL     OW19462   4.635   0.486  16.690 -0.1789 -0.5788  0.0553
 2609SOL    HW119463   4.674   0.449  16.770  0.5400  1.2550  0.5736
 2609SOL    HW219464   4.575   0.423  16.652 -2.6489 -0.3442  3.5345
 2610SOL     OW19465   1.781   4.736   2.830  0.0147 -0.5302  0.5759
 2610SOL    HW119466   1.816   4.726   2.741  0.0058 -0.9074  0.6146
 2610SOL    HW219467   1.844   0.052   2.871 -0.7080 -0.2708  1.2928
 2611SOL     OW19468   4.263   2.106   7.533 -0.3545 -0.3529  0.2247
 2611SOL    HW119469   4.318   2.144   7.464  0.7944 -0.7918  0.8949
 2611SOL    HW219470   4.329   2.062   7.587  0.3779  1.3955  0.7584
 2612SOL     OW19471   4.071   3.105   3.168 -0.2057 -0.3611 -0.7014
 2612SOL    HW119472   4.124   3.147   3.100  0.2252  1.2938  0.6671
 2612SOL    HW219473   4.129   3.036   3.201 -2.4550 -0.8021  2.2780
 2613SOL     OW19474   0.618   1.184   1.423  0.1318  0.0848  0.0859
 2613SOL    HW119475   0.579   1.190   1.510  1.0526 -1.1675  0.5863
 2613SOL    HW219476   0.631   1.089   1.417 -1.5488 -0.0097 -2.3947
 2614SOL     OW19477   2.580   3.500   3.314  0.3324 -0.3350 -0.2745
 2614SOL    HW119478   2.562   3.530   3.403 -1.2766 -0.5621 -0.5291
 2614SOL    HW219479   2.629   3.419   3.326  2.5905  0.6571 -2.6599
 2615SOL     OW19480   0.534   1.166   3.299 -0.0572 -0.2112 -0.1631
 2615SOL    HW119481   0.476   1.239   3.323  0.8405  0.5229 -0.2080
 2615SOL    HW219482   0.552   1.188   3.207  0.5398 -0.6204 -0.1371
 2616SOL     OW19483   0.462   2.257   0.174  0.2226  0.0379 -0.0324
 2616SOL    HW119484   0.393   2.203   0.134 -0.8956  1.2276  0.2985
 2616SOL    HW219485   0.526   2.257   0.103  0.2309  1.1475 -0.0261
 2617SOL     OW19486   1.127   4.155   8.424  0.2500  0.7491 -0.3396
 2617SOL    HW119487   1.198   4.119   8.370 -0.8304  0.3111 -1.4741
 2617SOL    HW219488   1.058   4.151   8.358 -1.2024  2.6502  1.0850
 2618SOL     OW19489   3.953   4.453   2.842 -0.0825 -0.0452 -0.0457
 2618SOL    HW119490   3.862   4.427   2.857 -1.0635  3.6258  0.1796
 2618SOL    HW219491   3.937   4.533   2.792  1.9852 -0.0411 -0.6851
 2619SOL     OW19492   0.079   4.221   2.240  0.7028  0.0966  0.5478
 2619SOL    HW119493   4.730   4.217   2.212  0.9369 -1.1083 -0.0678
 2619SOL    HW219494   0.087   4.308   2.279  0.8753  1.5709 -2.7982
 2620SOL     OW19495   0.346   0.007   2.236  0.0700  0.3258  0.1502
 2620SOL    HW119496   0.373   0.021   2.145  0.0375  0.5728  0.1800
 2620SOL    HW219497   0.407   0.058   2.288  0.5910 -0.6222  0.4707
 2621SOL     OW19498   4.251   3.853   2.460 -0.1704 -0.0520  0.4422
 2621SOL    HW119499   4.188   3.811   2.519  0.3331 -0.3090  0.7997
 2621SOL    HW219500   4.322   3.789   2.455  0.1423  0.2847  0.5586
 2622SOL     OW19501   2.831   3.948   0.071 -0.1976  0.3428  0.6681
 2622SOL    HW119502   2.882   3.918   0.146  1.0525 -0.7186 -0.6023
 2622SOL    HW219503   2.744   3.925   0.105 -1.0508  1.0316 -1.0058
 2623SOL     OW19504   2.398   2.466   5.509 -0.0611  0.4019 -0.0454
 2623SOL    HW119505   2.441   2.461   5.595 -0.7341 -0.1252  0.2566
 2623SOL    HW219506   2.400   2.559   5.486 -1.0593 -0.3079 -3.0672
 2624SOL     OW19507   2.768   1.071   6.956  0.1779  0.7206 -0.8337
 2624SOL    HW119508   2.696   1.026   7.001 -0.1376  0.3337 -1.7396
 2624SOL    HW219509   2.784   1.024   6.874  0.9225 -1.6670  0.6536
 2625SOL     OW19510   3.374   1.959   8.621 -0.2077 -0.5886 -0.2157
 2625SOL    HW119511   3.442   1.892   8.631  0.4883  0.4665  1.8903
 2625SOL    HW219512   3.338   1.957   8.709 -0.6131  2.6217 -0.3214
 2626SOL     OW19513   0.696   0.079   7.567  0.1902  0.1143 -0.2956
 2626SOL    HW119514   0.786   0.106   7.583  0.5255 -0.8089 -0.6242
 2626SOL    HW219515   0.662   0.061   7.654  2.9698 -3.2955  0.0893
 2627SOL     OW19516   4.359   3.463   9.677  0.1796 -0.6177  0.5934
 2627SOL    HW119517   4.351   3.375   9.712 -3.3213 -1.0552 -1.2545
 2627SOL    HW219518   4.439   3.495   9.719  0.2449 -1.1233  0.8490
 2628SOL     OW19519   4.422   0.846  12.568 -0.2702 -0.1130 -0.5143
 2628SOL    HW119520   4.400   0.939  12.575 -0.8805 -0.5725  3.3742
 2628SOL    HW219521   4.361   0.807  12.630  0.4871  0.4888  0.6199
 2629SOL     OW19522   1.461   4.335   7.993 -0.1149  0.6686  0.1454
 2629SOL    HW119523   1.524   4.297   7.932  1.4020 -0.4784  2.4095
 2629SOL    HW219524   1.513   4.357   8.071 -1.6684 -1.5837  1.8534
 2630SOL     OW19525   3.822   4.373   0.169  0.1109 -0.5781  0.1285
 2630SOL    HW119526   3.738   4.380   0.215  1.0421  2.9371  1.3327
 2630SOL    HW219527   3.854   4.463   0.182 -2.4812  0.4446 -0.5265
 2631SOL     OW19528   1.394   3.537   7.192  0.4179  0.0722  0.0348
 2631SOL    HW119529   1.444   3.531   7.110 -1.1306  0.7865 -0.9632
 2631SOL    HW219530   1.437   3.613   7.232 -0.5503  0.9761 -0.6608
 2632SOL     OW19531   0.586   0.278   2.010 -0.0298  0.1344 -0.2569
 2632SOL    HW119532   0.630   0.335   2.073 -0.2069  0.5734 -0.5272
 2632SOL    HW219533   0.595   0.326   1.928  0.8241 -0.1817 -0.3408
 2633SOL     OW19534   3.209   2.958  16.595 -0.6236 -0.2067 -0.1554
 2633SOL    HW119535   3.292   2.999  16.571  0.0969 -1.7756 -0.3738
 2633SOL    HW219536   3.194   2.993  16.683 -3.9963  0.1953 -0.8999
 2634SOL     OW19537   3.979   1.263   5.710 -0.0823 -0.2812 -0.3071
 2634SOL    HW119538   3.929   1.344   5.724 -1.0442 -1.0508  0.7215
 2634SOL    HW219539   4.017   1.245   5.796 -1.4518 -0.9311  0.1618
 2635SOL     OW19540   1.949   0.369   1.350 -0.1153  0.5347 -0.5491
 2635SOL    HW119541   1.940   0.460   1.320 -0.3651  0.0073 -2.0921
 2635SOL    HW219542   2.020   0.327   1.301 -1.3070 -0.7394 -1.1944
 2636SOL     OW19543   2.519   3.628  15.640  0.1804  0.0081  0.2949
 2636SOL    HW119544   2.453   3.599  15.703 -2.7833 -2.1618 -3.7650
 2636SOL    HW219545   2.576   3.684  15.692 -2.2491  1.7691  1.0382
 2637SOL     OW19546   3.987   1.513  12.284 -0.1406  0.2741 -0.0293
 2637SOL    HW119547   3.975   1.608  12.285 -1.6434  0.0961 -1.1919
 2637SOL    HW219548   4.040   1.499  12.363  0.0693 -0.2800 -0.2695
 2638SOL     OW19549   3.726   4.392   4.946  0.4063 -0.3570  0.0123
 2638SOL    HW119550   3.721   4.319   4.885 -1.3143 -0.5561  0.3877
 2638SOL    HW219551   3.667   4.455   4.905  1.9511  1.4349  0.5526
 2639SOL     OW19552   0.195   4.622   2.806  0.1009 -1.0836  0.9228
 2639SOL    HW119553   0.133   4.566   2.852 -1.0753 -1.0091 -0.5807
 2639SOL    HW219554   0.247   4.558   2.758  0.1873  0.1697 -0.6438
 2640SOL     OW19555   1.970   4.577  10.911 -0.4953  0.0169  0.0093
 2640SOL    HW119556   2.010   4.496  10.879  1.3540 -0.0633  2.5663
 2640SOL    HW219557   1.934   4.550  10.995 -1.5012 -1.3510 -0.8530
 2641SOL     OW19558   3.073   0.566  14.976  0.2006 -0.0068  0.6392
 2641SOL    HW119559   3.134   0.493  14.966 -0.4149 -0.2802 -1.1935
 2641SOL    HW219560   3.119   0.626  14.917 -1.7671  0.1192 -0.7623
 2642SOL     OW19561   4.071   1.099   8.071  0.1275  0.4318 -0.4342
 2642SOL    HW119562   4.099   1.175   8.122 -0.0396 -1.4968  2.5531
 2642SOL    HW219563   4.075   1.144   7.987  0.1193 -2.0363 -1.7736
 2643SOL     OW19564   0.892   3.483   6.097  0.2544 -0.7498 -0.1451
 2643SOL    HW119565   0.826   3.551   6.106 -0.2394 -1.3264  0.6430
 2643SOL    HW219566   0.897   3.446   6.186  0.4836 -1.3338 -0.4007
 2644SOL     OW19567   4.278   4.683  16.535 -0.0734 -0.1579  0.1756
 2644SOL    HW119568   4.187   4.677  16.563  0.5242 -3.6181  1.4231
 2644SOL    HW219569   4.325   4.696  16.617  3.2821  0.6989 -1.8692
 2645SOL     OW19570   3.189   0.445  13.746 -0.2416  0.1128  0.7587
 2645SOL    HW119571   3.224   0.518  13.798 -1.8013 -0.4428  2.5921
 2645SOL    HW219572   3.146   0.505  13.686 -1.4175 -0.4985  0.9970
 2646SOL     OW19573   0.867   1.112   1.665 -0.1426  0.2547 -0.5863
 2646SOL    HW119574   0.776   1.138   1.680  0.5707  2.5777 -0.2934
 2646SOL    HW219575   0.896   1.197   1.631 -0.3445 -0.2874 -2.1174
 2647SOL     OW19576   2.953   2.504   5.905 -0.0729 -0.3784 -0.3501
 2647SOL    HW119577   2.884   2.459   5.857 -0.5822 -0.1263  0.1465
 2647SOL    HW219578   2.937   2.597   5.889 -0.1278 -0.6277 -1.6726
 2648SOL     OW19579   4.742   2.229   9.156  0.1530 -0.7562 -0.3548
 2648SOL    HW119580   0.027   2.265   9.071 -0.6111  0.9134  0.1009
 2648SOL    HW219581   0.029   2.298   9.215 -2.0354  0.9724 -1.2725
 2649SOL     OW19582   4.655   0.891   7.253  0.0674  0.0594 -0.2206
 2649SOL    HW119583   0.002   0.891   7.285 -1.2830 -0.4124  3.5552
 2649SOL    HW219584   4.658   0.945   7.174 -0.2012  1.7686  0.9296
 2650SOL     OW19585   0.405   0.387   8.246 -0.1327  0.1663  0.1724
 2650SOL    HW119586   0.403   0.326   8.320 -0.7911 -0.9114 -0.7299
 2650SOL    HW219587   0.490   0.361   8.212 -0.3524 -0.5383  0.1663
 2651SOL     OW19588   3.242   3.526   1.669  0.7308  0.4312 -0.3316
 2651SOL    HW119589   3.215   3.453   1.724 -0.2675  0.0831 -1.2679
 2651SOL    HW219590   3.283   3.575   1.739 -0.7055 -1.7180  2.0013
 2652SOL     OW19591   1.974   0.274  17.296  0.2442  0.3175 -0.1707
 2652SOL    HW119592   2.068   0.261  17.306 -0.0385 -0.0746  1.8773
 2652SOL    HW219593   1.942   0.227  17.373 -1.7723 -1.2323 -1.9247
 2653SOL     OW19594   0.192   4.419   6.865  0.1294 -0.2095  0.3758
 2653SOL    HW119595   0.132   4.458   6.801 -0.3961 -1.5899  0.0396
 2653SOL    HW219596   0.143   4.442   6.944  1.1394 -1.3088  1.3053
 2654SOL     OW19597   4.550   2.885  12.466 -0.1095 -0.4837  0.5094
 2654SOL    HW119598   4.501   2.839  12.535 -0.9139 -0.4326 -0.0253
 2654SOL    HW219599   4.502   2.863  12.386  1.1533  3.0025 -1.1600
 2655SOL     OW19600   3.900   0.035   8.840 -0.0387  0.3883  0.4322
 2655SOL    HW119601   3.841   4.706   8.817 -0.3805  1.3736 -1.7845
 2655SOL    HW219602   3.844   0.109   8.865 -0.7470  0.8508 -2.5363
 2656SOL     OW19603   1.930   0.026   8.446  0.6387  0.2419 -0.1102
 2656SOL    HW119604   2.004   0.077   8.479 -0.4831  0.5427  1.9794
 2656SOL    HW219605   1.966   4.690   8.406  0.0796 -0.0629 -0.0139
 2657SOL     OW19606   3.168   1.339   8.299 -0.1557 -0.2627 -0.5389
 2657SOL    HW119607   3.124   1.254   8.290  0.2351 -0.5690  0.3765
 2657SOL    HW219608   3.101   1.382   8.352  0.9296  1.1904 -0.3447
 2658SOL     OW19609   0.871   1.410  15.858 -0.0503  0.1297  0.2452
 2658SOL    HW119610   0.811   1.367  15.798  0.0433  1.8186 -1.0692
 2658SOL    HW219611   0.851   1.374  15.944  1.3023 -1.0656  0.0688
 2659SOL     OW19612   0.206   2.115   8.692 -0.3709  0.5321  0.3837
 2659SOL    HW119613   0.287   2.151   8.729 -0.6604  1.6077 -0.0223
 2659SOL    HW219614   0.129   2.153   8.733 -0.8502 -1.1470  1.0164
 2660SOL     OW19615   0.140   4.088   0.647  0.2108 -0.7107 -0.1491
 2660SOL    HW119616   0.050   4.119   0.646  0.5020  0.1853  1.6362
 2660SOL    HW219617   0.188   4.163   0.682 -0.7703 -0.0310 -0.2748
 2661SOL     OW19618   4.682   1.511   7.128  0.3389 -0.2386 -0.0299
 2661SOL    HW119619   4.722   1.473   7.050 -1.3319 -1.0962 -0.4525
 2661SOL    HW219620   4.603   1.536   7.081 -0.3078  1.7023  2.0710
 2662SOL     OW19621   2.097   0.675   1.459 -0.1132 -0.2105 -0.0113
 2662SOL    HW119622   2.165   0.659   1.525 -0.5939 -0.7408  0.3560
 2662SOL    HW219623   2.028   0.619   1.494  0.2335 -0.6397 -0.0148
 2663SOL     OW19624   0.175   0.943   3.522  0.6119 -0.0667  0.0416
 2663SOL    HW119625   0.079   0.944   3.524  0.5629 -0.6630 -2.2012
 2663SOL    HW219626   0.202   1.035   3.518  2.7444 -0.6234  1.5286
 2664SOL     OW19627   3.870   0.994   3.386 -0.2261 -0.0770  0.1026
 2664SOL    HW119628   3.928   1.050   3.335  0.7377  1.1547  2.5513
 2664SOL    HW219629   3.793   1.051   3.381  0.2987  0.6050 -0.2484
 2665SOL     OW19630   1.668   2.201   9.190 -0.0804  0.2432 -0.5606
 2665SOL    HW119631   1.748   2.155   9.163 -0.4053 -0.3049 -0.5721
 2665SOL    HW219632   1.603   2.145   9.148 -1.6839  0.1557  2.0589
 2666SOL     OW19633   0.978   2.807   5.292  0.4157  0.5427 -0.5848
 2666SOL    HW119634   0.902   2.859   5.316 -0.0061 -0.4652  0.2685
 2666SOL    HW219635   1.002   2.843   5.207  0.1540  3.6605  0.6431
 2667SOL     OW19636   1.097   4.722  13.956 -0.1997 -0.2350 -0.0057
 2667SOL    HW119637   1.033   0.016  14.017 -0.8820 -0.5327 -0.5333
 2667SOL    HW219638   1.083   0.042  13.885 -0.9497 -0.7821 -0.3391
 2668SOL     OW19639   3.333   2.856   2.046 -0.2296 -1.0417 -0.0917
 2668SOL    HW119640   3.413   2.839   1.997 -1.1369 -2.8492 -0.9417
 2668SOL    HW219641   3.327   2.774   2.095 -2.5096 -1.3593 -0.9085
 2669SOL     OW19642   2.267   2.735   1.795  0.3790  0.5654 -0.7269
 2669SOL    HW119643   2.313   2.726   1.878 -1.9868 -2.9195  0.1997
 2669SOL    HW219644   2.342   2.707   1.741  1.1881  1.0618  0.1473
 2670SOL     OW19645   1.836   2.552   2.456 -0.0988  0.6539  0.3540
 2670SOL    HW119646   1.765   2.610   2.483  0.9469  2.0637  0.0711
 2670SOL    HW219647   1.836   2.481   2.520 -0.1039 -1.2692 -1.7743
 2671SOL     OW19648   1.630   0.236   1.389 -0.3302  0.1457 -0.5228
 2671SOL    HW119649   1.677   0.241   1.306 -0.7959 -0.3885 -0.8196
 2671SOL    HW219650   1.574   0.162   1.367  1.2122 -1.3115  0.4919
 2672SOL     OW19651   0.796   0.631  10.908  0.5602 -0.3904 -0.2696
 2672SOL    HW119652   0.852   0.708  10.898 -1.1795  1.2763  2.6679
 2672SOL    HW219653   0.754   0.656  10.990  0.0770  0.6002 -0.8214
 2673SOL     OW19654   1.399   4.271   5.524  0.0490  0.0725 -0.4277
 2673SOL    HW119655   1.405   4.276   5.429  1.9735  1.6394 -0.2192
 2673SOL    HW219656   1.404   4.365   5.543 -0.6757  0.2675 -1.1953
 2674SOL     OW19657   0.587   2.077   6.143  0.0029 -0.6606 -0.3912
 2674SOL    HW119658   0.609   2.055   6.053  1.6013  0.2098 -0.2082
 2674SOL    HW219659   0.590   1.991   6.185 -1.0365  0.0277  1.0971
 2675SOL     OW19660   2.326   2.084   4.724 -0.0543 -0.2149 -1.0158
 2675SOL    HW119661   2.369   2.001   4.703  1.1763  0.1680  0.0289
 2675SOL    HW219662   2.251   2.058   4.778  0.2122 -0.5633 -0.8132
 2676SOL     OW19663   2.141   3.270   3.698 -0.2259 -0.5303  0.2960
 2676SOL    HW119664   2.206   3.281   3.629 -0.7004  2.8779  0.3554
 2676SOL    HW219665   2.070   3.235   3.645  0.7237 -0.0530 -1.2911
 2677SOL     OW19666   2.782   4.231   1.261  0.1329  0.5016  0.3821
 2677SOL    HW119667   2.743   4.147   1.235  2.9374 -1.0774  1.2963
 2677SOL    HW219668   2.784   4.214   1.355 -3.5689 -3.0414 -0.1778
 2678SOL     OW19669   2.577   0.544  14.285 -0.9292 -0.0015 -0.1722
 2678SOL    HW119670   2.626   0.472  14.325 -0.7933 -0.0116 -0.3540
 2678SOL    HW219671   2.539   0.498  14.210  1.9879 -0.7303 -1.2003
 2679SOL     OW19672   1.796   2.422   3.860  0.2442  0.5573  0.0904
 2679SOL    HW119673   1.842   2.504   3.877 -0.9120  0.7771  2.0758
 2679SOL    HW219674   1.754   2.402   3.943  0.1873  1.3913  0.2534
 2680SOL     OW19675   4.448   2.365   8.539 -0.5543  0.4061  0.4115
 2680SOL    HW119676   4.401   2.339   8.619 -1.0579  0.1825  0.0408
 2680SOL    HW219677   4.539   2.380   8.565  0.1077 -1.9672 -0.5291
 2681SOL     OW19678   0.334   2.239   8.953 -0.6597  0.4858 -0.1345
 2681SOL    HW119679   0.241   2.256   8.937 -0.9800  0.5061  1.7861
 2681SOL    HW219680   0.355   2.330   8.970 -2.7544  1.1598 -1.1350
 2682SOL     OW19681   1.692   3.787   4.872  0.6702  0.2347 -0.6448
 2682SOL    HW119682   1.679   3.779   4.777  1.1085 -3.1621 -0.4309
 2682SOL    HW219683   1.785   3.767   4.880  0.8883  0.6174 -2.1364
 2683SOL     OW19684   1.092   1.617  15.837 -0.2255 -0.8966 -0.1303
 2683SOL    HW119685   1.063   1.666  15.761  0.4828 -2.2868 -1.2882
 2683SOL    HW219686   1.012   1.572  15.862 -0.0153 -0.8340  0.6807
 2684SOL     OW19687   0.560   1.602   0.753 -0.2471 -0.6388  0.3234
 2684SOL    HW119688   0.588   1.581   0.842 -0.4930 -2.8749 -0.1233
 2684SOL    HW219689   0.550   1.513   0.718  0.0123 -0.2656 -0.6827
 2685SOL     OW19690   2.736   1.961  15.297  0.2833 -0.3437  0.1010
 2685SOL    HW119691   2.666   1.899  15.320 -1.4843  1.6757  0.1424
 2685SOL    HW219692   2.684   2.040  15.289  0.5084 -0.1894  0.1624
 2686SOL     OW19693   2.036   3.169  10.152  0.1941 -0.4456 -0.1181
 2686SOL    HW119694   2.086   3.197  10.229  0.0475  0.3175 -0.2986
 2686SOL    HW219695   2.043   3.073  10.149  1.0155 -0.4211  0.8860
 2687SOL     OW19696   1.441   1.562   2.949 -0.4992  0.0680 -0.0455
 2687SOL    HW119697   1.431   1.554   3.043  1.0088 -5.8347 -0.3763
 2687SOL    HW219698   1.468   1.475   2.920 -1.6482 -0.2959 -0.0348
 2688SOL     OW19699   3.289   4.331  11.611  0.1229  0.2766  0.0397
 2688SOL    HW119700   3.347   4.405  11.593  0.8439 -0.5298 -0.9920
 2688SOL    HW219701   3.229   4.372  11.673 -0.2817 -2.2361  1.3097
 2689SOL     OW19702   3.188   3.854   5.930 -0.2407 -0.0316 -0.0485
 2689SOL    HW119703   3.274   3.893   5.946  0.2848 -1.3781  0.3878
 2689SOL    HW219704   3.184   3.875   5.836 -0.0974 -0.0810 -0.0673
 2690SOL     OW19705   3.109   0.913  10.016  0.2092  0.1303  0.1277
 2690SOL    HW119706   3.180   0.853   9.994 -0.6666 -1.3363  1.3040
 2690SOL    HW219707   3.037   0.849  10.009 -1.3561  1.8669  0.3477
 2691SOL     OW19708   2.276   2.249   4.519 -0.0178  0.1060 -0.0117
 2691SOL    HW119709   2.306   2.190   4.450 -0.5129  2.1022 -1.9323
 2691SOL    HW219710   2.281   2.191   4.595 -1.2885  0.3953  0.3003
 2692SOL     OW19711   0.630   0.112   9.343 -0.4923  0.2682  0.1476
 2692SOL    HW119712   0.595   0.028   9.373 -2.6213  0.2309 -2.3989
 2692SOL    HW219713   0.657   0.081   9.257 -1.0132 -1.1946  0.5189
 2693SOL     OW19714   2.507   2.259   4.849 -0.3830  0.0532 -0.3619
 2693SOL    HW119715   2.463   2.342   4.830  1.1370  0.3449 -2.6091
 2693SOL    HW219716   2.442   2.198   4.813 -0.5832  1.3505 -2.1786
 2694SOL     OW19717   0.506   0.847   9.414  0.4223  0.2860  0.2076
 2694SOL    HW119718   0.551   0.765   9.435  1.1694  0.2705 -1.3879
 2694SOL    HW219719   0.544   0.905   9.479  0.3805  2.3300 -1.5804
 2695SOL     OW19720   0.212   1.237   7.468 -0.6138 -0.0833  0.1684
 2695SOL    HW119721   0.252   1.322   7.450  1.6828 -1.5344 -1.6286
 2695SOL    HW219722   0.128   1.248   7.422 -0.4560 -1.1423 -0.3807
 2696SOL     OW19723   0.994   1.840   7.091 -0.4527  0.4973  0.1848
 2696SOL    HW119724   0.990   1.886   7.175  0.4102  2.8363 -1.0437
 2696SOL    HW219725   0.903   1.829   7.064  0.4128  3.0587 -3.7012
 2697SOL     OW19726   4.459   0.714   8.191  0.0309  0.5556  0.0695
 2697SOL    HW119727   4.467   0.672   8.105  1.6679  1.4929 -0.2365
 2697SOL    HW219728   4.548   0.748   8.194  0.2046 -0.0579  1.8333
 2698SOL     OW19729   4.037   3.776   6.177 -0.2196  0.2212  0.1062
 2698SOL    HW119730   4.042   3.681   6.168  0.3112  0.2827 -0.2425
 2698SOL    HW219731   3.952   3.793   6.136  0.0615 -1.2334 -1.0532
 2699SOL     OW19732   2.857   4.186   8.951 -0.4686  0.0750 -0.5189
 2699SOL    HW119733   2.928   4.132   8.985  0.3450  1.8003  0.5236
 2699SOL    HW219734   2.870   4.173   8.857 -1.0752 -2.1679 -0.2900
 2700SOL     OW19735   0.165   2.038   5.498 -0.0652  0.7271 -0.2903
 2700SOL    HW119736   0.074   2.023   5.523  0.4546  1.2610  1.8294
 2700SOL    HW219737   0.184   2.128   5.523  0.2761  0.8554 -0.9905
 2701SOL     OW19738   3.763   3.078   7.537 -0.1950  0.0553 -0.2005
 2701SOL    HW119739   3.725   3.065   7.450 -1.3714 -0.7515  0.4365
 2701SOL    HW219740   3.823   3.003   7.537 -1.2240 -0.7637 -0.5573
 2702SOL     OW19741   1.580   0.445   4.834  0.0741 -0.2729  0.4734
 2702SOL    HW119742   1.625   0.513   4.885 -0.5605  1.0671 -0.7266
 2702SOL    HW219743   1.610   0.365   4.877 -2.5583 -1.6016 -0.2232
 2703SOL     OW19744   2.697   4.580   0.286 -0.3976 -0.2110 -0.2057
 2703SOL    HW119745   2.746   4.642   0.232 -0.1585  1.0564  1.4826
 2703SOL    HW219746   2.676   4.510   0.224  1.3101 -0.4319 -0.5480
 2704SOL     OW19747   3.012   1.209   3.937  0.2431 -0.2299 -0.1304
 2704SOL    HW119748   3.023   1.145   3.866 -0.7981  2.0349 -2.3466
 2704SOL    HW219749   2.986   1.164   4.018 -2.3332  2.3113  0.4489
 2705SOL     OW19750   0.832   1.043   7.864 -0.4438  0.3220 -0.2467
 2705SOL    HW119751   0.756   1.044   7.923  0.8423  4.1719  1.3330
 2705SOL    HW219752   0.843   0.948   7.861 -0.0549  0.3699 -0.3595
 2706SOL     OW19753   0.631   4.391   3.142 -0.2034  0.7972 -1.0376
 2706SOL    HW119754   0.629   4.310   3.195 -0.6484  1.6941  0.3102
 2706SOL    HW219755   0.583   4.363   3.064 -0.0356  2.0745 -1.5886
 2707SOL     OW19756   3.322   2.373  14.864 -0.2904  0.0064 -0.1786
 2707SOL    HW119757   3.396   2.413  14.911 -1.4346 -0.4313  2.0027
 2707SOL    HW219758   3.344   2.398  14.775 -0.3629 -0.6437 -0.3759
 2708SOL     OW19759   2.921   1.468  14.307  0.0103  0.1950  0.6682
 2708SOL    HW119760   2.941   1.415  14.384  1.4203  0.2426  0.3339
 2708SOL    HW219761   2.877   1.407  14.247  0.1545  0.4801  0.2714
 2709SOL     OW19762   1.124   1.519  10.076  0.0912  0.0019  0.0735
 2709SOL    HW119763   1.104   1.563  10.158 -0.5957  0.2223 -0.2076
 2709SOL    HW219764   1.180   1.443  10.091  1.9954  1.2312 -0.8225
 2710SOL     OW19765   3.977   0.128  15.097 -0.1683  0.2044 -0.6731
 2710SOL    HW119766   3.950   0.220  15.104  3.9037  1.3499 -0.3793
 2710SOL    HW219767   4.054   0.136  15.153  1.3458  2.0479 -3.0104
 2711SOL     OW19768   1.831   0.693   0.178  0.0098 -0.3510  0.5741
 2711SOL    HW119769   1.905   0.634   0.193  2.0261  0.9818 -4.1079
 2711SOL    HW219770   1.882   0.773   0.164 -0.0421 -0.4677 -0.3061
 2712SOL     OW19771   1.441   1.718  16.687 -0.4915  0.1501  0.7674
 2712SOL    HW119772   1.350   1.715  16.655 -0.9146  1.9572  1.7743
 2712SOL    HW219773   1.456   1.812  16.694 -0.3460  0.3826 -2.5949
 2713SOL     OW19774   2.534   3.151   4.251  0.2241  0.5705 -0.0466
 2713SOL    HW119775   2.494   3.202   4.322 -0.5146  0.4789 -0.3943
 2713SOL    HW219776   2.625   3.178   4.255  1.1732 -2.9544  1.5558
 2714SOL     OW19777   1.811   1.742   4.548  0.1053  0.2023 -0.5336
 2714SOL    HW119778   1.758   1.672   4.509 -2.1742  1.9567 -0.6009
 2714SOL    HW219779   1.795   1.724   4.641  1.0823  0.1040 -0.3824
 2715SOL     OW19780   0.219   0.009   6.198 -0.1576 -0.0959 -0.3275
 2715SOL    HW119781   0.199   4.714   6.112  0.4694 -0.8805 -0.1254
 2715SOL    HW219782   0.223   0.103   6.178 -1.4547 -0.1550 -0.9030
 2716SOL     OW19783   0.822   3.930   1.814 -0.1064  0.0239  0.1570
 2716SOL    HW119784   0.751   3.868   1.798  0.0909 -1.1260  3.8555
 2716SOL    HW219785   0.765   4.003   1.839  0.7313  0.6180  0.3469
 2717SOL     OW19786   0.021   2.784   4.167  0.4536  0.0447  0.2746
 2717SOL    HW119787   0.085   2.715   4.151  0.7842 -0.1812  2.6477
 2717SOL    HW219788   0.077   2.861   4.169 -1.9640  1.7884  0.8984
 2718SOL     OW19789   0.215   1.895   3.323  0.0417  0.3151  0.0688
 2718SOL    HW119790   0.168   1.848   3.255  1.3863 -1.7702  0.6129
 2718SOL    HW219791   0.290   1.839   3.341  0.7644  0.9851 -0.8889
 2719SOL     OW19792   0.439   3.467  15.591 -0.6669 -0.2034  0.0515
 2719SOL    HW119793   0.443   3.487  15.685  0.4000 -2.3615  0.4565
 2719SOL    HW219794   0.376   3.535  15.567  2.5890  2.1894 -1.7278
 2720SOL     OW19795   3.079   3.835   3.586  0.2920 -0.1456 -0.3546
 2720SOL    HW119796   3.021   3.782   3.641 -0.3349  0.8865 -0.0232
 2720SOL    HW219797   3.057   3.925   3.610 -0.0217  0.5447 -3.2518
 2721SOL     OW19798   1.910   1.507   8.528  0.1669  0.6295  0.1577
 2721SOL    HW119799   2.000   1.496   8.558 -0.4094  0.9600  2.0088
 2721SOL    HW219800   1.885   1.416   8.516  0.6587  0.3201  1.4500
 2722SOL     OW19801   1.551   1.381   6.529 -0.1963  0.2570 -0.0649
 2722SOL    HW119802   1.620   1.448   6.528 -2.8562  3.0156 -0.7696
 2722SOL    HW219803   1.484   1.424   6.582  0.3775  3.1706 -1.7035
 2723SOL     OW19804   1.852   3.445   4.709 -0.0018 -0.3412 -0.2517
 2723SOL    HW119805   1.800   3.402   4.778  1.1571 -1.9809 -0.3921
 2723SOL    HW219806   1.789   3.452   4.637 -1.4533 -0.2391  1.0149
 2724SOL     OW19807   4.691   0.583  13.740  0.1404 -0.1895  0.5644
 2724SOL    HW119808   4.740   0.556  13.663  2.6996  2.0466  1.4461
 2724SOL    HW219809   0.012   0.608  13.806  0.1592 -1.6151  1.0953
 2725SOL     OW19810   0.243   2.097   5.899  0.0032  0.2573  0.0104
 2725SOL    HW119811   0.154   2.133   5.899  0.3900  1.2090  0.7267
 2725SOL    HW219812   0.236   2.036   5.973 -0.0624 -0.8893 -0.9339
 2726SOL     OW19813   1.796   1.047  16.000  0.0124  0.6359  0.0457
 2726SOL    HW119814   1.868   1.109  15.996 -0.4628  1.1950  0.1016
 2726SOL    HW219815   1.732   1.092  15.945 -0.4024 -0.8061 -0.6616
 2727SOL     OW19816   2.762   0.192   7.152  0.2536 -0.0344 -0.0858
 2727SOL    HW119817   2.806   0.114   7.119 -0.5826 -0.7848  0.5966
 2727SOL    HW219818   2.762   0.179   7.247  0.7252  1.4416  0.1204
 2728SOL     OW19819   3.345   2.965   9.769 -0.6341  0.2552 -0.2987
 2728SOL    HW119820   3.348   2.876   9.734 -1.9479 -0.8407  2.3556
 2728SOL    HW219821   3.273   2.951   9.831 -1.2701  0.2016 -1.0519
 2729SOL     OW19822   4.568   2.594   9.912 -0.2430  0.3380  0.6461
 2729SOL    HW119823   4.514   2.525   9.873 -0.6151 -0.8735  3.2594
 2729SOL    HW219824   4.590   2.570  10.002  3.2264 -1.0294 -0.5402
 2730SOL     OW19825   1.244   1.274   0.422  0.1963  0.2913 -0.1512
 2730SOL    HW119826   1.157   1.257   0.386 -1.1802  1.0752  2.7964
 2730SOL    HW219827   1.249   1.204   0.487  0.7288  1.3429  0.9265
 2731SOL     OW19828   3.445   0.489  10.114 -0.1882 -0.3658 -0.5863
 2731SOL    HW119829   3.407   0.459  10.197 -1.5088  1.2929 -0.6000
 2731SOL    HW219830   3.426   0.410  10.062  0.8092 -0.6520 -0.5069
 2732SOL     OW19831   2.145   4.208  17.764 -0.2860  0.1995  0.4142
 2732SOL    HW119832   2.210   4.276  17.748 -1.4741  1.2478  0.1221
 2732SOL    HW219833   2.082   4.262   0.044 -0.2900  1.2611 -0.7909
 2733SOL     OW19834   2.995   2.296   4.171 -0.3358 -0.3670 -0.8253
 2733SOL    HW119835   3.007   2.375   4.224 -0.1405 -1.6290  1.0165
 2733SOL    HW219836   3.089   2.280   4.161  0.1141  0.8695  1.4837
 2734SOL     OW19837   1.982   2.134   6.036 -0.2767 -0.0126 -0.5439
 2734SOL    HW119838   1.971   2.199   6.105 -1.1461 -0.0536 -0.6459
 2734SOL    HW219839   2.012   2.055   6.081 -0.3664 -0.8408 -1.9260
 2735SOL     OW19840   1.718   3.066   3.256 -0.1727  0.2834  0.1025
 2735SOL    HW119841   1.787   3.119   3.215  1.4640 -0.3395  2.0819
 2735SOL    HW219842   1.735   2.976   3.229 -0.7648 -0.2406  1.4877
 2736SOL     OW19843   2.608   0.608   3.765  1.1311  0.1856  0.5814
 2736SOL    HW119844   2.648   0.596   3.851  1.2287 -0.2749  0.4722
 2736SOL    HW219845   2.664   0.549   3.714  0.2685  1.1620 -1.4877
 2737SOL     OW19846   4.092   1.351   8.636 -0.3890 -0.3019  0.5833
 2737SOL    HW119847   4.037   1.350   8.557 -0.7201 -1.3883  0.8217
 2737SOL    HW219848   4.088   1.257   8.654 -1.0536 -0.1532  1.1816
 2738SOL     OW19849   3.466   2.598   8.502 -0.6063 -0.1002  0.5267
 2738SOL    HW119850   3.437   2.623   8.414  1.3164  1.0160  0.2212
 2738SOL    HW219851   3.527   2.667   8.528  2.0999 -2.0868 -0.5286
 2739SOL     OW19852   1.422   0.594  11.044 -0.1605 -0.5331 -0.0514
 2739SOL    HW119853   1.366   0.585  10.967  0.4454  2.4377 -0.8345
 2739SOL    HW219854   1.426   0.499  11.059  2.1224 -0.4266  0.1464
 2740SOL     OW19855   1.557   2.126  10.403  0.0067 -0.7694  0.0080
 2740SOL    HW119856   1.489   2.185  10.368  2.2975  4.0083  3.5652
 2740SOL    HW219857   1.587   2.097  10.316 -0.4016  1.1853 -0.7984
 2741SOL     OW19858   0.722   2.668  15.120  0.4328 -0.0472 -0.1767
 2741SOL    HW119859   0.649   2.612  15.097  0.2493  0.7358 -1.4472
 2741SOL    HW219860   0.688   2.723  15.191  0.7844  0.3843 -0.3402
 2742SOL     OW19861   3.959   1.819   8.263  0.0772 -0.1601 -1.1821
 2742SOL    HW119862   3.987   1.778   8.345  0.7584  3.8367  0.5900
 2742SOL    HW219863   3.875   1.780   8.238 -0.6532 -0.9725  2.5238
 2743SOL     OW19864   4.164   2.965   7.997 -0.3248 -0.2536  0.9920
 2743SOL    HW119865   4.167   2.905   7.922  1.9573  2.2474 -0.8964
 2743SOL    HW219866   4.252   3.001   7.990 -0.4213 -0.3594 -0.7763
 2744SOL     OW19867   0.303   1.671   2.996  0.1414 -0.1802  0.3281
 2744SOL    HW119868   0.310   1.588   2.950  1.8096 -0.7648  1.6358
 2744SOL    HW219869   0.355   1.737   2.950  1.7889 -1.1028  0.8633
 2745SOL     OW19870   4.002   4.129   2.880  0.2722  0.3462  0.1449
 2745SOL    HW119871   4.060   4.119   2.805  0.3686  1.4216  0.0719
 2745SOL    HW219872   3.930   4.183   2.847 -0.0157 -0.4775 -0.5789
 2746SOL     OW19873   4.101   3.274   8.674 -0.4124  0.2438 -0.6153
 2746SOL    HW119874   4.086   3.188   8.713 -1.2460  0.5993 -0.1505
 2746SOL    HW219875   4.095   3.268   8.579  0.0064 -0.8371 -0.5748
 2747SOL     OW19876   2.874   0.393   2.832  0.4136 -0.4536  0.2355
 2747SOL    HW119877   2.902   0.301   2.827 -0.0266 -0.5414 -0.7474
 2747SOL    HW219878   2.857   0.425   2.743  0.9740 -1.4249 -0.2299
 2748SOL     OW19879   3.447   0.622  15.112  0.0524 -0.2845 -0.5659
 2748SOL    HW119880   3.431   0.542  15.063  0.5722 -0.8930  0.2526
 2748SOL    HW219881   3.461   0.591  15.202 -0.4998 -1.7820 -1.0038
 2749SOL     OW19882   1.229   1.403   8.145 -0.2984  0.4991  0.6383
 2749SOL    HW119883   1.146   1.449   8.153 -0.5371  0.4844 -1.6692
 2749SOL    HW219884   1.270   1.449   8.218 -0.9271  1.8195  0.1552
 2750SOL     OW19885   3.305   4.039   1.895  0.5810  0.6942  0.4061
 2750SOL    HW119886   3.357   4.069   1.969  1.7295 -2.4000  0.8520
 2750SOL    HW219887   3.285   3.947   1.910 -1.0604  0.5099 -2.8477
 2751SOL     OW19888   0.595   1.756   7.510 -0.1289  0.0124 -0.0620
 2751SOL    HW119889   0.516   1.779   7.560  1.5453  0.4928  2.3835
 2751SOL    HW219890   0.583   1.782   7.419 -0.1496  0.1557 -0.0200
 2752SOL     OW19891   3.232   2.383  13.790 -0.1379 -0.1372  0.5182
 2752SOL    HW119892   3.323   2.410  13.798 -0.3282  0.7832 -0.4161
 2752SOL    HW219893   3.248   2.313  13.727  0.9925 -1.2396  2.0336
 2753SOL     OW19894   1.610   1.740   3.255  0.6957  0.2249 -0.3896
 2753SOL    HW119895   1.603   1.769   3.346 -0.2383  0.3329 -0.4995
 2753SOL    HW219896   1.550   1.666   3.254  1.0814 -0.0946  0.9207
 2754SOL     OW19897   0.439   1.105   2.408 -0.2341  0.2308  0.3251
 2754SOL    HW119898   0.471   1.017   2.428  2.1329  1.4271  1.7519
 2754SOL    HW219899   0.355   1.073   2.376  0.3678 -0.5023 -0.5526
 2755SOL     OW19900   2.105   3.770   2.179 -0.0450 -0.0283 -0.5454
 2755SOL    HW119901   2.116   3.704   2.110  2.1675 -1.4943  1.1999
 2755SOL    HW219902   2.196   3.783   2.206 -0.0621 -2.5029  0.7825
 2756SOL     OW19903   3.159   1.519  11.319 -0.0834  0.0235  0.1338
 2756SOL    HW119904   3.083   1.462  11.303  1.4591 -1.6462 -1.2134
 2756SOL    HW219905   3.198   1.495  11.403  2.8362  0.4712 -1.1087
 2757SOL     OW19906   0.440   3.967   2.328 -0.1117 -0.2147 -0.2291
 2757SOL    HW119907   0.535   3.976   2.324  0.0013 -1.6002 -0.3389
 2757SOL    HW219908   0.416   4.044   2.381  0.5475  1.8641 -2.9345
 2758SOL     OW19909   3.193   1.569   9.104  0.4615  0.2893  0.1702
 2758SOL    HW119910   3.123   1.622   9.141  2.0417  2.6505 -0.2111
 2758SOL    HW219911   3.168   1.560   9.012  2.0691 -0.1255 -0.2320
 2759SOL     OW19912   3.031   1.760   3.748  0.3668  0.3240 -0.1349
 2759SOL    HW119913   3.039   1.666   3.764 -0.1992  0.2775 -0.1342
 2759SOL    HW219914   3.096   1.790   3.811 -0.9700 -0.5467  1.6693
 2760SOL     OW19915   4.244   1.083   6.856 -0.0624  0.1363  0.6053
 2760SOL    HW119916   4.270   1.017   6.791 -0.7152  0.8138 -0.3468
 2760SOL    HW219917   4.281   1.051   6.938  0.2943  0.4877  0.5791
 2761SOL     OW19918   4.101   4.489  12.208  0.6266  0.2859 -0.5415
 2761SOL    HW119919   4.147   4.406  12.215 -1.5492 -0.8484  0.3548
 2761SOL    HW219920   4.173   4.538  12.167  0.7687  0.4503 -0.0901
 2762SOL     OW19921   1.886   2.915   8.926  0.4001  0.4955  0.3891
 2762SOL    HW119922   1.892   3.004   8.960  2.0340  0.0451  1.2977
 2762SOL    HW219923   1.818   2.922   8.858  1.1742 -1.8044 -0.6467
 2763SOL     OW19924   4.637   1.006   6.714 -0.0170 -0.2642  0.6091
 2763SOL    HW119925   4.651   0.920   6.673 -1.2560  0.2615 -0.8960
 2763SOL    HW219926   4.617   1.070   6.646 -1.2790 -0.1560  1.0989
 2764SOL     OW19927   0.759   2.941   0.147  0.2078 -0.3852  0.4637
 2764SOL    HW119928   0.674   2.971   0.114 -0.1303 -2.9613 -1.0077
 2764SOL    HW219929   0.789   3.016   0.198  1.0512  0.3713 -1.1601
 2765SOL     OW19930   3.269   0.937   7.956  0.4241 -0.3216  0.1924
 2765SOL    HW119931   3.319   0.869   7.911 -0.7097  0.0449 -1.6222
 2765SOL    HW219932   3.213   0.888   8.017  0.1159  0.3575  0.4563
 2766SOL     OW19933   2.673   0.271   6.844 -0.2402 -0.2148  0.3531
 2766SOL    HW119934   2.646   0.359   6.869  1.6043  0.8868 -1.5742
 2766SOL    HW219935   2.764   0.279   6.872  0.8667 -2.6579 -2.5608
 2767SOL     OW19936   0.977   4.122   3.590  0.7440  0.1396  0.1227
 2767SOL    HW119937   0.937   4.138   3.675 -0.0570  1.1586 -0.4452
 2767SOL    HW219938   1.006   4.031   3.597  0.9489  0.0156 -2.5071
 2768SOL     OW19939   2.803   2.738   3.741  0.4094  0.5109 -0.0933
 2768SOL    HW119940   2.885   2.775   3.774 -1.1935  1.8423  2.4094
 2768SOL    HW219941   2.774   2.685   3.816  0.8563  0.4765  0.0527
 2769SOL     OW19942   1.250   3.989   9.112 -0.3339 -0.3558 -0.3412
 2769SOL    HW119943   1.186   4.034   9.168  1.6604 -0.2656  1.8268
 2769SOL    HW219944   1.185   3.942   9.059 -1.4750 -0.9712  1.5903
 2770SOL     OW19945   0.923   0.981   9.795 -0.2109 -0.0424 -0.0174
 2770SOL    HW119946   0.875   0.914   9.843  1.5833 -0.3360  1.3281
 2770SOL    HW219947   0.999   0.924   9.791  1.2453  2.0666 -2.1372
 2771SOL     OW19948   0.043   2.655   1.782  0.2680  0.0189  0.3016
 2771SOL    HW119949   0.019   2.570   1.820  2.0884 -0.6882 -0.1106
 2771SOL    HW219950   0.117   2.635   1.725 -0.8383  0.7573 -1.3857
 2772SOL     OW19951   0.346   3.164   8.101 -0.1398  0.3359  0.1804
 2772SOL    HW119952   0.262   3.189   8.064 -0.0773 -0.2020 -0.3329
 2772SOL    HW219953   0.400   3.228   8.053  1.0962  0.7870  2.1478
 2773SOL     OW19954   2.136   0.540   1.801  0.2801 -0.0706  0.0447
 2773SOL    HW119955   2.163   0.455   1.837  0.3440 -0.5587 -1.1420
 2773SOL    HW219956   2.077   0.505   1.733  1.1609 -0.5311 -0.4743
 2774SOL     OW19957   4.475   4.246   3.835  0.7502 -0.5135 -0.1913
 2774SOL    HW119958   4.531   4.323   3.828 -0.0844 -0.3240 -4.7745
 2774SOL    HW219959   4.452   4.217   3.746 -0.7672  1.1450 -0.3290
 2775SOL     OW19960   0.890   1.276   7.730 -0.2985 -0.5503 -0.3770
 2775SOL    HW119961   0.977   1.247   7.700  0.4745 -0.3413  1.6323
 2775SOL    HW219962   0.865   1.224   7.807  1.7758 -1.4516 -0.3084
 2776SOL     OW19963   0.519   1.817  15.867  0.3818  0.4052 -0.0621
 2776SOL    HW119964   0.436   1.855  15.840  1.4075  2.0057 -0.9315
 2776SOL    HW219965   0.567   1.892  15.902 -1.4510  0.1812  2.9371
 2777SOL     OW19966   1.092   0.343   4.553 -0.2890  0.0660 -0.0661
 2777SOL    HW119967   1.079   0.313   4.463  2.1325 -0.0468 -0.3719
 2777SOL    HW219968   1.003   0.323   4.581 -0.2667 -0.1202 -0.1286
 2778SOL     OW19969   1.860   4.527   7.378  0.2730  0.1141 -0.3531
 2778SOL    HW119970   1.900   4.605   7.417  1.5962  0.0637 -1.6344
 2778SOL    HW219971   1.765   4.531   7.387  0.0004  1.2304 -3.7214
 2779SOL     OW19972   1.262   4.341   1.713  0.0052 -0.4452 -0.5092
 2779SOL    HW119973   1.348   4.301   1.696  0.4622  1.0461 -1.6272
 2779SOL    HW219974   1.274   4.435   1.702  1.2409 -0.5233  0.1280
 2780SOL     OW19975   1.745   2.589   8.138 -0.5220  0.0085 -0.3295
 2780SOL    HW119976   1.667   2.581   8.083  0.2742  0.9001 -1.6003
 2780SOL    HW219977   1.802   2.536   8.082  1.0499  2.2849 -0.8826
 2781SOL     OW19978   1.100   3.432   1.464  0.1962 -0.2952  0.2693
 2781SOL    HW119979   1.016   3.432   1.509  0.5536  1.0146  0.9443
 2781SOL    HW219980   1.155   3.378   1.521 -0.0091 -0.5027  0.2711
 2782SOL     OW19981   1.233   2.445   5.563 -0.0239 -0.5657  0.3439
 2782SOL    HW119982   1.158   2.497   5.535  0.3554  0.1130  0.5954
 2782SOL    HW219983   1.223   2.432   5.658  0.5270  0.0118  0.4766
 2783SOL     OW19984   3.151   2.345  14.322 -0.3497  0.0910  0.4993
 2783SOL    HW119985   3.181   2.427  14.282  0.1508 -0.6160 -0.5727
 2783SOL    HW219986   3.224   2.285  14.305 -0.4605 -0.3156  1.5096
 2784SOL     OW19987   3.350   4.705   2.512  0.2842  0.2269 -0.4564
 2784SOL    HW119988   3.396   4.664   2.585  0.1122 -0.4656 -0.7350
 2784SOL    HW219989   3.403   0.040   2.496 -1.3979  1.7813  1.4825
 2785SOL     OW19990   2.920   4.610   6.113 -0.0733  0.6130 -0.1415
 2785SOL    HW119991   3.008   4.591   6.079  0.9873  3.8300  0.7732
 2785SOL    HW219992   2.909   4.528   6.161  2.0499 -0.5195 -1.5827
 2786SOL     OW19993   3.091   2.487   5.344 -0.1887  0.3033 -0.2113
 2786SOL    HW119994   3.144   2.483   5.264 -0.9816  1.9457 -0.8305
 2786SOL    HW219995   3.008   2.487   5.296  0.2734  1.7455 -1.0270
 2787SOL     OW19996   4.380   2.609   8.456 -0.3242 -0.5917  0.3967
 2787SOL    HW119997   4.389   2.516   8.475 -0.8838 -0.9990 -1.2745
 2787SOL    HW219998   4.321   2.638   8.526  0.3526  0.0384  0.6994
 2788SOL     OW19999   2.046   0.377   2.950  0.5354 -0.3365  0.3945
 2788SOL    HW120000   2.119   0.398   2.892  1.5601  2.9869  2.8780
 2788SOL    HW220001   2.088   0.305   2.996 -1.1131  0.1734  2.7054
 2789SOL     OW20002   0.175   3.337   8.940 -0.5448 -0.1931 -0.6716
 2789SOL    HW120003   0.110   3.382   8.993  0.1642 -0.7326  0.6353
 2789SOL    HW220004   0.246   3.302   8.994  0.8337  1.1387 -1.6078
 2790SOL     OW20005   1.939   2.529   4.502 -0.4323 -0.0132  0.5314
 2790SOL    HW120006   1.887   2.585   4.559 -2.2130 -1.2718  0.1535
 2790SOL    HW220007   2.009   2.520   4.567 -0.6586 -0.1933  0.7518
 2791SOL     OW20008   2.059   3.512   7.999  0.3678 -0.4053 -0.0684
 2791SOL    HW120009   2.063   3.514   8.094  1.1527 -0.4240 -0.0955
 2791SOL    HW220010   1.986   3.570   7.979  0.8232 -0.3406 -1.5621
 2792SOL     OW20011   0.241   4.152  16.186 -0.1650 -0.2234 -0.8224
 2792SOL    HW120012   0.169   4.134  16.125  0.3351  1.6357 -1.9632
 2792SOL    HW220013   0.185   4.173  16.261 -0.9648 -1.2794 -1.1321
 2793SOL     OW20014   3.481   1.904   7.243 -0.3250  0.3792  0.3247
 2793SOL    HW120015   3.575   1.897   7.257 -0.3246  0.1152  0.1838
 2793SOL    HW220016   3.472   1.929   7.151 -1.7153  0.4920  0.4930
 2794SOL     OW20017   3.980   3.153   7.913 -0.2542  0.5463  0.4343
 2794SOL    HW120018   4.047   3.164   7.846  0.6111 -1.6293  0.9662
 2794SOL    HW220019   4.017   3.069   7.940 -0.6010 -0.1877 -1.3940
 2795SOL     OW20020   0.301   0.267   3.993 -0.7407  0.3098  0.3148
 2795SOL    HW120021   0.309   0.190   4.049 -0.7055  0.2832  0.2733
 2795SOL    HW220022   0.277   0.341   4.048  0.8114 -0.6853  2.3478
 2796SOL     OW20023   3.971   4.045   4.385  0.4347 -0.3355 -0.1668
 2796SOL    HW120024   4.016   4.102   4.323 -1.6003 -0.3656 -1.6834
 2796SOL    HW220025   4.023   3.966   4.374  0.6867 -0.3565  1.1719
 2797SOL     OW20026   1.682   2.660   5.557 -0.0913 -0.3117  0.1615
 2797SOL    HW120027   1.665   2.751   5.581  0.1594 -0.8610  2.4814
 2797SOL    HW220028   1.734   2.622   5.628  1.3720  0.5157 -0.4664
 2798SOL     OW20029   0.151   4.533   2.076 -0.4225  0.1149  0.2360
 2798SOL    HW120030   0.063   4.570   2.066 -0.1251  1.3657  2.2720
 2798SOL    HW220031   0.196   4.575   2.003  0.0340 -0.8427 -0.0384
 2799SOL     OW20032   1.251   3.876   8.197  0.3320 -0.1046  0.7156
 2799SOL    HW120033   1.328   3.841   8.242  0.2159 -3.6533 -1.8837
 2799SOL    HW220034   1.290   3.963   8.205  0.5870 -0.2186  0.6981
 2800SOL     OW20035   3.774   3.771  15.877  0.1381  0.4567  0.1274
 2800SOL    HW120036   3.783   3.793  15.784 -1.0601 -0.1312 -0.1285
 2800SOL    HW220037   3.748   3.857  15.908  0.7716  0.5256  0.4695
 2801SOL     OW20038   0.436   0.520   2.170 -0.2105  0.6394 -0.1553
 2801SOL    HW120039   0.428   0.448   2.232  2.4923  0.3805 -0.0976
 2801SOL    HW220040   0.358   0.510   2.115 -1.1016 -2.1182  1.6396
 2802SOL     OW20041   0.637   1.762   7.248  0.0174  0.3483  0.2528
 2802SOL    HW120042   0.660   1.828   7.182 -1.2593 -0.8882 -1.4520
 2802SOL    HW220043   0.603   1.697   7.186  0.3851  0.8191 -0.4414
 2803SOL     OW20044   3.069   1.273   3.244 -0.9549  0.0221 -0.0344
 2803SOL    HW120045   3.141   1.285   3.182  2.0534 -1.4137  3.1574
 2803SOL    HW220046   3.113   1.217   3.309 -1.0106  0.6424  0.5417
 2804SOL     OW20047   2.359   1.484   8.006 -0.8491  0.3349 -0.1718
 2804SOL    HW120048   2.301   1.479   7.931 -3.1634 -5.6649  1.9914
 2804SOL    HW220049   2.383   1.391   8.011 -1.5245  0.1218 -0.8784
 2805SOL     OW20050   3.858   3.820   1.517 -0.3569  0.1048 -0.3096
 2805SOL    HW120051   3.857   3.748   1.580 -1.0379  2.0613  1.8988
 2805SOL    HW220052   3.902   3.881   1.576 -1.1730 -0.7758  1.1973
 2806SOL     OW20053   4.236   1.060   3.056 -0.2394  0.3751 -0.1672
 2806SOL    HW120054   4.192   1.035   3.137  1.0589  0.4789  0.5716
 2806SOL    HW220055   4.192   0.996   3.000 -1.5055  1.2273 -0.1407
 2807SOL     OW20056   2.041   3.674  17.223 -0.0262  0.1314  0.0677
 2807SOL    HW120057   2.051   3.765  17.193 -0.6683  1.1228  2.8054
 2807SOL    HW220058   1.947   3.657  17.237 -0.2197  0.4994 -0.7963
 2808SOL     OW20059   2.749   3.522   2.268  0.4265 -0.0948 -0.2282
 2808SOL    HW120060   2.670   3.553   2.312  0.0954 -0.5314 -0.5080
 2808SOL    HW220061   2.785   3.603   2.233  0.8934  0.2245  0.9886
 2809SOL     OW20062   4.638   1.103  12.302  0.2598 -0.2961  0.2157
 2809SOL    HW120063   4.732   1.086  12.297  0.4459  0.6946  0.4506
 2809SOL    HW220064   4.615   1.045  12.374  0.1091 -1.5875 -0.8717
 2810SOL     OW20065   4.577   4.229  13.379  0.0142  0.1692 -0.1409
 2810SOL    HW120066   4.605   4.309  13.422  3.5636 -1.8905  1.3642
 2810SOL    HW220067   4.549   4.255  13.291  1.3078  0.0506 -0.5771
 2811SOL     OW20068   0.986   3.738   6.581 -0.0700  0.4547  0.3656
 2811SOL    HW120069   0.928   3.668   6.608  1.7632 -1.5203 -0.8040
 2811SOL    HW220070   0.958   3.743   6.490  1.5435  2.8897 -0.0232
 2812SOL     OW20071   2.398   1.523   8.882  0.6044  0.3050  1.0675
 2812SOL    HW120072   2.455   1.490   8.951  0.8109  1.1991  1.3219
 2812SOL    HW220073   2.378   1.607   8.923 -0.2275  0.6051  0.0494
 2813SOL     OW20074   0.430   2.985   1.881  0.0375 -0.4005  0.1048
 2813SOL    HW120075   0.379   3.066   1.871 -0.7576 -1.0582 -1.1452
 2813SOL    HW220076   0.367   2.914   1.896  1.2554 -1.2242  1.3128
 2814SOL     OW20077   4.629   2.673   7.126  0.1658  0.4848  0.4595
 2814SOL    HW120078   4.648   2.728   7.202 -0.3454 -0.6057  1.3896
 2814SOL    HW220079   4.720   2.655   7.099 -1.1218 -1.3997 -2.6073
 2815SOL     OW20080   2.921   2.880   4.460  0.1194  0.2028  0.1264
 2815SOL    HW120081   2.940   2.886   4.553  0.8341  0.7804 -0.0592
 2815SOL    HW220082   2.886   2.791   4.455 -0.5637  0.4522  0.4707
 2816SOL     OW20083   2.216   2.929   2.399 -0.1643  0.0315  0.3077
 2816SOL    HW120084   2.250   2.890   2.319 -0.3552 -1.5806  1.0093
 2816SOL    HW220085   2.217   3.019   2.367  1.2739 -0.6339 -1.4693
 2817SOL     OW20086   2.109   3.827   6.989 -0.4280  0.2267 -0.1384
 2817SOL    HW120087   2.042   3.853   6.926 -0.6949  0.0943  0.0919
 2817SOL    HW220088   2.106   3.902   7.047  0.0003 -1.1167  1.6357
 2818SOL     OW20089   2.179   3.798  10.196  0.3443 -0.1450  0.4076
 2818SOL    HW120090   2.112   3.849  10.242  0.9834 -0.0728  1.2643
 2818SOL    HW220091   2.134   3.714  10.194 -0.7504  0.4557  0.2059
 2819SOL     OW20092   3.669   4.693   4.329 -0.2791 -0.0020  0.1525
 2819SOL    HW120093   3.630   4.638   4.396  2.7150 -1.0953  0.9962
 2819SOL    HW220094   3.712   0.015   4.385 -1.6034  2.3895 -1.5916
 2820SOL     OW20095   3.640   3.308   4.983  0.2858 -0.0946  0.2165
 2820SOL    HW120096   3.674   3.372   5.046 -0.1865  0.9066 -0.5427
 2820SOL    HW220097   3.700   3.240   5.011 -0.1963 -0.0829  1.2937
 2821SOL     OW20098   0.764   1.967   6.557 -0.2546 -0.1769 -0.0685
 2821SOL    HW120099   0.803   2.050   6.585  1.1059 -1.1736  0.9845
 2821SOL    HW220100   0.676   1.982   6.592  0.3459 -0.8864  1.7505
 2822SOL     OW20101   0.605   3.561   4.360  0.1950 -0.2990  0.2884
 2822SOL    HW120102   0.625   3.625   4.429  1.1272 -0.4402  0.1455
 2822SOL    HW220103   0.680   3.582   4.305 -0.2283  1.7401  0.4900
 2823SOL     OW20104   2.970   2.291   2.588  0.2546  0.1133  0.3001
 2823SOL    HW120105   2.942   2.332   2.670  0.8199 -1.6824  1.3828
 2823SOL    HW220106   2.893   2.317   2.537  1.1358  1.2423 -0.4359
 2824SOL     OW20107   2.383   0.311   5.516 -0.2873 -0.5336  0.2150
 2824SOL    HW120108   2.333   0.340   5.592 -2.5554 -1.0607 -1.0658
 2824SOL    HW220109   2.321   0.254   5.471 -1.2387  0.4631  0.2601
 2825SOL     OW20110   3.515   4.522   7.355 -0.3161  0.3191 -0.5369
 2825SOL    HW120111   3.586   4.571   7.398  0.7141 -0.1359 -1.7286
 2825SOL    HW220112   3.512   4.433   7.390  2.1775 -0.2351 -1.7294
 2826SOL     OW20113   3.271   3.865   7.991  0.1494 -0.0707  0.1255
 2826SOL    HW120114   3.292   3.835   7.902 -0.6849 -0.0813 -0.0770
 2826SOL    HW220115   3.187   3.822   8.008  0.0225 -0.7323 -2.1052
 2827SOL     OW20116   4.311   3.408   6.885 -0.0890  0.0305 -0.4220
 2827SOL    HW120117   4.271   3.392   6.799  0.7386 -4.6742  0.0522
 2827SOL    HW220118   4.244   3.381   6.947  0.8599 -2.5522 -0.5196
 2828SOL     OW20119   1.362   0.368  16.768  0.1970  0.4283 -0.2561
 2828SOL    HW120120   1.306   0.397  16.840 -1.7854  0.5092 -1.8206
 2828SOL    HW220121   1.317   0.288  16.738 -1.0320  0.8560  0.4489
 2829SOL     OW20122   4.353   0.228   6.827 -0.4774  0.1346  0.0480
 2829SOL    HW120123   4.271   0.191   6.859 -1.1846  2.8317  1.3610
 2829SOL    HW220124   4.346   0.320   6.850  2.2094  0.9805 -2.4837
 2830SOL     OW20125   1.301   0.268   1.566 -0.9802  0.3646 -0.4416
 2830SOL    HW120126   1.330   0.347   1.520  0.4800 -0.2411 -0.5937
 2830SOL    HW220127   1.237   0.301   1.628 -0.8815 -3.7968  1.8617
 2831SOL     OW20128   1.802   3.838  15.848 -0.1622  0.2566 -0.7111
 2831SOL    HW120129   1.871   3.805  15.906 -0.2241  0.3409 -0.5884
 2831SOL    HW220130   1.810   3.933  15.850  0.0057  0.2173  1.0221
 2832SOL     OW20131   2.284   0.828   0.122  0.1589  0.3866  0.4224
 2832SOL    HW120132   2.320   0.770   0.055 -1.0579 -0.0259  0.1091
 2832SOL    HW220133   2.336   0.792   0.194 -0.2966  0.1256  0.6228
 2833SOL     OW20134   4.024   2.235  12.611  0.2812 -0.0350  0.6015
 2833SOL    HW120135   3.981   2.320  12.614  0.0506 -0.0407 -2.9195
 2833SOL    HW220136   4.090   2.264  12.675 -0.1377 -1.7230  1.7901
 2834SOL     OW20137   3.751   1.315   7.623  0.7515  0.4819 -0.1874
 2834SOL    HW120138   3.782   1.387   7.567  0.4390  0.7454 -0.0203
 2834SOL    HW220139   3.661   1.304   7.592  0.8525 -0.5284 -0.1271
 2835SOL     OW20140   4.204   0.057  16.287  0.4422  0.1762 -0.2600
 2835SOL    HW120141   4.164   4.724  16.245 -0.2546 -0.4520  1.5381
 2835SOL    HW220142   4.246   0.010  16.359  0.5894 -0.8478 -1.0173
 2836SOL     OW20143   3.118   4.413  14.623  0.1605 -0.3753 -0.4204
 2836SOL    HW120144   3.178   4.481  14.652 -1.3254  1.5929 -1.9141
 2836SOL    HW220145   3.075   4.408  14.708 -1.5477  2.6952 -1.1030
 2837SOL     OW20146   0.728   2.352  12.948  0.4686 -0.2566  0.2745
 2837SOL    HW120147   0.690   2.383  13.031 -1.2318 -0.9933 -0.2196
 2837SOL    HW220148   0.821   2.344  12.967 -0.0730 -1.1305  2.6446
 2838SOL     OW20149   2.335   3.810   8.677  0.3111  0.5111  0.1164
 2838SOL    HW120150   2.330   3.834   8.770 -2.8002 -0.6706  0.2531
 2838SOL    HW220151   2.402   3.742   8.677  0.1759  0.3842 -1.3545
 2839SOL     OW20152   1.877   0.165   4.840 -0.4195 -0.4249  0.6564
 2839SOL    HW120153   1.796   0.154   4.890  0.4436 -0.0884  2.1332
 2839SOL    HW220154   1.899   0.075   4.816  0.9089 -0.2891  1.3855
 2840SOL     OW20155   2.197   3.572   1.339  0.0298  0.4783  0.2024
 2840SOL    HW120156   2.174   3.514   1.266  3.1921  0.2505 -0.6336
 2840SOL    HW220157   2.111   3.613   1.345 -0.7355 -0.9455 -0.9880
 2841SOL     OW20158   2.288   4.081   9.561  0.0609  0.5054 -0.3541
 2841SOL    HW120159   2.354   4.038   9.615 -1.1533  0.2091  0.9142
 2841SOL    HW220160   2.287   4.021   9.487 -0.7861  0.0890 -0.0093
 2842SOL     OW20161   4.601   4.721   2.993 -0.1827  0.4332  0.6920
 2842SOL    HW120162   4.598   0.074   2.994 -2.3459  0.3917 -2.2971
 2842SOL    HW220163   4.608   4.698   2.901 -0.5834 -1.1056  1.0527
 2843SOL     OW20164   0.142   4.690   3.567 -0.7607  0.8114 -0.0119
 2843SOL    HW120165   0.193   4.624   3.614  1.5211  0.9274 -2.3305
 2843SOL    HW220166   0.069   4.708   3.627 -1.0622 -0.2102 -0.0737
 2844SOL     OW20167   2.980   1.840   6.068 -0.5618 -0.2733 -0.0139
 2844SOL    HW120168   3.053   1.894   6.037 -1.8028  1.8202  0.7471
 2844SOL    HW220169   2.907   1.902   6.059 -0.4750 -0.3023 -0.9198
 2845SOL     OW20170   3.403   3.094   2.154  0.1937 -0.3746  0.2839
 2845SOL    HW120171   3.417   3.053   2.239 -1.1011 -0.9611  0.2071
 2845SOL    HW220172   3.371   3.016   2.109  2.4392 -1.6141  0.8652
 2846SOL     OW20173   2.922   4.620   8.885 -0.7188  0.6821 -0.3255
 2846SOL    HW120174   2.841   4.578   8.913 -0.5610  0.9678  0.5477
 2846SOL    HW220175   2.916   4.605   8.790  4.6191 -1.9437 -0.2406
 2847SOL     OW20176   0.652   4.477  10.633 -0.2431  0.1025 -0.8957
 2847SOL    HW120177   0.690   4.412  10.692 -1.1754 -0.4218 -0.8745
 2847SOL    HW220178   0.716   4.477  10.562  0.5424 -2.8145 -0.1983
 2848SOL     OW20179   0.832   3.140   4.797 -0.5034  0.0369 -0.7022
 2848SOL    HW120180   0.839   3.123   4.891  1.5116 -0.1324 -0.8885
 2848SOL    HW220181   0.860   3.232   4.793  2.0308 -0.7071  0.0155
 2849SOL     OW20182   0.079   1.009   4.224  0.0488  0.1429 -0.2838
 2849SOL    HW120183   0.161   0.987   4.268 -0.2366 -0.5159 -0.0754
 2849SOL    HW220184   0.105   1.012   4.131  0.1820 -1.5132 -0.2989
 2850SOL     OW20185   4.103   2.438  13.777  0.0939 -0.3283  0.0308
 2850SOL    HW120186   4.127   2.364  13.720 -2.1120 -1.1493  0.1363
 2850SOL    HW220187   4.109   2.409  13.868  0.4824  0.5658  0.2882
 2851SOL     OW20188   3.180   0.156   7.691  0.0279  0.1432  0.0539
 2851SOL    HW120189   3.177   0.095   7.618  2.5290 -1.1282  1.0052
 2851SOL    HW220190   3.091   0.173   7.720  0.0941 -1.9905  1.5725
 2852SOL     OW20191   2.274   2.383  13.956  0.0002 -0.2675 -0.8176
 2852SOL    HW120192   2.301   2.417  14.041  1.0442  2.9466 -2.4442
 2852SOL    HW220193   2.189   2.348  13.982  1.5534 -2.1466  1.8023
 2853SOL     OW20194   1.217   1.475   1.108  0.1679  0.1505 -0.1344
 2853SOL    HW120195   1.274   1.535   1.061  1.1349 -1.6703 -1.2934
 2853SOL    HW220196   1.197   1.401   1.051  0.7952 -0.3545  0.2900
 2854SOL     OW20197   2.160   4.239   0.504  0.5439  0.0838  0.2937
 2854SOL    HW120198   2.145   4.329   0.531  1.5738 -0.2359  1.9497
 2854SOL    HW220199   2.248   4.255   0.470  0.2528 -0.8462 -0.9010
 2855SOL     OW20200   2.251   0.805  13.751  0.5797 -0.4650 -0.2906
 2855SOL    HW120201   2.208   0.735  13.701  2.1082  0.5131 -2.9403
 2855SOL    HW220202   2.265   0.868  13.680  1.9539  0.4280  0.7756
 2856SOL     OW20203   3.475   3.807   6.810  0.2689  0.0074  0.3898
 2856SOL    HW120204   3.486   3.844   6.723 -0.1062 -0.8136 -0.0051
 2856SOL    HW220205   3.407   3.744   6.787  0.9003 -0.5611  0.0920
 2857SOL     OW20206   4.311   2.035   2.376  0.1981  0.1233 -0.3275
 2857SOL    HW120207   4.337   1.961   2.321 -1.7621 -1.0535  0.2848
 2857SOL    HW220208   4.225   2.059   2.339 -0.9872 -2.0233  1.0288
 2858SOL     OW20209   3.976   1.923   3.638  0.0401  0.5337 -0.1304
 2858SOL    HW120210   4.055   1.978   3.643  0.1640  0.2215  1.3065
 2858SOL    HW220211   3.910   1.988   3.660  1.1170  1.2852  0.8954
 2859SOL     OW20212   0.627   2.794   9.682  0.0564  0.0427  0.1744
 2859SOL    HW120213   0.705   2.740   9.691  0.9424  1.5120  1.3718
 2859SOL    HW220214   0.659   2.847   9.608 -0.0700 -1.2148 -0.7790
 2860SOL     OW20215   2.560   4.504   5.783 -0.0409  0.7620 -0.1934
 2860SOL    HW120216   2.623   4.552   5.836  0.1174  1.3559 -0.9230
 2860SOL    HW220217   2.540   4.570   5.716  1.7167  1.5486  0.0501
 2861SOL     OW20218   2.557   4.629   9.318 -0.4644  0.7878  0.3539
 2861SOL    HW120219   2.621   4.574   9.364 -1.8212  0.7191  2.1527
 2861SOL    HW220220   2.508   4.556   9.279 -1.0317 -0.7376  3.9833
 2862SOL     OW20221   4.312   1.182   5.473 -0.2257 -0.0418  0.0972
 2862SOL    HW120222   4.338   1.208   5.561  0.7743 -2.8143  0.6179
 2862SOL    HW220223   4.342   1.263   5.430 -0.4919 -1.3892 -2.6345
 2863SOL     OW20224   2.609   1.464   7.037  0.0284  0.2641  0.4815
 2863SOL    HW120225   2.643   1.399   6.975 -2.5076  0.2904 -0.9437
 2863SOL    HW220226   2.543   1.405   7.074  1.0269  0.4437  2.5376
 2864SOL     OW20227   0.310   2.048   2.150  0.1238 -0.3727  0.0165
 2864SOL    HW120228   0.288   1.985   2.081  0.1848  3.1396 -3.2147
 2864SOL    HW220229   0.358   1.993   2.212  0.5484 -0.1247 -0.0962
 2865SOL     OW20230   1.359   0.319  14.407 -0.2692 -0.1499  0.1757
 2865SOL    HW120231   1.350   0.273  14.491  3.2668 -0.3562  0.4462
 2865SOL    HW220232   1.451   0.308  14.383 -0.3270  0.0057 -0.1103
 2866SOL     OW20233   3.776   1.519   7.834  0.8949 -0.6720  0.3789
 2866SOL    HW120234   3.783   1.445   7.774  0.1825 -0.2760 -0.2065
 2866SOL    HW220235   3.798   1.475   7.916  0.1056 -0.1959  0.8501
 2867SOL     OW20236   2.695   4.302   4.192 -0.4275  0.1298 -0.1215
 2867SOL    HW120237   2.784   4.278   4.217 -0.2578  0.1555 -0.6930
 2867SOL    HW220238   2.685   4.274   4.101 -2.3279  0.1056  0.0809
 2868SOL     OW20239   2.735   0.111   3.642 -0.0292  0.0189 -0.1437
 2868SOL    HW120240   2.712   0.075   3.728 -1.0922 -0.7232 -0.7485
 2868SOL    HW220241   2.647   0.125   3.607  0.7817 -0.9403 -2.5648
 2869SOL     OW20242   4.146   1.352   7.842 -0.1466 -0.2080 -0.0447
 2869SOL    HW120243   4.086   1.398   7.900  0.0390 -0.4203  0.3176
 2869SOL    HW220244   4.219   1.381   7.897 -0.5109  0.1273  0.2619
 2870SOL     OW20245   3.397   2.633   9.422  0.1898 -0.3490  0.5581
 2870SOL    HW120246   3.386   2.587   9.338  0.0173  0.6316  0.0376
 2870SOL    HW220247   3.369   2.721   9.396  1.9886  0.1171  0.1967
 2871SOL     OW20248   0.466   3.749   4.545  0.0819  0.2767  0.6881
 2871SOL    HW120249   0.507   3.833   4.524 -0.3682  0.5425  0.8649
 2871SOL    HW220250   0.400   3.772   4.611  0.9397 -1.5265  2.1765
 2872SOL     OW20251   4.706   1.283  10.322 -0.6430  0.3518  0.0537
 2872SOL    HW120252   4.736   1.345  10.388 -2.0670 -0.0786  1.1135
 2872SOL    HW220253   4.621   1.262  10.360 -0.6620  0.5641  0.1273
 2873SOL     OW20254   2.946   0.052  10.966 -0.7288 -0.0229  0.1753
 2873SOL    HW120255   2.862   0.050  10.921 -1.1026 -0.9789  0.9056
 2873SOL    HW220256   2.986   4.710  10.948  0.4168  0.8465 -1.3510
 2874SOL     OW20257   2.008   3.683   5.865  0.4484 -0.9314 -0.2716
 2874SOL    HW120258   2.012   3.683   5.961 -1.6790  2.0245 -0.1965
 2874SOL    HW220259   1.960   3.601   5.851 -0.6564 -0.5479  1.3217
 2875SOL     OW20260   3.885   1.489  13.040  0.1521 -0.0748  0.0557
 2875SOL    HW120261   3.945   1.441  13.097  2.1522  0.8635 -1.2788
 2875SOL    HW220262   3.921   1.466  12.954  0.8045  0.7963  0.0983
 2876SOL     OW20263   1.777   3.547   2.352  0.0212 -0.5649 -0.1427
 2876SOL    HW120264   1.798   3.611   2.420 -0.3894 -0.6273  0.0442
 2876SOL    HW220265   1.846   3.486   2.376 -1.7750 -2.4474  0.2561
 2877SOL     OW20266   2.186   1.951  15.386  0.3260 -0.3189  0.1701
 2877SOL    HW120267   2.150   2.017  15.444 -0.5783 -1.4064  0.8263
 2877SOL    HW220268   2.145   1.871  15.419  0.1201 -0.3950 -0.2735
 2878SOL     OW20269   3.383   3.104   6.150  0.1087 -0.0732 -0.0076
 2878SOL    HW120270   3.291   3.125   6.137 -0.3155 -1.1057  1.2460
 2878SOL    HW220271   3.410   3.117   6.059  1.3555 -0.4508  0.3151
 2879SOL     OW20272   0.452   3.937  14.269  0.1744  0.5242  0.4130
 2879SOL    HW120273   0.512   3.954  14.342  0.0734  0.0494  0.6123
 2879SOL    HW220274   0.496   3.853  14.252  0.6083  0.8070  0.1255
 2880SOL     OW20275   3.966   2.934   6.246 -0.6055 -0.1007 -0.1864
 2880SOL    HW120276   3.881   2.928   6.204 -0.3987 -0.9476 -0.4853
 2880SOL    HW220277   4.009   2.990   6.181  1.8577 -2.1288 -0.3371
 2881SOL     OW20278   2.699   2.852   4.120 -0.4282 -0.3464 -0.2721
 2881SOL    HW120279   2.723   2.944   4.118 -0.8391 -0.1948  2.2234
 2881SOL    HW220280   2.663   2.855   4.208 -0.7994 -0.6817 -0.4098
 2882SOL     OW20281   2.637   4.730   6.876  0.7037  0.2018 -0.0524
 2882SOL    HW120282   2.620   0.081   6.875 -1.8648 -0.2799 -0.1997
 2882SOL    HW220283   2.552   4.688   6.888  1.2519 -0.9392 -0.1333
 2883SOL     OW20284   4.276   4.158   4.466 -0.6369  0.2599  0.4485
 2883SOL    HW120285   4.183   4.181   4.461 -0.2242  1.6486 -1.0415
 2883SOL    HW220286   4.307   4.227   4.525 -0.4781  1.9321 -1.5905
 2884SOL     OW20287   2.329   3.842   3.478 -0.7542  0.6728 -0.0432
 2884SOL    HW120288   2.372   3.905   3.536 -1.3561  0.7777  0.2924
 2884SOL    HW220289   2.263   3.900   3.441 -0.1597  0.7352 -1.0025
 2885SOL     OW20290   0.180   2.486   4.753 -0.8433  0.0404 -0.2851
 2885SOL    HW120291   0.186   2.390   4.747 -0.6137  0.0480 -0.1682
 2885SOL    HW220292   0.261   2.516   4.792 -1.2863 -0.1105  0.7454
 2886SOL     OW20293   2.637   3.064  15.632  0.0938  0.3108 -0.7216
 2886SOL    HW120294   2.711   3.118  15.660 -0.4624  0.2191  0.9321
 2886SOL    HW220295   2.572   3.111  15.684 -0.7414 -0.2581 -1.2470
 2887SOL     OW20296   2.412   1.045   2.652 -0.1338 -0.7424  0.1232
 2887SOL    HW120297   2.506   1.053   2.637 -0.3581 -1.1907 -1.5568
 2887SOL    HW220298   2.417   0.957   2.689 -0.2779 -1.0517 -0.5897
 2888SOL     OW20299   1.561   0.439   2.378 -0.2029  0.4869  0.1773
 2888SOL    HW120300   1.589   0.376   2.311 -0.4895  1.8678 -1.2269
 2888SOL    HW220301   1.638   0.466   2.428  0.6972 -0.1593 -0.8506
 2889SOL     OW20302   4.116   2.562   7.431 -0.5889 -0.2212 -0.3069
 2889SOL    HW120303   4.155   2.539   7.515 -0.0509  0.7889 -0.2848
 2889SOL    HW220304   4.190   2.540   7.374 -1.0530  1.5542 -1.5750
 2890SOL     OW20305   1.623   2.706   0.589  0.4332 -0.1811  0.3735
 2890SOL    HW120306   1.695   2.770   0.595  0.4454 -0.1754  0.1282
 2890SOL    HW220307   1.550   2.768   0.589 -1.3930 -2.3828 -2.4882
 2891SOL     OW20308   1.937   0.289   2.250  0.0186  0.6827 -0.1630
 2891SOL    HW120309   1.915   0.199   2.274 -1.7178  1.4021  0.9594
 2891SOL    HW220310   1.981   0.316   2.331 -0.8243 -0.7658  0.7789
 2892SOL     OW20311   0.392   2.128  16.865  0.4370 -0.2674  0.2922
 2892SOL    HW120312   0.466   2.085  16.823 -0.1691 -0.0587 -0.9818
 2892SOL    HW220313   0.327   2.096  16.802 -1.4539  1.2673  1.4634
 2893SOL     OW20314   0.269   2.914  13.376 -0.4694  0.0203  0.4026
 2893SOL    HW120315   0.304   2.995  13.338  1.9965 -0.4492  1.6945
 2893SOL    HW220316   0.342   2.853  13.367 -0.2661  0.1113  1.3950
 2894SOL     OW20317   0.203   0.783   3.986 -0.3431 -0.1378 -0.2158
 2894SOL    HW120318   0.174   0.850   3.924  0.4766  1.3356  0.9912
 2894SOL    HW220319   0.216   0.701   3.939  2.0656 -0.2405  0.6471
 2895SOL     OW20320   0.309   3.719   2.741  0.0076  0.1728 -0.9250
 2895SOL    HW120321   0.297   3.804   2.698  0.4494  0.7160  0.0243
 2895SOL    HW220322   0.387   3.686   2.697 -2.1025 -1.5619 -3.3513
 2896SOL     OW20323   2.885   0.772  11.796  0.0589 -0.2058  0.0911
 2896SOL    HW120324   2.883   0.746  11.888  1.3353 -1.4496 -0.2317
 2896SOL    HW220325   2.821   0.707  11.766  1.2500 -1.6524  0.6604
 2897SOL     OW20326   4.571   0.014   6.319 -0.0415  0.0695  0.0379
 2897SOL    HW120327   4.644   0.051   6.270 -0.8091 -0.6171 -1.6453
 2897SOL    HW220328   4.594   0.026   6.411 -0.7141 -0.4873  0.2774
 2898SOL     OW20329   0.667   0.211   4.902 -0.0032 -0.1282  0.2887
 2898SOL    HW120330   0.666   0.185   4.994  0.0105 -1.1005  0.0166
 2898SOL    HW220331   0.593   0.271   4.901 -0.0464 -0.1548  1.7586
 2899SOL     OW20332   1.415   2.897   5.983 -0.6712  0.3290  0.1432
 2899SOL    HW120333   1.365   2.858   5.912  0.0878 -1.0568  0.3718
 2899SOL    HW220334   1.407   2.988   5.954 -0.4657 -0.1948 -1.5410
 2900SOL     OW20335   1.554   0.560   5.602 -0.1884 -0.5834 -0.2726
 2900SOL    HW120336   1.559   0.506   5.681  3.2210 -0.5090 -0.4395
 2900SOL    HW220337   1.461   0.573   5.584  0.1292  2.2503 -0.0162
 2901SOL     OW20338   2.009   1.921   8.158  0.1773 -0.3079  0.1397
 2901SOL    HW120339   2.008   2.009   8.196  3.7623  0.3815 -1.3292
 2901SOL    HW220340   1.966   1.876   8.231  0.1885 -0.3909  0.0952
 2902SOL     OW20341   0.021   3.636   3.953 -0.8200  0.0493  0.4820
 2902SOL    HW120342   0.042   3.646   4.045 -0.2657  0.0608  0.3549
 2902SOL    HW220343   0.014   3.727   3.926  0.1133 -0.5583 -1.9026
 2903SOL     OW20344   3.401   0.868   2.929 -0.3661  0.5938  0.1938
 2903SOL    HW120345   3.338   0.865   2.857 -0.6476  1.1158  0.4231
 2903SOL    HW220346   3.366   0.797   2.983 -2.3126  0.7170 -0.9166
 2904SOL     OW20347   0.908   1.774  14.411  0.3800  0.2777 -0.0985
 2904SOL    HW120348   1.003   1.771  14.422  0.3673  0.3579  0.0375
 2904SOL    HW220349   0.890   1.780  14.505  0.7148 -5.1638  0.3437
 2905SOL     OW20350   4.372   2.014   8.148 -0.1114 -0.2819 -0.2827
 2905SOL    HW120351   4.417   2.075   8.208  1.4226 -1.5535 -0.1191
 2905SOL    HW220352   4.373   1.930   8.194  1.9797 -0.6644 -0.9884
 2906SOL     OW20353   0.831   2.235   9.596 -0.0535 -0.2608 -0.3761
 2906SOL    HW120354   0.915   2.198   9.568 -0.1721 -1.2304  0.5592
 2906SOL    HW220355   0.780   2.154   9.598 -3.4507  1.8739 -0.9953
 2907SOL     OW20356   2.231   0.380  17.524 -0.4270  0.1552 -0.2851
 2907SOL    HW120357   2.216   0.462  17.570  2.4714  0.2007  0.5622
 2907SOL    HW220358   2.184   0.322  17.584 -2.1558  0.5946 -1.2225
 2908SOL     OW20359   3.392   0.465   9.759  0.9218  0.1391 -0.0098
 2908SOL    HW120360   3.487   0.461   9.749  0.9850 -1.2988  1.1193
 2908SOL    HW220361   3.385   0.418   9.842  0.3291 -0.4857 -0.4179
 2909SOL     OW20362   2.453   1.592  11.264 -0.5491  0.0865 -0.4980
 2909SOL    HW120363   2.366   1.620  11.238  0.2312  1.3651 -1.6883
 2909SOL    HW220364   2.448   1.603  11.359 -0.0820  0.1530 -0.4821
 2910SOL     OW20365   2.968   3.452  10.851 -0.5006  0.3629 -0.0068
 2910SOL    HW120366   3.020   3.475  10.928  0.2740 -1.2475 -0.0509
 2910SOL    HW220367   2.938   3.540  10.828  0.8865  0.8427 -0.0082
 2911SOL     OW20368   2.434   1.269   7.126  0.1561 -0.0389  0.0540
 2911SOL    HW120369   2.386   1.225   7.056 -1.4270 -0.0984  1.1828
 2911SOL    HW220370   2.474   1.189   7.161 -0.9634 -1.4456 -1.8436
 2912SOL     OW20371   2.353   2.102  14.638  0.0896  0.0597  0.3736
 2912SOL    HW120372   2.426   2.041  14.623 -0.7294 -0.4358 -1.6306
 2912SOL    HW220373   2.379   2.174  14.580 -0.3528  0.0889  0.2165
 2913SOL     OW20374   3.676   0.260   8.798  0.4616  0.2788 -0.0801
 2913SOL    HW120375   3.748   0.262   8.735  0.1927  2.3717 -0.3260
 2913SOL    HW220376   3.615   0.193   8.769  0.3697  1.0191 -1.6233
 2914SOL     OW20377   1.513   2.256  12.572 -1.3326 -0.3583 -0.0107
 2914SOL    HW120378   1.508   2.175  12.521 -0.6970  0.7725 -1.8810
 2914SOL    HW220379   1.581   2.306  12.527 -0.9236  0.4553  1.5186
 2915SOL     OW20380   3.240   0.299  15.067  0.3816 -0.4190  0.0571
 2915SOL    HW120381   3.171   0.340  15.119  0.5500  1.8675 -1.5143
 2915SOL    HW220382   3.194   0.258  14.994  2.1696 -2.7187  0.2227
 2916SOL     OW20383   3.509   0.749   8.200 -0.2302  0.5631 -0.1381
 2916SOL    HW120384   3.601   0.723   8.210 -0.3537 -0.0490 -0.6263
 2916SOL    HW220385   3.519   0.832   8.154 -0.5631 -0.1031 -1.4105
 2917SOL     OW20386   3.598   4.260   1.810 -0.1596  0.0146 -0.4419
 2917SOL    HW120387   3.531   4.290   1.872 -1.3917  0.2821 -1.8979
 2917SOL    HW220388   3.641   4.344   1.792  1.1979 -0.6061 -0.0891
 2918SOL     OW20389   1.571   3.062   8.450 -0.0704 -0.0769  0.2373
 2918SOL    HW120390   1.482   3.054   8.485  0.8861  0.1304  2.7130
 2918SOL    HW220391   1.566   3.044   8.356 -2.0904  0.8629  0.1703
 2919SOL     OW20392   3.848   2.454  17.400 -0.0286 -0.7772 -0.0045
 2919SOL    HW120393   3.871   2.500  17.481 -2.1288  1.4125 -0.6912
 2919SOL    HW220394   3.933   2.412  17.384  1.1237  1.6385 -0.2620
 2920SOL     OW20395   2.616   2.934   6.987 -0.3806 -0.1499 -0.3568
 2920SOL    HW120396   2.666   2.869   7.037 -0.4357 -0.7249 -1.0436
 2920SOL    HW220397   2.612   3.009   7.046 -1.9010 -0.4723 -0.0587
 2921SOL     OW20398   0.252   0.964  17.367 -0.1673  0.0606 -0.3918
 2921SOL    HW120399   0.268   0.913  17.288  1.7365  3.8793 -2.4937
 2921SOL    HW220400   0.330   1.020  17.374 -0.0258 -0.1087 -0.6210
 2922SOL     OW20401   4.302   2.914   1.647 -0.6935 -0.3863  0.0189
 2922SOL    HW120402   4.222   2.892   1.694 -1.1914 -0.8817 -1.0439
 2922SOL    HW220403   4.374   2.886   1.704 -0.5691 -0.5742 -0.2286
 2923SOL     OW20404   2.529   1.591   4.396  0.0511 -0.4585 -0.9685
 2923SOL    HW120405   2.612   1.613   4.354  0.0924 -2.0674 -1.6922
 2923SOL    HW220406   2.495   1.681   4.402  1.0562 -0.4287  4.1652
 2924SOL     OW20407   0.014   1.188   9.211 -0.0870 -0.3333  0.7326
 2924SOL    HW120408   0.073   1.225   9.144  0.6206 -0.3551  1.3400
 2924SOL    HW220409   4.738   1.265   9.265 -0.1783 -0.2536  0.5886
 2925SOL     OW20410   4.577   2.770   7.380  0.1982 -0.5066  0.0008
 2925SOL    HW120411   4.583   2.685   7.424  0.2298 -0.1776  0.6263
 2925SOL    HW220412   4.645   2.825   7.418  0.0231 -1.2565  1.4172
 2926SOL     OW20413   0.846   1.573   4.283 -0.6477  0.0345 -0.6904
 2926SOL    HW120414   0.779   1.642   4.287  0.4862  1.2533 -2.6310
 2926SOL    HW220415   0.890   1.589   4.366 -2.7543  0.1211  0.3935
 2927SOL     OW20416   1.109   1.438  14.518 -0.8390  0.1835 -0.5265
 2927SOL    HW120417   1.019   1.412  14.538 -1.5313  1.5106 -1.8767
 2927SOL    HW220418   1.092   1.528  14.490 -3.1144  0.4034  1.5266
 2928SOL     OW20419   3.990   0.558   9.068  0.0189 -0.4891  0.3478
 2928SOL    HW120420   4.062   0.620   9.053 -0.3534  0.0904  0.9847
 2928SOL    HW220421   3.907   0.593   9.036  0.2700 -0.6251 -0.4693
 2929SOL     OW20422   2.722   3.489   7.184  0.7133 -0.0925 -0.5258
 2929SOL    HW120423   2.730   3.461   7.275 -1.7784  2.2822  0.4221
 2929SOL    HW220424   2.627   3.490   7.167  0.9400  2.0005 -1.6473
 2930SOL     OW20425   0.724   4.220  13.211 -0.3008 -0.7147  0.1891
 2930SOL    HW120426   0.706   4.143  13.157 -1.2347 -1.0382  0.9519
 2930SOL    HW220427   0.819   4.231  13.209 -0.3164 -0.5332  0.4069
 2931SOL     OW20428   3.804   2.075   6.086 -0.7342  0.7880  0.0048
 2931SOL    HW120429   3.828   2.052   5.997  1.0483  0.9149  0.4601
 2931SOL    HW220430   3.880   2.058   6.141 -0.0160  2.1938 -0.5422
 2932SOL     OW20431   4.666   3.899   5.415 -0.2565 -0.5089  0.6103
 2932SOL    HW120432   4.667   3.931   5.505 -0.8102  1.4789 -0.0829
 2932SOL    HW220433   4.628   3.812   5.425 -0.1931 -0.6768 -0.5418
 2933SOL     OW20434   4.501   4.188  14.051 -0.1236  0.3844 -0.2741
 2933SOL    HW120435   4.475   4.278  14.029  0.3713  1.0040  1.6794
 2933SOL    HW220436   4.499   4.151  13.963  2.7281 -0.7540  0.1630
 2934SOL     OW20437   4.211   0.143   9.346 -0.1088 -0.0066 -0.1592
 2934SOL    HW120438   4.251   0.218   9.392  0.9518  0.1695 -1.3459
 2934SOL    HW220439   4.187   0.171   9.258  0.7096  1.2505  0.0046
 2935SOL     OW20440   3.050   1.722  14.959 -0.7458 -0.4294 -0.0461
 2935SOL    HW120441   2.970   1.725  15.013 -1.4623  1.3383 -1.2340
 2935SOL    HW220442   3.006   1.758  14.883  1.2186 -0.9682 -1.4223
 2936SOL     OW20443   0.045   2.261  15.490  0.2536 -0.1240 -0.0652
 2936SOL    HW120444   0.061   2.169  15.468  1.4748  0.1837 -0.4639
 2936SOL    HW220445   4.695   2.271  15.470  0.3392  1.5612  0.4216
 2937SOL     OW20446   1.636   0.817   5.663 -0.6825  0.3888 -0.0301
 2937SOL    HW120447   1.619   0.744   5.603  0.3370  0.8268 -0.8636
 2937SOL    HW220448   1.575   0.808   5.736 -2.0712 -0.6093 -1.3014
 2938SOL     OW20449   3.517   2.132  15.160 -0.2430 -0.7750  0.0393
 2938SOL    HW120450   3.573   2.200  15.122  1.4891 -1.7406  0.9146
 2938SOL    HW220451   3.567   2.093  15.231  0.9502  0.4691 -0.1085
 2939SOL     OW20452   3.027   1.631   9.984 -0.3392 -0.3032  0.0877
 2939SOL    HW120453   3.073   1.549   9.972  0.9309  0.2103  1.4424
 2939SOL    HW220454   3.065   1.663  10.066 -1.6661  1.1934  0.1417
 2940SOL     OW20455   1.592   0.979   4.161  0.2236 -0.0133 -0.2148
 2940SOL    HW120456   1.631   1.043   4.102 -2.2808 -0.7443 -2.7142
 2940SOL    HW220457   1.601   0.902   4.105 -1.4543 -1.9773  2.1984
 2941SOL     OW20458   1.628   2.005   1.982  0.2532 -0.1293 -0.5378
 2941SOL    HW120459   1.540   2.029   2.012 -0.9452 -0.4348 -3.8499
 2941SOL    HW220460   1.653   2.073   1.920 -0.2332  2.4137  2.0378
 2942SOL     OW20461   3.856   4.389   5.972 -0.1471 -0.0364  0.1531
 2942SOL    HW120462   3.939   4.395   5.924  0.1063  1.7401  0.8118
 2942SOL    HW220463   3.842   4.294   5.974  1.6660 -0.2406  3.5926
 2943SOL     OW20464   3.818   4.524   7.690  0.3466 -0.1792  0.2540
 2943SOL    HW120465   3.755   4.465   7.729 -0.9925  1.1416  0.0982
 2943SOL    HW220466   3.900   4.475   7.683  0.2675 -0.5088  1.6956
 2944SOL     OW20467   1.694   4.001   2.448  0.3946  0.4290  0.5624
 2944SOL    HW120468   1.604   4.032   2.454  0.3063  0.2233  0.3178
 2944SOL    HW220469   1.739   4.081   2.476  0.6182  0.2621  0.6834
 2945SOL     OW20470   3.907   1.724   6.946  0.9678  0.3561 -0.1826
 2945SOL    HW120471   3.947   1.648   6.988 -0.1475  1.2288  2.4540
 2945SOL    HW220472   3.972   1.795   6.948  2.4536 -0.9580 -1.3578
 2946SOL     OW20473   2.441   4.023   2.734  0.0329 -0.1805  0.1954
 2946SOL    HW120474   2.372   3.969   2.771 -0.5444  0.6975  0.4219
 2946SOL    HW220475   2.515   3.979   2.776 -1.8001 -2.0419  1.4499
 2947SOL     OW20476   0.160   2.538   4.172 -0.3184  0.6322  0.2636
 2947SOL    HW120477   0.205   2.538   4.257  0.9673 -1.0133 -0.3990
 2947SOL    HW220478   0.110   2.457   4.175 -0.8231  0.8528 -2.1104
 2948SOL     OW20479   1.465   2.029   9.413  0.7618 -0.0706 -0.0357
 2948SOL    HW120480   1.471   2.028   9.318  1.2461 -1.5365  0.0172
 2948SOL    HW220481   1.371   2.015   9.423  0.9170 -1.7559 -1.0820
 2949SOL     OW20482   1.092   3.908   2.285  0.0963  0.6325  0.0476
 2949SOL    HW120483   1.164   3.909   2.222  2.4054 -1.1223  2.6452
 2949SOL    HW220484   1.080   3.814   2.299  1.7444  0.2842 -0.9602
 2950SOL     OW20485   3.657   1.891   9.047 -0.0741 -0.2323 -0.5234
 2950SOL    HW120486   3.584   1.829   9.040  0.1865 -0.5475 -0.4883
 2950SOL    HW220487   3.610   1.973   9.059 -3.6120 -2.3308  0.2801
 2951SOL     OW20488   4.029   0.352   2.884  0.3706 -0.6130  0.7598
 2951SOL    HW120489   3.985   0.434   2.861 -0.0672 -1.0047  0.2126
 2951SOL    HW220490   3.967   0.292   2.843 -0.1898  1.6398 -1.7136
 2952SOL     OW20491   1.275   1.376  13.191  0.1324  1.1386 -0.0273
 2952SOL    HW120492   1.315   1.451  13.236  1.0822  0.1733  0.7603
 2952SOL    HW220493   1.310   1.397  13.105 -2.8363  2.0486 -0.9867
 2953SOL     OW20494   1.150   3.023  12.064 -0.1658 -0.0718  0.0834
 2953SOL    HW120495   1.229   3.049  12.017 -1.7858  1.1706 -1.9296
 2953SOL    HW220496   1.093   2.990  11.995 -1.4494  1.2856  0.5033
 2954SOL     OW20497   2.118   4.575   5.197  0.4388 -0.4610  1.2215
 2954SOL    HW120498   2.122   4.495   5.249  0.9321 -1.0260  0.3266
 2954SOL    HW220499   2.109   4.540   5.108 -0.6515  0.3978  0.9990
 2955SOL     OW20500   0.257   3.993  13.030  0.6619 -0.0009 -0.1910
 2955SOL    HW120501   0.185   4.036  13.076 -2.5087 -1.7557 -3.4998
 2955SOL    HW220502   0.207   3.917  13.001 -0.9051  0.2766  1.7269
 2956SOL     OW20503   0.914   0.340   8.297 -0.0444  0.3561 -0.4809
 2956SOL    HW120504   0.881   0.293   8.373  0.5297 -0.2930 -0.6344
 2956SOL    HW220505   0.953   0.411   8.349 -1.3707  0.4092  0.4273
 2957SOL     OW20506   0.143   0.927   7.371 -0.7424 -0.4144 -0.5641
 2957SOL    HW120507   0.196   0.868   7.425 -1.1015 -0.3856 -0.1897
 2957SOL    HW220508   0.213   0.961   7.315 -1.5780 -2.5785 -2.9306
 2958SOL     OW20509   3.860   1.776   0.139  0.0006  0.8799 -0.2465
 2958SOL    HW120510   3.932   1.840   0.137 -0.1596  1.0566 -0.3237
 2958SOL    HW220511   3.804   1.813   0.071  1.2446  1.8059 -0.7611
 2959SOL     OW20512   2.114   3.438   3.366 -0.0568  0.2452  0.3156
 2959SOL    HW120513   2.156   3.378   3.305  0.4107  1.5954 -0.6846
 2959SOL    HW220514   2.131   3.521   3.322  0.9003  0.5431  1.2303
 2960SOL     OW20515   1.438   0.719   8.369 -0.7741  0.5267 -0.4335
 2960SOL    HW120516   1.359   0.739   8.419  0.0477  2.0722  0.2787
 2960SOL    HW220517   1.502   0.709   8.440 -1.7625  1.7895  0.6312
 2961SOL     OW20518   4.610   4.386   1.308  0.4284 -0.7559 -0.0999
 2961SOL    HW120519   4.526   4.430   1.292  1.6116  1.2021 -0.8885
 2961SOL    HW220520   4.591   4.301   1.268  2.2957 -1.6243  0.8672
 2962SOL     OW20521   0.787   1.369   1.346  0.1320 -0.3075  0.0637
 2962SOL    HW120522   0.757   1.377   1.256  0.3780  0.2253  0.0229
 2962SOL    HW220523   0.717   1.314   1.382  0.2913 -0.9596 -0.6376
 2963SOL     OW20524   3.288   3.369   7.016 -0.5926  0.7877  0.1294
 2963SOL    HW120525   3.313   3.408   6.932 -1.0540 -0.6500 -0.6726
 2963SOL    HW220526   3.203   3.327   7.008  0.1739 -0.5182 -0.9827
 2964SOL     OW20527   2.001   1.978   9.511 -0.0821  0.0666  0.1400
 2964SOL    HW120528   1.968   1.896   9.474 -0.1219  0.9919 -1.8776
 2964SOL    HW220529   1.928   2.034   9.486 -0.3364 -0.1786  0.3245
 2965SOL     OW20530   0.105   4.435   7.385 -0.1358  0.0029 -0.1210
 2965SOL    HW120531   0.066   4.485   7.456  1.0592 -0.0304  0.5666
 2965SOL    HW220532   0.197   4.438   7.412  0.4681  0.3825 -2.2026
 2966SOL     OW20533   2.544   2.591   8.895 -0.2225  0.1770  0.0846
 2966SOL    HW120534   2.552   2.545   8.978  1.7336 -0.2824 -0.3522
 2966SOL    HW220535   2.617   2.653   8.899 -0.0594  0.0021 -0.1916
 2967SOL     OW20536   1.858   3.178   4.199  0.8195  0.1281 -0.3480
 2967SOL    HW120537   1.880   3.212   4.111  0.1978 -0.3210 -0.6738
 2967SOL    HW220538   1.799   3.111   4.165  0.5554 -1.3623  3.0445
 2968SOL     OW20539   4.328   1.568   4.178 -0.4783  0.1964 -0.1892
 2968SOL    HW120540   4.260   1.554   4.244 -0.4665 -1.2461 -0.4724
 2968SOL    HW220541   4.358   1.656   4.201 -1.1886  0.7315 -1.3631
 2969SOL     OW20542   3.086   0.225   4.167 -0.4206  0.3257  0.0350
 2969SOL    HW120543   3.062   0.151   4.112 -1.3506  2.2993 -2.2212
 2969SOL    HW220544   3.176   0.244   4.140 -0.2314 -0.1115  0.3680
 2970SOL     OW20545   0.387   3.816   1.417  0.4203  0.0003  1.0102
 2970SOL    HW120546   0.441   3.739   1.405 -0.2776 -0.3852  0.3628
 2970SOL    HW220547   0.312   3.785   1.467  0.6508 -1.7291  0.2724
 2971SOL     OW20548   1.392   1.896   5.319  0.1240 -0.0879 -0.6280
 2971SOL    HW120549   1.317   1.951   5.295  0.9089  1.3273  0.1490
 2971SOL    HW220550   1.457   1.916   5.252  0.5132 -0.7204 -0.4337
 2972SOL     OW20551   0.897   1.050   6.598 -0.5787 -0.4046 -0.4639
 2972SOL    HW120552   0.854   0.997   6.665  1.7572  0.7056  1.9003
 2972SOL    HW220553   0.848   1.017   6.522 -3.0014  0.4529  0.7020
 2973SOL     OW20554   3.267   2.512   8.687  0.3742 -0.3524  0.0839
 2973SOL    HW120555   3.325   2.558   8.627 -0.9231  1.3893  0.1593
 2973SOL    HW220556   3.186   2.507   8.636  0.8962  0.1903 -0.7996
 2974SOL     OW20557   2.886   2.111   6.231 -0.2105 -0.2161 -0.0765
 2974SOL    HW120558   2.893   2.186   6.290  0.3929 -0.0886 -0.3106
 2974SOL    HW220559   2.973   2.117   6.191 -0.6600  1.3207 -0.8274
 2975SOL     OW20560   0.989   2.906   3.346 -0.1345 -0.4409 -0.1254
 2975SOL    HW120561   1.066   2.872   3.301 -0.5295  0.8208 -1.7332
 2975SOL    HW220562   0.973   2.986   3.297 -1.3029  0.0417  1.0230
 2976SOL     OW20563   0.289   3.330  17.201 -0.0628 -0.3345  0.2643
 2976SOL    HW120564   0.295   3.256  17.262  1.8369 -1.5166 -1.3658
 2976SOL    HW220565   0.379   3.361  17.196 -1.2639  2.6473 -2.6949
 2977SOL     OW20566   3.815   2.210   5.396  0.2294 -0.0916  0.3810
 2977SOL    HW120567   3.824   2.286   5.454  0.4284  2.0906 -2.5078
 2977SOL    HW220568   3.902   2.183   5.369  0.4289  0.8088  0.1172
 2978SOL     OW20569   2.696   0.822   0.109 -0.0875 -0.2288 -0.1298
 2978SOL    HW120570   2.702   0.894   0.173  1.5450 -0.0284 -0.5141
 2978SOL    HW220571   2.691   0.873   0.028  1.0412  2.5277  1.5109
 2979SOL     OW20572   3.463   4.564  11.501  0.4575  0.3923  0.3879
 2979SOL    HW120573   3.472   4.631  11.434  1.3034 -0.0744  0.0374
 2979SOL    HW220574   3.533   4.594  11.559  1.1377  1.7111 -1.1105
 2980SOL     OW20575   3.416   1.834   3.193  0.0801  0.2782 -0.0750
 2980SOL    HW120576   3.463   1.771   3.248  2.0022 -0.2816 -2.3830
 2980SOL    HW220577   3.372   1.887   3.260  3.0411  0.1595  1.9410
 2981SOL     OW20578   0.479   3.023  17.206 -0.4877 -0.2441  0.3482
 2981SOL    HW120579   0.464   3.059  17.293  0.1494  0.7161  0.0547
 2981SOL    HW220580   0.497   3.104  17.159  0.0746 -0.9168 -0.5926
 2982SOL     OW20581   4.143   0.983   2.810  0.1400 -0.0363 -0.2127
 2982SOL    HW120582   4.127   1.076   2.821 -1.9284 -0.3929 -0.1823
 2982SOL    HW220583   4.163   0.982   2.716  1.6239 -2.4119  0.1180
 2983SOL     OW20584   4.648   0.508   6.542  0.4921  0.7043 -0.2208
 2983SOL    HW120585   4.600   0.546   6.469 -0.0615  0.0263 -0.2088
 2983SOL    HW220586   4.675   0.423   6.508 -0.3329  0.6500 -0.7394
 2984SOL     OW20587   1.033   0.491   5.386  0.3956  0.3103 -0.7614
 2984SOL    HW120588   0.939   0.475   5.389  0.9018 -2.4785 -0.1236
 2984SOL    HW220589   1.036   0.573   5.337 -1.8094  1.0806  0.4333
 2985SOL     OW20590   3.489   4.521   2.717 -0.8837  0.1159 -0.2072
 2985SOL    HW120591   3.552   4.449   2.727 -0.0561  0.8553 -0.1229
 2985SOL    HW220592   3.412   4.486   2.762 -0.6481 -0.8120 -0.5270
 2986SOL     OW20593   3.057   0.998   3.107  0.2265 -0.2342 -0.2642
 2986SOL    HW120594   3.145   1.034   3.121 -0.1852  0.6789 -0.0429
 2986SOL    HW220595   3.031   0.969   3.194 -0.1259 -0.6712 -0.5180
 2987SOL     OW20596   1.013   4.625  11.573 -0.2269  0.4702 -0.0985
 2987SOL    HW120597   1.065   4.546  11.587  0.1536  0.7250 -0.0525
 2987SOL    HW220598   1.029   4.664  11.659  2.2908 -3.3366  1.1550
 2988SOL     OW20599   1.408   1.728   4.146 -0.2216 -0.9757  0.1504
 2988SOL    HW120600   1.483   1.777   4.181  0.5138 -1.6653 -0.4395
 2988SOL    HW220601   1.344   1.720   4.216 -0.3494 -1.7256 -0.0428
 2989SOL     OW20602   1.554   1.810   2.966  0.2270 -0.1299 -0.2594
 2989SOL    HW120603   1.555   1.780   3.057  1.3141 -0.4948 -0.4028
 2989SOL    HW220604   1.508   1.732   2.936  1.1512 -0.8511  0.2176
 2990SOL     OW20605   0.287   4.644   8.873 -0.4216 -0.3894 -0.6823
 2990SOL    HW120606   0.282   4.552   8.848  1.2980 -0.8035  0.5113
 2990SOL    HW220607   0.311   4.645   8.966  2.1280  1.1576 -1.3443
 2991SOL     OW20608   0.135   0.433   4.110 -0.2228 -0.0803 -0.5890
 2991SOL    HW120609   0.123   0.463   4.020 -1.0944 -0.1370 -0.4895
 2991SOL    HW220610   0.081   0.495   4.160  0.3056 -0.4739  0.4754
 2992SOL     OW20611   0.172   0.776   1.683  0.0344 -0.8761 -0.3350
 2992SOL    HW120612   0.089   0.765   1.731 -0.6737  1.0300 -1.1539
 2992SOL    HW220613   0.207   0.854   1.726 -0.2397 -1.3688  0.8146
 2993SOL     OW20614   3.557   2.687   2.665  0.2875 -0.2248  0.0804
 2993SOL    HW120615   3.591   2.720   2.748  1.8508 -0.2929 -0.5368
 2993SOL    HW220616   3.599   2.600   2.666  2.2713  0.7243 -0.4086
 2994SOL     OW20617   4.706   4.607  14.098  0.4101  0.3499  0.3220
 2994SOL    HW120618   4.673   4.528  14.055  0.7473 -0.9321  2.4059
 2994SOL    HW220619   4.661   4.674  14.047 -2.7114 -1.9930  0.0132
 2995SOL     OW20620   3.559   4.075   0.271  0.2261 -0.4294 -0.5333
 2995SOL    HW120621   3.564   4.167   0.297  1.4591 -0.3610 -1.0100
 2995SOL    HW220622   3.605   4.035   0.344  1.0927  0.8975 -0.3632
 2996SOL     OW20623   0.948   3.505  13.027  0.1166 -0.7819  0.8354
 2996SOL    HW120624   0.944   3.413  13.004 -0.2424 -0.7902  0.9422
 2996SOL    HW220625   1.040   3.523  13.007 -0.6287  1.2762 -0.7794
 2997SOL     OW20626   2.937   4.241  14.970 -0.2420 -0.3649  0.2965
 2997SOL    HW120627   2.974   4.181  15.034 -1.5300 -1.1691  0.2684
 2997SOL    HW220628   3.005   4.308  14.958 -1.4358  0.8070  0.1307
 2998SOL     OW20629   2.133   0.533  17.722 -0.5759  1.1225  0.0863
 2998SOL    HW120630   2.107   0.540   0.046  1.3005 -0.8431  0.7662
 2998SOL    HW220631   2.100   0.612  17.678 -0.0682  0.4784 -1.4656
 2999SOL     OW20632   3.019   1.588   1.803 -0.2095  0.2621 -0.1499
 2999SOL    HW120633   2.924   1.580   1.809 -0.1513 -0.5957 -0.3908
 2999SOL    HW220634   3.033   1.672   1.847  0.0546  0.6369 -0.9533
 3000SOL     OW20635   4.653   4.124  11.085 -0.0085  0.2716 -0.2705
 3000SOL    HW120636   4.694   4.118  11.171  0.0064  1.7281 -0.1801
 3000SOL    HW220637   4.560   4.109  11.099  0.5019 -2.2852  0.2872
 3001SOL     OW20638   0.532   0.592  15.432 -0.1008 -0.4778 -0.1873
 3001SOL    HW120639   0.557   0.631  15.348  0.5737 -0.7445 -0.1039
 3001SOL    HW220640   0.618   0.569  15.468 -0.1183  0.6066  0.5633
 3002SOL     OW20641   2.749   0.817   3.379 -0.3474 -0.1905 -0.7189
 3002SOL    HW120642   2.682   0.759   3.414 -0.3525 -0.5876 -1.3895
 3002SOL    HW220643   2.733   0.894   3.434  3.1311 -0.6366  0.9138
 3003SOL     OW20644   0.007   0.086  12.361 -0.4923  0.4086 -0.3507
 3003SOL    HW120645   4.690   0.162  12.360  0.2262  0.9565 -4.1941
 3003SOL    HW220646   0.050   0.100  12.445  2.7916  1.0024 -2.1500
 3004SOL     OW20647   2.558   3.958   5.996  0.1511  0.8092 -0.0170
 3004SOL    HW120648   2.569   3.902   5.919 -0.1041  0.9237 -0.1366
 3004SOL    HW220649   2.602   4.039   5.967  0.2553  0.7646  0.0158
 3005SOL     OW20650   4.107   0.448   0.236  0.5385 -0.3932  0.2050
 3005SOL    HW120651   4.045   0.459   0.164 -0.3464  0.2933  1.0629
 3005SOL    HW220652   4.049   0.473   0.308  0.4221 -0.4773  0.1420
 3006SOL     OW20653   2.755   1.230   8.201 -0.0707 -0.5579  0.0605
 3006SOL    HW120654   2.707   1.235   8.284 -0.0522  0.6438 -0.0094
 3006SOL    HW220655   2.702   1.202   8.126 -0.6391 -1.0791  0.6537
 3007SOL     OW20656   2.685   3.264  13.459 -0.3434  0.1921  0.4581
 3007SOL    HW120657   2.738   3.230  13.388 -0.7595  0.6780 -0.0851
 3007SOL    HW220658   2.604   3.295  13.419  0.2682  0.5006 -0.5476
 3008SOL     OW20659   2.431   3.484   6.775  0.0814 -0.3055 -0.1616
 3008SOL    HW120660   2.357   3.530   6.736  1.1859  1.2565 -0.3777
 3008SOL    HW220661   2.505   3.540   6.752 -0.6925  0.4045 -0.9051
 3009SOL     OW20662   0.825   0.295  14.986  0.0787 -0.1789  0.1304
 3009SOL    HW120663   0.865   0.379  15.008  2.9792 -1.4510 -0.2558
 3009SOL    HW220664   0.783   0.289  15.072  2.4953  1.5505  1.4104
 3010SOL     OW20665   2.928   1.592   5.046 -0.1719 -0.0922  0.1819
 3010SOL    HW120666   2.970   1.631   5.123  1.9049  0.1162 -1.0293
 3010SOL    HW220667   2.842   1.588   5.087 -0.6831  1.1006 -0.7706
 3011SOL     OW20668   2.470   1.302  14.273  0.1976 -0.1039  0.1079
 3011SOL    HW120669   2.530   1.230  14.252 -0.7070 -0.4711 -1.2467
 3011SOL    HW220670   2.400   1.241  14.297  0.9182 -1.2473 -0.6696
 3012SOL     OW20671   3.986   1.141   9.832 -0.8553  0.3917 -0.2738
 3012SOL    HW120672   3.974   1.048   9.813 -1.0691  0.0070  1.8069
 3012SOL    HW220673   3.984   1.144   9.927 -0.1783  0.1248 -0.2496
 3013SOL     OW20674   1.248   3.521  14.936 -0.1226 -0.9655 -0.5051
 3013SOL    HW120675   1.215   3.434  14.956 -1.6798  0.2816  2.2055
 3013SOL    HW220676   1.246   3.518  14.840 -0.2243  0.9658 -0.5685
 3014SOL     OW20677   0.974   4.726   7.757  0.2139 -0.4061  0.3714
 3014SOL    HW120678   1.031   4.690   7.688  0.4996  2.8391 -1.0898
 3014SOL    HW220679   0.954   4.641   7.796  1.9128 -0.7240  0.5297
 3015SOL     OW20680   3.436   3.536   3.799  0.3017 -0.7810  0.0272
 3015SOL    HW120681   3.507   3.485   3.838  1.5348  0.3957 -0.7063
 3015SOL    HW220682   3.491   3.604   3.763 -0.6391  0.2464  0.5181
 3016SOL     OW20683   3.432   1.028   4.755 -0.0426  0.4249 -0.2584
 3016SOL    HW120684   3.352   0.978   4.743 -0.0422 -0.5339  3.5892
 3016SOL    HW220685   3.403   1.089   4.823 -0.3235  0.9959 -0.8971
 3017SOL     OW20686   4.668   2.721   3.376  0.1604  0.7178  0.4233
 3017SOL    HW120687   4.639   2.801   3.419 -2.0809 -0.5097  1.2163
 3017SOL    HW220688   4.709   2.658   3.435 -1.4335 -0.4128  0.3382
 3018SOL     OW20689   1.164   3.355   0.019  0.5011 -0.2390  0.1771
 3018SOL    HW120690   1.112   3.434   0.034 -1.7059 -1.5712 -0.4715
 3018SOL    HW220691   1.244   3.361   0.070 -0.3398  2.1315  1.1949
 3019SOL     OW20692   4.069   1.499   6.977 -0.0703  0.3283 -0.7299
 3019SOL    HW120693   4.158   1.534   6.987 -0.8307  2.8286 -3.0239
 3019SOL    HW220694   4.073   1.448   7.059  0.9040 -1.4721 -1.8793
 3020SOL     OW20695   4.539   2.794   6.883  0.3444 -0.6838  0.0885
 3020SOL    HW120696   4.555   2.887   6.902 -1.0734 -0.3247 -0.4953
 3020SOL    HW220697   4.569   2.756   6.966 -1.0814 -0.3966  0.7464
 3021SOL     OW20698   2.093   3.175   7.230 -0.5050  0.0250  0.2726
 3021SOL    HW120699   2.157   3.165   7.301 -1.8430  0.6195  1.5727
 3021SOL    HW220700   2.113   3.267   7.209  1.6450 -0.3154  0.8352
 3022SOL     OW20701   4.651   0.866   8.973  0.2497  0.2868  0.2442
 3022SOL    HW120702   4.581   0.817   9.016 -0.5865  0.6882 -0.6660
 3022SOL    HW220703   4.711   0.885   9.045  0.0042 -0.2893  0.6045
 3023SOL     OW20704   4.741   1.434   4.911 -0.2480  0.7053 -0.2013
 3023SOL    HW120705   0.063   1.505   4.906 -0.1050  0.8755  3.7826
 3023SOL    HW220706   0.043   1.353   4.888 -1.7176  0.0254 -0.6367
 3024SOL     OW20707   2.659   2.496  16.609 -0.4614  0.1311  0.6938
 3024SOL    HW120708   2.708   2.416  16.630  1.2007  0.9219 -0.2332
 3024SOL    HW220709   2.671   2.486  16.514  0.0814 -1.0303  0.8749
 3025SOL     OW20710   3.521   4.336   5.993 -0.2031 -0.1665  0.4006
 3025SOL    HW120711   3.440   4.360   5.947  0.8997  1.5400 -0.6411
 3025SOL    HW220712   3.565   4.275   5.933  2.2985  1.7060  0.3675
 3026SOL     OW20713   4.553   0.031  16.983  0.3887  0.4735  0.3359
 3026SOL    HW120714   4.490   0.077  17.039  0.0423  1.0373 -0.5217
 3026SOL    HW220715   4.480   4.732  16.938  0.3899  0.0582  0.7144
 3027SOL     OW20716   4.429   4.362  11.907  0.8072 -0.1628 -0.2170
 3027SOL    HW120717   4.454   4.270  11.912 -1.7980 -0.9705 -1.4996
 3027SOL    HW220718   4.498   4.401  11.960 -1.2743  1.3581  1.3732
 3028SOL     OW20719   3.684   0.745   8.458  0.2037  0.3160  0.8716
 3028SOL    HW120720   3.767   0.701   8.473 -0.4905 -1.4509 -0.4542
 3028SOL    HW220721   3.705   0.816   8.398 -3.1773  2.0419  1.7131
 3029SOL     OW20722   3.120   4.277  14.362 -0.0410  0.1592 -0.0136
 3029SOL    HW120723   3.122   4.316  14.449 -0.4627 -0.8474  0.4493
 3029SOL    HW220724   3.059   4.207  14.385 -0.7592  0.2189 -1.6917
 3030SOL     OW20725   3.998   4.132   7.160 -0.0128  0.0836 -0.4793
 3030SOL    HW120726   3.982   4.186   7.083 -2.5663 -0.5534 -0.3931
 3030SOL    HW220727   3.989   4.042   7.130 -1.0039  0.1708 -0.4422
 3031SOL     OW20728   2.559   2.827   7.382 -0.0100 -0.1478  0.0866
 3031SOL    HW120729   2.624   2.867   7.440 -0.4515 -1.5707  1.5704
 3031SOL    HW220730   2.600   2.747   7.349  1.2492 -0.1816  1.6751
 3032SOL     OW20731   3.361   0.843   5.614  0.6649 -0.3233  0.1646
 3032SOL    HW120732   3.410   0.904   5.559 -2.9080  0.1852 -2.3940
 3032SOL    HW220733   3.395   0.883   5.695 -1.1532 -0.0448  0.7792
 3033SOL     OW20734   2.408   0.102   5.970 -0.2941 -0.1365 -0.3947
 3033SOL    HW120735   2.342   0.165   5.999  0.9946  1.2291 -0.4228
 3033SOL    HW220736   2.486   0.157   5.962 -1.4500  1.4053 -0.9993
 3034SOL     OW20737   4.038   1.638   8.466 -0.4164  0.1680 -0.1334
 3034SOL    HW120738   4.128   1.662   8.489 -0.7925  1.5762 -0.1587
 3034SOL    HW220739   4.035   1.544   8.482  2.1181 -0.2957 -2.3745
 3035SOL     OW20740   0.244   2.638  10.688  0.6300  0.9056 -0.1731
 3035SOL    HW120741   0.321   2.694  10.693 -1.2467  3.4530  0.2308
 3035SOL    HW220742   0.200   2.672  10.766  0.6002  0.9899 -0.2262
 3036SOL     OW20743   4.258   3.164  12.356  0.0513  0.4635  0.1678
 3036SOL    HW120744   4.276   3.086  12.303  0.8450  1.8000 -1.5373
 3036SOL    HW220745   4.344   3.180  12.396  0.7794  0.9798 -1.5774
 3037SOL     OW20746   3.800   2.789   1.052  0.9512 -0.2509  0.3985
 3037SOL    HW120747   3.719   2.741   1.035  0.7500 -0.7400  2.7012
 3037SOL    HW220748   3.837   2.725   1.113  0.2474 -1.2147 -0.1871
 3038SOL     OW20749   1.494   2.807  13.052 -0.5559 -0.1490  0.7541
 3038SOL    HW120750   1.505   2.897  13.081  0.4146  0.6739 -2.1195
 3038SOL    HW220751   1.549   2.816  12.974 -0.3475  0.0709  0.9263
 3039SOL     OW20752   1.274   3.203   7.157 -0.7021 -0.1940 -0.3831
 3039SOL    HW120753   1.368   3.207   7.177 -1.1636 -1.6072  2.1019
 3039SOL    HW220754   1.247   3.126   7.208 -3.1766 -0.0593 -1.5073
 3040SOL     OW20755   4.703   2.943   2.889 -0.6408 -0.0163  0.2491
 3040SOL    HW120756   4.742   3.018   2.845 -1.7450 -0.2523 -1.1182
 3040SOL    HW220757   4.665   2.909   2.808  1.6510 -2.8252  0.3405
 3041SOL     OW20758   2.069   2.735  16.341  0.1264 -0.4426  0.0553
 3041SOL    HW120759   2.148   2.711  16.388  1.1704  1.3819 -0.7498
 3041SOL    HW220760   1.999   2.693  16.390  0.4640  1.7661  2.4061
 3042SOL     OW20761   1.437   0.078   2.220  0.4983 -0.6356  0.2810
 3042SOL    HW120762   1.373   0.043   2.158  2.6284  0.7115 -2.7163
 3042SOL    HW220763   1.407   0.169   2.223  1.5326 -0.3111  0.8491
 3043SOL     OW20764   1.615   1.392  16.733  0.4382 -0.4811  0.1330
 3043SOL    HW120765   1.574   1.317  16.689  3.0978 -1.5346 -0.5339
 3043SOL    HW220766   1.682   1.337  16.773 -0.0284  0.3116  1.9942
 3044SOL     OW20767   2.057   4.029   9.392  0.4389 -0.3958  0.0125
 3044SOL    HW120768   2.090   4.064   9.475 -0.7821 -0.7438  0.6434
 3044SOL    HW220769   2.127   4.054   9.332  0.5831  3.6674  1.8490
 3045SOL     OW20770   2.330   0.162  13.986 -0.0577  0.6572 -0.5753
 3045SOL    HW120771   2.401   0.124  13.935  0.2269  1.6269 -0.8969
 3045SOL    HW220772   2.297   0.092  14.044 -0.0093  1.4730  0.4399
 3046SOL     OW20773   3.037   2.222   0.852  0.0624 -0.1187  0.9317
 3046SOL    HW120774   3.056   2.286   0.921 -0.9103 -0.2589  1.3282
 3046SOL    HW220775   3.129   2.202   0.833 -0.4040 -1.1262 -0.2493
 3047SOL     OW20776   3.670   1.772   4.504  0.5795  0.3148  0.6936
 3047SOL    HW120777   3.752   1.801   4.544  0.7755 -2.0617  1.9889
 3047SOL    HW220778   3.700   1.765   4.413 -0.8067  3.3982  0.0189
 3048SOL     OW20779   1.860   1.296   4.543 -0.2325 -0.7315  0.3359
 3048SOL    HW120780   1.790   1.354   4.573  0.1463  0.0156 -0.2170
 3048SOL    HW220781   1.925   1.363   4.523 -1.5787  0.1460 -1.0266
 3049SOL     OW20782   4.239   0.898   7.702 -0.3796  0.4722 -0.3803
 3049SOL    HW120783   4.226   0.913   7.796  0.7952 -0.6313 -0.0398
 3049SOL    HW220784   4.245   0.989   7.675  1.7011 -0.0448 -1.6437
 3050SOL     OW20785   2.467   2.309  10.724 -0.0196 -0.1641  0.2387
 3050SOL    HW120786   2.388   2.300  10.670  1.1823  0.7653 -1.6382
 3050SOL    HW220787   2.426   2.343  10.804 -1.7362  2.0553 -1.5841
 3051SOL     OW20788   4.102   0.336   4.738 -0.0117  0.5301  0.6037
 3051SOL    HW120789   4.031   0.346   4.675 -0.1851  0.9207  0.8632
 3051SOL    HW220790   4.086   0.409   4.798  1.7668 -0.5702  2.4063
 3052SOL     OW20791   1.318   1.032   3.309 -0.3535  0.3226  0.5390
 3052SOL    HW120792   1.243   1.007   3.255  1.4924  0.0434 -1.9084
 3052SOL    HW220793   1.388   1.027   3.244  1.3969  1.5751  2.3432
 3053SOL     OW20794   1.998   4.526   5.501  0.2764  0.1151  0.1090
 3053SOL    HW120795   2.002   4.622   5.500 -1.4305  0.1763 -0.7373
 3053SOL    HW220796   1.913   4.517   5.544 -0.4708 -2.8618 -2.0335
 3054SOL     OW20797   1.854   1.232   5.797  0.0920 -0.3719 -0.0145
 3054SOL    HW120798   1.820   1.168   5.860 -0.9467 -1.0868 -1.3076
 3054SOL    HW220799   1.856   1.312   5.850  0.7385  0.8593 -1.9133
 3055SOL     OW20800   0.857   1.721   3.918 -0.3960  0.2166 -0.0790
 3055SOL    HW120801   0.820   1.649   3.868 -0.9624  0.5816 -0.1902
 3055SOL    HW220802   0.938   1.685   3.952 -2.3662 -1.4338  2.7871
 3056SOL     OW20803   0.974   0.410   7.930 -0.3959 -0.5544 -0.1597
 3056SOL    HW120804   0.909   0.407   7.860 -0.0182 -1.5146 -0.4830
 3056SOL    HW220805   1.056   0.427   7.883 -1.2590  1.7904 -0.7745
 3057SOL     OW20806   0.709   3.489  16.974 -0.6311  0.5313  0.4265
 3057SOL    HW120807   0.674   3.467  16.887  1.4321  0.1568 -0.3242
 3057SOL    HW220808   0.642   3.476  17.040  0.2935 -1.5806  0.9766
 3058SOL     OW20809   0.266   3.208  17.645  0.2413 -0.3254 -0.5406
 3058SOL    HW120810   0.311   3.136  17.689 -2.5403 -1.3282  0.6072
 3058SOL    HW220811   0.309   3.283  17.686  1.4899 -0.0223 -2.3675
 3059SOL     OW20812   2.881   3.567   8.018  0.1976 -0.3011 -0.0876
 3059SOL    HW120813   2.925   3.488   7.985  0.8403 -0.3248  0.8249
 3059SOL    HW220814   2.791   3.545   7.993  0.8082 -0.0172 -2.6104
 3060SOL     OW20815   2.642   4.577   7.101  0.0255  0.4464 -0.0764
 3060SOL    HW120816   2.677   4.632   7.032 -1.3372  1.3767 -0.0289
 3060SOL    HW220817   2.705   4.505   7.101  0.0831  0.4971  0.6171
 3061SOL     OW20818   1.538   4.196   0.431  0.4031 -0.1924 -0.1404
 3061SOL    HW120819   1.536   4.291   0.422  2.6772 -0.0941  0.3659
 3061SOL    HW220820   1.574   4.168   0.346 -0.6865  0.2050 -0.7426
 3062SOL     OW20821   3.080   0.621   9.214 -0.1053  0.0592  0.6239
 3062SOL    HW120822   3.048   0.647   9.128  1.1115  0.7345  0.3650
 3062SOL    HW220823   3.001   0.617   9.267 -1.2880 -1.6243 -1.2769
 3063SOL     OW20824   1.434   1.768   2.204 -1.0198  0.0692  0.1759
 3063SOL    HW120825   1.428   1.703   2.134  0.8412 -0.9682  1.0005
 3063SOL    HW220826   1.437   1.704   2.275 -2.7704 -0.5364 -0.2956
 3064SOL     OW20827   3.836   0.345  15.193 -0.0532 -0.0805  0.2716
 3064SOL    HW120828   3.886   0.387  15.123 -1.4402  1.5654  0.2669
 3064SOL    HW220829   3.747   0.351  15.158  0.0099  1.2395  0.3579
 3065SOL     OW20830   3.499   3.752   5.715 -0.4337 -0.0917 -0.2136
 3065SOL    HW120831   3.424   3.701   5.684  0.2551 -0.9584 -0.4644
 3065SOL    HW220832   3.516   3.799   5.633 -1.3565 -0.6794 -0.7503
 3066SOL     OW20833   4.154   2.421  12.788  0.5120  0.6467  0.4666
 3066SOL    HW120834   4.142   2.368  12.867 -0.4450  3.2686  2.0861
 3066SOL    HW220835   4.173   2.504  12.830 -3.0031  1.1800  1.0540
 3067SOL     OW20836   2.761   3.615  12.958  1.0211  0.7375 -1.1002
 3067SOL    HW120837   2.710   3.564  13.021  0.3199  3.0216  0.1864
 3067SOL    HW220838   2.851   3.597  12.986  0.2100 -0.5417  0.6408
 3068SOL     OW20839   4.506   3.303  13.148 -0.5611 -0.0256  0.3985
 3068SOL    HW120840   4.485   3.367  13.216 -4.3711  0.7300 -1.4633
 3068SOL    HW220841   4.427   3.313  13.094 -1.5511 -0.0009  1.8647
 3069SOL     OW20842   2.933   0.087   6.823  0.5426  0.1350  0.4264
 3069SOL    HW120843   2.840   0.092   6.802  0.3829  0.0190  1.1301
 3069SOL    HW220844   2.939   0.027   6.897 -3.4668  0.4198  0.9678
 3070SOL     OW20845   3.007   0.366   6.164 -0.9762  0.4130 -0.0604
 3070SOL    HW120846   3.013   0.275   6.193  1.5152  0.3841 -0.6333
 3070SOL    HW220847   2.987   0.354   6.071 -2.5283  1.1613  0.1724
 3071SOL     OW20848   0.922   1.537   2.650  0.0827  0.2754 -0.0325
 3071SOL    HW120849   0.970   1.544   2.732 -1.9358 -0.6496  1.2156
 3071SOL    HW220850   0.973   1.464   2.616 -0.2977  0.3733 -0.8229
 3072SOL     OW20851   1.362   4.352   7.172  0.0248 -0.0991 -0.5925
 3072SOL    HW120852   1.455   4.332   7.185  0.2125 -0.2471 -2.2009
 3072SOL    HW220853   1.344   4.293   7.098 -0.1767  0.1912 -0.7743
 3073SOL     OW20854   3.542   4.529  16.852  0.2942  0.3060  0.0027
 3073SOL    HW120855   3.558   4.508  16.760 -0.8895 -0.0321 -0.1202
 3073SOL    HW220856   3.633   4.514  16.880  0.5758 -1.0631 -1.6224
 3074SOL     OW20857   4.240   2.341   6.991  0.2541  0.3046  0.0611
 3074SOL    HW120858   4.198   2.361   7.074  0.2657  2.7263 -0.5240
 3074SOL    HW220859   4.326   2.382   6.995 -1.1429  3.2404 -0.0963
 3075SOL     OW20860   2.170   1.102   5.752  0.1852 -0.4690 -0.1969
 3075SOL    HW120861   2.160   1.107   5.657  1.4346  1.0485 -0.2576
 3075SOL    HW220862   2.080   1.116   5.782  0.2131  0.1147 -0.3732
 3076SOL     OW20863   3.831   3.694   8.038  0.1222 -0.2484 -0.6476
 3076SOL    HW120864   3.902   3.638   8.069  2.5098  2.0967 -1.9249
 3076SOL    HW220865   3.762   3.647   8.086 -0.7209  1.3809 -0.2425
 3077SOL     OW20866   0.555   1.525   9.851 -0.4643  0.2912  0.3213
 3077SOL    HW120867   0.567   1.595   9.916  0.1202  0.8132 -0.3442
 3077SOL    HW220868   0.493   1.466   9.894  0.5874 -1.9886 -1.3147
 3078SOL     OW20869   3.271   0.413   5.925  0.0144 -0.2124 -0.5573
 3078SOL    HW120870   3.181   0.386   5.903 -0.3126  1.7943 -1.6120
 3078SOL    HW220871   3.299   0.332   5.967 -0.7581 -0.4800 -0.5457
 3079SOL     OW20872   0.372   3.558   7.613 -0.3127  0.2672 -0.1064
 3079SOL    HW120873   0.422   3.488   7.570 -1.7976 -0.9712  0.1709
 3079SOL    HW220874   0.365   3.523   7.702  0.6168 -0.4966 -0.3270
 3080SOL     OW20875   0.370   1.387   5.805 -0.3036 -0.4921  0.2319
 3080SOL    HW120876   0.457   1.391   5.764  0.4979 -0.7042  1.8937
 3080SOL    HW220877   0.307   1.426   5.745  1.7706  1.3174 -0.7836
 3081SOL     OW20878   3.230   0.261   8.246 -0.1892 -0.1666 -0.1277
 3081SOL    HW120879   3.283   0.334   8.213 -0.3657 -0.1020 -0.2649
 3081SOL    HW220880   3.296   0.239   8.311  0.8683  0.2031 -1.0551
 3082SOL     OW20881   0.808   3.346   4.181  0.1383 -0.4219 -0.0076
 3082SOL    HW120882   0.803   3.251   4.168  3.8510 -0.7716  0.8791
 3082SOL    HW220883   0.903   3.363   4.183  0.0635  0.2622 -2.4220
 3083SOL     OW20884   1.275   2.758  13.692  0.3436  0.0434 -0.1161
 3083SOL    HW120885   1.211   2.826  13.674  0.6020  0.5600  0.8877
 3083SOL    HW220886   1.329   2.812  13.751  1.1051 -0.2029 -0.5832
 3084SOL     OW20887   0.914   3.453   1.659 -0.2083  0.0995 -0.2997
 3084SOL    HW120888   0.831   3.501   1.666 -0.7011 -1.3302  3.2934
 3084SOL    HW220889   0.915   3.408   1.743 -0.6030  0.0683 -0.3084
 3085SOL     OW20890   1.273   2.200   8.372 -0.7993 -0.4449 -0.5793
 3085SOL    HW120891   1.250   2.263   8.304  0.9400  2.3896  1.4315
 3085SOL    HW220892   1.369   2.210   8.375 -0.9398  0.6463  0.1530
 3086SOL     OW20893   0.761   2.011   8.935 -0.5915  0.1293  0.0777
 3086SOL    HW120894   0.705   2.089   8.936  1.0747  1.3319 -0.4984
 3086SOL    HW220895   0.765   2.001   8.840 -0.4314  2.2372 -0.1331
 3087SOL     OW20896   3.312   3.926   0.297 -0.6841 -0.2506  0.1110
 3087SOL    HW120897   3.376   3.984   0.256  1.1888 -2.0263  0.4906
 3087SOL    HW220898   3.326   3.844   0.250 -1.7241 -1.5783  2.1189
 3088SOL     OW20899   1.443   0.845   7.924  0.0233  0.5376 -0.4196
 3088SOL    HW120900   1.370   0.830   7.864 -0.2700 -0.0052  0.0749
 3088SOL    HW220901   1.403   0.804   8.002 -1.7163  2.0589 -0.4914
 3089SOL     OW20902   1.922   1.433  14.040 -0.9608  0.3627  0.1163
 3089SOL    HW120903   2.008   1.472  14.022  0.1491 -2.1495  0.0785
 3089SOL    HW220904   1.864   1.495  14.084 -0.8170 -2.1436  3.8004
 3090SOL     OW20905   2.751   2.368   8.435  0.0162 -0.7202  0.3400
 3090SOL    HW120906   2.707   2.427   8.497 -1.7362 -0.0980 -1.4628
 3090SOL    HW220907   2.806   2.312   8.489  0.5756 -0.0836  0.4346
 3091SOL     OW20908   2.110   2.873   8.002 -0.0087  0.1357 -0.5739
 3091SOL    HW120909   2.060   2.847   8.079  2.4098 -2.0710  0.2556
 3091SOL    HW220910   2.049   2.861   7.929  2.8679 -0.9042 -2.7856
 3092SOL     OW20911   3.832   1.188   4.063 -0.4234  0.2566 -0.0976
 3092SOL    HW120912   3.796   1.273   4.087 -0.8813  0.1787 -0.4920
 3092SOL    HW220913   3.844   1.151   4.151 -3.6823  1.5924  0.9234
 3093SOL     OW20914   2.251   3.324   8.523 -0.0358 -0.9682  0.8735
 3093SOL    HW120915   2.271   3.414   8.498  0.4473 -0.5779  2.6567
 3093SOL    HW220916   2.251   3.282   8.437  0.8205  0.1089  0.3502
 3094SOL     OW20917   4.431   0.604   8.713 -0.0213 -0.0192  0.7966
 3094SOL    HW120918   4.437   0.525   8.767 -2.5013 -0.4213  0.5095
 3094SOL    HW220919   4.339   0.593   8.687  0.8787  0.4497 -2.5390
 3095SOL     OW20920   0.814   1.904  13.490  0.0316  0.6066  0.6061
 3095SOL    HW120921   0.754   1.884  13.418 -0.7636  0.6399  1.2549
 3095SOL    HW220922   0.898   1.895  13.447 -0.0960  1.2523  0.2314
 3096SOL     OW20923   0.282   1.448   2.818  0.0843 -0.6972  0.2355
 3096SOL    HW120924   0.233   1.377   2.776 -2.2013  0.8112  0.3679
 3096SOL    HW220925   0.263   1.518   2.755  0.6358  0.1009  0.9600
 3097SOL     OW20926   1.021   1.584  14.213  0.3948 -0.3231  0.9738
 3097SOL    HW120927   0.948   1.524  14.197  1.6997 -1.5767 -0.2254
 3097SOL    HW220928   0.980   1.651  14.268 -2.4747  0.9249 -2.7096
 3098SOL     OW20929   3.911   2.318  10.694 -0.1295 -0.1212 -0.3010
 3098SOL    HW120930   3.904   2.380  10.621  1.1671  0.2454 -0.1116
 3098SOL    HW220931   3.952   2.242  10.654  0.5634 -0.8471  1.8093
 3099SOL     OW20932   0.481   1.867  12.722 -0.0921 -0.0504 -0.4664
 3099SOL    HW120933   0.434   1.864  12.639 -2.2363 -1.2031  0.7896
 3099SOL    HW220934   0.543   1.795  12.710 -1.8068 -1.5278 -0.4465
 3100SOL     OW20935   2.344   0.065   4.662  0.5503  0.2011 -0.3730
 3100SOL    HW120936   2.281   0.094   4.597 -0.0607  0.1332  0.1894
 3100SOL    HW220937   2.351   4.716   4.636 -0.9104 -0.3951  1.2971
 3101SOL     OW20938   4.475   0.551   7.970  0.1575 -0.0583  0.2261
 3101SOL    HW120939   4.546   0.529   7.909 -2.5622  0.2694 -3.0420
 3101SOL    HW220940   4.484   0.478   8.031  1.8362  0.7816  0.9880
 3102SOL     OW20941   3.932   3.582  12.244 -0.2286  0.5541  0.1345
 3102SOL    HW120942   3.987   3.622  12.177  1.3214  2.9936  2.8898
 3102SOL    HW220943   3.984   3.502  12.252  0.9289  1.1711 -1.3350
 3103SOL     OW20944   0.242   0.092   8.039  0.1383  0.5822 -0.0394
 3103SOL    HW120945   0.210   0.182   8.025  0.8731  0.7283 -0.7820
 3103SOL    HW220946   0.169   0.065   8.095 -1.0185 -0.5501 -2.1059
 3104SOL     OW20947   1.058   0.967   4.924  0.1067  0.2089  0.4707
 3104SOL    HW120948   1.106   0.884   4.926  1.6798  1.0780 -1.2434
 3104SOL    HW220949   1.052   0.997   5.014  0.8237 -1.1188  0.9536
 3105SOL     OW20950   1.584   1.046   1.030 -0.5356  0.3033  0.0215
 3105SOL    HW120951   1.598   0.952   1.024 -2.4422  0.2099 -2.9768
 3105SOL    HW220952   1.628   1.076   1.110  1.2965  0.0524 -0.8973
 3106SOL     OW20953   0.183   1.472   6.051 -0.0064 -0.5492  0.1231
 3106SOL    HW120954   0.129   1.528   5.996  0.6381  0.1666  0.2262
 3106SOL    HW220955   0.122   1.411   6.094  0.1967  0.4191  1.7845
 3107SOL     OW20956   3.556   1.118   3.479  0.1183  0.2767 -0.4966
 3107SOL    HW120957   3.517   1.063   3.548 -0.2806 -0.0897 -1.0130
 3107SOL    HW220958   3.600   1.172   3.545 -1.1773  0.4815  0.2120
 3108SOL     OW20959   3.053   1.732  10.230  0.1026 -0.5034  0.4964
 3108SOL    HW120960   3.010   1.745  10.314 -0.8996 -1.1692  0.0850
 3108SOL    HW220961   3.137   1.721  10.274  0.1062 -1.9597  0.1282
 3109SOL     OW20962   3.519   2.242   9.355  0.6275 -0.0258  0.0023
 3109SOL    HW120963   3.442   2.277   9.399  2.6489  1.7741  2.1187
 3109SOL    HW220964   3.502   2.149   9.373 -3.2079  0.6302 -0.3290
 3110SOL     OW20965   0.032   1.108   4.676 -0.4701  0.2327 -0.2281
 3110SOL    HW120966   0.100   1.058   4.631 -0.8082  0.2010 -0.7069
 3110SOL    HW220967   4.706   1.121   4.611  0.2887 -0.8779 -1.2518
 3111SOL     OW20968   1.372   2.906   6.257 -0.0212  0.0680  0.0501
 3111SOL    HW120969   1.462   2.925   6.283  0.0287  1.4294 -1.1247
 3111SOL    HW220970   1.392   2.906   6.163 -0.6216 -0.2745 -0.0797
 3112SOL     OW20971   4.533   3.267  16.766  0.6351  0.2411  0.7309
 3112SOL    HW120972   4.622   3.287  16.738  0.3701  0.6362  0.1680
 3112SOL    HW220973   4.497   3.355  16.768  0.4444  0.1904 -0.3149
 3113SOL     OW20974   4.271   0.567   2.808 -0.5754  0.2877  0.6123
 3113SOL    HW120975   4.245   0.508   2.738 -0.3051  0.8210  0.0649
 3113SOL    HW220976   4.288   0.650   2.763  3.0710 -1.4883 -1.3255
 3114SOL     OW20977   2.181   2.235   5.546  0.0133  0.7225 -0.1382
 3114SOL    HW120978   2.180   2.188   5.462 -0.3580 -1.4161  1.0517
 3114SOL    HW220979   2.253   2.297   5.536  1.7267 -1.1345  0.7247
 3115SOL     OW20980   3.755   0.770   6.046 -0.3887 -0.1157  0.0800
 3115SOL    HW120981   3.782   0.707   6.113 -0.0872 -0.6933 -0.5870
 3115SOL    HW220982   3.707   0.721   5.979 -0.9782 -2.2044  2.0449
 3116SOL     OW20983   2.150   0.856  11.260 -0.7858  0.0351 -0.0912
 3116SOL    HW120984   2.194   0.921  11.206 -0.3420 -0.0800  0.1292
 3116SOL    HW220985   2.059   0.860  11.231 -0.7012  1.2053 -0.1942
 3117SOL     OW20986   4.460   1.771   3.094 -0.7613  0.3084  0.7386
 3117SOL    HW120987   4.495   1.817   3.017  0.0155 -0.8446  0.4038
 3117SOL    HW220988   4.397   1.710   3.056 -2.1611  1.6131  0.9459
 3118SOL     OW20989   2.837   3.646  17.330 -0.1312  0.0677 -0.2592
 3118SOL    HW120990   2.777   3.604  17.392 -1.3142 -0.4859 -1.7761
 3118SOL    HW220991   2.917   3.626  17.378  0.0719  0.3319 -0.4887
 3119SOL     OW20992   2.804   4.458   0.644  0.2706  0.2356  0.3806
 3119SOL    HW120993   2.797   4.394   0.715  1.4155 -0.2565  0.0440
 3119SOL    HW220994   2.747   4.528   0.675  0.8902  0.7032  0.4675
 3120SOL     OW20995   3.009   1.405   5.487  0.0535 -0.6329  0.4378
 3120SOL    HW120996   3.072   1.338   5.511 -0.7514 -1.1611  1.0702
 3120SOL    HW220997   2.933   1.368   5.532 -1.0014  2.2544  1.0525
 3121SOL     OW20998   3.691   3.640   1.865  0.0419  0.2775 -0.0000
 3121SOL    HW120999   3.737   3.715   1.904 -2.2561  0.7608  1.7460
 3121SOL    HW221000   3.610   3.644   1.916 -0.0130  3.2635 -0.3195
 3122SOL     OW21001   4.329   1.998   5.295 -0.0473 -0.4000 -0.3359
 3122SOL    HW121002   4.318   1.903   5.286  1.2553 -0.5106 -0.8204
 3122SOL    HW221003   4.348   2.017   5.203 -0.6817  1.3739 -0.1026
 3123SOL     OW21004   0.155   1.477   5.156  0.2498  0.6054 -0.2590
 3123SOL    HW121005   0.201   1.418   5.216 -3.9301 -2.3879  0.0710
 3123SOL    HW221006   0.189   1.447   5.072  1.0526 -2.0667  1.0234
 3124SOL     OW21007   2.726   1.714   4.593  0.8084 -0.1675 -0.2371
 3124SOL    HW121008   2.651   1.731   4.536 -0.1113 -1.6636  0.5099
 3124SOL    HW221009   2.798   1.698   4.533 -0.8653 -0.4210 -2.1813
 3125SOL     OW21010   0.660   0.755   1.218  0.2389 -0.4825  0.3227
 3125SOL    HW121011   0.658   0.662   1.237  0.5869 -0.2336  1.5791
 3125SOL    HW221012   0.711   0.785   1.293  0.1446  1.7412 -0.5057
 3126SOL     OW21013   0.863   1.926  17.221 -0.0887 -0.1870 -0.2697
 3126SOL    HW121014   0.851   2.020  17.228  0.3259 -0.1852  0.4436
 3126SOL    HW221015   0.898   1.906  17.308 -1.6670  1.2016  0.6798
 3127SOL     OW21016   2.856   0.248   4.723  0.1454  0.1488  0.0888
 3127SOL    HW121017   2.797   0.182   4.758  0.3598  0.5478  1.1729
 3127SOL    HW221018   2.848   0.308   4.796  2.1006 -1.5493  1.6992
 3128SOL     OW21019   0.613   2.800  15.315  0.2208 -0.3007 -0.0231
 3128SOL    HW121020   0.607   2.745  15.394  0.0412 -0.4224 -0.1213
 3128SOL    HW221021   0.620   2.883  15.361 -0.0564  0.0431 -0.6058
 3129SOL     OW21022   2.509   0.345   7.725 -0.6155  0.2457  0.2611
 3129SOL    HW121023   2.523   0.273   7.664 -0.5809  1.6771 -1.4009
 3129SOL    HW221024   2.579   0.330   7.788 -0.5545  0.4665  0.2435
 3130SOL     OW21025   4.408   0.706   5.552 -0.6018 -0.0059  0.5658
 3130SOL    HW121026   4.337   0.697   5.615  0.1419  1.2138  1.5787
 3130SOL    HW221027   4.407   0.617   5.517 -1.8233  0.2157  0.0422
 3131SOL     OW21028   2.925   3.258   8.350  0.0046  0.4631  0.0097
 3131SOL    HW121029   3.005   3.310   8.359  1.6522 -1.9260 -0.5903
 3131SOL    HW221030   2.929   3.205   8.430 -1.9454  2.0121  1.1113
 3132SOL     OW21031   1.981   0.261   7.034  0.4578 -0.2625  0.1598
 3132SOL    HW121032   1.998   0.354   7.022  1.3749 -0.4586 -0.0108
 3132SOL    HW221033   1.894   0.282   7.068  1.2898  1.7138  1.0442
 3133SOL     OW21034   2.150   0.749   5.557  0.2990 -0.3734  0.1141
 3133SOL    HW121035   2.058   0.773   5.549 -0.1994 -2.3143  0.1248
 3133SOL    HW221036   2.156   0.768   5.651  0.3546  2.5777 -0.4847
 3134SOL     OW21037   3.214   2.665   2.812  0.7699 -0.1474 -0.1149
 3134SOL    HW121038   3.254   2.629   2.733 -0.6843 -1.4516 -0.2616
 3134SOL    HW221039   3.120   2.652   2.799  0.4748  0.1160  1.7087
 3135SOL     OW21040   1.878   3.142  16.696  0.3479 -0.9900  0.0163
 3135SOL    HW121041   1.915   3.184  16.618  0.6909 -1.4510 -0.0653
 3135SOL    HW221042   1.799   3.193  16.716 -0.6648 -2.5889  0.0981
 3136SOL     OW21043   0.771   2.976  11.713  0.1421 -0.2848  0.3466
 3136SOL    HW121044   0.740   3.052  11.762 -0.5343 -0.9868  0.9945
 3136SOL    HW221045   0.861   3.000  11.689  0.7574 -1.8867  1.1057
 3137SOL     OW21046   1.238   2.909   8.425  0.5327  0.3230 -0.1505
 3137SOL    HW121047   1.287   2.907   8.343  2.4976 -0.0607  1.0149
 3137SOL    HW221048   1.158   2.958   8.408  1.0605  1.5410  0.8529
 3138SOL     OW21049   0.066   2.310   8.899  0.3525 -0.0717 -0.2828
 3138SOL    HW121050   0.073   2.402   8.872 -0.0022  0.2557  0.7301
 3138SOL    HW221051   4.717   2.286   8.882 -0.1640  1.6515  0.0720
 3139SOL     OW21052   2.481   0.034   2.665 -0.0356 -0.3855  0.7946
 3139SOL    HW121053   2.490   0.112   2.610  0.1622 -1.8605 -1.2767
 3139SOL    HW221054   2.450   4.706   2.608  0.9594  0.9768 -1.4430
 3140SOL     OW21055   2.698   3.475   9.011  0.0256  0.1222  0.1124
 3140SOL    HW121056   2.701   3.445   8.921  1.1641  0.4260  0.0438
 3140SOL    HW221057   2.792   3.491   9.023  0.5742 -2.3069 -1.1270
 3141SOL     OW21058   3.870   0.570   8.663 -1.3501  0.3420 -0.0736
 3141SOL    HW121059   3.862   0.478   8.638  0.9688 -0.0742  0.7400
 3141SOL    HW221060   3.790   0.583   8.714 -2.3142  0.2560 -1.5304
 3142SOL     OW21061   0.363   4.703  12.583  0.3278 -0.3743 -0.0873
 3142SOL    HW121062   0.378   4.647  12.659  2.4856 -0.3982 -0.5196
 3142SOL    HW221063   0.447   4.706  12.537 -0.5015  1.2319 -1.4871
 3143SOL     OW21064   1.080   1.992   5.190 -0.0820 -0.2360 -0.3237
 3143SOL    HW121065   1.033   1.909   5.186  0.2433 -0.3366 -2.1525
 3143SOL    HW221066   1.014   2.061   5.194  2.5897  2.3188 -0.0077
 3144SOL     OW21067   1.944   0.799  16.041 -0.6631  0.1585 -0.2831
 3144SOL    HW121068   2.006   0.801  16.113 -0.0779  0.7167 -0.8045
 3144SOL    HW221069   1.911   0.889  16.043 -3.5200 -0.9054  1.6148
 3145SOL     OW21070   3.995   2.030   5.109  0.0474 -0.0527  0.1229
 3145SOL    HW121071   3.997   2.102   5.173 -3.2170 -0.3926  0.6302
 3145SOL    HW221072   3.966   1.949   5.151 -1.5646  1.0560  1.1727
 3146SOL     OW21073   1.518   2.614   4.414  0.9619  0.7784  0.1119
 3146SOL    HW121074   1.587   2.593   4.351  1.1189  3.7325 -0.6662
 3146SOL    HW221075   1.438   2.597   4.363  0.6314 -3.0789  1.9374
 3147SOL     OW21076   4.091   2.736  13.517 -0.2518 -0.1129  0.2113
 3147SOL    HW121077   4.050   2.740  13.603  1.3621  0.4831  0.9571
 3147SOL    HW221078   4.141   2.818  13.525 -1.2024  0.5157 -0.3563
 3148SOL     OW21079   4.179   2.873   5.477  0.2419  0.5253 -0.1222
 3148SOL    HW121080   4.118   2.880   5.551 -0.0196 -1.0543 -0.1898
 3148SOL    HW221081   4.141   2.939   5.419 -2.1045 -0.3987  0.3671
 3149SOL     OW21082   0.592   2.142   1.408  0.3002  0.3559 -0.0533
 3149SOL    HW121083   0.593   2.067   1.468  0.7163 -0.4572 -1.0893
 3149SOL    HW221084   0.634   2.205   1.467 -1.2159  0.9418  0.4104
 3150SOL     OW21085   1.675   3.396  13.625  0.1044 -0.0081 -0.4875
 3150SOL    HW121086   1.645   3.470  13.677  0.4696 -0.6274  0.6033
 3150SOL    HW221087   1.604   3.393  13.561 -1.4953  0.7324  1.2599
 3151SOL     OW21088   3.311   2.565   4.424  0.2690  0.2967 -0.3263
 3151SOL    HW121089   3.344   2.476   4.410  2.6388  1.0241  0.6492
 3151SOL    HW221090   3.377   2.611   4.372  1.6000  1.3192  2.2893
 3152SOL     OW21091   0.883   4.322  15.566  0.5403  0.3038  0.2570
 3152SOL    HW121092   0.951   4.276  15.615  0.8291  2.7555  2.1429
 3152SOL    HW221093   0.912   4.413  15.568  0.7275  0.2766 -1.3850
 3153SOL     OW21094   1.357   0.819   5.845 -0.1108  0.2127 -0.2790
 3153SOL    HW121095   1.267   0.806   5.814 -0.4760 -0.9729  1.2818
 3153SOL    HW221096   1.400   0.734   5.847  0.4948  0.5724  1.2753
 3154SOL     OW21097   1.371   1.774   4.449 -0.3111  0.0108 -0.3432
 3154SOL    HW121098   1.343   1.805   4.535  1.1289 -0.9021  0.4554
 3154SOL    HW221099   1.288   1.766   4.403  0.0823  1.0225 -1.2073
 3155SOL     OW21100   2.469   0.146  15.241 -0.3084  0.1275  0.0304
 3155SOL    HW121101   2.492   0.061  15.202  0.8154  0.0373  0.8848
 3155SOL    HW221102   2.414   0.122  15.316  0.9439 -0.4234  0.7830
 3156SOL     OW21103   1.295   2.356  15.602  0.5322 -0.4032  0.1010
 3156SOL    HW121104   1.354   2.332  15.530 -0.2113  0.5594 -0.8137
 3156SOL    HW221105   1.219   2.389  15.555 -0.0667  1.0972  2.1181
 3157SOL     OW21106   0.809   3.569   8.246  0.4570  0.3077 -0.3984
 3157SOL    HW121107   0.810   3.636   8.177 -1.8740  0.2361 -0.5018
 3157SOL    HW221108   0.835   3.626   8.318  0.7329 -0.6367  0.2538
 3158SOL     OW21109   3.186   3.389   5.962 -0.1859 -0.8758 -0.4590
 3158SOL    HW121110   3.154   3.348   6.042 -3.1376 -0.9877 -1.6800
 3158SOL    HW221111   3.129   3.466   5.962  1.7308  0.5543  1.7294
 3159SOL     OW21112   4.434   0.839  12.082  0.2733  0.1089 -0.0605
 3159SOL    HW121113   4.499   0.796  12.137  0.0238 -0.0900  0.0802
 3159SOL    HW221114   4.476   0.923  12.061  1.8711 -0.5292  0.6509
 3160SOL     OW21115   2.583   3.072   2.202 -0.0091  0.2917 -0.1881
 3160SOL    HW121116   2.618   3.160   2.185  2.1304 -0.1597  1.8041
 3160SOL    HW221117   2.490   3.085   2.182  0.3960  1.8883 -1.0655
 3161SOL     OW21118   3.778   4.248   4.709 -0.1937  0.0221  0.2847
 3161SOL    HW121119   3.797   4.312   4.641 -3.3790 -0.2436 -0.8345
 3161SOL    HW221120   3.769   4.170   4.655 -2.0080  1.7755 -1.9309
 3162SOL     OW21121   0.967   0.717  11.199  0.0026  0.4698 -0.1788
 3162SOL    HW121122   0.890   0.696  11.252 -0.3119 -1.8503 -1.5696
 3162SOL    HW221123   1.022   0.640  11.215 -2.9171 -1.3375  1.0903
 3163SOL     OW21124   3.541   4.578   6.856 -0.3336  0.0632 -0.4061
 3163SOL    HW121125   3.554   4.505   6.795 -2.5090 -0.8183  0.1729
 3163SOL    HW221126   3.542   4.534   6.940 -1.1570 -0.1093 -0.4777
 3164SOL     OW21127   2.094   4.535   0.490 -0.5859 -0.2585 -0.8882
 3164SOL    HW121128   2.005   4.571   0.490 -0.3092  0.4206 -0.3863
 3164SOL    HW221129   2.102   4.528   0.585 -2.2874 -0.0223 -0.7166
 3165SOL     OW21130   4.075   4.395   2.366 -0.2361 -0.4503  0.4223
 3165SOL    HW121131   4.151   4.439   2.328  0.1830 -1.3871  0.1753
 3165SOL    HW221132   4.100   4.400   2.458 -2.6698 -1.0578  1.1147
 3166SOL     OW21133   0.740   3.495   0.081  0.7859 -0.0515  0.0238
 3166SOL    HW121134   0.730   3.575   0.131 -1.0631 -1.2060  1.4831
 3166SOL    HW221135   0.667   3.495   0.019  2.8092  1.1460 -2.3654
 3167SOL     OW21136   2.277   0.014   8.091  0.1424  0.2961 -0.1184
 3167SOL    HW121137   2.351   4.712   8.050  1.0353  1.6022  0.0754
 3167SOL    HW221138   2.242   0.058   8.013 -0.6984 -0.6359 -0.2749
 3168SOL     OW21139   2.988   2.683   4.968  0.0772  0.0922  0.5414
 3168SOL    HW121140   3.077   2.662   4.942  1.0843  1.5159  2.8004
 3168SOL    HW221141   2.970   2.775   4.946  1.2347 -0.3271 -2.1222
 3169SOL     OW21142   4.284   3.736   7.217  0.0079 -0.7612  0.8815
 3169SOL    HW121143   4.373   3.763   7.241 -0.0245 -0.5539  0.7643
 3169SOL    HW221144   4.271   3.784   7.135 -0.7101 -1.0967  0.7972
 3170SOL     OW21145   1.790   1.712   5.653 -0.1413 -0.4529 -0.0032
 3170SOL    HW121146   1.855   1.748   5.593 -2.0218  0.4898 -1.5101
 3170SOL    HW221147   1.705   1.729   5.612  0.3465  0.8074 -0.5126
 3171SOL     OW21148   4.702   0.670   5.337  0.7232  0.6115 -0.4415
 3171SOL    HW121149   4.649   0.738   5.295 -0.0478  0.3956  0.1614
 3171SOL    HW221150   0.035   0.723   5.359  0.1939  1.5414 -0.8350
 3172SOL     OW21151   1.763   4.707   3.802 -0.6755  0.1856 -0.6530
 3172SOL    HW121152   1.761   0.059   3.785  0.1791 -0.0343 -1.9890
 3172SOL    HW221153   1.801   4.685   3.717 -0.7786  0.2294 -0.7102
 3173SOL     OW21154   4.044   1.639   9.100  0.0314 -0.5880  0.2578
 3173SOL    HW121155   3.991   1.637   9.180 -0.2887  0.9230  0.1014
 3173SOL    HW221156   3.999   1.579   9.040 -1.6527 -1.3200  2.2827
 3174SOL     OW21157   3.839   4.275   8.841 -0.3910  0.0784 -0.3516
 3174SOL    HW121158   3.915   4.240   8.794 -2.3592 -0.8860 -2.7876
 3174SOL    HW221159   3.864   4.258   8.931  0.2298 -2.2788 -0.9724
 3175SOL     OW21160   4.660   3.293  11.142 -0.0289 -0.0180 -0.2442
 3175SOL    HW121161   4.575   3.259  11.170  0.9875 -1.2301  1.3411
 3175SOL    HW221162   4.652   3.306  11.047 -2.5259 -0.0916 -0.0632
 3176SOL     OW21163   1.823   3.667   5.616 -0.0568 -0.0991 -0.1929
 3176SOL    HW121164   1.740   3.714   5.618  0.8565  1.5932 -1.4462
 3176SOL    HW221165   1.823   3.645   5.523 -1.8295 -0.2848 -0.1515
 3177SOL     OW21166   1.492   1.119   6.167 -0.1143 -0.0514  0.0306
 3177SOL    HW121167   1.401   1.134   6.192 -0.7223 -1.6096 -1.2705
 3177SOL    HW221168   1.522   1.146   6.254  1.3733  0.3660 -0.6135
 3178SOL     OW21169   2.849   3.500   1.628 -0.2622 -0.2005 -0.4290
 3178SOL    HW121170   2.825   3.414   1.594 -0.6522  0.5058 -1.9317
 3178SOL    HW221171   2.759   3.532   1.637 -0.2081  0.1251 -1.0105
 3179SOL     OW21172   1.074   1.229   5.621  0.1989 -0.8854  0.3967
 3179SOL    HW121173   1.111   1.280   5.549  0.2404 -2.9804 -1.0630
 3179SOL    HW221174   1.132   1.254   5.694 -0.8319  1.0237  0.5702
 3180SOL     OW21175   2.624   0.870  12.434  0.1457 -0.2669 -0.5241
 3180SOL    HW121176   2.583   0.862  12.520 -0.1280 -4.6459 -1.0504
 3180SOL    HW221177   2.559   0.918  12.383 -0.5185  0.5637  1.0980
 3181SOL     OW21178   4.266   4.652   4.531 -0.0752  0.5056 -0.5725
 3181SOL    HW121179   4.253   4.734   4.578  0.4404 -0.1746  0.7637
 3181SOL    HW221180   4.181   4.608   4.542  1.5971 -1.9605  2.4976
 3182SOL     OW21181   4.389   0.704   6.663  0.2368 -0.5335 -0.3134
 3182SOL    HW121182   4.327   0.661   6.723  1.1616 -1.6995 -0.1781
 3182SOL    HW221183   4.471   0.671   6.700  1.1247 -0.4281 -2.1759
 3183SOL     OW21184   2.369   3.099  15.990  0.3179 -0.5013  0.5518
 3183SOL    HW121185   2.440   3.053  16.034  0.6642  0.5712  1.1106
 3183SOL    HW221186   2.416   3.150  15.924  0.2560  0.1970  1.0407
 3184SOL     OW21187   4.047   1.247   7.427  1.2789 -0.5799 -0.3145
 3184SOL    HW121188   3.997   1.165   7.430 -1.0383  0.8720  0.4085
 3184SOL    HW221189   4.099   1.230   7.506 -1.7990 -0.9181  1.6092
 3185SOL     OW21190   2.916   3.537  13.412 -0.2119 -0.4504 -0.4730
 3185SOL    HW121191   2.824   3.559  13.424 -0.3671 -0.3308 -1.9213
 3185SOL    HW221192   2.919   3.553  13.318  0.6393 -0.8805 -0.5162
 3186SOL     OW21193   1.079   3.321   6.617 -0.1561  0.3224 -0.0537
 3186SOL    HW121194   1.158   3.266   6.622  1.7530  2.9986 -0.7233
 3186SOL    HW221195   1.096   3.399   6.670  2.7048 -0.4209  0.1560
 3187SOL     OW21196   2.748   1.506   9.832  0.5101 -0.0170 -0.2946
 3187SOL    HW121197   2.788   1.442   9.773 -0.3388 -0.8925  0.0865
 3187SOL    HW221198   2.812   1.496   9.903  2.9582  2.8381 -2.0752
 3188SOL     OW21199   2.778   4.350   2.207  0.1184 -0.6654 -0.3586
 3188SOL    HW121200   2.787   4.266   2.161  1.3776 -2.1081  2.5492
 3188SOL    HW221201   2.737   4.408   2.143 -1.8510 -0.7985  0.7958
 3189SOL     OW21202   2.763   2.194   4.985  0.0198  0.3307  0.4418
 3189SOL    HW121203   2.741   2.150   5.067  0.3297 -0.6929 -0.0209
 3189SOL    HW221204   2.673   2.207   4.954 -0.0724 -0.6292  0.3038
 3190SOL     OW21205   2.634   2.065   0.035 -0.4970  0.0445 -0.3054
 3190SOL    HW121206   2.685   1.990   0.003 -0.0314 -0.5442  1.8532
 3190SOL    HW221207   2.579   2.089  17.727  0.4651 -0.0866 -1.0493
 3191SOL     OW21208   0.687   3.886  15.543  0.1432 -0.4136  0.1684
 3191SOL    HW121209   0.763   3.828  15.533  0.6023  0.0444  1.0302
 3191SOL    HW221210   0.714   3.967  15.501  2.2565 -1.2826 -0.1409
 3192SOL     OW21211   1.193   0.493   7.778  0.2986  0.4948 -0.0540
 3192SOL    HW121212   1.156   0.543   7.705 -0.2657 -2.7117 -1.9900
 3192SOL    HW221213   1.281   0.478   7.743 -0.2213  1.2603 -1.7114
 3193SOL     OW21214   2.348   3.085   3.363  0.0137  0.0872  0.0412
 3193SOL    HW121215   2.303   3.145   3.423  0.4609  1.4306 -0.9807
 3193SOL    HW221216   2.417   3.138   3.323  0.4651 -0.3510  0.2348
 3194SOL     OW21217   2.552   2.501   1.408 -0.5267 -0.5908 -0.0688
 3194SOL    HW121218   2.538   2.513   1.314  1.7750  2.9870  0.0501
 3194SOL    HW221219   2.621   2.435   1.400 -0.5555 -0.8011  1.4729
 3195SOL     OW21220   1.738   0.293   1.619 -0.1082  0.3976 -0.2362
 3195SOL    HW121221   1.687   0.236   1.676 -1.0568  0.4627 -1.0257
 3195SOL    HW221222   1.697   0.278   1.534 -0.6799 -0.2716  0.1595
 3196SOL     OW21223   0.386   0.810   3.695 -0.1893  0.2591 -0.5467
 3196SOL    HW121224   0.351   0.898   3.686 -0.0079  0.4066  0.2315
 3196SOL    HW221225   0.347   0.758   3.624 -1.1132 -2.2641  1.8168
 3197SOL     OW21226   2.449   2.868   2.811 -0.4957 -0.5950 -0.0515
 3197SOL    HW121227   2.360   2.895   2.834 -0.3488 -1.2959  1.3186
 3197SOL    HW221228   2.439   2.777   2.785 -0.7213 -0.6742  0.3019
 3198SOL     OW21229   2.353   2.893   9.515  0.6015 -0.4635 -0.1060
 3198SOL    HW121230   2.432   2.844   9.538  1.1970  0.1948 -0.6990
 3198SOL    HW221231   2.390   2.982   9.514  2.6085 -1.3041 -1.1156
 3199SOL     OW21232   2.209   1.221   3.738 -0.3618  0.1658  0.2185
 3199SOL    HW121233   2.244   1.208   3.650 -0.6455 -0.5992  0.2210
 3199SOL    HW221234   2.296   1.227   3.778 -1.2593 -0.5150  2.2724
 3200SOL     OW21235   0.305   1.534   9.185  0.7186 -0.3283 -0.4780
 3200SOL    HW121236   0.379   1.555   9.129  0.1686  1.2273 -0.6068
 3200SOL    HW221237   0.321   1.443   9.213  1.5249  0.6008  2.1551
 3201SOL     OW21238   4.456   2.143   8.357  0.1805 -0.1895 -0.4679
 3201SOL    HW121239   4.447   2.237   8.374 -0.1773  0.0653 -2.1395
 3201SOL    HW221240   4.460   2.123   8.451  1.1271 -1.3055 -0.7485
 3202SOL     OW21241   0.934   4.202   8.204  0.8211 -0.2653  0.6787
 3202SOL    HW121242   0.886   4.124   8.179  0.4419 -0.1331  1.0006
 3202SOL    HW221243   0.871   4.270   8.227  0.8542  0.1369 -0.4604
 3203SOL     OW21244   3.130   0.435   0.860  0.1169 -0.2241  0.0597
 3203SOL    HW121245   3.060   0.371   0.845  0.8276 -0.4988 -2.0845
 3203SOL    HW221246   3.197   0.373   0.887  1.3364  0.4267 -1.4478
 3204SOL     OW21247   2.875   0.646   1.290 -0.0155  0.5527 -0.3257
 3204SOL    HW121248   2.791   0.622   1.329  1.3467 -4.4568 -0.4749
 3204SOL    HW221249   2.871   0.593   1.211 -2.4463  0.2443 -0.0021
 3205SOL     OW21250   0.371   1.442  15.382  0.0151  0.3472  0.5802
 3205SOL    HW121251   0.389   1.378  15.451 -0.6145 -1.0090 -0.4965
 3205SOL    HW221252   0.409   1.524  15.414  1.0947 -0.1378  0.5609
 3206SOL     OW21253   4.251   3.937   4.662 -0.2586 -0.3943 -0.1125
 3206SOL    HW121254   4.167   3.898   4.683 -0.2878 -1.0213 -1.3864
 3206SOL    HW221255   4.213   4.024   4.650  3.4421  1.2921  0.3514
 3207SOL     OW21256   2.756   4.708   8.433  0.0773  0.2115 -0.1638
 3207SOL    HW121257   2.779   0.041   8.487 -1.2675 -1.1358  2.2916
 3207SOL    HW221258   2.822   4.702   8.364 -0.3114 -3.1200 -0.2403
 3208SOL     OW21259   0.701   1.497   8.030 -0.1538  0.1479 -0.2508
 3208SOL    HW121260   0.667   1.441   7.961  0.8474 -0.6914 -0.0668
 3208SOL    HW221261   0.788   1.519   7.997  0.3042  1.8265  2.0681
 3209SOL     OW21262   4.686   1.628   6.277  0.2981  0.2014 -0.5683
 3209SOL    HW121263   4.713   1.716   6.304 -1.3665  0.1502  1.2031
 3209SOL    HW221264   0.035   1.601   6.268  1.1449  1.7434  3.6304
 3210SOL     OW21265   0.681   0.364   0.839  0.0731  0.3791 -0.2085
 3210SOL    HW121266   0.608   0.351   0.900  0.1569  1.9328  0.2377
 3210SOL    HW221267   0.752   0.399   0.893 -0.1147 -1.2044  1.0601
 3211SOL     OW21268   0.921   3.131  11.376 -0.0025  0.0478  0.0165
 3211SOL    HW121269   0.842   3.134  11.431 -0.6229  1.0283 -0.9132
 3211SOL    HW221270   0.959   3.048  11.402 -0.9969 -0.1652  0.8110
 3212SOL     OW21271   2.762   3.488   2.793  0.3283  0.0824 -0.8650
 3212SOL    HW121272   2.842   3.436   2.792 -0.0658 -0.5391 -0.4024
 3212SOL    HW221273   2.789   3.578   2.812  0.4531 -0.1003 -0.2099
 3213SOL     OW21274   2.420   0.333  12.037 -0.6367 -0.1740  0.4841
 3213SOL    HW121275   2.435   0.268  12.106 -1.0942 -0.6085  0.1743
 3213SOL    HW221276   2.509   0.362  12.017 -0.7692 -0.5953 -0.7038
 3214SOL     OW21277   3.513   0.626   7.144 -0.4163 -0.0600  0.3721
 3214SOL    HW121278   3.523   0.721   7.136 -0.1604 -0.1787 -0.6236
 3214SOL    HW221279   3.418   0.626   7.133 -0.1946 -1.6223 -1.6109
 3215SOL     OW21280   3.018   3.082  15.637 -0.1634  0.1247 -0.9020
 3215SOL    HW121281   3.033   3.134  15.559  0.1874  1.2221 -0.1064
 3215SOL    HW221282   3.017   2.998  15.591  1.5426 -0.0175 -0.6945
 3216SOL     OW21283   3.311   2.316   7.813  0.7048  0.0661 -0.1490
 3216SOL    HW121284   3.362   2.397   7.804  0.6100  0.4947  2.9538
 3216SOL    HW221285   3.283   2.301   7.723 -1.2594 -0.7985  0.5975
 3217SOL     OW21286   4.094   0.399  14.747 -0.4096 -0.2148 -0.0495
 3217SOL    HW121287   4.181   0.389  14.709 -0.9455 -2.4072 -0.6736
 3217SOL    HW221288   4.042   0.456  14.690  0.0990 -0.3693 -0.6722
 3218SOL     OW21289   2.734   3.341  11.941  0.1185 -0.7898  0.0544
 3218SOL    HW121290   2.798   3.404  11.909 -0.0281 -0.5001  0.3358
 3218SOL    HW221291   2.742   3.270  11.878  0.2674 -0.6455 -0.0856
 3219SOL     OW21292   1.691   3.007   8.730  0.1163  0.3328  0.3265
 3219SOL    HW121293   1.687   3.102   8.718 -0.1860  0.1862 -0.7715
 3219SOL    HW221294   1.687   2.980   8.638  0.8112 -0.5749  0.5613
 3220SOL     OW21295   4.604   1.904   8.884 -0.1208  0.4288 -0.4134
 3220SOL    HW121296   4.681   1.947   8.919 -0.6868  2.2807 -1.4343
 3220SOL    HW221297   4.522   1.947   8.909 -0.3900 -1.8589  2.6010
 3221SOL     OW21298   0.311   1.367   4.962  0.0518  0.2085  0.5696
 3221SOL    HW121299   0.405   1.348   4.965  0.0607  0.2510  0.5579
 3221SOL    HW221300   0.268   1.282   4.972  1.1648 -0.4954 -0.6157
 3222SOL     OW21301   0.316   0.723   1.464 -0.0974 -0.3423  0.3404
 3222SOL    HW121302   0.378   0.763   1.526  1.6697  0.9290 -2.2127
 3222SOL    HW221303   0.244   0.703   1.523 -1.3389  0.9332 -0.7365
 3223SOL     OW21304   1.394   2.685   1.922  0.2175 -0.0691 -0.5043
 3223SOL    HW121305   1.351   2.625   1.861  1.1097 -0.1382 -1.0687
 3223SOL    HW221306   1.418   2.630   1.996 -1.2033 -0.5870 -0.4223
 3224SOL     OW21307   2.364   3.974  15.535  0.1026 -0.0715  0.0124
 3224SOL    HW121308   2.388   3.931  15.452  1.6260  0.3654  0.2373
 3224SOL    HW221309   2.333   3.895  15.580 -1.0481 -0.1910 -0.9720
 3225SOL     OW21310   2.561   0.856  16.890 -0.3157  0.2890  0.0560
 3225SOL    HW121311   2.539   0.872  16.798 -1.5504 -0.9106  0.1441
 3225SOL    HW221312   2.550   0.942  16.932 -2.6014 -1.1928  2.4722
 3226SOL     OW21313   4.702   3.579   8.139  0.2148 -0.2196  0.0426
 3226SOL    HW121314   4.729   3.592   8.048 -0.6796 -0.3862 -0.2470
 3226SOL    HW221315   4.607   3.580   8.131  0.0828 -3.6506  1.1388
 3227SOL     OW21316   0.054   2.365   6.506 -0.3567  0.1084 -0.0708
 3227SOL    HW121317   0.145   2.337   6.516  0.0434  1.1147 -0.9070
 3227SOL    HW221318   0.065   2.410   6.422 -1.5841  0.8567  0.1870
 3228SOL     OW21319   0.053   2.857   5.585  0.3537 -0.3228  0.2019
 3228SOL    HW121320   0.043   2.951   5.576  1.4544 -0.2393 -0.2205
 3228SOL    HW221321   4.718   2.832   5.535  1.2955 -0.3689 -1.2236
 3229SOL     OW21322   2.559   2.509   8.201 -0.0025  0.0367 -0.7055
 3229SOL    HW121323   2.512   2.426   8.191 -0.8572  0.6094 -1.4336
 3229SOL    HW221324   2.651   2.485   8.190  0.2403  0.9980 -0.8353
 3230SOL     OW21325   4.388   2.535   2.767 -0.2511 -0.0550  0.4437
 3230SOL    HW121326   4.327   2.556   2.696 -0.8051 -0.5949  0.7596
 3230SOL    HW221327   4.371   2.595   2.840  0.8816  0.2977  0.4183
 3231SOL     OW21328   4.710   2.390   7.044 -0.0586 -0.2055 -0.0895
 3231SOL    HW121329   4.634   2.433   7.082 -1.6721 -0.9310 -2.4345
 3231SOL    HW221330   4.676   2.321   6.986  0.3752 -0.7828  0.3458
 3232SOL     OW21331   0.658   1.565   6.472 -0.2232 -0.0954  0.0250
 3232SOL    HW121332   0.718   1.626   6.431 -0.6822 -0.3393 -1.0138
 3232SOL    HW221333   0.614   1.527   6.396  0.0775  0.8683 -0.6200
 3233SOL     OW21334   1.911   3.866   6.814  0.0330 -0.4711 -0.4843
 3233SOL    HW121335   1.819   3.840   6.818  0.2082 -1.2419 -1.5111
 3233SOL    HW221336   1.913   3.957   6.844 -0.0871 -0.1051 -1.5920
 3234SOL     OW21337   0.252   0.864  12.934 -0.2711  0.1223 -0.5767
 3234SOL    HW121338   0.167   0.828  12.959  0.1699  0.6104  1.5754
 3234SOL    HW221339   0.246   0.916  12.854  0.7434  0.3581 -0.4927
 3235SOL     OW21340   3.578   0.941   8.012  0.0057 -0.4231 -0.5505
 3235SOL    HW121341   3.668   0.943   7.979 -0.0019  0.5215 -0.5293
 3235SOL    HW221342   3.538   0.886   7.944  1.6349 -0.2644 -1.6435
 3236SOL     OW21343   1.939   1.026   4.565 -0.0052  0.4145 -0.4029
 3236SOL    HW121344   1.948   0.966   4.490 -0.3354 -2.4430  1.8492
 3236SOL    HW221345   1.914   1.111   4.529 -0.7288 -0.5984 -2.3283
 3237SOL     OW21346   2.993   4.652  15.364 -0.0806  0.1304  0.1590
 3237SOL    HW121347   3.019   4.590  15.432 -1.0076  1.1691  1.4599
 3237SOL    HW221348   3.031   4.733  15.396  0.1536  0.1442 -0.1494
 3238SOL     OW21349   1.969   3.033   4.986  0.2708  0.0455 -0.2748
 3238SOL    HW121350   2.055   3.063   4.955  1.4241 -0.7892  2.1171
 3238SOL    HW221351   1.998   2.999   5.070 -1.6539 -1.9882 -0.4507
 3239SOL     OW21352   1.036   1.996   4.218 -0.5229 -0.4341 -0.0351
 3239SOL    HW121353   1.089   1.917   4.224  0.0599 -0.1068 -0.8971
 3239SOL    HW221354   1.094   2.056   4.172 -0.3522  1.7158  3.0058
 3240SOL     OW21355   0.260   0.380   2.741  0.6855 -0.3700  0.2494
 3240SOL    HW121356   0.167   0.399   2.758  0.0197 -1.5514 -2.0705
 3240SOL    HW221357   0.276   0.341   2.827  2.4397  0.0316  0.0928
 3241SOL     OW21358   2.224   1.586   0.780 -0.1349  0.1638  0.0285
 3241SOL    HW121359   2.154   1.538   0.825 -0.4778  0.1970 -0.4718
 3241SOL    HW221360   2.273   1.631   0.849  3.1433 -0.8740 -1.6206
 3242SOL     OW21361   3.687   1.001   7.325 -0.2624  0.0732 -0.4872
 3242SOL    HW121362   3.650   0.929   7.274  1.1066 -0.8980 -0.0835
 3242SOL    HW221363   3.612   1.060   7.334 -1.0706 -1.1208  0.6551
 3243SOL     OW21364   0.511   3.752   7.963  0.2392 -0.4794 -0.4380
 3243SOL    HW121365   0.452   3.777   8.034 -0.0663 -1.5003 -0.3326
 3243SOL    HW221366   0.591   3.726   8.009 -0.8170 -1.3429  0.9202
 3244SOL     OW21367   1.210   4.581   5.988 -0.1971 -0.3180 -0.8799
 3244SOL    HW121368   1.268   4.552   5.919 -0.3335 -0.3580 -0.9778
 3244SOL    HW221369   1.129   4.582   5.937 -0.4760 -1.8715 -0.4674
 3245SOL     OW21370   2.174   2.136  12.574  0.2378  0.1131  0.2337
 3245SOL    HW121371   2.161   2.050  12.533  3.3465  0.4256 -1.4470
 3245SOL    HW221372   2.096   2.162  12.622  1.4071 -0.1205  2.2540
 3246SOL     OW21373   3.844   3.321   8.201 -0.0179 -0.4528  0.1962
 3246SOL    HW121374   3.894   3.387   8.154 -1.1715 -0.4024 -0.9519
 3246SOL    HW221375   3.810   3.270   8.128 -2.2456  0.0395  0.8936
 3247SOL     OW21376   2.143   0.059   7.447 -0.0966  0.1666 -0.0697
 3247SOL    HW121377   2.215   0.030   7.503 -0.6250 -0.4559  0.2861
 3247SOL    HW221378   2.180   0.077   7.361  1.2376 -0.6536  0.3347
 3248SOL     OW21379   4.548   4.584   8.143  0.2837  0.1071  0.1194
 3248SOL    HW121380   4.499   4.664   8.124 -1.1883 -0.3539  1.9734
 3248SOL    HW221381   4.481   4.546   8.200  0.6283  0.1551  0.5601
 3249SOL     OW21382   0.201   0.586  13.578 -0.1450  0.4538  0.4129
 3249SOL    HW121383   0.239   0.504  13.545 -0.3862  1.1043 -1.4930
 3249SOL    HW221384   0.227   0.636  13.500  1.1850 -0.0731  0.5158
 3250SOL     OW21385   1.904   2.925   4.505 -0.0195  0.5557  0.2477
 3250SOL    HW121386   1.855   2.901   4.426 -1.1197 -2.9216  1.9505
 3250SOL    HW221387   1.873   2.856   4.564 -0.8250  2.1169  1.6504
 3251SOL     OW21388   3.358   2.409  16.944  0.1994  0.0698 -0.1383
 3251SOL    HW121389   3.302   2.364  17.008  1.4030 -2.1904 -0.6625
 3251SOL    HW221390   3.384   2.491  16.986  0.8526 -0.9217  1.4376
 3252SOL     OW21391   4.584   2.102   4.728 -0.1955 -0.0012  0.3083
 3252SOL    HW121392   4.568   2.176   4.670  1.9377 -0.0740 -0.3784
 3252SOL    HW221393   4.495   2.083   4.757  0.8619 -0.5373  3.2034
 3253SOL     OW21394   0.662   4.206  10.731 -0.8533  0.3151  0.3097
 3253SOL    HW121395   0.694   4.132  10.679 -0.0077  0.4159  0.6932
 3253SOL    HW221396   0.693   4.175  10.816 -0.7899  0.5189  0.3605
 3254SOL     OW21397   3.988   1.660  11.977 -0.2556 -0.0589 -0.4617
 3254SOL    HW121398   4.015   1.715  12.051 -0.7201 -0.4231 -0.0240
 3254SOL    HW221399   3.892   1.668  11.976 -0.2355  0.4687  1.7413
 3255SOL     OW21400   1.004   0.441   3.251  0.1820 -0.2330 -0.5109
 3255SOL    HW121401   1.093   0.473   3.234  0.2140 -0.0822 -0.0610
 3255SOL    HW221402   0.988   0.404   3.164  1.8393  2.1447 -1.8211
 3256SOL     OW21403   3.209   4.237   2.264 -0.4124  0.1283 -0.2879
 3256SOL    HW121404   3.222   4.149   2.299  1.6206  0.7550  0.5604
 3256SOL    HW221405   3.148   4.219   2.193  0.2999  0.5184 -0.9939
 3257SOL     OW21406   0.669   1.912   7.809  0.5423 -0.8134  0.0747
 3257SOL    HW121407   0.699   2.003   7.800  4.0463 -1.9350  0.2500
 3257SOL    HW221408   0.737   1.875   7.752  0.0377 -3.3377  1.1355
 3258SOL     OW21409   4.407   2.973  16.554  0.2331  0.5357  0.3637
 3258SOL    HW121410   4.347   2.947  16.483  0.6567 -2.3034  1.0483
 3258SOL    HW221411   4.447   3.051  16.516  0.2425  0.7895  0.9038
 3259SOL     OW21412   1.813   2.638  12.146  0.4052  0.8823 -0.0105
 3259SOL    HW121413   1.724   2.607  12.164  0.3642  1.0222  0.0302
 3259SOL    HW221414   1.830   2.573  12.078  0.5798  1.5324 -0.5930
 3260SOL     OW21415   2.116   1.654  10.481 -0.0957 -0.3587 -0.1244
 3260SOL    HW121416   2.089   1.722  10.544 -1.1028 -1.3298  0.4900
 3260SOL    HW221417   2.035   1.604  10.480 -0.0518 -0.4187 -0.5844
 3261SOL     OW21418   1.590   0.983   2.184 -0.0344 -0.5199 -0.1944
 3261SOL    HW121419   1.497   0.983   2.209  0.1704 -1.9898  0.5413
 3261SOL    HW221420   1.582   0.988   2.089  0.5749 -1.2062 -0.2835
 3262SOL     OW21421   3.614   0.763   2.435  0.3799  0.4430  0.7267
 3262SOL    HW121422   3.588   0.673   2.455  0.3039  0.0991 -0.8402
 3262SOL    HW221423   3.621   0.758   2.339 -1.7558  0.4663  0.5678
 3263SOL     OW21424   3.991   4.258   6.908 -0.5376 -0.1233  0.6894
 3263SOL    HW121425   4.034   4.344   6.911  2.0126 -1.3375 -0.6801
 3263SOL    HW221426   3.958   4.262   6.819 -0.4452 -0.3081  0.6468
 3264SOL     OW21427   2.969   3.880  15.306 -0.0574  0.4701  0.2680
 3264SOL    HW121428   2.945   3.801  15.355 -2.6109  0.2791 -1.2765
 3264SOL    HW221429   3.053   3.854  15.268 -0.9978 -0.6427 -1.0627
 3265SOL     OW21430   1.108   0.581  16.695  0.1702 -0.3526 -0.2156
 3265SOL    HW121431   1.191   0.541  16.722 -0.0201  1.5304  3.1163
 3265SOL    HW221432   1.045   0.541  16.755 -0.2258 -0.3511 -0.6354
 3266SOL     OW21433   0.922   2.608   2.470 -0.7009  0.7932  0.4091
 3266SOL    HW121434   0.850   2.593   2.531 -1.5146 -0.5875 -0.9066
 3266SOL    HW221435   0.928   2.703   2.466 -1.7649  0.8903  1.0550
 3267SOL     OW21436   2.440   2.619   3.755 -0.0859  0.6450  0.1004
 3267SOL    HW121437   2.370   2.592   3.695  0.0221  1.2105 -0.2818
 3267SOL    HW221438   2.428   2.556   3.826  1.7275 -0.5549 -0.6583
 3268SOL     OW21439   1.783   2.143   3.833  0.0364 -0.1071  0.0629
 3268SOL    HW121440   1.791   2.238   3.839 -0.2409 -0.0155 -1.0826
 3268SOL    HW221441   1.839   2.119   3.759  2.7321  2.9253  1.1589
 3269SOL     OW21442   0.750   3.712   9.167  0.0053  0.4869  0.1922
 3269SOL    HW121443   0.827   3.729   9.114  0.0023 -0.3143 -0.0667
 3269SOL    HW221444   0.780   3.642   9.225  1.0698  1.0390  0.2923
 3270SOL     OW21445   3.008   3.044   8.560  0.0372  0.1466  0.4890
 3270SOL    HW121446   3.070   3.100   8.605  0.8328 -1.2003  1.0588
 3270SOL    HW221447   3.044   2.957   8.578 -0.8017 -0.1436  0.7978
 3271SOL     OW21448   0.980   0.551   4.801 -0.0032 -0.2894  0.8059
 3271SOL    HW121449   1.014   0.580   4.716 -3.3433 -2.0835 -1.1232
 3271SOL    HW221450   0.944   0.465   4.781 -0.8454  0.0539  0.8493
 3272SOL     OW21451   3.292   1.453   1.190  0.2006 -1.0523  0.1456
 3272SOL    HW121452   3.199   1.462   1.209  0.0968 -0.7486 -0.5130
 3272SOL    HW221453   3.332   1.446   1.277  0.5137  0.7350  0.1385
 3273SOL     OW21454   0.235   2.633   2.486  0.5795 -0.2691 -0.5160
 3273SOL    HW121455   0.242   2.703   2.420 -2.7405  1.2210  0.7400
 3273SOL    HW221456   0.280   2.566   2.433  0.0192  0.8841 -2.4490
 3274SOL     OW21457   2.506   1.460   5.730 -0.0351  0.0245 -0.0662
 3274SOL    HW121458   2.520   1.391   5.666 -3.4102 -0.7251  0.0119
 3274SOL    HW221459   2.452   1.522   5.682 -0.0455  0.6530  0.7532
 3275SOL     OW21460   1.169   1.282   6.229  0.0535  0.5094  0.0652
 3275SOL    HW121461   1.155   1.376   6.218 -0.1414  0.3441 -1.0424
 3275SOL    HW221462   1.093   1.242   6.188  0.9853 -0.0667 -1.1284
 3276SOL     OW21463   3.332   3.154   8.398  0.4761  0.1063  0.4413
 3276SOL    HW121464   3.270   3.224   8.380  0.6903  0.1094 -0.3043
 3276SOL    HW221465   3.385   3.150   8.318  0.8530  1.8328  0.6166
 3277SOL     OW21466   3.798   3.635   2.582  0.2130 -0.4748 -0.5425
 3277SOL    HW121467   3.858   3.580   2.532  0.1858 -1.2487  0.2833
 3277SOL    HW221468   3.779   3.579   2.657 -0.4934 -0.6297 -0.8369
 3278SOL     OW21469   3.993   4.588   4.480  0.1238  0.2262  0.6854
 3278SOL    HW121470   3.967   4.591   4.572  0.1670 -1.1783  0.7429
 3278SOL    HW221471   3.916   4.628   4.439 -1.5724 -0.7080  2.9839
 3279SOL     OW21472   1.972   1.881   5.461 -0.8394 -0.4894 -0.4031
 3279SOL    HW121473   1.970   1.921   5.548  2.7493 -1.1362 -0.0334
 3279SOL    HW221474   1.935   1.952   5.410 -0.9386  0.7495  1.4000
 3280SOL     OW21475   2.989   2.990  16.167  0.5264  0.0040 -0.3099
 3280SOL    HW121476   3.021   3.029  16.249 -1.0569  0.8569 -0.0785
 3280SOL    HW221477   2.930   2.922  16.199  1.4860 -0.1924  1.0243
 3281SOL     OW21478   3.997   1.285   6.232  0.0067  0.7514  0.4288
 3281SOL    HW121479   4.001   1.266   6.326  2.8144  0.9940  0.3580
 3281SOL    HW221480   4.007   1.195   6.199  1.8861  0.5936  1.4533
 3282SOL     OW21481   2.920   4.648   3.127  0.1394  0.3272  0.1778
 3282SOL    HW121482   2.909   4.644   3.032  0.0081 -0.1399  0.2159
 3282SOL    HW221483   2.956   4.736   3.142  0.3997  0.4999 -1.4853
 3283SOL     OW21484   1.995   0.854  10.499 -0.1255  0.1887  0.3869
 3283SOL    HW121485   2.016   0.904  10.578 -0.2057 -0.5459  0.8746
 3283SOL    HW221486   1.951   0.779  10.539 -1.0449 -0.8568 -2.6512
 3284SOL     OW21487   3.717   2.946   9.202 -0.3537 -0.3575  0.2407
 3284SOL    HW121488   3.718   3.039   9.181 -0.3103 -0.8783 -2.0297
 3284SOL    HW221489   3.805   2.938   9.239 -0.9491 -0.0902  1.6917
 3285SOL     OW21490   1.011   0.712   0.562 -0.1905  0.0546 -0.1158
 3285SOL    HW121491   1.085   0.736   0.619 -0.0857  2.7099 -1.3665
 3285SOL    HW221492   1.028   0.773   0.490 -0.5502 -1.4138 -1.4556
 3286SOL     OW21493   1.521   2.492   9.347  0.8765  0.1274  0.2557
 3286SOL    HW121494   1.608   2.454   9.342  1.3246  0.9904  1.5440
 3286SOL    HW221495   1.528   2.587   9.351 -2.7269  0.4635 -1.4806
 3287SOL     OW21496   0.054   1.443  10.551 -0.1068 -0.0105 -0.8236
 3287SOL    HW121497   0.041   1.402  10.637  0.1025 -0.7863 -1.1609
 3287SOL    HW221498   0.021   1.532  10.566 -1.4207 -0.6021 -0.2309
 3288SOL     OW21499   3.574   0.845  15.043 -0.0001  0.4886  0.0864
 3288SOL    HW121500   3.512   0.772  15.047  0.0413  0.3281 -1.8601
 3288SOL    HW221501   3.555   0.887  14.959 -0.7192  1.4602  0.7314
 3289SOL     OW21502   1.936   2.741   8.268 -0.0761  0.7734  0.2122
 3289SOL    HW121503   1.881   2.767   8.342  1.1172  0.8298  1.0679
 3289SOL    HW221504   1.873   2.681   8.228  0.4724  0.0044  0.5033
 3290SOL     OW21505   2.564   4.300   7.603 -0.1206  0.2293 -0.1978
 3290SOL    HW121506   2.625   4.251   7.658 -1.5423  1.5938  2.6344
 3290SOL    HW221507   2.624   4.343   7.542 -0.3267  1.1359  0.2335
 3291SOL     OW21508   0.392   1.643   3.400  0.1649 -0.3809 -0.1063
 3291SOL    HW121509   0.458   1.578   3.423 -0.5243 -0.7817  0.7244
 3291SOL    HW221510   0.307   1.599   3.405 -0.7416  1.3848  0.3279
 3292SOL     OW21511   4.654   2.115   3.370  0.5609 -0.0780 -0.4166
 3292SOL    HW121512   4.725   2.064   3.410 -0.5448 -0.4302  1.0664
 3292SOL    HW221513   4.654   2.101   3.275 -2.3639 -0.4642 -0.3597
 3293SOL     OW21514   1.906   1.180   2.252 -0.4760  0.9669 -0.5143
 3293SOL    HW121515   1.867   1.195   2.166 -1.1352 -0.8965 -0.5497
 3293SOL    HW221516   1.962   1.106   2.227  0.8765  1.2206  1.7808
 3294SOL     OW21517   3.007   4.360   1.350  0.1626 -0.1801 -0.6746
 3294SOL    HW121518   3.011   4.455   1.334 -0.7564 -0.3318 -1.8444
 3294SOL    HW221519   2.922   4.345   1.308 -0.9480  1.2861  1.0331
 3295SOL     OW21520   0.135   4.094  15.000  0.0060  0.3444  0.5588
 3295SOL    HW121521   0.198   4.143  14.948  0.5586  0.2364  1.1324
 3295SOL    HW221522   0.110   4.025  14.939  2.8997  0.0654 -0.2851
 3296SOL     OW21523   4.333   3.269  17.560  0.0279  0.3509  0.6477
 3296SOL    HW121524   4.352   3.349  17.608  0.8216  0.4271  0.1956
 3296SOL    HW221525   4.247   3.247  17.596 -0.5361  0.4081 -0.6421
 3297SOL     OW21526   0.797   0.949   6.891  0.4561  0.4303  0.0001
 3297SOL    HW121527   0.702   0.958   6.879  0.6881  1.0645 -1.4034
 3297SOL    HW221528   0.805   1.029   6.944 -1.8204  0.3660  0.4609
 3298SOL     OW21529   0.260   0.896   6.046 -0.2740 -0.6662  0.1228
 3298SOL    HW121530   0.331   0.918   6.107 -1.6225 -0.7722  1.7466
 3298SOL    HW221531   0.255   0.977   5.995  0.0637 -0.4402  0.4504
 3299SOL     OW21532   0.748   2.700   8.123  0.1923  0.2033  0.2702
 3299SOL    HW121533   0.679   2.717   8.187  0.8498 -0.3859  1.1542
 3299SOL    HW221534   0.797   2.782   8.121 -1.4343  1.2077  1.6483
 3300SOL     OW21535   4.306   3.906   1.825 -0.0757  0.2449  0.1325
 3300SOL    HW121536   4.324   3.960   1.747  0.4394  1.8168  1.3421
 3300SOL    HW221537   4.398   3.894   1.850  0.3704 -3.9829 -3.5094
 3301SOL     OW21538   2.108   0.970   5.148  0.0485  0.8483 -0.2217
 3301SOL    HW121539   2.067   0.918   5.079 -0.1605  0.4962  0.1633
 3301SOL    HW221540   2.042   1.025   5.190 -1.3704  0.1790 -1.5949
 3302SOL     OW21541   1.903   1.710   5.895 -0.0822 -0.1205 -0.6608
 3302SOL    HW121542   1.828   1.751   5.938  0.6752 -1.6951  2.1167
 3302SOL    HW221543   1.869   1.709   5.805  0.6637  0.9720 -0.9524
 3303SOL     OW21544   1.674   1.806   5.979 -0.3765 -0.3994  0.1692
 3303SOL    HW121545   1.656   1.853   5.897  1.9702  2.6512  1.4015
 3303SOL    HW221546   1.628   1.861   6.042 -2.4118  0.8216 -2.3466
 3304SOL     OW21547   2.315   2.029   2.930 -0.6896  0.2205 -0.6108
 3304SOL    HW121548   2.332   1.948   2.881  1.6409  0.0255  0.5154
 3304SOL    HW221549   2.221   2.039   2.913 -0.4317  0.2762 -2.0365
 3305SOL     OW21550   2.162   3.521  10.158 -0.1683  0.1549 -0.4250
 3305SOL    HW121551   2.203   3.485  10.236  1.5956  0.2859 -1.2856
 3305SOL    HW221552   2.100   3.453  10.132  0.3366 -1.1413  1.8402
 3306SOL     OW21553   1.017   1.027   1.910  0.0437 -0.3398  0.1155
 3306SOL    HW121554   0.971   1.072   1.839  0.3540 -0.9501 -0.4653
 3306SOL    HW221555   0.945   0.969   1.935 -1.5458  1.9721  0.9192
 3307SOL     OW21556   0.871   3.773   3.908 -0.1591  0.1025  0.0010
 3307SOL    HW121557   0.877   3.679   3.890  0.0135  0.0105  0.5581
 3307SOL    HW221558   0.962   3.797   3.892 -0.7238  2.8633  0.7952
 3308SOL     OW21559   3.303   3.254   2.881  0.4704 -0.7185 -0.8328
 3308SOL    HW121560   3.258   3.337   2.899  0.9975 -0.1820 -1.9765
 3308SOL    HW221561   3.298   3.247   2.785  1.6173 -1.2416 -0.8519
 3309SOL     OW21562   2.449   1.302   3.909  0.6921  0.1067  0.3310
 3309SOL    HW121563   2.521   1.310   3.972  1.4369  0.3229 -0.5459
 3309SOL    HW221564   2.375   1.338   3.958  1.5936  0.7907  1.1752
 3310SOL     OW21565   3.071   4.395   3.823  0.0089  0.8354 -0.2860
 3310SOL    HW121566   3.142   4.440   3.870 -0.3796  1.7278 -0.5483
 3310SOL    HW221567   3.084   4.304   3.847  0.7682  0.7965 -0.8445
 3311SOL     OW21568   4.505   2.287   4.535 -0.2590  0.1202 -0.2122
 3311SOL    HW121569   4.484   2.378   4.555  1.8251  0.9324 -1.7403
 3311SOL    HW221570   4.488   2.281   4.441 -1.3910 -1.5053  0.1010
 3312SOL     OW21571   4.468   0.344   3.479  0.0710  0.1024  0.4921
 3312SOL    HW121572   4.391   0.314   3.528 -1.3345  0.8805 -1.2468
 3312SOL    HW221573   4.447   0.313   3.391 -3.2523  0.0846  1.2577
 3313SOL     OW21574   4.165   0.867   7.954  0.0872  0.6165  0.0793
 3313SOL    HW121575   4.111   0.912   8.020  1.4726  1.5359  0.5781
 3313SOL    HW221576   4.166   0.777   7.987 -0.6715  0.7355  0.4436
 3314SOL     OW21577   3.672   0.859   3.002  0.0413 -0.9330  0.0780
 3314SOL    HW121578   3.659   0.953   3.017  1.2520 -0.6394 -0.6886
 3314SOL    HW221579   3.584   0.843   2.969  0.1020 -0.3144 -0.3938
 3315SOL     OW21580   3.277   3.078   7.630 -0.3435 -0.7802 -0.5134
 3315SOL    HW121581   3.278   2.993   7.586 -2.6492 -0.8465 -0.4055
 3315SOL    HW221582   3.309   3.037   7.711  0.7621 -3.8490 -2.4830
 3316SOL     OW21583   1.594   2.489   8.425 -0.3390 -0.4818  0.2178
 3316SOL    HW121584   1.611   2.581   8.402 -2.0755 -0.2573 -0.1588
 3316SOL    HW221585   1.562   2.504   8.514 -1.0697  0.2736 -0.1752
 3317SOL     OW21586   1.861   0.643  10.668  0.3385 -0.1261  0.0311
 3317SOL    HW121587   1.951   0.611  10.659  1.8422  4.2527 -0.2694
 3317SOL    HW221588   1.806   0.573  10.634  2.5068 -1.0531 -1.5371
 3318SOL     OW21589   1.897   4.185   0.463 -0.4861 -0.1461  0.4953
 3318SOL    HW121590   1.987   4.184   0.497 -1.0944 -0.5182  2.0696
 3318SOL    HW221591   1.856   4.121   0.521  0.5040 -1.4320 -0.2351
 3319SOL     OW21592   4.104   1.124  13.308 -0.6891  0.0440 -0.4492
 3319SOL    HW121593   4.131   1.034  13.327 -1.5226 -0.5437 -1.9802
 3319SOL    HW221594   4.058   1.137  13.391 -2.7453  0.7453 -1.6981
 3320SOL     OW21595   1.651   0.557   1.369  0.2065 -0.0930 -0.1906
 3320SOL    HW121596   1.693   0.474   1.392 -0.5745 -0.5376 -0.3766
 3320SOL    HW221597   1.721   0.594   1.315 -0.7219  2.5596  0.4023
 3321SOL     OW21598   1.238   2.785  15.752  0.6949  0.7769 -0.1760
 3321SOL    HW121599   1.241   2.872  15.790 -0.3436  0.6325  0.2327
 3321SOL    HW221600   1.180   2.733  15.807 -0.4046  2.6014  0.3711
 3322SOL     OW21601   0.111   2.741   6.533  0.1119 -0.2785  0.1331
 3322SOL    HW121602   0.121   2.671   6.468  1.2185  0.1194 -0.1216
 3322SOL    HW221603   0.016   2.736   6.546  0.3918 -3.3144  1.2490
 3323SOL     OW21604   2.725   0.222  15.290 -0.2237  0.3990  0.0365
 3323SOL    HW121605   2.758   0.179  15.369 -1.7635  2.0086  1.5584
 3323SOL    HW221606   2.634   0.194  15.286  0.0972 -0.7418  0.8876
 3324SOL     OW21607   3.432   3.257   1.282 -0.0703 -0.0329 -0.3821
 3324SOL    HW121608   3.444   3.351   1.286  0.0296 -0.2215  4.4317
 3324SOL    HW221609   3.377   3.240   1.206 -2.5559 -1.0571  1.6275
 3325SOL     OW21610   2.033   2.527   7.736  0.0254  0.5552 -0.8373
 3325SOL    HW121611   1.986   2.578   7.670 -0.6491  2.7697  1.3649
 3325SOL    HW221612   2.121   2.559   7.720  1.1261 -1.4350  1.1928
 3326SOL     OW21613   2.596   2.517   2.998  0.0706 -0.7147 -0.1813
 3326SOL    HW121614   2.536   2.466   2.943 -0.1006 -0.8225  0.1077
 3326SOL    HW221615   2.669   2.457   3.013  1.1412  0.2537 -1.5486
 3327SOL     OW21616   1.998   2.896  14.669 -0.2545  0.0358  0.6915
 3327SOL    HW121617   1.909   2.929  14.656 -0.7806 -1.5853  0.1974
 3327SOL    HW221618   2.035   2.895  14.580  0.6335 -1.5768  1.0743
 3328SOL     OW21619   1.649   3.451   2.022  0.3072 -0.0008 -0.6652
 3328SOL    HW121620   1.706   3.401   1.964  1.1960  0.0070  0.1988
 3328SOL    HW221621   1.618   3.384   2.082  1.3490 -1.8693 -2.2134
 3329SOL     OW21622   0.205   1.745  12.063  0.0390 -0.3946  0.0483
 3329SOL    HW121623   0.197   1.650  12.054 -1.3617 -0.1939 -0.8078
 3329SOL    HW221624   0.119   1.762  12.101  0.6200  1.3564  0.6100
 3330SOL     OW21625   2.473   2.312  14.795 -0.0987  0.5709 -0.3817
 3330SOL    HW121626   2.437   2.334  14.881  0.8250  1.2350 -0.1617
 3330SOL    HW221627   2.456   2.219  14.785  0.3256  0.1251  3.1667
 3331SOL     OW21628   3.020   3.948   6.294 -0.2015 -0.2656 -1.1160
 3331SOL    HW121629   3.011   3.977   6.203 -3.0056  0.7632 -0.5248
 3331SOL    HW221630   2.927   3.960   6.312 -0.4157 -1.4813 -1.4228
 3332SOL     OW21631   1.761   0.375   7.159  0.4449  0.7329  0.1069
 3332SOL    HW121632   1.706   0.379   7.081 -0.3803  0.0159  0.6397
 3332SOL    HW221633   1.722   0.449   7.206 -0.2946  2.1810 -2.8501
 3333SOL     OW21634   0.782   2.733   6.929 -0.8874 -0.0159 -0.4662
 3333SOL    HW121635   0.726   2.742   7.006  0.4486 -1.0399  0.6194
 3333SOL    HW221636   0.864   2.777   6.949 -0.8650  0.1241 -0.8604
 3334SOL     OW21637   0.253   0.061  16.191 -0.3474 -0.2347  0.1538
 3334SOL    HW121638   0.161   0.054  16.217 -0.9949  0.9206 -1.8475
 3334SOL    HW221639   0.260   0.002  16.116 -0.1129 -0.8321  0.6483
 3335SOL     OW21640   3.425   0.737   4.813  0.1190 -0.1372  0.9471
 3335SOL    HW121641   3.386   0.794   4.747  3.6675  0.2342 -0.8255
 3335SOL    HW221642   3.469   0.800   4.870  2.3786  0.3527 -1.3395
 3336SOL     OW21643   4.696   3.368   5.779 -0.0487 -0.2033 -0.0497
 3336SOL    HW121644   4.700   3.345   5.872 -3.6104 -2.9723 -0.5841
 3336SOL    HW221645   0.031   3.424   5.783 -0.4530  0.3863 -0.6989
 3337SOL     OW21646   0.149   3.630  16.500  0.0447 -0.0823  0.0831
 3337SOL    HW121647   0.068   3.581  16.492 -0.6836  1.0247  0.7920
 3337SOL    HW221648   0.117   3.717  16.478 -0.9761  0.0252  2.0354
 3338SOL     OW21649   0.392   2.620  13.512  0.0466  0.6012  0.2978
 3338SOL    HW121650   0.457   2.635  13.581  0.9477  0.6479 -0.5579
 3338SOL    HW221651   0.324   2.591  13.573  0.8983 -0.9674  0.4909
 3339SOL     OW21652   3.721   3.125   2.332 -0.3851  0.2268 -0.4064
 3339SOL    HW121653   3.699   3.104   2.423  0.4775 -0.2799 -0.3218
 3339SOL    HW221654   3.698   3.217   2.315 -3.7382 -0.7370 -1.1014
 3340SOL     OW21655   1.502   0.527  10.025  0.2008  0.3572  0.0470
 3340SOL    HW121656   1.569   0.570  10.077  0.6848 -0.5188  0.1455
 3340SOL    HW221657   1.421   0.535  10.076 -0.3314  0.0320 -0.7401
 3341SOL     OW21658   2.275   1.351  17.281 -0.0195  0.5675 -0.3697
 3341SOL    HW121659   2.260   1.440  17.312 -2.3573  1.2616 -3.5096
 3341SOL    HW221660   2.337   1.316  17.345  0.3366  0.6405 -0.6748
 3342SOL     OW21661   4.487   3.193   3.628  0.4610 -0.1607 -0.3572
 3342SOL    HW121662   4.532   3.147   3.557  1.2564  1.0167 -0.6265
 3342SOL    HW221663   4.564   3.230   3.670 -1.2305  1.2460  1.4962
 3343SOL     OW21664   4.006   0.688   0.913 -0.1069  0.3974 -0.2162
 3343SOL    HW121665   3.948   0.625   0.870 -1.6611 -0.0261  2.4645
 3343SOL    HW221666   3.968   0.772   0.888 -1.4040  0.1003  0.6863
 3344SOL     OW21667   0.342   2.992   3.175  0.6337  0.0435  0.4081
 3344SOL    HW121668   0.272   2.932   3.200  1.0630 -0.9710 -0.8367
 3344SOL    HW221669   0.404   2.950   3.115 -0.6729  0.9974 -1.5698
 3345SOL     OW21670   0.659   2.431   6.427  0.5136 -0.2834  0.1755
 3345SOL    HW121671   0.718   2.425   6.352  1.1247 -0.7938  0.6978
 3345SOL    HW221672   0.660   2.525   6.441 -0.0921 -0.2477 -0.0068
 3346SOL     OW21673   1.252   3.083   6.544 -0.5083 -0.7048 -0.2970
 3346SOL    HW121674   1.241   2.992   6.572  2.2485 -1.1014 -0.5374
 3346SOL    HW221675   1.283   3.057   6.457  1.5462  0.6751  0.0234
 3347SOL     OW21676   4.295   1.723   5.265 -0.2814  0.0466 -0.1059
 3347SOL    HW121677   4.386   1.713   5.238 -0.3653  1.3187 -0.8870
 3347SOL    HW221678   4.293   1.657   5.334 -1.6860  0.6575  0.4373
 3348SOL     OW21679   3.162   2.631   7.624 -0.0762 -0.1424 -0.7914
 3348SOL    HW121680   3.125   2.678   7.699 -2.1586 -1.5198 -0.9690
 3348SOL    HW221681   3.245   2.598   7.658  0.4914  3.5154  1.5009
 3349SOL     OW21682   3.868   2.941   3.036  0.9280  0.3737  0.0180
 3349SOL    HW121683   3.884   2.892   3.117  0.0014  1.8198  1.0760
 3349SOL    HW221684   3.932   3.013   3.043 -1.3819  2.5080 -1.0186
 3350SOL     OW21685   1.912   2.359   5.174 -0.3372 -0.5007 -0.0432
 3350SOL    HW121686   1.854   2.435   5.172  1.4532  0.8505 -1.0116
 3350SOL    HW221687   1.963   2.382   5.096 -0.3385 -0.3374  0.0032
 3351SOL     OW21688   2.494   3.824   1.098  0.0303 -0.1651  0.6844
 3351SOL    HW121689   2.577   3.788   1.066  1.3704  2.3114  1.3697
 3351SOL    HW221690   2.424   3.803   1.037 -0.6928 -0.5416  1.6375
 3352SOL     OW21691   4.029   0.468   5.970 -0.3126  0.0451  0.5152
 3352SOL    HW121692   4.067   0.495   6.053  1.2249 -1.3214  0.2698
 3352SOL    HW221693   3.954   0.420   6.004 -0.7319  0.6749  0.4628
 3353SOL     OW21694   1.018   4.267   6.728  0.7711 -0.4657 -0.9774
 3353SOL    HW121695   0.943   4.298   6.677 -0.5550 -0.7220  0.8331
 3353SOL    HW221696   1.027   4.175   6.701  1.6383 -0.6580 -0.0334
 3354SOL     OW21697   2.666   4.730  14.498  0.0990  0.2868  0.0430
 3354SOL    HW121698   2.576   4.716  14.529  0.3156  0.6320  0.8267
 3354SOL    HW221699   2.663   0.055  14.431  0.5851 -0.0167 -0.2780
 3355SOL     OW21700   2.872   2.684   8.012 -0.0203  0.7743  0.0093
 3355SOL    HW121701   2.815   2.730   8.075 -0.3786 -0.1362  0.3454
 3355SOL    HW221702   2.870   2.596   8.048 -1.0109 -0.1185 -2.2483
 3356SOL     OW21703   3.250   3.811   4.872  0.2373 -0.1667  0.2537
 3356SOL    HW121704   3.339   3.809   4.836  0.2415 -1.0010  0.3263
 3356SOL    HW221705   3.241   3.724   4.911  1.6724  0.4822  2.0492
 3357SOL     OW21706   1.720   4.656   1.408 -0.4621 -0.2509  0.2166
 3357SOL    HW121707   1.800   4.706   1.426  0.0557 -0.1673 -2.2723
 3357SOL    HW221708   1.753   4.592   1.344  0.2379  1.1234 -0.7959
 3358SOL     OW21709   3.312   4.570  12.627 -0.0683  0.1258  0.4292
 3358SOL    HW121710   3.370   4.565  12.550 -0.9749 -3.8386  0.0167
 3358SOL    HW221711   3.227   4.580  12.584 -1.8908  0.9642  4.2908
 3359SOL     OW21712   1.022   2.471   2.930 -0.4221  0.0163  1.0721
 3359SOL    HW121713   1.020   2.567   2.925  0.5220 -0.0932 -1.0292
 3359SOL    HW221714   1.114   2.450   2.946  0.2582  1.8156 -0.4981
 3360SOL     OW21715   0.537   4.591   7.585 -0.1653  0.3363  0.0430
 3360SOL    HW121716   0.465   4.651   7.599  0.2311  0.6352  0.7978
 3360SOL    HW221717   0.588   4.586   7.666  2.0991 -2.1965 -1.5289
 3361SOL     OW21718   0.093   1.869   9.312  0.3434 -0.3521 -0.3251
 3361SOL    HW121719   0.138   1.822   9.381 -0.1391 -1.6058 -0.8553
 3361SOL    HW221720   0.164   1.873   9.248  1.6258  3.6232  1.3190
 3362SOL     OW21721   4.444   3.948   4.851  0.1304 -0.0717  0.0546
 3362SOL    HW121722   4.511   3.968   4.786  1.5946  2.5009  2.3202
 3362SOL    HW221723   4.374   3.923   4.791  0.7513 -3.1649  0.6070
 3363SOL     OW21724   1.759   2.461  16.822  0.4198  0.1572 -0.3819
 3363SOL    HW121725   1.683   2.404  16.809  1.1847 -0.9077 -0.1931
 3363SOL    HW221726   1.814   2.388  16.850  1.3704  2.1189  2.8028
 3364SOL     OW21727   4.416   0.343   2.405 -0.0729 -0.0080  0.0243
 3364SOL    HW121728   4.442   0.276   2.469  0.7597 -1.3420 -1.7237
 3364SOL    HW221729   4.345   0.298   2.360 -0.7493 -0.1156  1.1817
 3365SOL     OW21730   0.627   4.337  15.638  0.1793 -0.1382 -0.5281
 3365SOL    HW121731   0.717   4.342  15.605  0.5293  1.6400  0.7410
 3365SOL    HW221732   0.572   4.399  15.590  0.5312  0.3821 -0.2506
 3366SOL     OW21733   4.410   0.844  10.053  0.2166  0.3884  0.0190
 3366SOL    HW121734   4.491   0.795  10.072 -0.3215 -1.4600 -2.4232
 3366SOL    HW221735   4.362   0.846  10.136  0.3350  3.3027  0.0074
 3367SOL     OW21736   3.633   2.537   3.708 -0.2012  0.1620 -0.0747
 3367SOL    HW121737   3.566   2.590   3.750  1.9617  2.0489  1.0061
 3367SOL    HW221738   3.590   2.455   3.683 -1.1053  0.3236  0.9838
 3368SOL     OW21739   0.593   1.026   7.988 -0.1934  0.0365  0.1600
 3368SOL    HW121740   0.524   1.046   7.925  0.4278  1.0512 -0.1925
 3368SOL    HW221741   0.571   0.937   8.017 -0.1379  0.6151  1.9745
 3369SOL     OW21742   0.033   2.078   2.516  0.3479 -0.3943  0.1011
 3369SOL    HW121743   0.015   2.151   2.456 -0.3137 -0.3135  0.3982
 3369SOL    HW221744   0.070   2.006   2.465 -2.3990 -1.3594 -0.4952
 3370SOL     OW21745   1.642   4.077   3.422 -0.7961  0.7496 -0.4476
 3370SOL    HW121746   1.598   4.020   3.359  2.7467 -1.7215 -0.6700
 3370SOL    HW221747   1.719   4.100   3.370 -1.2302  0.4978 -1.2008
 3371SOL     OW21748   1.829   1.782  13.315  0.1499  0.0993  0.0357
 3371SOL    HW121749   1.884   1.860  13.310  2.3873 -1.2809  2.8213
 3371SOL    HW221750   1.787   1.800  13.399  0.0878 -0.0035  0.0256
 3372SOL     OW21751   3.031   2.738   6.583  0.3046 -0.2152  0.0712
 3372SOL    HW121752   3.039   2.681   6.659 -1.5141 -1.3129 -0.5655
 3372SOL    HW221753   3.115   2.782   6.595  0.2847 -0.6827  2.0049
 3373SOL     OW21754   1.946   0.359  14.534  0.3056  0.0282 -0.0047
 3373SOL    HW121755   1.996   0.297  14.481  1.2229 -0.1170  1.0321
 3373SOL    HW221756   2.007   0.431  14.549 -0.3596  0.4951  0.4634
 3374SOL     OW21757   2.238   2.393   9.114 -0.6304 -0.6426  0.2784
 3374SOL    HW121758   2.268   2.468   9.166  2.7158 -1.6920 -0.1172
 3374SOL    HW221759   2.250   2.427   9.025  1.3692 -2.3458 -0.0975
 3375SOL     OW21760   0.808   1.717  11.273 -0.2166  0.2827 -0.3998
 3375SOL    HW121761   0.791   1.695  11.182  2.1566 -0.3145 -0.6736
 3375SOL    HW221762   0.892   1.759  11.259  1.9415 -3.5215  1.2916
 3376SOL     OW21763   4.511   3.820   8.891  0.1548 -0.5602 -0.1784
 3376SOL    HW121764   4.472   3.868   8.818 -0.3497 -4.2544 -2.3531
 3376SOL    HW221765   4.605   3.826   8.877 -0.2728  0.3677 -2.6132
 3377SOL     OW21766   3.165   1.339   4.574 -0.7972 -0.4217  0.1031
 3377SOL    HW121767   3.250   1.299   4.557 -0.5451  0.2301 -0.1487
 3377SOL    HW221768   3.163   1.337   4.670  2.0791  0.9678  0.1631
 3378SOL     OW21769   2.651   0.123   2.092 -0.6295  0.2211  0.0766
 3378SOL    HW121770   2.712   0.165   2.152  0.1953  0.2717 -0.8016
 3378SOL    HW221771   2.678   0.031   2.096 -1.2867 -0.1743 -4.8110
 3379SOL     OW21772   3.185   3.177   5.087  0.6703 -0.4733  0.3898
 3379SOL    HW121773   3.205   3.097   5.038 -0.4798  2.1316 -4.2823
 3379SOL    HW221774   3.223   3.246   5.033 -0.7898  0.5803  0.7137
 3380SOL     OW21775   3.852   0.901   7.910 -0.3216 -0.6977  0.2761
 3380SOL    HW121776   3.900   0.983   7.905 -1.5344  0.0333  0.4847
 3380SOL    HW221777   3.800   0.907   7.830 -1.4700  0.1593  1.0838
 3381SOL     OW21778   2.337   1.252   4.952  0.7572 -0.4438  0.3358
 3381SOL    HW121779   2.307   1.215   4.870 -0.4954 -1.4524  1.2533
 3381SOL    HW221780   2.268   1.317   4.962  0.2012 -0.9240 -0.4469
 3382SOL     OW21781   4.397   3.072   7.603 -0.5914 -0.2041 -0.7432
 3382SOL    HW121782   4.388   3.045   7.512 -1.1256 -1.8400 -0.2056
 3382SOL    HW221783   4.408   2.987   7.646 -2.4020  0.1653  0.4297
 3383SOL     OW21784   2.650   4.594   4.148 -0.1769 -0.8837  0.0751
 3383SOL    HW121785   2.590   4.644   4.204  0.2503  0.9441 -1.1012
 3383SOL    HW221786   2.639   4.502   4.170 -0.1836 -1.0717 -0.7117
 3384SOL     OW21787   3.197   2.839   5.876  0.0119  0.7097  0.2507
 3384SOL    HW121788   3.202   2.762   5.819  1.7076 -0.2988  1.7534
 3384SOL    HW221789   3.282   2.868   5.842 -0.3999 -0.4641 -1.7910
 3385SOL     OW21790   3.346   2.896   7.445  0.0905 -0.2675 -0.7893
 3385SOL    HW121791   3.390   2.813   7.458 -2.5155 -1.5794 -0.2994
 3385SOL    HW221792   3.407   2.931   7.380  1.5800 -1.3166  0.0660
 3386SOL     OW21793   2.442   0.962  16.643  0.2875  0.2051 -0.6688
 3386SOL    HW121794   2.352   0.974  16.675  0.2919  1.9748 -1.3157
 3386SOL    HW221795   2.469   1.047  16.608  0.0619  0.7027  0.3633
 3387SOL     OW21796   0.393   0.924   1.181 -0.2978  0.3750 -0.0951
 3387SOL    HW121797   0.437   0.891   1.260  0.5687  0.2939 -0.6099
 3387SOL    HW221798   0.342   0.989   1.229 -1.1054  0.6583 -1.3615
 3388SOL     OW21799   2.945   0.591   8.591  1.1022  0.1600 -0.2007
 3388SOL    HW121800   2.957   0.501   8.562  0.0449  0.2141 -0.7860
 3388SOL    HW221801   2.930   0.639   8.510  0.9309 -0.6355 -0.6289
 3389SOL     OW21802   4.619   2.734   2.411 -0.3757 -0.1118  0.5727
 3389SOL    HW121803   4.524   2.733   2.400 -0.3906 -0.9865  0.8291
 3389SOL    HW221804   4.659   2.695   2.333 -2.0146 -0.5631 -0.0509
 3390SOL     OW21805   3.487   2.849   8.118 -0.4370  0.2061 -0.6191
 3390SOL    HW121806   3.554   2.899   8.163  0.2423  0.9941 -2.4859
 3390SOL    HW221807   3.415   2.842   8.180  1.0617 -3.0986  0.7232
 3391SOL     OW21808   3.835   3.064   3.415  0.5700  0.1435  0.1579
 3391SOL    HW121809   3.920   3.103   3.436  0.7386 -0.8638  1.3813
 3391SOL    HW221810   3.847   3.036   3.324 -0.6925 -2.5408  0.8018
 3392SOL     OW21811   2.149   1.586   7.558  0.3105  0.2533 -0.4592
 3392SOL    HW121812   2.069   1.603   7.607  1.3153  0.5602  1.0963
 3392SOL    HW221813   2.210   1.637   7.612  1.2877  0.3086 -1.6212
 3393SOL     OW21814   1.644   1.368   2.861  0.2564 -0.1457 -0.1760
 3393SOL    HW121815   1.679   1.452   2.889 -3.4391  0.0827  3.9129
 3393SOL    HW221816   1.712   1.310   2.826  1.4072  0.9334  0.3042
 3394SOL     OW21817   2.482   0.414   2.965 -0.2494 -0.1455 -0.2814
 3394SOL    HW121818   2.443   0.338   3.009 -1.5222  0.1568 -0.8858
 3394SOL    HW221819   2.494   0.475   3.037  1.0796  0.3108 -0.8843
 3395SOL     OW21820   3.285   1.884  14.524 -0.1609 -0.1033  0.2732
 3395SOL    HW121821   3.319   1.942  14.592 -2.9227 -1.4954  2.8365
 3395SOL    HW221822   3.192   1.868  14.539 -0.2685 -0.9773 -1.2176
 3396SOL     OW21823   1.654   3.343   7.744 -0.2458 -0.5228 -0.0928
 3396SOL    HW121824   1.645   3.395   7.664  0.5555 -1.2058 -0.6210
 3396SOL    HW221825   1.749   3.341   7.734 -0.2076 -2.2069  0.5394
 3397SOL     OW21826   2.092   0.379   4.341  0.4051 -0.0776  0.3351
 3397SOL    HW121827   2.002   0.348   4.344  0.0799  0.8008 -0.2860
 3397SOL    HW221828   2.086   0.469   4.374  1.2031 -0.3333  1.1760
 3398SOL     OW21829   0.602   1.866   5.770 -0.8802  0.0327 -0.2029
 3398SOL    HW121830   0.529   1.925   5.789 -1.5348 -0.7602 -0.2339
 3398SOL    HW221831   0.671   1.930   5.756  0.0305 -0.9934 -0.3460
 3399SOL     OW21832   3.687   1.825   5.628  0.2017 -0.2706 -0.4972
 3399SOL    HW121833   3.649   1.741   5.653  0.0014  0.4896  1.7762
 3399SOL    HW221834   3.660   1.826   5.536 -1.9760 -0.4665  0.1636
 3400SOL     OW21835   1.875   0.826   5.926  0.4529 -0.3440  0.0240
 3400SOL    HW121836   1.819   0.764   5.973 -1.9076  3.3177  2.0240
 3400SOL    HW221837   1.813   0.852   5.857  1.4329  1.0195 -0.3289
 3401SOL     OW21838   2.146   3.160  14.201 -0.1421  0.1058  0.5010
 3401SOL    HW121839   2.195   3.216  14.261  0.8348 -0.8967  0.6372
 3401SOL    HW221840   2.079   3.221  14.170  2.0524  1.3701 -1.8260
 3402SOL     OW21841   4.734   4.507  10.067  0.5606 -0.1490 -0.2458
 3402SOL    HW121842   4.680   4.580  10.038  2.1466  0.6422 -1.2103
 3402SOL    HW221843   0.053   4.564  10.113  0.5630  0.8949 -1.5441
 3403SOL     OW21844   2.122   3.941   4.719 -0.5196 -0.3005 -0.0027
 3403SOL    HW121845   2.137   3.953   4.625  1.9234  0.8157  0.5478
 3403SOL    HW221846   2.208   3.920   4.753 -0.2860  0.0455 -0.3714
 3404SOL     OW21847   1.617   4.289   7.142 -0.4158  0.7901 -0.2044
 3404SOL    HW121848   1.668   4.365   7.113 -1.0222  0.8158 -1.1872
 3404SOL    HW221849   1.687   4.234   7.177  0.4639  2.5423  0.8119
 3405SOL     OW21850   4.354   4.295   2.368 -1.1638  0.0143  0.1035
 3405SOL    HW121851   4.365   4.302   2.463 -2.7892  0.7498  0.2499
 3405SOL    HW221852   4.278   4.237   2.366 -1.9597  1.1076 -1.5536
 3406SOL     OW21853   0.070   0.115  10.790  0.0586 -0.0385 -0.0718
 3406SOL    HW121854   0.144   0.062  10.820 -0.4695 -0.9588 -0.3917
 3406SOL    HW221855   0.023   0.043  10.747  2.1731 -1.2377 -0.3830
 3407SOL     OW21856   2.931   4.334   6.274 -0.3025  0.1176  0.2038
 3407SOL    HW121857   3.026   4.337   6.289 -0.3122  3.3436 -0.2975
 3407SOL    HW221858   2.896   4.268   6.334 -1.2684  0.0170 -0.4831
 3408SOL     OW21859   0.556   0.059  15.309 -0.0514 -0.4502 -0.0766
 3408SOL    HW121860   0.487   0.124  15.299 -1.4519 -1.6451  1.8537
 3408SOL    HW221861   0.632   0.110  15.278 -0.8887  2.3968  2.5596
 3409SOL     OW21862   2.441   2.054   5.941  0.3071 -0.2894 -0.1822
 3409SOL    HW121863   2.381   2.119   5.903  0.6665  1.1318  1.6894
 3409SOL    HW221864   2.481   2.014   5.863  0.8302  1.7270 -0.9403
 3410SOL     OW21865   0.061   4.311   3.725  0.1287 -0.6936  0.0393
 3410SOL    HW121866   4.732   4.348   3.776 -0.1621 -0.4110 -0.5738
 3410SOL    HW221867   0.021   4.293   3.639 -2.6042 -2.2090  1.6241
 3411SOL     OW21868   4.443   1.845   1.452 -0.3872  0.6045  0.5353
 3411SOL    HW121869   4.382   1.779   1.420 -2.3763  1.8998  1.6198
 3411SOL    HW221870   4.429   1.917   1.391 -0.5210  0.0568 -0.0715
 3412SOL     OW21871   1.790   2.334  16.226 -0.0206 -0.0190 -0.1960
 3412SOL    HW121872   1.704   2.316  16.262 -0.3869 -0.0689 -1.0981
 3412SOL    HW221873   1.777   2.330  16.131  3.1825  1.6875 -0.7300
 3413SOL     OW21874   4.133   2.246  11.167  0.2969  0.2022 -0.3372
 3413SOL    HW121875   4.076   2.215  11.236  0.1143  1.0688 -0.1019
 3413SOL    HW221876   4.073   2.264  11.094  0.0051 -0.8728 -0.3671
 3414SOL     OW21877   1.010   0.719   6.799  0.0680  0.4447  0.0856
 3414SOL    HW121878   0.925   0.734   6.840  0.2232  0.6331  0.3451
 3414SOL    HW221879   1.068   0.724   6.876  1.9602 -1.6574 -1.1895
 3415SOL     OW21880   4.170   2.307   0.392  0.2298 -0.1088  0.3540
 3415SOL    HW121881   4.158   2.327   0.299 -0.6285 -3.5518 -0.2675
 3415SOL    HW221882   4.078   2.322   0.413  0.0968  1.3808 -1.2731
 3416SOL     OW21883   0.459   2.320   6.217 -0.1291 -0.1403  0.6411
 3416SOL    HW121884   0.535   2.377   6.202 -1.3309  1.4163  0.4989
 3416SOL    HW221885   0.493   2.239   6.178  1.2769  1.8816 -2.3381
 3417SOL     OW21886   2.791   3.950  15.110 -0.3189 -0.2782 -0.3657
 3417SOL    HW121887   2.862   3.958  15.174  0.1058  2.3322 -1.1739
 3417SOL    HW221888   2.783   3.856  15.094  0.4860 -0.2464 -0.9819
 3418SOL     OW21889   4.734   3.956  17.491 -0.1046  0.3996  1.2069
 3418SOL    HW121890   4.659   3.974  17.433  0.8416 -0.2628 -0.2329
 3418SOL    HW221891   4.720   4.020  17.561 -0.9829  0.2958  1.1292
 3419SOL     OW21892   1.839   3.383   9.883 -0.1609 -0.1531  0.1391
 3419SOL    HW121893   1.918   3.354   9.838 -0.1212  1.8780 -1.0867
 3419SOL    HW221894   1.787   3.410   9.807 -0.8992  0.8907  1.0146
 3420SOL     OW21895   3.429   0.549   4.045  0.8023  0.0576 -0.5308
 3420SOL    HW121896   3.346   0.583   4.081 -0.1509 -1.5586 -1.2103
 3420SOL    HW221897   3.402   0.459   4.028 -0.6792  0.4154 -0.1206
 3421SOL     OW21898   2.284   1.954   3.520  0.9393 -0.0547  0.1262
 3421SOL    HW121899   2.284   1.875   3.573 -1.1932 -0.2195 -0.1113
 3421SOL    HW221900   2.338   2.013   3.572 -2.8802  1.3629  2.4730
 3422SOL     OW21901   2.660   2.017  16.152  0.1767  0.4882  0.3221
 3422SOL    HW121902   2.597   2.087  16.166 -0.2897  0.2770 -0.7255
 3422SOL    HW221903   2.635   1.977  16.068  0.2931 -0.1362  0.5845
 3423SOL     OW21904   4.551   2.288   0.875 -0.3201 -0.1094  0.3764
 3423SOL    HW121905   4.640   2.263   0.900 -0.6464 -3.6712 -1.9857
 3423SOL    HW221906   4.512   2.328   0.953 -1.9095 -1.9484  0.5355
 3424SOL     OW21907   3.375   0.242   4.020 -0.5069 -0.0612  0.1709
 3424SOL    HW121908   3.415   0.185   4.086 -1.8363  0.3336  1.3141
 3424SOL    HW221909   3.359   0.179   3.949 -0.6012 -0.0061  0.1436
 3425SOL     OW21910   1.780   3.302  10.130  0.0999 -0.4538  0.3950
 3425SOL    HW121911   1.870   3.270  10.129  0.2959  0.1935 -1.8847
 3425SOL    HW221912   1.798   3.342  10.045  1.8122 -1.1955  0.4015
 3426SOL     OW21913   2.775   0.973   8.355  0.1607 -0.0098 -0.6406
 3426SOL    HW121914   2.836   1.003   8.423  0.6008 -2.5286  0.0699
 3426SOL    HW221915   2.723   1.048   8.328  0.6673  0.9076  0.9404
 3427SOL     OW21916   0.353   1.171   9.467  0.6397  0.2109  0.2793
 3427SOL    HW121917   0.284   1.112   9.496  0.5672  0.9378  1.6162
 3427SOL    HW221918   0.334   1.242   9.529  3.1025 -0.5492  1.9059
 3428SOL     OW21919   1.646   0.925  13.320 -0.5623  0.3990 -0.2289
 3428SOL    HW121920   1.698   0.913  13.240 -2.7119 -1.0212 -1.4374
 3428SOL    HW221921   1.570   0.969  13.280 -0.7792  1.1765  1.0410
 3429SOL     OW21922   0.955   0.960   0.854  0.4065  0.1323  0.1087
 3429SOL    HW121923   0.891   0.969   0.925 -1.2671 -4.3557 -0.8291
 3429SOL    HW221924   0.920   1.016   0.785  2.0674  0.7434 -0.2446
 3430SOL     OW21925   3.625   2.948   2.580  0.1487 -0.6331  0.4540
 3430SOL    HW121926   3.663   2.958   2.668  0.6425 -2.7836  0.4757
 3430SOL    HW221927   3.581   2.864   2.588 -0.0980 -0.5837 -0.4470
 3431SOL     OW21928   2.393   4.124  14.690  0.5232  0.9374 -0.2604
 3431SOL    HW121929   2.428   4.130  14.779  0.1214 -3.6276  0.1996
 3431SOL    HW221930   2.298   4.132  14.699  0.6595 -0.9220  2.8119
 3432SOL     OW21931   2.893   2.069   0.208  0.5148 -0.7681  0.2949
 3432SOL    HW121932   2.805   2.047   0.179  0.6769  1.7590 -2.1366
 3432SOL    HW221933   2.936   2.030   0.132  0.0318  1.6428 -1.2184
 3433SOL     OW21934   2.423   0.893  14.482 -0.0432  0.1577 -0.1393
 3433SOL    HW121935   2.356   0.909  14.549 -1.2012 -2.7783 -0.5868
 3433SOL    HW221936   2.420   0.797  14.479  0.7001  0.1136  0.5713
 3434SOL     OW21937   1.370   2.310  11.383  0.3743 -0.2421 -0.2816
 3434SOL    HW121938   1.394   2.221  11.408  0.1151 -0.8389 -2.1405
 3434SOL    HW221939   1.414   2.358  11.453 -0.1448  1.3601 -1.0383
 3435SOL     OW21940   2.098   0.293   0.308 -0.2168 -0.2243  0.3973
 3435SOL    HW121941   2.103   0.199   0.289  1.6646  0.2109 -1.3454
 3435SOL    HW221942   2.090   0.305   0.402  1.6672  0.2915  0.4914
 3436SOL     OW21943   0.274   4.678  15.951 -0.3785 -0.2572  0.3297
 3436SOL    HW121944   0.237   4.714  15.871 -0.2058 -0.9990 -0.0832
 3436SOL    HW221945   0.366   4.673  15.924 -0.3318 -0.0977  0.4563
 3437SOL     OW21946   2.869   3.441  14.733 -0.4852 -0.1912 -0.1794
 3437SOL    HW121947   2.789   3.455  14.784 -1.4268 -0.2276 -1.6661
 3437SOL    HW221948   2.865   3.510  14.668 -0.1880 -0.5029 -0.5300
 3438SOL     OW21949   3.327   4.729   7.300 -0.5522  0.0744 -0.7859
 3438SOL    HW121950   3.384   4.666   7.345  0.6522  0.3461 -1.9473
 3438SOL    HW221951   3.335   4.696   7.211 -1.8675 -2.1045 -0.1139
 3439SOL     OW21952   2.795   3.778   6.029 -0.5947 -0.3416  0.5334
 3439SOL    HW121953   2.750   3.705   6.073 -0.3147  0.5393  2.3053
 3439SOL    HW221954   2.773   3.841   6.098 -0.5150 -1.2125  1.3516
 3440SOL     OW21955   3.681   2.055   9.625  0.5435 -0.2394  0.0164
 3440SOL    HW121956   3.692   1.971   9.670  1.2831 -0.4453 -0.5535
 3440SOL    HW221957   3.611   2.097   9.675 -0.6215 -0.0006 -1.8579
 3441SOL     OW21958   2.863   1.128   2.955  0.1969  0.1482  0.0529
 3441SOL    HW121959   2.911   1.106   2.874  0.6905  0.0210  0.3811
 3441SOL    HW221960   2.939   1.124   3.013  0.7711  0.2514 -0.6776
 3442SOL     OW21961   4.414   3.143   8.736  0.1272  0.0289  0.1131
 3442SOL    HW121962   4.381   3.200   8.666 -0.3317 -1.4377 -0.8555
 3442SOL    HW221963   4.333   3.118   8.780  0.0699  1.2922  0.7389
 3443SOL     OW21964   4.071   1.781   0.620 -0.8727 -0.2194 -0.6520
 3443SOL    HW121965   4.044   1.836   0.546  2.5317  0.4211 -1.4149
 3443SOL    HW221966   4.009   1.712   0.597 -1.7482  0.0273  0.9778
 3444SOL     OW21967   2.708   4.526   2.653  0.2087  0.1571  0.2315
 3444SOL    HW121968   2.761   4.584   2.598  0.2474 -0.3656 -0.2780
 3444SOL    HW221969   2.619   4.555   2.633 -0.6491 -1.1152  2.1970
 3445SOL     OW21970   0.459   0.769   4.083 -0.6257  0.2004 -0.1966
 3445SOL    HW121971   0.365   0.772   4.064 -0.4574  0.6402 -0.9447
 3445SOL    HW221972   0.481   0.690   4.035  0.3525  0.3040  0.0795
 3446SOL     OW21973   2.995   3.236   3.021  0.3372  0.2481 -0.2976
 3446SOL    HW121974   2.921   3.182   3.047  0.8122  0.4805  1.5415
 3446SOL    HW221975   3.055   3.232   3.096  0.8338 -1.6703 -0.8028
 3447SOL     OW21976   2.250   0.868  15.516 -0.1492  0.0075 -0.4868
 3447SOL    HW121977   2.277   0.959  15.514  1.1043 -0.3911 -1.3495
 3447SOL    HW221978   2.159   0.882  15.542 -0.1062 -0.3947 -0.1246
 3448SOL     OW21979   4.451   2.522  10.380  0.1875  0.3910  0.3161
 3448SOL    HW121980   4.442   2.491  10.470 -0.7031 -1.3230 -0.3769
 3448SOL    HW221981   4.398   2.602  10.381 -0.0099  0.2643 -0.2326
 3449SOL     OW21982   4.574   1.347   4.112 -0.5220 -0.6081  0.2902
 3449SOL    HW121983   4.525   1.359   4.030  2.2498 -0.3623 -1.3319
 3449SOL    HW221984   4.535   1.267   4.146 -2.0892 -0.6685 -1.6098
 3450SOL     OW21985   1.124   0.856   8.781 -0.0603 -0.5028 -0.0078
 3450SOL    HW121986   1.159   0.930   8.830  0.2050 -0.4135 -0.3303
 3450SOL    HW221987   1.157   0.779   8.828 -1.0822 -0.6904  0.3870
 3451SOL     OW21988   3.767   1.761   6.613 -0.1286  0.0844  0.3824
 3451SOL    HW121989   3.832   1.692   6.625  0.6189 -0.0660 -4.3670
 3451SOL    HW221990   3.689   1.722   6.651 -0.0165 -1.0149 -0.5227
 3452SOL     OW21991   4.409   0.365   8.173 -0.2831 -0.3423 -0.1030
 3452SOL    HW121992   4.328   0.416   8.175 -0.3833 -0.5391  0.8140
 3452SOL    HW221993   4.435   0.370   8.265 -1.7410  0.3662  0.2737
 3453SOL     OW21994   0.673   4.085   2.371  0.1755 -0.2725 -0.2212
 3453SOL    HW121995   0.643   4.168   2.410 -0.9913 -1.1192  0.6798
 3453SOL    HW221996   0.763   4.081   2.402 -0.2403  0.2873  1.0661
 3454SOL     OW21997   0.450   0.552   5.523 -0.1294 -0.3563 -0.4536
 3454SOL    HW121998   0.464   0.578   5.432  3.5571 -2.1422 -0.3879
 3454SOL    HW221999   0.361   0.518   5.531 -0.1850 -0.6107 -2.1159
 3455SOL     OW22000   1.730   4.522   7.121 -0.3096  0.1838  0.2160
 3455SOL    HW122001   1.804   4.535   7.062 -1.3358 -1.0902 -1.3545
 3455SOL    HW222002   1.761   4.561   7.203 -0.7761 -1.5537  1.2224
 3456SOL     OW22003   0.683   3.679   6.149  0.1549 -0.0820  0.4439
 3456SOL    HW122004   0.625   3.693   6.224  0.4181 -2.3605  1.0631
 3456SOL    HW222005   0.729   3.763   6.154  0.8622 -0.5481  1.7577
 3457SOL     OW22006   1.726   2.831   3.875  0.3519  0.4496  0.3083
 3457SOL    HW122007   1.764   2.757   3.922  1.2446  1.6324  1.4397
 3457SOL    HW222008   1.708   2.891   3.948  1.4644 -1.1375  1.8872
 3458SOL     OW22009   4.475   2.451   6.767 -0.2236  0.5449  0.4346
 3458SOL    HW122010   4.387   2.483   6.789 -0.9738 -3.0803  2.6955
 3458SOL    HW222011   4.507   2.520   6.709  0.8049 -2.0787 -2.1283
 3459SOL     OW22012   0.028   2.616  17.345  0.1683 -0.1493 -0.4140
 3459SOL    HW122013   0.042   2.628  17.439  0.5220 -1.5458 -0.2857
 3459SOL    HW222014   4.696   2.674  17.332  0.6079  0.0961 -1.7915
 3460SOL     OW22015   3.190   3.865  14.818  0.6393 -0.4133 -0.0866
 3460SOL    HW122016   3.194   3.862  14.723  0.0582  1.5216 -0.1818
 3460SOL    HW222017   3.121   3.801  14.835 -0.7854  0.2801 -3.3241
 3461SOL     OW22018   3.888   1.370   8.052 -0.6023 -0.2255 -0.3302
 3461SOL    HW122019   3.967   1.379   8.106 -1.9388 -1.0363  1.7369
 3461SOL    HW222020   3.822   1.360   8.120  0.2890 -1.5397  0.3394
 3462SOL     OW22021   0.805   3.033   9.986  0.3539 -0.5866  0.0874
 3462SOL    HW122022   0.881   3.083   9.956 -2.2025  2.5807 -1.0181
 3462SOL    HW222023   0.862   2.978  10.041 -0.7275 -1.7250  0.0424
 3463SOL     OW22024   2.809   3.487   6.930  0.2786 -0.0080 -0.4845
 3463SOL    HW122025   2.778   3.478   7.020  2.1230  0.5389  0.2036
 3463SOL    HW222026   2.844   3.401   6.907 -2.1789 -1.3412  0.7084
 3464SOL     OW22027   0.418   2.407  17.596  0.0865 -0.4787 -0.7172
 3464SOL    HW122028   0.477   2.416  17.671 -2.8040  1.2979  1.3578
 3464SOL    HW222029   0.343   2.368  17.641  0.0269 -0.5343 -0.8680
 3465SOL     OW22030   4.510   3.165  12.486  0.7544  0.8400  0.1541
 3465SOL    HW122031   4.562   3.101  12.534 -0.0654  1.5649  2.0275
 3465SOL    HW222032   4.536   3.244  12.534 -0.3785  2.6458 -2.1807
 3466SOL     OW22033   1.613   3.132   2.527  0.4454 -0.7001 -0.2635
 3466SOL    HW122034   1.605   3.108   2.620  0.0899 -0.0295 -0.1218
 3466SOL    HW222035   1.609   3.228   2.521 -1.1422 -0.9179 -2.5030
 3467SOL     OW22036   4.185   3.574   2.326 -0.1511 -0.4054 -0.0137
 3467SOL    HW122037   4.255   3.620   2.280 -2.1962  0.2291 -2.5370
 3467SOL    HW222038   4.218   3.485   2.338  2.3392  0.7666  1.7879
 3468SOL     OW22039   0.624   1.536   7.089  0.1898 -0.9086  0.4244
 3468SOL    HW122040   0.592   1.484   7.163 -1.2615 -1.0000 -0.2752
 3468SOL    HW222041   0.639   1.464   7.028  0.1765  0.3855 -1.1104
 3469SOL     OW22042   2.568   0.306   4.169  0.0997 -0.3961 -0.0600
 3469SOL    HW122043   2.476   0.327   4.154  0.3210  2.5977  2.6717
 3469SOL    HW222044   2.574   0.295   4.264 -0.5763 -1.5153 -0.1501
 3470SOL     OW22045   1.949   1.766   8.370  0.1657 -0.0275  0.2821
 3470SOL    HW122046   1.974   1.808   8.453 -1.1680  0.0905  0.6336
 3470SOL    HW222047   1.879   1.705   8.393  1.1482 -0.2432  2.6874
 3471SOL     OW22048   2.840   2.291  16.707 -0.6403  0.5180  0.5601
 3471SOL    HW122049   2.924   2.336  16.723  0.3979 -0.2983 -2.6142
 3471SOL    HW222050   2.854   2.210  16.755  0.7169  1.5425  1.8943
 3472SOL     OW22051   2.113   1.628  17.029  0.0393 -0.2126  0.1082
 3472SOL    HW122052   2.026   1.620  17.067 -1.4222  0.4708 -3.1423
 3472SOL    HW222053   2.083   1.666  16.947 -0.8229 -1.4646 -0.1476
 3473SOL     OW22054   2.170   3.608   4.606 -0.0387 -0.6630 -0.1977
 3473SOL    HW122055   2.244   3.666   4.588  1.0940 -2.2474 -0.5463
 3473SOL    HW222056   2.110   3.622   4.533  0.7415  4.4674  0.1037
 3474SOL     OW22057   2.820   1.365   3.173  0.0862  0.1534 -0.4672
 3474SOL    HW122058   2.902   1.334   3.211  0.6744  1.8794 -0.3064
 3474SOL    HW222059   2.854   1.380   3.084 -0.1526  3.0660 -0.0837
 3475SOL     OW22060   1.980   1.018   3.486  0.0211 -0.1122 -0.0244
 3475SOL    HW122061   1.994   1.002   3.392 -0.4180 -0.2108 -0.0698
 3475SOL    HW222062   2.060   0.983   3.525  0.3616 -2.0906 -2.4912
 3476SOL     OW22063   4.328   0.827  10.377  0.7960  0.1969  0.4448
 3476SOL    HW122064   4.401   0.767  10.392  1.1311 -0.0185 -2.0223
 3476SOL    HW222065   4.332   0.872  10.461 -1.7264 -1.0672  1.2305
 3477SOL     OW22066   0.365   3.883  15.899 -0.0102  0.0473  0.5164
 3477SOL    HW122067   0.450   3.876  15.856  1.0713 -0.6561  2.7794
 3477SOL    HW222068   0.306   3.914  15.830 -0.6055  1.6998  1.7617
 3478SOL     OW22069   4.239   1.725   7.917 -0.0542 -0.2099  0.4974
 3478SOL    HW122070   4.294   1.802   7.905 -0.7587  0.4011  1.1999
 3478SOL    HW222071   4.152   1.761   7.933 -1.0760 -2.0609 -0.8190
 3479SOL     OW22072   0.110   2.306  13.605  0.4590  0.1647  0.2640
 3479SOL    HW122073   0.116   2.394  13.641  3.3865  0.0691  0.0483
 3479SOL    HW222074   0.175   2.316  13.536  0.2712 -1.2527 -0.1124
 3480SOL     OW22075   1.782   4.672   1.919 -0.0785 -0.1483  0.3337
 3480SOL    HW122076   1.710   4.733   1.933  0.9871  1.2684 -0.4138
 3480SOL    HW222077   1.855   4.732   1.903 -0.9436  0.3891 -1.5191
 3481SOL     OW22078   3.112   4.609   5.226  0.0110  0.0867  0.3879
 3481SOL    HW122079   3.198   4.627   5.189 -0.3686  1.6479  0.2626
 3481SOL    HW222080   3.058   4.686   5.208 -0.2875  0.6765  3.7628
 3482SOL     OW22081   0.639   3.243  17.392  0.6939  0.3965  0.2459
 3482SOL    HW122082   0.651   3.162  17.442 -0.0958  1.2230  1.7680
 3482SOL    HW222083   0.686   3.222  17.312 -1.1674 -0.5549 -0.5939
 3483SOL     OW22084   3.893   2.072   9.886 -0.4404 -0.4944  0.5495
 3483SOL    HW122085   3.917   2.047   9.797 -0.8056 -3.0554  1.1862
 3483SOL    HW222086   3.983   2.085   9.917 -1.3679  1.8670  2.3000
 3484SOL     OW22087   2.267   2.917  12.041  0.5037 -0.5684 -0.2711
 3484SOL    HW122088   2.218   2.890  12.118 -1.6242  0.5118 -1.2534
 3484SOL    HW222089   2.218   2.994  12.014  0.0801 -1.5443 -2.2654
 3485SOL     OW22090   4.526   1.947   2.911 -0.2717 -0.2657 -0.1593
 3485SOL    HW122091   4.478   2.005   2.851 -0.8725  0.9298  1.4419
 3485SOL    HW222092   4.610   1.958   2.868 -0.4254  0.9675 -0.1530
 3486SOL     OW22093   2.547   1.207   6.625 -0.4363  0.2416  0.4328
 3486SOL    HW122094   2.583   1.284   6.579  0.7431 -2.6351 -3.4340
 3486SOL    HW222095   2.474   1.178   6.571 -0.4632  1.4979 -0.2280
 3487SOL     OW22096   1.664   2.216   1.825 -0.3380 -0.0138  0.1755
 3487SOL    HW122097   1.662   2.288   1.889 -0.0219  2.3457 -2.4426
 3487SOL    HW222098   1.700   2.260   1.747 -0.0936 -0.5599 -0.0183
 3488SOL     OW22099   0.163   3.403  11.167  0.4909 -0.0587 -0.0182
 3488SOL    HW122100   0.170   3.455  11.087 -0.0040  1.2429  0.7933
 3488SOL    HW222101   0.081   3.358  11.144 -0.5098  0.5027  2.4451
 3489SOL     OW22102   3.371   3.219   0.451  0.7734 -0.4359  0.5993
 3489SOL    HW122103   3.368   3.313   0.466  1.7116 -0.3521  0.2748
 3489SOL    HW222104   3.451   3.211   0.399 -0.4685  3.5789 -1.9495
 3490SOL     OW22105   1.645   0.692   1.600 -0.5934  0.0579 -0.4119
 3490SOL    HW122106   1.631   0.636   1.523 -1.0424 -0.1919 -0.1525
 3490SOL    HW222107   1.689   0.764   1.555  1.6699 -1.4113 -0.5289
 3491SOL     OW22108   1.025   0.593   1.348  0.0584 -0.1684 -0.2836
 3491SOL    HW122109   1.023   0.593   1.252  0.1262 -1.1518 -0.2825
 3491SOL    HW222110   1.017   0.688   1.357  1.1292 -0.1593  0.5429
 3492SOL     OW22111   2.961   1.112   3.555  0.3147 -0.3488  0.2083
 3492SOL    HW122112   3.004   1.051   3.615  0.2434 -0.9883 -0.3874
 3492SOL    HW222113   2.961   1.068   3.470  0.2906 -1.7706  0.9466
 3493SOL     OW22114   1.328   2.427   1.405  0.5049  0.1026 -0.0746
 3493SOL    HW122115   1.358   2.517   1.415  1.4345 -0.4061  1.7449
 3493SOL    HW222116   1.391   2.390   1.468  0.7111  0.6522  0.0378
 3494SOL     OW22117   1.263   3.793   6.545  0.1440 -0.0377 -0.0054
 3494SOL    HW122118   1.171   3.769   6.553  0.1556 -1.4987 -4.2489
 3494SOL    HW222119   1.258   3.817   6.452 -0.2171 -0.4405 -0.0903
 3495SOL     OW22120   4.645   4.002   4.674  0.5691  0.3673 -0.0431
 3495SOL    HW122121   4.732   3.973   4.704  1.0229  0.1446 -1.5425
 3495SOL    HW222122   4.620   3.945   4.601 -0.0605 -0.1410  0.5786
 3496SOL     OW22123   1.742   4.247   2.567  0.2713 -0.1116  0.3798
 3496SOL    HW122124   1.786   4.330   2.588  0.2500  0.3769 -1.4682
 3496SOL    HW222125   1.652   4.254   2.598  0.0130  2.2851 -0.9386
 3497SOL     OW22126   3.919   3.017   8.907 -0.5377 -0.0453 -0.4654
 3497SOL    HW122127   3.914   2.921   8.907 -4.0697  0.1364  0.6462
 3497SOL    HW222128   3.867   3.054   8.978 -0.7499 -1.9066  0.3461
 3498SOL     OW22129   1.031   3.576   3.409  0.0967  0.1493  0.2701
 3498SOL    HW122130   1.028   3.483   3.431 -0.0984 -0.4664 -2.3356
 3498SOL    HW222131   0.938   3.592   3.422 -0.0124  0.3080 -0.6538
 3499SOL     OW22132   1.499   3.030  10.945 -0.3729 -0.2609 -0.2867
 3499SOL    HW122133   1.419   3.014  10.895  0.4490  0.2395 -1.7359
 3499SOL    HW222134   1.467   3.107  10.992 -1.4827  0.0170 -1.5153
 3500SOL     OW22135   3.080   1.081   8.344 -0.3875  0.4848 -0.0913
 3500SOL    HW122136   3.045   1.091   8.432 -1.5712  0.6863 -0.5935
 3500SOL    HW222137   3.017   1.020   8.305  1.4232  0.0353 -2.3276
 3501SOL     OW22138   2.058   0.540   0.229 -0.4255  0.6323  0.6370
 3501SOL    HW122139   2.100   0.598   0.293 -0.6955  1.0120  0.4730
 3501SOL    HW222140   2.070   0.453   0.267  1.5406  0.5664 -0.1140
 3502SOL     OW22141   1.829   0.865   6.320 -0.1231 -0.0474  0.1270
 3502SOL    HW122142   1.795   0.799   6.260 -1.0886 -1.0726  1.7754
 3502SOL    HW222143   1.751   0.886   6.371  0.7731 -0.3478  1.6236
 3503SOL     OW22144   2.052   2.501   8.745 -0.7728 -0.0683 -0.2283
 3503SOL    HW122145   2.064   2.416   8.787 -1.8718 -0.2232 -0.2085
 3503SOL    HW222146   2.117   2.552   8.793  1.0864 -0.2725 -2.5397
 3504SOL     OW22147   1.182   3.649  15.455  0.0658  0.5861 -1.1020
 3504SOL    HW122148   1.227   3.641  15.370  2.1359 -0.6060  0.0950
 3504SOL    HW222149   1.187   3.743  15.476  1.4351  0.0345  1.0632
 3505SOL     OW22150   0.410   0.994   8.857 -0.6831 -0.3928 -0.4199
 3505SOL    HW122151   0.484   1.026   8.909  0.5183 -2.7017 -0.7016
 3505SOL    HW222152   0.436   0.914   8.810 -0.4243 -0.2050 -0.5951
 3506SOL     OW22153   1.160   1.539   6.152 -0.2155 -0.3513 -0.4603
 3506SOL    HW122154   1.237   1.570   6.198  0.5732 -1.7849 -0.8039
 3506SOL    HW222155   1.102   1.613   6.169  0.0769 -0.9371  2.9730
 3507SOL     OW22156   2.385   3.221   4.000  0.0215  0.4043 -0.7355
 3507SOL    HW122157   2.361   3.131   3.977  0.7236  0.3496 -1.2356
 3507SOL    HW222158   2.463   3.217   4.056  0.3224 -1.0420 -1.2644
 3508SOL     OW22159   4.350   2.027  14.572 -0.1827 -0.0494  0.1132
 3508SOL    HW122160   4.401   2.017  14.492  0.3394 -0.5910  0.5188
 3508SOL    HW222161   4.262   2.050  14.542 -0.4303  2.1368  2.4887
 3509SOL     OW22162   3.985   0.378  12.327 -0.2390 -0.3816  0.3147
 3509SOL    HW122163   3.935   0.392  12.247  0.8655  1.4376 -0.0483
 3509SOL    HW222164   4.013   0.286  12.321  0.5285 -0.0854 -0.5263
 3510SOL     OW22165   1.985   1.332  11.878  0.2017 -0.2284 -0.1016
 3510SOL    HW122166   1.912   1.338  11.816  0.0977  1.4192  0.1878
 3510SOL    HW222167   2.028   1.262  11.829 -0.3762 -0.9666  0.4563
 3511SOL     OW22168   1.969   2.885  15.099 -0.3170  0.1013 -0.4112
 3511SOL    HW122169   1.988   2.820  15.031  2.6433  0.1217  0.3618
 3511SOL    HW222170   1.888   2.916  15.059 -0.5668 -0.1689 -0.1077
 3512SOL     OW22171   2.371   3.005   8.737 -0.7973 -0.4593  0.0439
 3512SOL    HW122172   2.311   2.978   8.667  0.9271 -1.5366 -0.9984
 3512SOL    HW222173   2.455   2.968   8.710 -0.0036  1.1739  0.3229
 3513SOL     OW22174   2.276   4.634  14.094  0.1512  0.5874 -0.3411
 3513SOL    HW122175   2.303   4.549  14.060  4.6150  2.4866 -1.5580
 3513SOL    HW222176   2.188   4.651  14.059  0.4175 -0.5830 -1.5608
 3514SOL     OW22177   3.798   1.443   6.039  0.0275  0.3512 -0.2357
 3514SOL    HW122178   3.836   1.423   6.125 -0.9053 -0.3046  0.0155
 3514SOL    HW222179   3.714   1.398   6.042 -0.4146  1.1700 -0.4931
 3515SOL     OW22180   1.610   4.285   4.412  0.3113  0.6891  0.4224
 3515SOL    HW122181   1.587   4.345   4.482  2.6323  0.0435  1.7150
 3515SOL    HW222182   1.584   4.339   4.337 -2.5236 -1.4331 -0.1219
 3516SOL     OW22183   2.355   0.393   5.035 -0.2615 -0.8247  0.1269
 3516SOL    HW122184   2.263   0.366   5.033  0.1068 -2.0157 -0.8151
 3516SOL    HW222185   2.345   0.467   5.095  2.4497 -0.5762  0.2489
 3517SOL     OW22186   2.957   0.911   2.473 -0.1196 -0.7025  0.0317
 3517SOL    HW122187   2.890   0.846   2.493 -0.4279 -0.7030 -1.0105
 3517SOL    HW222188   3.002   0.878   2.395  0.4216 -0.6106  0.3028
 3518SOL     OW22189   0.543   2.781  14.345 -0.1109  0.2085 -0.1880
 3518SOL    HW122190   0.607   2.784  14.274 -1.4918  3.3253 -1.2715
 3518SOL    HW222191   0.470   2.828  14.305  0.2273 -0.0246 -1.0836
 3519SOL     OW22192   4.536   1.394   6.239  0.0895 -0.5833  0.4535
 3519SOL    HW122193   4.478   1.381   6.315 -2.3924 -0.2755 -1.3831
 3519SOL    HW222194   4.591   1.465   6.270  0.6302  0.5600 -3.1142
 3520SOL     OW22195   4.680   2.293   6.751 -0.2157  0.1806 -1.2224
 3520SOL    HW122196   4.602   2.347   6.765 -2.7761 -4.1249  1.2225
 3520SOL    HW222197   4.710   2.328   6.667  2.3515 -1.6397 -1.0736
 3521SOL     OW22198   2.343   4.681   6.874  0.1637  0.7214 -0.7635
 3521SOL    HW122199   2.248   4.683   6.875  0.1462  0.5014 -2.0376
 3521SOL    HW222200   2.356   0.032   6.884  0.7905  0.0392  4.9317
 3522SOL     OW22201   3.253   3.871   7.495  0.5699 -0.0001 -0.0080
 3522SOL    HW122202   3.291   3.802   7.441 -0.8627 -1.4259  0.8041
 3522SOL    HW222203   3.332   3.910   7.533 -0.2648  2.6379 -0.9791
 3523SOL     OW22204   4.003   3.812   4.076  0.3428  0.3626  0.7726
 3523SOL    HW122205   3.912   3.809   4.106 -0.3253  0.0935 -1.2523
 3523SOL    HW222206   4.002   3.872   4.002 -0.2050  0.5180  0.9040
 3524SOL     OW22207   2.579   3.512  13.166  0.0027  0.2982  0.0874
 3524SOL    HW122208   2.598   3.546  13.253  0.5350  1.0921 -0.3312
 3524SOL    HW222209   2.526   3.436  13.189  0.8247 -0.0728  0.7208
 3525SOL     OW22210   1.728   3.280   4.913 -0.1369 -0.0664  0.0843
 3525SOL    HW122211   1.679   3.201   4.933  0.7036 -0.4087  0.7807
 3525SOL    HW222212   1.817   3.259   4.941  0.2574 -0.2985 -1.3050
 3526SOL     OW22213   0.000   0.279   5.609  0.2891 -0.4676  0.2534
 3526SOL    HW122214   4.695   0.257   5.689 -1.2643 -1.0847 -0.8501
 3526SOL    HW222215   0.013   0.195   5.566  0.5227 -0.3968  0.1846
 3527SOL     OW22216   4.243   2.258  10.821  0.2987 -0.1955  0.3358
 3527SOL    HW122217   4.154   2.272  10.853 -0.5551 -3.3433 -0.7190
 3527SOL    HW222218   4.274   2.174  10.854  0.1313 -0.8838 -1.2570
 3528SOL     OW22219   1.666   4.374  11.745  0.6384  0.3379  0.4206
 3528SOL    HW122220   1.745   4.321  11.739 -0.3240 -1.1072  0.5976
 3528SOL    HW222221   1.707   4.458  11.725  1.3676  0.1128  0.9650
 3529SOL     OW22222   2.027   4.658  13.953  0.3408 -0.1908 -0.0499
 3529SOL    HW122223   2.065   4.705  13.879 -0.4237  0.6273  0.0677
 3529SOL    HW222224   1.963   4.728  13.970 -2.0197 -1.8331 -2.0858
 3530SOL     OW22225   2.821   4.303   7.425 -0.0434 -0.1813  0.4942
 3530SOL    HW122226   2.892   4.296   7.489 -0.9246 -2.6522  1.1808
 3530SOL    HW222227   2.851   4.241   7.359  0.2734  0.1597  0.3149
 3531SOL     OW22228   1.236   2.680   4.664  0.2439  0.2706  0.3585
 3531SOL    HW122229   1.148   2.649   4.686 -0.4866  1.3259 -1.1613
 3531SOL    HW222230   1.283   2.599   4.645 -0.7881 -0.2627  0.0519
 3532SOL     OW22231   4.128   3.547   4.466  0.5814  0.1634 -0.2595
 3532SOL    HW122232   4.135   3.630   4.419  1.0858 -0.6404 -1.6318
 3532SOL    HW222233   4.093   3.571   4.551 -0.2135 -1.9454  0.0206
 3533SOL     OW22234   3.050   0.408  15.225 -0.2247  0.2785 -0.1650
 3533SOL    HW122235   3.055   0.503  15.212 -2.7351  0.6813  1.7838
 3533SOL    HW222236   3.003   0.409  15.308 -2.0155  1.4245 -1.1736
 3534SOL     OW22237   4.101   3.679   3.650  0.7220 -0.3683 -0.2075
 3534SOL    HW122238   4.103   3.744   3.580  3.0955  0.1298  0.3164
 3534SOL    HW222239   4.039   3.615   3.615  0.2866  0.1498 -0.3801
 3535SOL     OW22240   2.709   2.255  10.631  0.0517 -0.2385 -0.0823
 3535SOL    HW122241   2.623   2.274  10.669 -1.2226 -1.1946 -2.4800
 3535SOL    HW222242   2.726   2.336  10.584 -0.7592  0.0464  0.1058
 3536SOL     OW22243   4.681   1.750   4.751 -0.7056  0.4230  0.1408
 3536SOL    HW122244   0.013   1.692   4.738 -1.3936 -0.8110  1.6938
 3536SOL    HW222245   4.677   1.795   4.667  0.3264 -0.8941 -0.6066
 3537SOL     OW22246   1.245   3.250   1.657 -0.4727  0.0432  0.5780
 3537SOL    HW122247   1.247   3.250   1.752  1.1330 -0.1768  0.5526
 3537SOL    HW222248   1.310   3.316   1.631 -1.6618  1.0684  0.2094
 3538SOL     OW22249   4.454   2.846   1.867 -0.2074  0.0540  0.0782
 3538SOL    HW122250   4.527   2.900   1.897 -0.6135 -0.0494  1.2470
 3538SOL    HW222251   4.429   2.817   1.954 -0.0715  1.4778  0.5941
 3539SOL     OW22252   3.321   1.942   3.456 -0.5096 -0.6047 -0.3297
 3539SOL    HW122253   3.337   2.023   3.504  1.1848 -0.8148 -0.5306
 3539SOL    HW222254   3.367   1.882   3.516 -1.3040 -0.6015  0.2784
 3540SOL     OW22255   2.742   0.072   9.156  0.0992 -0.4162 -0.3157
 3540SOL    HW122256   2.800   0.016   9.104 -0.4482 -0.1275 -1.2278
 3540SOL    HW222257   2.664   0.017   9.161 -0.5974  0.4516 -1.5831
 3541SOL     OW22258   2.835   3.523   9.956  0.5939  0.0850  0.4172
 3541SOL    HW122259   2.844   3.442  10.007  1.8508  0.1483  0.2934
 3541SOL    HW222260   2.927   3.546   9.951 -0.3638  3.4453 -1.6383
 3542SOL     OW22261   3.945   2.453   2.034  0.3136  0.0344 -0.1460
 3542SOL    HW122262   3.900   2.369   2.028  1.3832 -0.5401 -0.1990
 3542SOL    HW222263   3.999   2.452   1.954 -0.9670  0.9516 -1.0110
 3543SOL     OW22264   0.060   3.316  17.526  0.4897 -0.6103 -0.1724
 3543SOL    HW122265   0.133   3.278  17.574 -1.6504 -1.9577  2.0386
 3543SOL    HW222266   4.733   3.251  17.539  0.6125 -0.6127  0.4730
 3544SOL     OW22267   3.846   0.769   3.748 -0.3175 -0.0633 -0.3824
 3544SOL    HW122268   3.839   0.865   3.747 -3.1425 -0.2796 -0.5224
 3544SOL    HW222269   3.803   0.759   3.663  0.2535 -1.5319 -0.4965
 3545SOL     OW22270   2.026   1.496   4.413 -0.1503 -0.1193  0.2293
 3545SOL    HW122271   2.076   1.542   4.481 -0.6827  3.2197 -1.6459
 3545SOL    HW222272   2.042   1.533   4.327  2.5653  1.2596  1.3241
 3546SOL     OW22273   4.145   3.819   0.602  0.5422 -0.6925  0.6548
 3546SOL    HW122274   4.230   3.846   0.634  0.4332 -3.5965  3.3940
 3546SOL    HW222275   4.089   3.867   0.664  0.3927  1.4717 -1.1702
 3547SOL     OW22276   3.902   4.454   3.145  0.1430  0.9474 -1.1588
 3547SOL    HW122277   3.924   4.536   3.100 -0.6580  1.1273 -1.2091
 3547SOL    HW222278   3.856   4.406   3.078 -0.7284 -2.0769  1.6252
 3548SOL     OW22279   3.575   4.657   3.936 -0.2249 -0.3309 -0.1720
 3548SOL    HW122280   3.668   4.679   3.938  0.0946 -1.6200 -0.8601
 3548SOL    HW222281   3.576   4.587   3.870 -0.7852 -0.2664 -0.2487
 3549SOL     OW22282   1.438   3.579   0.726  0.5601 -0.1541 -0.3376
 3549SOL    HW122283   1.459   3.611   0.638  0.9846 -0.6797 -0.4269
 3549SOL    HW222284   1.349   3.545   0.713 -0.4382  1.3828  2.4795
 3550SOL     OW22285   1.814   0.929  14.772 -0.0452  0.0022  0.1386
 3550SOL    HW122286   1.904   0.948  14.745  0.6527  0.4856  2.8095
 3550SOL    HW222287   1.794   0.993  14.840  2.4878  1.6682 -0.6702
 3551SOL     OW22288   4.362   1.396  11.829  0.5105  0.2707 -0.3337
 3551SOL    HW122289   4.314   1.313  11.829  1.5153 -0.3091  0.0994
 3551SOL    HW222290   4.296   1.452  11.870  2.2535  2.4498 -0.5635
 3552SOL     OW22291   4.656   2.505   3.672 -0.7222  0.3264  0.4673
 3552SOL    HW122292   4.737   2.458   3.690 -1.0305 -0.2338  0.3784
 3552SOL    HW222293   4.636   2.475   3.583  1.8878  0.0008 -0.0313
 3553SOL     OW22294   1.064   1.324  14.032 -0.1141 -0.4340  0.7002
 3553SOL    HW122295   0.989   1.332  14.090 -2.1689 -1.6806 -1.7929
 3553SOL    HW222296   1.090   1.415  14.043 -0.3997 -0.3327  0.5169
 3554SOL     OW22297   2.080   0.640   4.433  0.0242  0.2849 -0.1801
 3554SOL    HW122298   2.119   0.634   4.520 -0.1646  3.0511  0.0771
 3554SOL    HW222299   2.008   0.702   4.433 -1.0420 -0.9436  1.3860
 3555SOL     OW22300   1.419   3.650   3.157  0.2459 -0.4254  0.2105
 3555SOL    HW122301   1.414   3.703   3.077  0.3638 -1.1256 -0.2627
 3555SOL    HW222302   1.463   3.574   3.117 -0.7363  0.3319 -2.2869
 3556SOL     OW22303   2.529   2.491  13.603 -0.3009 -0.2026 -0.8394
 3556SOL    HW122304   2.491   2.576  13.580 -0.0684 -0.0486 -0.6524
 3556SOL    HW222305   2.619   2.510  13.629 -0.5181  0.9463 -0.9402
 3557SOL     OW22306   4.634   3.367   4.317 -0.4023 -0.0048  0.2799
 3557SOL    HW122307   4.598   3.408   4.239 -1.0049 -2.2130 -0.6070
 3557SOL    HW222308   4.604   3.420   4.391 -0.4400  1.3934 -0.7543
 3558SOL     OW22309   2.711   3.251   3.381  0.4740 -0.0576 -0.5733
 3558SOL    HW122310   2.780   3.260   3.447  1.3520 -0.5333 -1.4159
 3558SOL    HW222311   2.661   3.172   3.402  2.2976 -1.0993 -0.1548
 3559SOL     OW22312   0.666   0.025   6.963 -0.2435 -0.2280 -0.2971
 3559SOL    HW122313   0.658   4.690   7.018  1.0480 -1.0585 -1.2620
 3559SOL    HW222314   0.752   0.061   6.983 -0.4622 -0.0164  0.2644
 3560SOL     OW22315   3.791   0.720   8.946  0.2545 -0.1233 -0.3564
 3560SOL    HW122316   3.720   0.657   8.942  0.1998 -0.1807  1.5960
 3560SOL    HW222317   3.763   0.795   8.893  1.3394  0.5583  0.0405
 3561SOL     OW22318   2.449   4.358   8.114  0.6493  0.5101 -0.6741
 3561SOL    HW122319   2.468   4.272   8.150  0.9262  0.0774 -1.8515
 3561SOL    HW222320   2.449   4.335   8.021 -1.4085  2.3450 -1.1176
 3562SOL     OW22321   2.647   1.984  10.962 -0.2580  0.5077 -0.3157
 3562SOL    HW122322   2.694   2.033  11.029 -0.7605  0.1060  0.3313
 3562SOL    HW222323   2.674   1.893  10.978  1.7621  1.2270  0.2645
 3563SOL     OW22324   2.137   3.596   8.904 -0.3626  0.0812  0.4255
 3563SOL    HW122325   2.050   3.588   8.942 -0.4061 -0.7323  0.1436
 3563SOL    HW222326   2.112   3.625   8.816  0.3244 -0.4115  0.0618
 3564SOL     OW22327   3.677   0.510   3.520  0.4092 -0.6219 -0.1318
 3564SOL    HW122328   3.767   0.494   3.550  2.0300  3.6848 -2.7123
 3564SOL    HW222329   3.682   0.605   3.529  1.2136 -0.6107 -0.6474
 3565SOL     OW22330   0.102   2.690   0.513 -0.4172 -0.0117  0.4730
 3565SOL    HW122331   0.096   2.603   0.473 -1.3173  0.3904 -0.2636
 3565SOL    HW222332   0.054   2.759   0.466 -0.5058 -0.9577 -0.8239
 3566SOL     OW22333   2.879   0.750  12.077 -0.2335 -0.1304 -0.4399
 3566SOL    HW122334   2.872   0.844  12.091  1.8786  0.0404 -0.5223
 3566SOL    HW222335   2.814   0.716  12.138 -1.3632 -0.6355 -1.9324
 3567SOL     OW22336   0.351   1.353   8.487 -0.3801 -0.6694 -0.6200
 3567SOL    HW122337   0.430   1.299   8.483  0.0490 -0.0584 -0.2815
 3567SOL    HW222338   0.318   1.324   8.402 -0.4959  1.0153 -1.1511
 3568SOL     OW22339   0.289   4.023  15.671 -0.0264  0.4814 -0.6123
 3568SOL    HW122340   0.293   4.069  15.587  3.2513  1.7677  0.2320
 3568SOL    HW222341   0.369   4.052  15.715  0.2709 -1.0151 -0.1823
 3569SOL     OW22342   2.032   2.993   1.805  0.1248  0.2491 -0.4262
 3569SOL    HW122343   1.999   2.938   1.734 -0.6776  1.3501 -0.9126
 3569SOL    HW222344   2.118   3.027   1.779 -0.0635  0.1350 -1.2143
 3570SOL     OW22345   3.283   0.470   2.558  0.0873 -0.3605  0.3143
 3570SOL    HW122346   3.269   0.475   2.653  1.4610  1.3384  0.4225
 3570SOL    HW222347   3.213   0.410   2.532 -0.2830 -1.8819  4.8545
 3571SOL     OW22348   2.231   1.183  14.335 -0.3651 -0.5625  0.1756
 3571SOL    HW122349   2.147   1.225  14.358  0.5603  1.0860  0.5529
 3571SOL    HW222350   2.202   1.092  14.338  0.3650 -0.7936  0.2050
 3572SOL     OW22351   2.341   1.839   6.112  0.3255  0.4707 -0.4951
 3572SOL    HW122352   2.394   1.902   6.063 -2.6911  2.8636 -0.7204
 3572SOL    HW222353   2.282   1.817   6.040  0.1141 -0.6271  0.0078
 3573SOL     OW22354   0.948   3.349  10.974 -0.0167 -0.1124 -0.2773
 3573SOL    HW122355   1.017   3.347  10.907  0.4350  1.5169  0.1270
 3573SOL    HW222356   0.977   3.278  11.032 -0.1366  1.6280  1.9090
 3574SOL     OW22357   1.101   0.361  12.369 -0.5748 -0.0021 -0.1441
 3574SOL    HW122358   1.194   0.353  12.345  0.5159  1.7226  3.3769
 3574SOL    HW222359   1.085   0.277  12.413 -0.9520  1.4773  2.5158
 3575SOL     OW22360   1.256   1.817   4.700  0.4652 -0.0998  0.7454
 3575SOL    HW122361   1.180   1.760   4.710  0.6216 -0.2258  1.1841
 3575SOL    HW222362   1.272   1.841   4.791  2.1011  0.4579  0.3168
 3576SOL     OW22363   1.142   2.995   7.294 -0.0949 -0.4644  0.6152
 3576SOL    HW122364   1.136   2.911   7.248  1.4397  0.0305 -0.4952
 3576SOL    HW222365   1.159   2.965   7.383  0.4529  1.8824  1.3239
 3577SOL     OW22366   0.847   1.335   3.643 -0.1723 -0.1356  0.3577
 3577SOL    HW122367   0.830   1.261   3.584 -1.1056  0.1104  0.3183
 3577SOL    HW222368   0.923   1.380   3.605 -0.2131 -0.1208  0.2935
 3578SOL     OW22369   2.866   2.314   6.383 -0.4581  0.5323  0.8404
 3578SOL    HW122370   2.958   2.340   6.375  0.0502 -1.3511  0.4241
 3578SOL    HW222371   2.845   2.294   6.474  0.2521  1.1226  1.1333
 3579SOL     OW22372   1.413   1.134   4.399 -0.6888  0.0968  0.4713
 3579SOL    HW122373   1.397   1.215   4.351  0.5319  0.6979  1.0648
 3579SOL    HW222374   1.472   1.082   4.345  0.5081  1.4055  0.5326
 3580SOL     OW22375   2.938   0.730   4.693  0.2209  0.0393  0.4645
 3580SOL    HW122376   2.990   0.650   4.691  0.7299  0.3669  0.5364
 3580SOL    HW222377   2.910   0.744   4.784  0.9442 -1.3110  0.8925
 3581SOL     OW22378   3.426   0.363   7.011 -0.0658 -0.1284 -0.1433
 3581SOL    HW122379   3.355   0.340   7.071  0.9240  1.5320  1.6544
 3581SOL    HW222380   3.419   0.459   7.006 -0.1852 -0.1308 -0.0162
 3582SOL     OW22381   3.306   4.318   7.963  0.3925  0.5633 -0.2062
 3582SOL    HW122382   3.359   4.378   8.015 -0.6700  1.3215  0.0061
 3582SOL    HW222383   3.228   4.303   8.018 -0.0294  1.8292 -0.4482
 3583SOL     OW22384   4.219   4.207  11.631 -0.0412  0.5714  0.1166
 3583SOL    HW122385   4.299   4.185  11.582  0.1180  0.0466  0.6108
 3583SOL    HW222386   4.244   4.286  11.678 -0.1294  1.6081 -1.5807
 3584SOL     OW22387   2.664   0.795   5.803 -0.0171  0.2655 -0.3489
 3584SOL    HW122388   2.601   0.735   5.763  1.0907 -0.2048 -1.4080
 3584SOL    HW222389   2.645   0.876   5.756 -0.1462  0.0172 -0.7307
 3585SOL     OW22390   3.294   2.478   5.856 -0.6007 -0.3097 -0.2585
 3585SOL    HW122391   3.273   2.524   5.775  0.0083  0.6943  0.1643
 3585SOL    HW222392   3.221   2.416   5.860 -1.9517  1.2349 -0.7966
 3586SOL     OW22393   3.198   2.197   5.692  0.8702  0.2343 -0.0703
 3586SOL    HW122394   3.192   2.107   5.658  1.2454  0.1772  0.0160
 3586SOL    HW222395   3.279   2.181   5.742  1.1563  1.7796 -0.0488
 3587SOL     OW22396   3.653   3.791   5.120 -0.3351 -0.6529  0.1293
 3587SOL    HW122397   3.707   3.810   5.197 -0.8248  0.0651  0.2923
 3587SOL    HW222398   3.645   3.882   5.089  0.6475 -0.5302  0.2139
 3588SOL     OW22399   2.337   2.796  10.595 -0.4274  0.1398  0.4286
 3588SOL    HW122400   2.350   2.805  10.690 -0.2912  0.8278  0.3430
 3588SOL    HW222401   2.380   2.876  10.566 -1.3289  0.4711  0.0046
 3589SOL     OW22402   0.886   1.016   8.738  0.0945  0.2391 -0.4997
 3589SOL    HW122403   0.905   0.951   8.670  1.6279 -0.3413  0.4889
 3589SOL    HW222404   0.949   0.987   8.804 -0.2226 -0.4183 -0.4872
 3590SOL     OW22405   3.746   0.233   9.300 -0.3226 -0.1540  0.6950
 3590SOL    HW122406   3.680   0.301   9.305  1.0848  1.2988 -0.3105
 3590SOL    HW222407   3.706   0.178   9.232 -0.6318  0.2052  0.5878
 3591SOL     OW22408   3.833   2.359   9.053 -0.0278  0.3975 -0.7523
 3591SOL    HW122409   3.810   2.401   9.135  0.7683  0.1331 -0.3874
 3591SOL    HW222410   3.770   2.287   9.060  1.7795 -1.1689 -0.5499
 3592SOL     OW22411   4.400   3.564   7.553 -0.0445  0.0186  0.1248
 3592SOL    HW122412   4.338   3.637   7.548  0.4217  0.3751 -0.5329
 3592SOL    HW222413   4.361   3.492   7.503  1.8223 -0.7543 -0.2183
 3593SOL     OW22414   2.109   3.027   9.565  0.2731  0.0570 -0.1060
 3593SOL    HW122415   2.125   3.016   9.472  0.7818  1.0165 -0.1349
 3593SOL    HW222416   2.173   2.967   9.604  0.1218  0.0991  0.2089
 3594SOL     OW22417   0.087   3.815   0.716 -0.2066 -0.0592  0.4092
 3594SOL    HW122418   0.161   3.754   0.713 -0.4875 -0.3120 -1.7607
 3594SOL    HW222419   0.127   3.899   0.694  2.0637 -1.1339  0.4017
 3595SOL     OW22420   0.443   0.025  16.407 -0.7220  0.0140  0.0215
 3595SOL    HW122421   0.388   0.014  16.484 -1.1278  2.4003  0.0937
 3595SOL    HW222422   0.374   0.036  16.341  1.6785 -0.1458 -2.5050
 3596SOL     OW22423   0.942   3.375  12.721  0.4731 -0.5298  0.1103
 3596SOL    HW122424   0.974   3.401  12.635  2.8241 -0.8334  0.8905
 3596SOL    HW222425   1.020   3.392  12.773 -0.3568  0.2029  1.1154
 3597SOL     OW22426   0.287   1.819   9.781  0.3378 -0.5007 -0.0313
 3597SOL    HW122427   0.271   1.901   9.733  2.8893  0.1611  0.2190
 3597SOL    HW222428   0.337   1.764   9.721 -1.6884  1.2796 -3.3768
 3598SOL     OW22429   3.788   0.242   6.415 -0.3976  0.1965 -0.6334
 3598SOL    HW122430   3.709   0.229   6.362 -1.1781  2.8774 -0.1282
 3598SOL    HW222431   3.773   0.160   6.463 -2.5726  1.3936  0.7079
 3599SOL     OW22432   2.005   3.418   6.753 -0.5314 -0.1288  0.0830
 3599SOL    HW122433   1.910   3.408   6.751 -0.5838 -0.1383  2.9942
 3599SOL    HW222434   2.036   3.327   6.763  1.3760  0.4683 -0.2725
 3600SOL     OW22435   1.885   4.436  11.117 -0.1865  0.6102  0.5805
 3600SOL    HW122436   1.815   4.377  11.146  0.7634 -0.5189  0.5598
 3600SOL    HW222437   1.959   4.401  11.166  0.3534 -0.2437 -0.8511
 3601SOL     OW22438   0.708   4.614   1.323  0.0962  0.3101  0.0949
 3601SOL    HW122439   0.768   4.672   1.368 -1.6171  2.0028  0.1788
 3601SOL    HW222440   0.763   4.539   1.298 -0.6957  0.3933 -1.9151
 3602SOL     OW22441   3.840   1.716  10.050  0.2948  0.0562 -0.0614
 3602SOL    HW122442   3.753   1.735  10.083 -0.6372 -0.4309 -2.2973
 3602SOL    HW222443   3.817   1.650   9.985  1.9486 -0.8978  0.3193
 3603SOL     OW22444   3.767   2.621   1.772  0.2930 -0.4077 -0.5598
 3603SOL    HW122445   3.800   2.681   1.839 -0.5493  1.5460 -1.8746
 3603SOL    HW222446   3.759   2.674   1.693  0.6605 -0.0043 -0.3291
 3604SOL     OW22447   3.063   0.113   3.308 -0.0171  0.0698  0.4197
 3604SOL    HW122448   3.113   0.165   3.371 -0.4852  0.2279  0.6645
 3604SOL    HW222449   3.017   0.052   3.366 -0.1885  0.0165  0.2301
 3605SOL     OW22450   0.647   2.869   6.374  0.1190 -0.0665 -0.2704
 3605SOL    HW122451   0.731   2.902   6.406 -0.5555  0.5173  0.9159
 3605SOL    HW222452   0.588   2.887   6.447 -0.5017  1.0542 -1.0610
 3606SOL     OW22453   0.698   0.393   6.081  0.4834  0.2105  0.1391
 3606SOL    HW122454   0.659   0.467   6.127 -1.5120 -0.3444 -0.6711
 3606SOL    HW222455   0.793   0.403   6.093  0.2875  1.3753  0.6874
 3607SOL     OW22456   4.733   0.283   8.683 -0.6460 -0.1083 -0.2422
 3607SOL    HW122457   0.034   0.201   8.707 -1.0221 -0.6754 -1.4434
 3607SOL    HW222458   0.057   0.334   8.638 -0.2126  0.4669  1.0682
 3608SOL     OW22459   1.047   0.748  12.462 -0.1510 -0.0204  0.2215
 3608SOL    HW122460   0.989   0.672  12.456  0.4916 -0.3981 -1.2176
 3608SOL    HW222461   1.052   0.757  12.557 -2.0494  2.1514  0.0919
 3609SOL     OW22462   2.549   4.055  11.809 -0.0641 -0.4199 -0.4776
 3609SOL    HW122463   2.595   3.994  11.867  2.0411  0.5995 -1.0745
 3609SOL    HW222464   2.620   4.098  11.762  0.8127  0.1276  1.3515
 3610SOL     OW22465   1.026   3.112   7.678  0.3974 -0.5486  0.1380
 3610SOL    HW122466   1.100   3.052   7.669 -0.6090 -1.4448 -2.0723
 3610SOL    HW222467   1.064   3.181   7.733  0.5181 -0.6189  0.1439
 3611SOL     OW22468   2.184   0.290   1.882  0.1180  0.2866 -0.3553
 3611SOL    HW122469   2.263   0.259   1.927  0.9347 -1.0109 -2.6924
 3611SOL    HW222470   2.107   0.258   1.929 -0.7403 -0.6206 -2.4295
 3612SOL     OW22471   4.221   3.159   4.577  0.3192 -0.3578  0.1816
 3612SOL    HW122472   4.127   3.174   4.575  0.0957 -1.6898  0.6561
 3612SOL    HW222473   4.247   3.226   4.514 -1.2615  1.1807  1.1976
 3613SOL     OW22474   3.836   3.966   9.554  0.1329  0.3655 -0.0642
 3613SOL    HW122475   3.874   3.991   9.470 -2.1961  2.6407 -0.4391
 3613SOL    HW222476   3.754   3.929   9.522 -1.5723  4.7973 -0.7740
 3614SOL     OW22477   1.005   3.032   5.636 -0.2723 -0.3366  0.5049
 3614SOL    HW122478   1.050   3.045   5.553 -1.2268 -0.8743 -0.1042
 3614SOL    HW222479   0.928   3.089   5.630 -0.6541 -1.0127 -0.9918
 3615SOL     OW22480   1.659   2.815  16.411 -0.1854  0.1263  0.2986
 3615SOL    HW122481   1.667   2.723  16.386 -0.6226  0.2164 -0.1803
 3615SOL    HW222482   1.588   2.851  16.358 -0.4410 -0.7624  0.0366
 3616SOL     OW22483   0.270   1.676   9.416 -0.2684  0.0618  0.2410
 3616SOL    HW122484   0.294   1.618   9.344  1.4803  1.3973 -0.2622
 3616SOL    HW222485   0.301   1.626   9.491  1.3562 -2.2614 -1.9637
 3617SOL     OW22486   0.006   1.463   8.793 -0.3727 -0.4882  0.1515
 3617SOL    HW122487   4.676   1.524   8.800 -0.8086 -0.9738 -0.1390
 3617SOL    HW222488   0.076   1.506   8.744 -0.3566 -0.5162  0.1496
 3618SOL     OW22489   1.040   0.087   2.321 -0.2432  0.4501  0.2703
 3618SOL    HW122490   1.074   0.177   2.326  0.5717  0.1403  0.2279
 3618SOL    HW222491   0.980   0.079   2.395 -2.2224 -2.3116 -1.6442
 3619SOL     OW22492   1.237   1.290   6.526 -0.0715 -0.2291  0.1094
 3619SOL    HW122493   1.262   1.301   6.435 -1.4329 -2.3451 -0.5124
 3619SOL    HW222494   1.278   1.371   6.558  1.9330 -1.6075  1.0476
 3620SOL     OW22495   1.754   1.256  10.399  0.6589 -0.8134  0.1247
 3620SOL    HW122496   1.662   1.264  10.373  0.5310 -1.1917  0.4397
 3620SOL    HW222497   1.742   1.228  10.490  1.3561 -2.7938 -0.3811
 3621SOL     OW22498   3.289   2.874   8.562 -0.0980  0.1017 -0.0727
 3621SOL    HW122499   3.293   2.955   8.511 -0.1258  0.8949  1.1711
 3621SOL    HW222500   3.272   2.804   8.500  1.7142 -0.0418 -0.4096
 3622SOL     OW22501   2.528   2.264   7.627 -0.4882  0.2385  0.1683
 3622SOL    HW122502   2.498   2.338   7.679 -0.9872  0.1984 -0.0601
 3622SOL    HW222503   2.447   2.250   7.577 -0.2169 -0.0369 -0.1936
 3623SOL     OW22504   1.714   2.014   7.430  0.1577 -0.1089  0.3264
 3623SOL    HW122505   1.785   2.030   7.367  0.0936  0.0428  0.2915
 3623SOL    HW222506   1.640   2.051   7.381  0.1972  0.4923  0.7166
 3624SOL     OW22507   4.162   0.475   8.147 -0.4137 -0.4302 -0.1399
 3624SOL    HW122508   4.190   0.481   8.056 -3.3577 -0.2457 -1.0333
 3624SOL    HW222509   4.072   0.447   8.129 -1.0723 -0.5828  3.3160
 3625SOL     OW22510   0.212   2.194   0.793  0.2588 -0.0265 -0.5089
 3625SOL    HW122511   0.252   2.241   0.866 -2.0935 -2.0813  2.0901
 3625SOL    HW222512   0.140   2.254   0.772  0.7847  1.6451  2.4843
 3626SOL     OW22513   4.178   2.110   3.612 -0.0616 -0.5310 -0.1779
 3626SOL    HW122514   4.140   2.188   3.573  0.8409  0.0073  0.0357
 3626SOL    HW222515   4.249   2.088   3.553  0.7753  1.6723  0.0245
 3627SOL     OW22516   1.085   4.609   6.390 -0.2100  0.4109 -0.0570
 3627SOL    HW122517   1.067   4.521   6.359  0.2295  0.2068  0.2690
 3627SOL    HW222518   1.012   4.663   6.361 -0.3328  0.6651  0.7358
 3628SOL     OW22519   2.619   0.159   5.676 -0.3644  0.5021 -0.4095
 3628SOL    HW122520   2.576   0.173   5.761 -1.1131  1.3215 -0.9227
 3628SOL    HW222521   2.592   0.239   5.631  1.4875  0.4013 -1.7056
 3629SOL     OW22522   0.482   0.520   6.814 -0.2013 -0.5839 -0.0173
 3629SOL    HW122523   0.535   0.441   6.805  0.4065 -0.1858  0.0409
 3629SOL    HW222524   0.408   0.490   6.866 -2.8059  1.4373 -2.6016
 3630SOL     OW22525   0.026   3.715   5.967 -0.0895  0.2752  0.6423
 3630SOL    HW122526   4.698   3.680   6.022 -0.1795 -0.5102  0.0234
 3630SOL    HW222527   0.046   3.801   6.004  0.8526  0.4948 -0.3858
 3631SOL     OW22528   1.786   0.843   7.286 -0.1980 -0.2253  0.1624
 3631SOL    HW122529   1.779   0.924   7.235 -1.1360  0.4749  1.3857
 3631SOL    HW222530   1.881   0.833   7.280 -0.2456  0.5210 -1.9792
 3632SOL     OW22531   1.028   3.810   9.389 -0.0831  0.5209  0.0244
 3632SOL    HW122532   0.997   3.734   9.340  1.0888  1.3501 -2.0153
 3632SOL    HW222533   0.963   3.812   9.459  0.2338  0.3204  0.3192
 3633SOL     OW22534   1.044   1.988   7.406  0.5221 -0.0237 -0.0168
 3633SOL    HW122535   1.117   1.931   7.432  1.5592  0.3789 -2.0307
 3633SOL    HW222536   0.991   1.945   7.474  1.9523 -1.2735  0.3287
 3634SOL     OW22537   0.169   3.690   5.518  0.6664 -0.6213  0.2742
 3634SOL    HW122538   0.237   3.728   5.463 -1.4277  1.5757 -0.7860
 3634SOL    HW222539   0.156   3.602   5.481  1.8284  0.4796 -2.6849
 3635SOL     OW22540   0.063   3.370   3.155 -0.8458 -0.1396 -0.6468
 3635SOL    HW122541   0.141   3.411   3.192 -0.7736 -0.1069 -0.8360
 3635SOL    HW222542   0.100   3.321   3.082  2.0390 -1.0510  1.4254
 3636SOL     OW22543   0.153   0.644   6.131  0.6760 -0.0742 -0.3778
 3636SOL    HW122544   0.096   0.664   6.205  1.5505 -1.0636  0.5741
 3636SOL    HW222545   0.178   0.734   6.109 -1.1548  0.0122 -2.0500
 3637SOL     OW22546   3.977   1.161  16.651 -0.5961 -0.1868 -0.8031
 3637SOL    HW122547   3.978   1.230  16.584 -0.7903  1.1762  0.6159
 3637SOL    HW222548   4.061   1.160  16.696 -0.5387 -0.3259 -0.9121
 3638SOL     OW22549   0.249   0.194   3.712 -0.0162 -0.2437  0.0772
 3638SOL    HW122550   0.209   0.225   3.794  2.6410 -1.3609  1.7785
 3638SOL    HW222551   0.180   0.133   3.685  0.6118 -0.0657 -1.9051
 3639SOL     OW22552   1.560   3.641   9.621  0.3837 -0.4943 -0.0994
 3639SOL    HW122553   1.481   3.604   9.660  1.9390 -0.1057  3.3773
 3639SOL    HW222554   1.525   3.713   9.570  1.5187 -1.8881 -2.8684
 3640SOL     OW22555   3.099   3.355   2.188  0.3598  0.4686 -0.0219
 3640SOL    HW122556   3.183   3.402   2.191  1.3763 -1.4687  1.6842
 3640SOL    HW222557   3.048   3.416   2.135  2.4088  1.6798 -0.6269
 3641SOL     OW22558   1.405   3.183   5.565  0.2351 -0.3566  0.5259
 3641SOL    HW122559   1.339   3.243   5.532  0.5996 -1.0808 -1.5339
 3641SOL    HW222560   1.349   3.141   5.631 -0.2956 -1.1208 -0.4114
 3642SOL     OW22561   1.851   4.242   5.323 -0.0285 -0.3101  0.7433
 3642SOL    HW122562   1.812   4.170   5.273 -2.6874  1.6721 -0.0644
 3642SOL    HW222563   1.779   4.306   5.321 -1.9110 -2.4775 -1.1807
 3643SOL     OW22564   0.999   1.076   2.738  0.4531 -0.4961 -0.3032
 3643SOL    HW122565   0.980   1.118   2.822 -0.1494 -0.9319 -0.2245
 3643SOL    HW222566   1.071   1.135   2.713 -0.5027 -0.2820 -2.5063
 3644SOL     OW22567   2.759   4.185   6.428  0.4306  0.1884  0.7053
 3644SOL    HW122568   2.677   4.143   6.401  0.4219  0.2355  0.6594
 3644SOL    HW222569   2.761   4.148   6.517  1.1646  1.2851  1.1442
 3645SOL     OW22570   1.815   0.721   7.880  0.1309  0.4702 -0.2681
 3645SOL    HW122571   1.819   0.817   7.885 -0.3347  0.2767  3.3074
 3645SOL    HW222572   1.828   0.715   7.785 -0.6623 -0.3440 -0.3169
 3646SOL     OW22573   3.164   0.839   0.490  0.1032  0.2435  0.4066
 3646SOL    HW122574   3.192   0.872   0.405 -1.3861 -1.8930 -0.9262
 3646SOL    HW222575   3.079   0.884   0.495 -0.6012 -0.8716 -1.4000
 3647SOL     OW22576   0.535   3.590   8.799  0.3706 -0.1106 -0.2165
 3647SOL    HW122577   0.583   3.510   8.821  0.8210  0.2137 -0.0164
 3647SOL    HW222578   0.502   3.609   8.887  2.1709 -1.1341  0.6699
 3648SOL     OW22579   0.289   0.074   4.213  1.1749  0.0918  0.8664
 3648SOL    HW122580   0.255   0.026   4.288  0.3296  1.0911  1.1189
 3648SOL    HW222581   0.371   0.028   4.197 -1.2128 -2.8731 -2.9554
 3649SOL     OW22582   0.211   4.192   4.542 -0.0099  0.2552 -0.3113
 3649SOL    HW122583   0.145   4.235   4.487 -1.0776  1.0220  1.5683
 3649SOL    HW222584   0.286   4.252   4.541 -0.0968  0.3743  1.1714
 3650SOL     OW22585   3.817   1.373   4.702 -0.1867  0.2123  0.4603
 3650SOL    HW122586   3.802   1.438   4.771  0.8735 -0.2907  1.1508
 3650SOL    HW222587   3.859   1.424   4.632 -1.2920 -0.9744 -1.0784
 3651SOL     OW22588   4.023   0.361   6.399  0.0746  0.4371 -0.3973
 3651SOL    HW122589   3.944   0.309   6.415  0.3947 -0.4791 -1.7924
 3651SOL    HW222590   4.085   0.331   6.465 -0.6847  1.5881  0.8262
 3652SOL     OW22591   4.261   3.091   2.154 -0.4814 -0.3699  0.3836
 3652SOL    HW122592   4.231   3.171   2.110  0.8363  1.0906  2.1193
 3652SOL    HW222593   4.349   3.121   2.175  0.1803 -2.1849  0.1673
 3653SOL     OW22594   3.352   0.723   3.575  0.3513 -0.2251 -0.4034
 3653SOL    HW122595   3.373   0.653   3.637  0.8836  1.0420  0.8544
 3653SOL    HW222596   3.394   0.802   3.611  0.5307 -0.7530  0.5482
 3654SOL     OW22597   0.711   1.798   9.191 -0.1267 -0.4497  0.3750
 3654SOL    HW122598   0.642   1.826   9.251  0.1510 -0.3932  0.6659
 3654SOL    HW222599   0.720   1.872   9.131 -2.5263 -1.7587 -1.6143
 3655SOL     OW22600   3.447   4.515   8.098  0.6687  0.0294  0.1890
 3655SOL    HW122601   3.472   4.580   8.033  0.2061  1.2076  1.1961
 3655SOL    HW222602   3.427   4.569   8.174  0.4169  0.7886 -0.4223
 3656SOL     OW22603   3.619   2.695   7.933 -0.0352 -0.4073  0.0487
 3656SOL    HW122604   3.582   2.718   8.018  0.0998  0.7938 -0.2176
 3656SOL    HW222605   3.688   2.762   7.928 -0.2263 -0.1876  0.3416
 3657SOL     OW22606   2.160   1.169   6.522  0.2676 -0.4730 -0.1479
 3657SOL    HW122607   2.123   1.253   6.550  0.6520 -0.2810 -0.2122
 3657SOL    HW222608   2.078   1.125   6.501  0.2961 -1.7161  2.3553
 3658SOL     OW22609   2.592   1.055  14.176 -0.2100 -0.3720  0.2973
 3658SOL    HW122610   2.571   0.964  14.197 -2.5637  0.0269 -0.3546
 3658SOL    HW222611   2.683   1.049  14.146  0.1625  0.7467  1.1980
 3659SOL     OW22612   3.847   0.876   9.160 -0.5088 -0.0115  0.0461
 3659SOL    HW122613   3.811   0.965   9.160  0.4246  0.3812  4.2140
 3659SOL    HW222614   3.826   0.843   9.073 -0.8089 -1.7020  0.7578
 3660SOL     OW22615   1.643   3.999   0.197  0.8376  0.0449  0.3282
 3660SOL    HW122616   1.635   4.092   0.177  2.6428  0.7605  2.9610
 3660SOL    HW222617   1.656   3.966   0.108 -1.3229  2.4868 -0.8720
 3661SOL     OW22618   0.748   2.965   9.477  0.1433 -0.2837 -0.1016
 3661SOL    HW122619   0.807   3.041   9.486 -0.9859  0.4045  1.5257
 3661SOL    HW222620   0.727   2.967   9.384  0.4227 -0.7881 -0.1702
 3662SOL     OW22621   3.726   1.121  16.761  0.1871  0.4773  0.2944
 3662SOL    HW122622   3.816   1.110  16.730  0.3610 -1.0161  1.3537
 3662SOL    HW222623   3.743   1.133  16.855  0.9945  1.7877 -0.0129
 3663SOL     OW22624   4.655   0.105   5.122 -0.3888  0.8138 -0.0065
 3663SOL    HW122625   4.682   0.102   5.214 -1.2968  1.5457  0.2833
 3663SOL    HW222626   4.582   0.044   5.125  0.3236 -0.0360  0.1818
 3664SOL     OW22627   4.046   1.305  13.138 -0.3312 -0.1018  0.8441
 3664SOL    HW122628   4.098   1.269  13.066 -1.9643  0.7281 -0.7488
 3664SOL    HW222629   4.058   1.241  13.208  0.5502  0.8526  1.5515
 3665SOL     OW22630   4.715   3.047   7.458 -0.6982 -0.0425  0.2572
 3665SOL    HW122631   0.065   3.070   7.453  0.0466 -2.8783  1.0233
 3665SOL    HW222632   4.719   2.980   7.526 -0.1635 -1.2577 -0.9659
 3666SOL     OW22633   4.539   0.863   3.963  0.0128 -0.0353  0.3143
 3666SOL    HW122634   4.610   0.919   3.932  0.6048 -1.2512 -0.5461
 3666SOL    HW222635   4.478   0.850   3.890  0.6425 -0.5497 -0.1201
 3667SOL     OW22636   1.131   3.487  10.260  0.3303 -0.2919  0.7815
 3667SOL    HW122637   1.128   3.391  10.270  0.9100 -0.0691  3.2651
 3667SOL    HW222638   1.081   3.510  10.339 -0.4301 -2.4337  0.9471
 3668SOL     OW22639   3.673   1.670   9.428 -0.0694 -0.1298  0.2178
 3668SOL    HW122640   3.723   1.608   9.375 -1.4095 -2.0563  1.1807
 3668SOL    HW222641   3.593   1.618   9.431  0.4985 -0.9229  1.6616
 3669SOL     OW22642   3.257   1.183  17.167 -0.1954  0.1627 -0.7380
 3669SOL    HW122643   3.334   1.150  17.213  0.0957 -1.4617 -2.3640
 3669SOL    HW222644   3.186   1.125  17.195 -0.2282 -0.1277 -1.4302
 3670SOL     OW22645   4.376   1.482   0.753  0.7425  0.4047 -0.1849
 3670SOL    HW122646   4.432   1.475   0.676 -1.1362 -1.1454 -1.4294
 3670SOL    HW222647   4.308   1.418   0.732 -0.4485  1.5223  0.2658
 3671SOL     OW22648   0.782   1.910   4.634 -0.1108  0.0381  0.2960
 3671SOL    HW122649   0.851   1.949   4.580  1.6562 -0.4075  2.2123
 3671SOL    HW222650   0.777   1.829   4.582 -0.1400 -0.0196  0.3891
 3672SOL     OW22651   0.395   4.618   5.053 -0.2552  0.8440 -0.2178
 3672SOL    HW122652   0.316   4.567   5.035 -0.3396  0.8251  0.2162
 3672SOL    HW222653   0.414   4.647   4.964 -0.5086 -1.4485 -1.0116
 3673SOL     OW22654   3.277   1.218   8.022  0.9405  0.5405 -0.7060
 3673SOL    HW122655   3.183   1.237   8.023  0.9160  0.3914  0.1231
 3673SOL    HW222656   3.271   1.127   7.993  1.3156  1.1400 -2.6368
 3674SOL     OW22657   2.238   1.755   4.482  0.8375  0.8495  0.2280
 3674SOL    HW122658   2.240   1.662   4.503 -0.9151  0.7772  0.0547
 3674SOL    HW222659   2.238   1.794   4.570 -0.2472 -0.7995  0.9590
 3675SOL     OW22660   3.527   1.735  15.345  0.1537 -0.8271  0.1720
 3675SOL    HW122661   3.475   1.673  15.294  0.1034  0.6087 -1.5440
 3675SOL    HW222662   3.461   1.804  15.355  0.1229 -1.2087  2.3712
 3676SOL     OW22663   1.307   4.114   6.698  0.9336 -0.2048 -0.0068
 3676SOL    HW122664   1.234   4.068   6.657  0.8435 -0.3766  0.3436
 3676SOL    HW222665   1.324   4.182   6.633 -1.9711  1.5065  1.0474
 3677SOL     OW22666   0.281   4.248  14.844  0.2492 -0.1767  0.1503
 3677SOL    HW122667   0.333   4.281  14.771  0.8556 -0.2879  0.5286
 3677SOL    HW222668   0.326   4.290  14.917 -1.1878  2.5737 -0.5403
 3678SOL     OW22669   4.004   0.149  14.823 -0.2398 -0.1564 -0.0598
 3678SOL    HW122670   4.013   0.243  14.806  1.8601 -0.4346 -0.4434
 3678SOL    HW222671   3.989   0.142  14.918 -1.1408 -0.2532 -0.2119
 3679SOL     OW22672   3.649   1.038   1.989  0.4358 -0.1390  0.6699
 3679SOL    HW122673   3.724   1.093   1.970  0.3517  0.6704  2.6526
 3679SOL    HW222674   3.614   1.077   2.069 -0.2154 -1.7724  1.2036
 3680SOL     OW22675   0.291   0.036   6.870 -0.1253  0.2369 -0.8096
 3680SOL    HW122676   0.281   0.053   6.777 -2.1756  2.0620 -0.2723
 3680SOL    HW222677   0.201   0.064   6.890  0.7182  1.4617  1.3495
 3681SOL     OW22678   4.183   4.015   9.262 -0.3097 -0.0386 -0.2402
 3681SOL    HW122679   4.204   3.998   9.354 -1.7767 -1.0257 -0.0735
 3681SOL    HW222680   4.259   3.982   9.215 -1.7750 -2.0384 -1.2483
 3682SOL     OW22681   4.591   0.815   8.702 -0.0735  0.3424 -0.1558
 3682SOL    HW122682   4.628   0.816   8.790  0.0578 -0.6788 -0.1986
 3682SOL    HW222683   4.550   0.730   8.710  2.0184 -0.8928 -2.3690
 3683SOL     OW22684   0.023   0.897   3.137 -0.1671 -0.2051 -0.3389
 3683SOL    HW122685   0.034   0.808   3.103 -0.4282  0.1981 -1.4854
 3683SOL    HW222686   4.670   0.904   3.130 -0.2010 -0.1520  0.1710
 3684SOL     OW22687   2.210   2.579   5.143  0.7218  0.1388  0.0894
 3684SOL    HW122688   2.304   2.587   5.159  0.4090 -0.3596  2.1639
 3684SOL    HW222689   2.214   2.484   5.130 -0.9818  0.1037 -0.2591
 3685SOL     OW22690   2.349   2.083  11.857 -0.6529  0.2130 -0.4930
 3685SOL    HW122691   2.442   2.064  11.869 -0.8207 -0.4941 -0.3435
 3685SOL    HW222692   2.320   2.014  11.797 -0.1433 -2.7223  2.6762
 3686SOL     OW22693   4.309   3.953   7.629 -0.2708 -0.2395  0.1659
 3686SOL    HW122694   4.402   3.932   7.629 -0.2899 -0.3573 -1.4061
 3686SOL    HW222695   4.308   4.024   7.565 -2.4977  0.1965  0.6804
 3687SOL     OW22696   0.426   2.191   7.030  0.2521 -0.0610  0.0378
 3687SOL    HW122697   0.428   2.244   6.950 -0.0676 -0.2910 -0.1243
 3687SOL    HW222698   0.335   2.209   7.056 -0.1068 -1.1366 -0.4496
 3688SOL     OW22699   1.724   1.027   4.994 -0.6104  0.6608 -0.4412
 3688SOL    HW122700   1.666   1.077   5.052 -1.9063 -0.7552 -0.5264
 3688SOL    HW222701   1.699   1.049   4.904  1.4445 -0.4957 -1.2674
 3689SOL     OW22702   0.311   2.579   1.734  0.2421 -0.3623 -0.3044
 3689SOL    HW122703   0.289   2.487   1.720  0.4625 -0.3571 -0.7057
 3689SOL    HW222704   0.297   2.611   1.645  0.7465 -0.6208 -0.4807
 3690SOL     OW22705   0.227   1.046   8.561  0.2488 -0.0667  0.6638
 3690SOL    HW122706   0.220   0.968   8.616  0.6270 -2.1012 -2.1687
 3690SOL    HW222707   0.215   1.114   8.626  0.1501  0.7208 -0.1815
 3691SOL     OW22708   0.735   3.596   6.644  0.1790 -0.1738 -0.5932
 3691SOL    HW122709   0.706   3.543   6.718  1.1292 -0.0258 -0.1087
 3691SOL    HW222710   0.650   3.631   6.617  0.9854  0.7069 -2.0223
 3692SOL     OW22711   2.613   2.420  15.555  0.1783  0.0779  0.0009
 3692SOL    HW122712   2.699   2.380  15.549  0.5946  1.4861 -3.5752
 3692SOL    HW222713   2.607   2.473  15.475  0.6382  1.5828  0.9705
 3693SOL     OW22714   3.561   4.046   7.357 -0.0751  0.2764 -0.0563
 3693SOL    HW122715   3.600   4.046   7.269  0.5712  4.4107  0.2197
 3693SOL    HW222716   3.588   3.958   7.381 -0.2996  0.1574 -0.2382
 3694SOL     OW22717   1.491   3.744   4.329 -0.0493  0.4665 -0.0031
 3694SOL    HW122718   1.502   3.834   4.297  1.2896  0.7422  1.1901
 3694SOL    HW222719   1.577   3.735   4.370 -0.0365 -1.3254 -0.4669
 3695SOL     OW22720   4.455   2.070  12.666 -0.5106  0.0741 -0.1171
 3695SOL    HW122721   4.550   2.072  12.678 -0.7032  0.3043  1.3032
 3695SOL    HW222722   4.428   2.162  12.670 -0.0984  0.1734  0.2910
 3696SOL     OW22723   4.413   2.718  16.696  0.0326 -0.5332  0.4234
 3696SOL    HW122724   4.331   2.684  16.661  0.4809  0.8350 -1.9468
 3696SOL    HW222725   4.417   2.803  16.652 -1.3070 -0.1095  1.1469
 3697SOL     OW22726   4.468   4.686  15.969 -0.4673 -0.4045  0.0897
 3697SOL    HW122727   4.472   0.006  16.041 -1.0228 -0.8934  0.5575
 3697SOL    HW222728   4.372   4.679  15.978 -0.4995 -0.3436 -0.2075
 3698SOL     OW22729   4.310   3.449   1.651  0.1546 -0.4498  0.4443
 3698SOL    HW122730   4.310   3.429   1.558  0.0319  0.4035  0.2602
 3698SOL    HW222731   4.221   3.460   1.684 -0.1220  0.8963 -0.7583
 3699SOL     OW22732   4.468   4.650   5.420 -0.5708  0.1388 -0.2242
 3699SOL    HW122733   4.459   4.672   5.327 -0.3351  0.2961 -0.2089
 3699SOL    HW222734   4.453   4.555   5.413  1.5725 -0.2429  0.4042
 3700SOL     OW22735   1.087   0.333   1.037 -0.5222 -0.3244  0.8004
 3700SOL    HW122736   1.167   0.382   1.056 -1.1031  0.7575  0.3992
 3700SOL    HW222737   1.094   0.327   0.942 -3.7944  0.5159  0.5330
 3701SOL     OW22738   2.390   0.404   8.340 -0.1337  0.2484 -0.0503
 3701SOL    HW122739   2.328   0.377   8.272 -0.5932 -1.2673  0.9821
 3701SOL    HW222740   2.358   0.494   8.347 -2.1464 -0.2926 -2.4253
 3702SOL     OW22741   3.789   2.802   2.399 -0.5615  0.1828 -0.6275
 3702SOL    HW122742   3.765   2.872   2.460  1.3658  0.1414  0.1800
 3702SOL    HW222743   3.713   2.804   2.341  0.5494  1.9483 -2.0579
 3703SOL     OW22744   2.493   2.109   9.455  0.2498 -0.1958 -0.2445
 3703SOL    HW122745   2.497   2.054   9.533  1.6909 -0.7811 -0.7402
 3703SOL    HW222746   2.398   2.118   9.446  0.5480 -0.4431 -3.6799
 3704SOL     OW22747   0.842   2.920   8.049  0.4175  0.2248  0.0354
 3704SOL    HW122748   0.876   3.007   8.068 -2.2891  0.9039  1.6615
 3704SOL    HW222749   0.866   2.903   7.957 -0.5796  0.7994 -0.3306
 3705SOL     OW22750   4.319   1.829  10.087  0.0127 -0.3626 -0.0043
 3705SOL    HW122751   4.268   1.816  10.167 -2.8751  3.3715 -1.2403
 3705SOL    HW222752   4.367   1.909  10.107 -0.2999  0.1463 -1.2891
 3706SOL     OW22753   0.001   2.050   6.856 -0.8855 -0.4080 -0.5068
 3706SOL    HW122754   4.719   2.130   6.810  1.6175 -0.4672 -1.9725
 3706SOL    HW222755   4.663   2.002   6.874 -2.3310  2.1577 -0.1117
 3707SOL     OW22756   4.237   1.509  10.711 -0.0899  0.3175  0.3800
 3707SOL    HW122757   4.260   1.552  10.794 -0.2276 -1.8751  1.5638
 3707SOL    HW222758   4.146   1.485  10.727 -0.5362  0.9993 -1.2050
 3708SOL     OW22759   1.050   2.817   2.141 -0.0980  0.3841  0.3764
 3708SOL    HW122760   1.094   2.866   2.072  2.2386  0.7988  2.1399
 3708SOL    HW222761   1.078   2.875   2.212  2.5487  0.8058 -1.0050
 3709SOL     OW22762   0.624   1.719   4.376  0.1310 -0.1141  0.2167
 3709SOL    HW122763   0.591   1.762   4.298 -0.1321  1.0513  0.9746
 3709SOL    HW222764   0.563   1.770   4.429  1.2370  1.2021  0.2124
 3710SOL     OW22765   1.435   1.531   3.237  0.2506  0.1390 -0.0237
 3710SOL    HW122766   1.474   1.444   3.229  0.3635  0.0241  1.7143
 3710SOL    HW222767   1.354   1.505   3.280  1.0131  1.7392  2.3797
 3711SOL     OW22768   0.577   4.616   8.331 -0.0431 -0.0625  0.3855
 3711SOL    HW122769   0.482   4.616   8.324  0.0364 -0.4622 -0.6115
 3711SOL    HW222770   0.605   4.533   8.370 -0.8069  0.1173  1.3241
 3712SOL     OW22771   2.056   3.048   3.467  0.6308 -0.0524  0.0264
 3712SOL    HW122772   1.961   3.058   3.466  0.5284 -1.0533 -0.6656
 3712SOL    HW222773   2.068   2.989   3.542  1.4943 -2.2730 -1.8411
 3713SOL     OW22774   2.981   2.670  10.123  0.3302 -0.1577  0.3511
 3713SOL    HW122775   3.077   2.667  10.119  0.2910 -0.4835 -0.3543
 3713SOL    HW222776   2.951   2.587  10.160 -1.1495  0.1597 -0.1267
 3714SOL     OW22777   4.012   4.673   2.191  0.1125 -0.1240 -0.8239
 3714SOL    HW122778   3.942   4.736   2.206  0.6144  0.6501 -1.6785
 3714SOL    HW222779   4.027   4.664   2.285  0.2862 -0.5883 -0.8976
 3715SOL     OW22780   4.059   1.311   3.617 -0.1191 -0.1911  0.0378
 3715SOL    HW122781   4.005   1.285   3.692  3.8548 -1.3666  2.4711
 3715SOL    HW222782   4.147   1.311   3.654 -0.3400 -1.1662  0.5693
 3716SOL     OW22783   2.211   2.143   5.832 -0.4217  0.5448  0.7280
 3716SOL    HW122784   2.124   2.133   5.871 -0.8123 -0.6804 -0.4695
 3716SOL    HW222785   2.216   2.238   5.817 -1.0894  0.3508 -0.6775
 3717SOL     OW22786   4.662   1.654   9.384 -0.3221 -0.6243 -0.0952
 3717SOL    HW122787   4.722   1.641   9.457 -0.6229 -1.8261 -0.0495
 3717SOL    HW222788   4.713   1.688   9.310 -2.2124  0.8720 -0.7114
 3718SOL     OW22789   1.889   1.480  10.521  0.0637  0.0002  0.4776
 3718SOL    HW122790   1.846   1.434  10.449  1.1758  0.7034 -0.6387
 3718SOL    HW222791   1.942   1.411  10.562 -1.9331 -1.8235  0.0107
 3719SOL     OW22792   2.105   4.651   2.761  0.3956 -0.0342  0.8577
 3719SOL    HW122793   2.167   4.580   2.739  1.1076  0.2966  1.7791
 3719SOL    HW222794   2.105   4.652   2.857  1.0857  0.7287  0.8471
 3720SOL     OW22795   3.020   2.958  15.901  0.3596  0.0414 -0.3494
 3720SOL    HW122796   2.994   2.958  15.993  1.3533 -1.1645 -0.0656
 3720SOL    HW222797   2.969   2.880  15.879 -1.1352  1.5507 -2.1832
 3721SOL     OW22798   3.534   2.034  11.051  0.0813 -0.0694  0.1174
 3721SOL    HW122799   3.455   1.984  11.032 -0.6101  1.4173 -0.9755
 3721SOL    HW222800   3.499   2.112  11.094 -1.2987 -1.3269  1.2754
 3722SOL     OW22801   0.506   1.771   3.177 -0.4708  0.3496 -0.0521
 3722SOL    HW122802   0.506   1.754   3.271 -2.1423 -0.0206 -0.1178
 3722SOL    HW222803   0.431   1.716   3.154 -0.3161  0.2642 -0.3532
 3723SOL     OW22804   1.771   0.160  12.561 -0.3825 -0.5559  0.0811
 3723SOL    HW122805   1.742   0.076  12.597  1.5616 -1.4198 -0.3743
 3723SOL    HW222806   1.745   0.211  12.638 -0.5695 -0.3406 -0.1222
 3724SOL     OW22807   0.645   0.723   6.624 -0.1434 -0.0920 -1.0034
 3724SOL    HW122808   0.591   0.669   6.681  0.4674  1.7933  1.3585
 3724SOL    HW222809   0.703   0.657   6.584 -1.7994 -1.3359 -1.3290
 3725SOL     OW22810   3.786   2.933   4.748 -0.2928 -0.1847 -0.3493
 3725SOL    HW122811   3.822   2.880   4.819  0.9761  0.6217 -0.3825
 3725SOL    HW222812   3.862   2.949   4.692 -0.1656  1.2506  0.2205
 3726SOL     OW22813   3.700   0.803   3.500  0.0983 -0.1043  0.0562
 3726SOL    HW122814   3.741   0.882   3.465  0.9316 -1.0985 -1.2144
 3726SOL    HW222815   3.646   0.781   3.424  0.0318  1.0985 -0.2465
 3727SOL     OW22816   1.738   0.977  13.766  0.1605  0.3294  0.2746
 3727SOL    HW122817   1.686   1.013  13.838 -1.4745 -0.4266 -0.5326
 3727SOL    HW222818   1.784   0.904  13.808  2.4513  0.0014 -2.8544
 3728SOL     OW22819   2.252   3.087   5.600 -0.5061 -0.5207  0.3929
 3728SOL    HW122820   2.225   3.179   5.598  0.3635 -0.2475  1.3476
 3728SOL    HW222821   2.191   3.047   5.662 -2.1521 -1.0833 -1.5874
 3729SOL     OW22822   2.933   2.830   2.135  0.1222  0.2006  0.1487
 3729SOL    HW122823   2.966   2.741   2.137  0.8405  0.4417 -0.9990
 3729SOL    HW222824   2.971   2.854   2.220 -1.2850 -0.9440  1.1033
 3730SOL     OW22825   3.454   3.189   8.641 -0.5314  0.6460  0.1119
 3730SOL    HW122826   3.526   3.137   8.678  0.4486 -0.5134 -3.4514
 3730SOL    HW222827   3.436   3.150   8.556 -1.0133  0.5679  0.2520
 3731SOL     OW22828   3.809   1.602  11.085  0.4640  0.1375  0.0764
 3731SOL    HW122829   3.716   1.624  11.081  1.1286  2.5812 -1.4695
 3731SOL    HW222830   3.795   1.516  11.046 -3.0100  0.7032  0.0913
 3732SOL     OW22831   4.155   4.706   8.849  0.2048 -0.2857 -0.5337
 3732SOL    HW122832   4.137   4.618   8.881  0.4253 -0.8192 -1.8963
 3732SOL    HW222833   4.068   0.004   8.852  0.6986  0.8204 -0.9043
 3733SOL     OW22834   1.371   0.618   8.099  0.0964 -0.3162 -0.3844
 3733SOL    HW122835   1.383   0.628   8.193 -0.5550  3.3468 -0.6795
 3733SOL    HW222836   1.458   0.587   8.076 -0.6034 -2.2390 -0.4256
 3734SOL     OW22837   2.802   4.282  16.880  0.2239  0.0253  0.2880
 3734SOL    HW122838   2.774   4.351  16.940  2.5031  1.8481 -0.7515
 3734SOL    HW222839   2.824   4.210  16.939  0.9041  1.5748  1.9362
 3735SOL     OW22840   1.095   1.242   7.522  0.2885  0.5957  0.3457
 3735SOL    HW122841   1.106   1.170   7.460  0.9678  1.1482 -0.1701
 3735SOL    HW222842   1.021   1.288   7.482  0.9288  0.6834 -0.7247
 3736SOL     OW22843   1.523   2.887   5.273  0.2693  0.1850 -0.0178
 3736SOL    HW122844   1.555   2.841   5.195  0.3122 -0.4939  0.3958
 3736SOL    HW222845   1.459   2.824   5.306  2.0239 -0.2023  2.7087
 3737SOL     OW22846   2.421   0.772   4.485 -0.7454 -0.2980 -0.5155
 3737SOL    HW122847   2.370   0.756   4.565  0.2269 -1.4019 -0.1126
 3737SOL    HW222848   2.509   0.760   4.520 -1.0526 -0.6680  0.1309
 3738SOL     OW22849   1.708   3.274  16.251  0.1236  0.5307  0.0081
 3738SOL    HW122850   1.778   3.209  16.247  0.1113  0.7850 -4.5080
 3738SOL    HW222851   1.763   3.351  16.233 -1.4047  1.3703 -1.0654
 3739SOL     OW22852   3.506   2.062   3.967  0.2939  0.0524 -0.4833
 3739SOL    HW122853   3.516   2.103   4.053  0.9093 -1.0229 -0.0523
 3739SOL    HW222854   3.448   1.990   3.992 -2.2460  2.0483 -0.5923
 3740SOL     OW22855   0.012   1.805   3.887 -0.2319 -0.0561 -0.5626
 3740SOL    HW122856   4.709   1.879   3.849  0.3962  0.4774 -0.2831
 3740SOL    HW222857   0.086   1.850   3.928  0.2297 -0.9988 -0.3613
 3741SOL     OW22858   1.492   1.833  16.156 -0.0153  0.5384  0.6438
 3741SOL    HW122859   1.413   1.819  16.208  0.5679 -0.5916  1.2269
 3741SOL    HW222860   1.530   1.745  16.156  2.2152  1.5211 -1.9365
 3742SOL     OW22861   0.911   4.648   4.662  0.0948 -0.5531  0.5311
 3742SOL    HW122862   0.956   4.701   4.727 -1.9671 -0.3521  1.7902
 3742SOL    HW222863   0.820   4.671   4.679 -0.2812 -0.9232 -1.0037
 3743SOL     OW22864   3.725   1.148   4.837 -0.1795 -0.4524  0.2804
 3743SOL    HW122865   3.726   1.066   4.788 -0.1434 -0.9591  1.1297
 3743SOL    HW222866   3.779   1.207   4.783 -0.3961  0.3091  0.8859
 3744SOL     OW22867   2.233   3.658   3.879 -0.1275 -0.2839  0.0238
 3744SOL    HW122868   2.163   3.594   3.895  1.8880 -2.0089  2.0667
 3744SOL    HW222869   2.235   3.670   3.784  0.6416 -0.7564 -0.0168
 3745SOL     OW22870   0.909   2.698   9.993 -0.4620 -0.2434 -0.0612
 3745SOL    HW122871   0.897   2.720   9.901 -0.9607 -2.2933 -0.4927
 3745SOL    HW222872   0.821   2.713  10.027 -0.8954  1.4699 -1.9806
 3746SOL     OW22873   4.112   2.054   2.970 -0.3056 -0.4285  0.2957
 3746SOL    HW122874   4.126   2.099   2.887  0.4038 -3.4354 -1.2083
 3746SOL    HW222875   4.198   2.070   3.009 -0.9013 -0.0096  1.4395
 3747SOL     OW22876   1.130   0.292   8.588  0.2801  0.0546  0.0110
 3747SOL    HW122877   1.043   0.297   8.628 -0.4864 -1.4241 -1.4706
 3747SOL    HW222878   1.137   0.198   8.573 -0.3367 -0.2009  1.3599
 3748SOL     OW22879   3.079   4.091   7.437  0.3845  0.0751  0.3009
 3748SOL    HW122880   3.146   4.023   7.429 -0.0982 -0.4721  0.8206
 3748SOL    HW222881   3.096   4.120   7.526  2.5308 -1.4962  0.4110
 3749SOL     OW22882   4.659   1.104   8.595 -0.3338  0.1397 -0.4970
 3749SOL    HW122883   4.662   1.013   8.624  0.3925  0.9419  1.9777
 3749SOL    HW222884   4.734   1.149   8.633 -0.1119 -1.4246  0.8915
 3750SOL     OW22885   1.653   1.181   2.449  0.7206  0.0439 -0.1044
 3750SOL    HW122886   1.699   1.172   2.365  3.0215  0.6729  1.1095
 3750SOL    HW222887   1.599   1.101   2.450  1.7750 -0.6527  0.2028
 3751SOL     OW22888   2.051   0.690   8.063  0.6781 -0.8941  0.0077
 3751SOL    HW122889   1.978   0.658   8.012  0.9352 -1.0926 -0.2363
 3751SOL    HW222890   2.112   0.717   7.995  0.2067 -2.1496 -0.9123
 3752SOL     OW22891   2.061   2.865  12.249  0.2238  0.4871 -0.1898
 3752SOL    HW122892   1.995   2.870  12.179  0.6062  0.1016 -0.5808
 3752SOL    HW222893   2.023   2.922  12.315 -2.0224 -0.2183 -0.8598
 3753SOL     OW22894   2.362   2.669   6.005  0.5148 -0.3317  0.3134
 3753SOL    HW122895   2.364   2.668   6.100 -0.3546 -2.0468  0.3093
 3753SOL    HW222896   2.369   2.574   6.000  0.6150 -0.2227 -1.7605
 3754SOL     OW22897   2.553   1.787  15.503 -0.6934 -0.2097 -0.0465
 3754SOL    HW122898   2.505   1.862  15.467  1.8414  1.3221 -0.1683
 3754SOL    HW222899   2.489   1.722  15.475 -1.0733  0.6003 -1.0736
 3755SOL     OW22900   3.714   3.767  13.990 -0.3890  0.4166 -0.0176
 3755SOL    HW122901   3.638   3.823  13.973  0.8085  1.4755 -1.8975
 3755SOL    HW222902   3.758   3.826  14.051  0.0724  0.8719 -0.7987
 3756SOL     OW22903   4.139   0.697   1.933  0.3825  0.0070 -0.6193
 3756SOL    HW122904   4.070   0.664   1.876  0.0064  1.3461 -0.9331
 3756SOL    HW222905   4.197   0.626   1.904 -0.0421 -0.6354  0.1066
 3757SOL     OW22906   1.108   4.130  15.117 -0.1197  0.4112  0.1956
 3757SOL    HW122907   1.184   4.141  15.173  0.3271  1.4954 -0.6178
 3757SOL    HW222908   1.155   4.151  15.036 -0.9627 -1.9814 -0.9252
 3758SOL     OW22909   2.281   1.713  15.144  0.1390  0.2740 -0.6031
 3758SOL    HW122910   2.186   1.709  15.158  0.3497 -0.4182  0.5632
 3758SOL    HW222911   2.319   1.658  15.212 -0.9911 -1.4646 -1.3923
 3759SOL     OW22912   1.029   2.383   3.266 -0.2723  0.3680  0.0169
 3759SOL    HW122913   1.053   2.426   3.348  2.6833 -1.4168  0.0874
 3759SOL    HW222914   1.092   2.431   3.212 -0.4970 -0.6932 -1.1829
 3760SOL     OW22915   0.851   1.175  16.025 -0.7245  0.3454 -0.1620
 3760SOL    HW122916   0.831   1.175  16.119  1.2145  2.3643  0.2658
 3760SOL    HW222917   0.781   1.143  15.968  0.0681  0.7109 -1.3420
 3761SOL     OW22918   0.970   1.105   5.858 -0.0142  0.0375 -0.1923
 3761SOL    HW122919   1.025   1.128   5.783  1.7917  0.4029  1.2530
 3761SOL    HW222920   1.016   1.029   5.893  2.7758  1.8075 -0.0532
 3762SOL     OW22921   3.563   3.326   4.204  0.1678 -0.2496 -0.3069
 3762SOL    HW122922   3.581   3.240   4.168  0.6151  0.2606 -1.2902
 3762SOL    HW222923   3.557   3.309   4.298 -1.8266 -1.2022 -0.6103
 3763SOL     OW22924   0.880   3.662   4.301 -0.1307  0.2362 -0.4356
 3763SOL    HW122925   0.949   3.615   4.349 -2.0271 -0.2681  1.7826
 3763SOL    HW222926   0.891   3.755   4.321 -0.2441 -0.4145  2.5594
 3764SOL     OW22927   0.852   3.669   4.703 -0.0957 -0.1371 -0.0419
 3764SOL    HW122928   0.890   3.722   4.632 -1.1962 -0.0595 -0.5873
 3764SOL    HW222929   0.908   3.702   4.773 -0.4072 -0.3344  0.2968
 3765SOL     OW22930   3.843   4.307   2.229 -0.3285  0.2681 -0.3581
 3765SOL    HW122931   3.932   4.338   2.249 -0.6789  0.2262  1.2291
 3765SOL    HW222932   3.791   4.374   2.273 -1.1044  1.8892 -3.6644
 3766SOL     OW22933   1.588   3.820  10.464  0.2920  0.8268  0.0870
 3766SOL    HW122934   1.593   3.898  10.409  1.4879  0.4305 -0.3618
 3766SOL    HW222935   1.498   3.818  10.496  0.3170 -1.3289  0.0070
 3767SOL     OW22936   1.947   2.446   3.108  0.5444 -0.0043 -0.6759
 3767SOL    HW122937   2.019   2.505   3.086  1.0287 -0.1281  0.5763
 3767SOL    HW222938   1.987   2.362   3.085 -1.1053 -0.2589 -2.6039
 3768SOL     OW22939   2.036   3.491  15.582  0.1823  0.3431  0.2649
 3768SOL    HW122940   1.985   3.418  15.616 -1.6307  1.5692  0.1565
 3768SOL    HW222941   1.967   3.554  15.563 -2.2595 -1.3473  3.4197
 3769SOL     OW22942   3.827   4.441  15.920 -0.1206 -0.0299  0.2710
 3769SOL    HW122943   3.892   4.493  15.872 -0.8608  1.7402  1.2109
 3769SOL    HW222944   3.749   4.494  15.906 -0.3694 -0.2871  0.6756
 3770SOL     OW22945   3.899   1.150   4.308 -0.4235 -0.1250  0.7173
 3770SOL    HW122946   3.842   1.105   4.370 -1.0299 -0.0563  0.2065
 3770SOL    HW222947   3.912   1.240   4.336  0.9243 -0.2185  0.4290
 3771SOL     OW22948   0.308   0.561   5.239  0.3092 -0.6867  0.5280
 3771SOL    HW122949   0.218   0.565   5.207  1.0170  0.0919 -1.3706
 3771SOL    HW222950   0.345   0.645   5.212  1.8063 -1.4819  0.1287
 3772SOL     OW22951   3.431   3.727   0.139 -0.1940  0.1443  0.2209
 3772SOL    HW122952   3.356   3.692   0.188 -0.5532  2.5842  1.4570
 3772SOL    HW222953   3.422   3.663   0.069  1.6529 -0.3321  0.4260
 3773SOL     OW22954   4.613   1.161   3.604 -0.6589  0.4544  0.1105
 3773SOL    HW122955   4.594   1.140   3.512  0.3219 -1.0637  0.2670
 3773SOL    HW222956   4.677   1.232   3.596  0.8617 -0.9868 -0.5567
 3774SOL     OW22957   2.650   0.054  14.148 -1.2441 -0.3882  0.4554
 3774SOL    HW122958   2.743   0.041  14.131 -1.1038  1.5617 -0.2403
 3774SOL    HW222959   2.629   0.076  14.057  0.0484  3.4096  1.0478
 3775SOL     OW22960   1.725   2.722   4.615  0.1633  0.6516  0.2383
 3775SOL    HW122961   1.734   2.692   4.705 -0.3263  0.4397  0.2168
 3775SOL    HW222962   1.675   2.653   4.571  0.8455  0.4964 -0.2946
 3776SOL     OW22963   2.649   1.849  10.172  0.7476  0.0211  0.0157
 3776SOL    HW122964   2.652   1.754  10.190 -0.2850 -0.2662 -1.3969
 3776SOL    HW222965   2.572   1.863  10.226 -0.7005 -0.2273 -1.9986
 3777SOL     OW22966   3.034   4.199   2.924 -0.1827  0.6456 -0.1770
 3777SOL    HW122967   3.035   4.124   2.984 -1.4198 -0.8223 -1.9682
 3777SOL    HW222968   2.959   4.180   2.868 -0.4241  0.1124  0.3241
 3778SOL     OW22969   2.353   1.139   7.495  0.3468  0.1460  0.0906
 3778SOL    HW122970   2.359   1.049   7.462 -1.5164 -0.7351  2.1948
 3778SOL    HW222971   2.283   1.173   7.439  0.9928 -0.0711 -0.8589
 3779SOL     OW22972   0.608   3.519  16.356 -0.5374  0.5309 -0.2832
 3779SOL    HW122973   0.636   3.590  16.415 -2.9791  1.0841  0.1851
 3779SOL    HW222974   0.518   3.547  16.340 -1.1576 -0.0625  2.2178
 3780SOL     OW22975   1.462   3.373   4.328  0.3489 -0.2997  0.1839
 3780SOL    HW122976   1.504   3.446   4.283 -2.1937  1.5021  0.7488
 3780SOL    HW222977   1.408   3.331   4.260 -0.2599  2.3666 -0.9778
 3781SOL     OW22978   1.904   3.213   4.464 -0.6270  0.4644  0.0484
 3781SOL    HW122979   1.898   3.212   4.368  1.7419 -1.3061 -0.1060
 3781SOL    HW222980   1.891   3.120   4.486  0.3366  0.2334 -0.3568
 3782SOL     OW22981   0.115   3.203   8.541  0.3345  0.3200  0.3652
 3782SOL    HW122982   0.103   3.170   8.451 -0.9224  0.9347  0.3116
 3782SOL    HW222983   0.145   3.126   8.591  1.2284  0.9079  0.7313
 3783SOL     OW22984   0.685   1.773   8.716 -0.4684  0.4172 -0.4516
 3783SOL    HW122985   0.656   1.773   8.807 -0.3107  0.6771 -0.4039
 3783SOL    HW222986   0.608   1.729   8.678 -0.3545  0.9534 -1.2998
 3784SOL     OW22987   1.926   3.213   3.161 -0.3480 -0.1558 -0.1610
 3784SOL    HW122988   1.904   3.200   3.068 -0.5184 -0.1910 -0.1150
 3784SOL    HW222989   2.012   3.171   3.163 -0.8332 -1.1492 -0.0400
 3785SOL     OW22990   0.400   2.501   5.571 -0.4338  0.5682 -0.4395
 3785SOL    HW122991   0.376   2.589   5.543  0.2712  0.8900 -0.0328
 3785SOL    HW222992   0.486   2.483   5.534 -1.0647 -0.9828 -1.1818
 3786SOL     OW22993   4.143   3.536   7.160 -0.8626 -0.2325  0.1214
 3786SOL    HW122994   4.214   3.473   7.147  0.1121  1.4284 -2.5668
 3786SOL    HW222995   4.185   3.612   7.200  0.1723 -0.6282 -0.2073
 3787SOL     OW22996   4.323   4.590   2.626  0.5206 -0.7069  0.1192
 3787SOL    HW122997   4.269   4.520   2.663  0.8645 -0.9447  0.1785
 3787SOL    HW222998   4.403   4.596   2.678  1.2478  0.6958 -1.1561
 3788SOL     OW22999   0.310   4.170   5.195  0.1849  0.4833  0.0263
 3788SOL    HW123000   0.397   4.169   5.156 -0.0203 -1.2501 -0.4185
 3788SOL    HW223001   0.303   4.078   5.224  0.3830 -0.0863 -1.7716
 3789SOL     OW23002   2.096   0.465   4.736  0.1683 -0.1719  0.1510
 3789SOL    HW123003   2.085   0.411   4.814 -0.0301  1.4579  1.2680
 3789SOL    HW223004   2.003   0.480   4.719  0.3214  0.2966 -0.2962
 3790SOL     OW23005   1.457   3.939   3.644 -0.5818 -0.3947 -0.0330
 3790SOL    HW123006   1.524   3.937   3.575  0.1717 -2.5277  0.7671
 3790SOL    HW223007   1.412   3.856   3.631 -2.2141  0.6485 -1.0377
 3791SOL     OW23008   1.324   3.303   9.604 -0.2515  0.1179 -0.1149
 3791SOL    HW123009   1.327   3.375   9.667  0.5392  0.0720 -0.0988
 3791SOL    HW223010   1.345   3.230   9.662  2.2843 -0.2258 -1.4592
 3792SOL     OW23011   3.599   0.650   5.621  0.8280  0.1279 -0.1281
 3792SOL    HW123012   3.660   0.576   5.612 -0.2256 -0.8482  0.8055
 3792SOL    HW223013   3.518   0.608   5.594  0.6373  0.5178 -0.1548
 3793SOL     OW23014   0.456   1.109   7.662 -0.1767  0.4716 -0.2653
 3793SOL    HW123015   0.541   1.112   7.619 -0.6047 -1.1365 -1.2611
 3793SOL    HW223016   0.407   1.183   7.626 -2.4298 -0.9044 -0.0661
 3794SOL     OW23017   3.688   0.447   4.864  0.5343  0.5632 -0.0548
 3794SOL    HW123018   3.595   0.459   4.881 -0.2482 -0.1561 -4.0260
 3794SOL    HW223019   3.722   0.535   4.881  2.7837 -0.3935  0.4285
 3795SOL     OW23020   1.475   1.126   6.454 -0.6246 -0.2790 -0.1388
 3795SOL    HW123021   1.418   1.097   6.525  0.6561  2.3245  1.9521
 3795SOL    HW223022   1.505   1.211   6.485  1.1069 -1.1743  0.6237
 3796SOL     OW23023   1.232   1.125  13.131 -0.2626  0.1508 -0.0135
 3796SOL    HW123024   1.141   1.140  13.156  0.3090  1.1332  1.5075
 3796SOL    HW223025   1.257   1.214  13.159 -0.1723 -0.3226  1.4058
 3797SOL     OW23026   2.665   3.054   9.293  0.0607 -0.1077 -0.0735
 3797SOL    HW123027   2.629   2.965   9.297 -1.4053  0.4566 -0.9102
 3797SOL    HW223028   2.613   3.097   9.361 -0.7155  0.5644 -1.1002
 3798SOL     OW23029   2.938   3.190  14.846 -0.4002 -0.1898  0.2585
 3798SOL    HW123030   2.877   3.117  14.844 -0.4696 -0.1397  0.5905
 3798SOL    HW223031   2.909   3.245  14.773  0.8555  0.6683  0.4046
 3799SOL     OW23032   2.889   2.299   6.658  0.1474 -0.0724 -0.0671
 3799SOL    HW123033   2.952   2.226   6.657  1.4072  1.0085  0.0530
 3799SOL    HW223034   2.886   2.316   6.753  3.2514  1.4074 -0.2393
 3800SOL     OW23035   2.461   1.408  17.632  0.4685 -0.3523 -0.0072
 3800SOL    HW123036   2.449   1.443  17.720  1.1337 -2.8061  1.0612
 3800SOL    HW223037   2.473   1.487  17.580  0.0788 -0.2659  0.0319
 3801SOL     OW23038   4.224   2.720   5.250 -0.3149 -0.0323 -0.2912
 3801SOL    HW123039   4.193   2.631   5.268 -1.4523  0.2353 -0.8516
 3801SOL    HW223040   4.181   2.777   5.314  2.2570  1.9007 -0.3194
 3802SOL     OW23041   3.572   0.241   7.371 -0.1341 -0.0952  0.3804
 3802SOL    HW123042   3.492   0.265   7.418 -0.6617  0.3248 -0.7207
 3802SOL    HW223043   3.638   0.216   7.435 -1.3632 -0.0203  1.6715
 3803SOL     OW23044   4.219   1.102   8.683  0.8267 -0.0517  0.1527
 3803SOL    HW123045   4.302   1.145   8.703  0.1500  1.9818 -1.4208
 3803SOL    HW223046   4.250   1.026   8.633 -0.7536 -1.5350  1.4184
 3804SOL     OW23047   4.716   1.161   2.316  0.0057  0.0626  0.2936
 3804SOL    HW123048   4.707   1.232   2.379  1.7375  2.5141 -2.2673
 3804SOL    HW223049   4.672   1.195   2.238 -1.0992 -0.4968  0.6723
 3805SOL     OW23050   1.879   4.502   8.276 -0.3543 -0.8715 -0.0031
 3805SOL    HW123051   1.918   4.414   8.280  0.2632 -0.7135 -2.0601
 3805SOL    HW223052   1.861   4.505   8.370  0.3193 -3.7203  0.2332
 3806SOL     OW23053   3.546   1.736   4.925 -0.0790  1.0312 -0.2792
 3806SOL    HW123054   3.473   1.749   4.865 -0.8835  1.3365  0.7542
 3806SOL    HW223055   3.520   1.646   4.945  0.7327  0.8535 -0.0436
 3807SOL     OW23056   0.002   2.268   4.921 -1.0502  0.3321 -0.0566
 3807SOL    HW123057   0.094   2.251   4.942 -1.0473  1.2971  0.6998
 3807SOL    HW223058   4.734   2.208   4.847  0.6206 -0.1435  0.0936
 3808SOL     OW23059   3.193   1.395   1.741  0.4185  0.2971 -0.2451
 3808SOL    HW123060   3.125   1.456   1.769 -0.0942 -0.1865 -0.4339
 3808SOL    HW223061   3.249   1.391   1.819 -0.1474  0.8179  0.1853
 3809SOL     OW23062   2.853   0.751   7.729 -0.1266  0.2618  0.6549
 3809SOL    HW123063   2.841   0.838   7.690  1.7291  1.5630  3.0681
 3809SOL    HW223064   2.942   0.725   7.708 -0.6121 -0.6070 -0.3283
 3810SOL     OW23065   1.764   2.895  12.892 -0.6421 -0.4092 -0.5083
 3810SOL    HW123066   1.743   2.973  12.944 -0.3538  0.1828 -1.2861
 3810SOL    HW223067   1.860   2.892  12.886 -0.5806  0.2953  0.0927
 3811SOL     OW23068   3.597   4.316   5.250 -0.0348  0.1914 -0.3666
 3811SOL    HW123069   3.620   4.363   5.170 -2.7542  0.5799 -0.9175
 3811SOL    HW223070   3.678   4.282   5.287 -1.5808 -0.7387  2.2040
 3812SOL     OW23071   2.422   3.456   7.710 -0.2124 -0.2473  0.5090
 3812SOL    HW123072   2.458   3.508   7.637 -0.4183  1.6980  1.8132
 3812SOL    HW223073   2.478   3.486   7.781  0.7926 -0.9007  0.0119
 3813SOL     OW23074   0.934   1.234   9.061 -0.5676 -0.1749  0.4681
 3813SOL    HW123075   0.887   1.214   8.980  2.5751  0.0250 -1.4343
 3813SOL    HW223076   0.942   1.153   9.111 -0.5395 -1.1602 -1.1141
 3814SOL     OW23077   2.737   2.392   6.930  0.0385 -0.7118 -0.6671
 3814SOL    HW123078   2.717   2.478   6.891 -0.2674 -1.1266 -1.4318
 3814SOL    HW223079   2.670   2.342   6.883 -1.6513 -0.1414  1.1406
 3815SOL     OW23080   2.092   4.344   4.524 -0.1805 -0.2428 -1.3550
 3815SOL    HW123081   2.122   4.318   4.610 -0.6512  0.9182 -0.8336
 3815SOL    HW223082   2.034   4.414   4.554  2.4462  1.3847 -0.1334
 3816SOL     OW23083   0.881   1.946   2.480 -0.4911 -0.2804  0.6639
 3816SOL    HW123084   0.939   2.017   2.450 -2.8626  0.8257 -1.2272
 3816SOL    HW223085   0.920   1.871   2.434 -0.6070  0.1350 -0.1174
 3817SOL     OW23086   3.697   4.056   2.289  0.1929 -0.5532 -0.0743
 3817SOL    HW123087   3.752   3.984   2.320  1.5317  0.1890 -0.7120
 3817SOL    HW223088   3.749   4.097   2.220  0.6584 -2.4926 -0.8712
 3818SOL     OW23089   1.143   0.859   5.586 -0.3488 -0.4909  0.4301
 3818SOL    HW123090   1.059   0.813   5.581 -2.0797  2.9569 -2.0959
 3818SOL    HW223091   1.119   0.951   5.595 -2.9262 -1.4331  2.8789
 3819SOL     OW23092   2.709   1.351   0.214 -0.0824  0.1389  0.3134
 3819SOL    HW123093   2.794   1.322   0.246 -0.7003 -2.2404 -0.1416
 3819SOL    HW223094   2.665   1.267   0.200 -1.7910  1.0898 -0.0451
 3820SOL     OW23095   1.610   3.035   2.808 -0.3480  0.1309  0.0677
 3820SOL    HW123096   1.532   2.984   2.830 -0.3133 -0.2669 -0.7077
 3820SOL    HW223097   1.676   2.971   2.781  0.2675  1.6288 -1.9535
 3821SOL     OW23098   3.843   3.712   8.641 -0.0769  0.0911 -0.0136
 3821SOL    HW123099   3.924   3.662   8.629 -0.3045 -0.4928  0.8411
 3821SOL    HW223100   3.877   3.801   8.636  0.9706 -0.2327  1.2305
 3822SOL     OW23101   2.244   2.924  15.043 -0.1680  0.4353  0.2246
 3822SOL    HW123102   2.232   3.019  15.039  1.1573  0.5985  0.2357
 3822SOL    HW223103   2.160   2.899  15.081 -0.2011  3.1047  1.8716
 3823SOL     OW23104   0.403   2.464   9.900  0.7073 -0.2845  0.8691
 3823SOL    HW123105   0.438   2.542   9.943 -2.8064  0.9074  1.5731
 3823SOL    HW223106   0.327   2.454   9.957 -1.6450  2.1518 -1.8480
 3824SOL     OW23107   3.354   2.245  10.816 -0.2520 -0.5173 -0.0059
 3824SOL    HW123108   3.318   2.165  10.854  0.9598 -0.2051  1.8331
 3824SOL    HW223109   3.438   2.253  10.862 -0.1006 -3.3549  0.2096
 3825SOL     OW23110   1.935   3.624   7.762  0.2688 -0.5923  0.0142
 3825SOL    HW123111   2.003   3.566   7.728  2.5414 -0.1935  3.8662
 3825SOL    HW223112   1.943   3.700   7.705 -0.8821 -0.3023  0.2391
 3826SOL     OW23113   1.870   2.758   9.986  0.1609  0.2533  0.3613
 3826SOL    HW123114   1.938   2.703  10.026 -0.2334 -0.5799 -0.1062
 3826SOL    HW223115   1.816   2.682   9.965  0.9315 -0.2360  0.1730
 3827SOL     OW23116   1.881   1.468   5.990 -0.2652 -0.0579  0.2361
 3827SOL    HW123117   1.961   1.426   6.021 -0.9831 -1.2194  0.5400
 3827SOL    HW223118   1.903   1.551   5.948  0.4363 -0.7664 -0.7918
 3828SOL     OW23119   4.213   1.946   9.161 -0.3073  0.1789  0.1913
 3828SOL    HW123120   4.141   1.901   9.207  0.8463 -1.6172  0.2257
 3828SOL    HW223121   4.244   2.005   9.230  0.8961  0.8921 -0.9785
 3829SOL     OW23122   1.448   3.103   3.287 -0.7175 -0.2692 -0.5299
 3829SOL    HW123123   1.542   3.094   3.275 -0.2924  4.0565 -0.7716
 3829SOL    HW223124   1.429   3.037   3.353  0.5102 -0.9948 -0.9024
 3830SOL     OW23125   1.846   3.677   6.136  0.0100 -0.0631 -0.2334
 3830SOL    HW123126   1.760   3.646   6.163  0.0377  0.9996  1.1037
 3830SOL    HW223127   1.833   3.769   6.158 -0.9082 -0.7800  2.1489
 3831SOL     OW23128   0.003   1.545   5.868 -0.2914 -0.2904 -0.1408
 3831SOL    HW123129   4.651   1.555   5.876 -0.4263 -1.1426 -0.7191
 3831SOL    HW223130   0.027   1.608   5.800  0.6671  0.5389  0.9624
 3832SOL     OW23131   0.231   0.244   2.987 -0.4191 -0.5659  0.5270
 3832SOL    HW123132   0.286   0.277   3.059  0.0587 -0.2072 -0.0040
 3832SOL    HW223133   0.283   0.168   2.962  4.2817  3.6459 -2.5116
 3833SOL     OW23134   2.064   4.440   4.935  0.2775  0.1918 -0.2806
 3833SOL    HW123135   2.159   4.446   4.925  0.2523  0.2899 -0.4515
 3833SOL    HW223136   2.042   4.377   4.867 -0.8146  0.7126 -0.4071
 3834SOL     OW23137   0.405   4.676   7.953  0.5227 -0.2432 -0.0697
 3834SOL    HW123138   0.401   4.622   8.032 -2.5464  1.5379  1.0120
 3834SOL    HW223139   0.355   0.010   7.981  1.3758  0.5596 -0.7642
 3835SOL     OW23140   3.886   0.563   8.327  0.0296  0.1732 -0.2134
 3835SOL    HW123141   3.856   0.650   8.300 -1.4479 -0.4550 -0.6189
 3835SOL    HW223142   3.974   0.589   8.355 -0.2733  1.0674 -0.0884
 3836SOL     OW23143   2.616   2.489   9.115 -0.1057  0.0131  0.1260
 3836SOL    HW123144   2.624   2.415   9.175 -1.1585  0.5358  0.8906
 3836SOL    HW223145   2.704   2.494   9.078 -0.8872 -2.4974 -2.1094
 3837SOL     OW23146   1.096   1.767   3.699 -0.1154  0.5418 -0.2015
 3837SOL    HW123147   1.114   1.673   3.699 -0.6210  0.4446  1.3352
 3837SOL    HW223148   1.166   1.799   3.756 -0.3217 -2.9415  1.9847
 3838SOL     OW23149   3.596   2.972   4.192 -0.5019  0.5306 -0.1970
 3838SOL    HW123150   3.606   2.982   4.098 -1.8226  2.5550 -0.1049
 3838SOL    HW223151   3.668   3.027   4.222  1.3779 -1.9693 -0.0282
 3839SOL     OW23152   0.148   1.122   6.532  0.4149 -0.1545  0.2342
 3839SOL    HW123153   0.097   1.198   6.505 -0.5620 -1.0534 -0.4552
 3839SOL    HW223154   0.231   1.151   6.494  0.7539 -1.4918 -0.0732
 3840SOL     OW23155   4.014   1.441  16.607  0.6909 -0.5210 -0.2640
 3840SOL    HW123156   4.042   1.509  16.546 -0.9535 -1.0544 -1.6052
 3840SOL    HW223157   4.057   1.470  16.687  1.6518  4.0975 -2.4819
 3841SOL     OW23158   4.505   4.701  11.816  0.9883 -0.1388 -0.5689
 3841SOL    HW123159   4.600   4.708  11.809  0.8213  1.7004 -0.8882
 3841SOL    HW223160   4.489   0.045  11.777  0.5721 -0.0390 -0.1769
 3842SOL     OW23161   4.664   3.167   6.657  0.1306  0.1905 -0.2125
 3842SOL    HW123162   4.675   3.103   6.586  0.5428 -1.6215  1.5070
 3842SOL    HW223163   4.569   3.172   6.654  0.0377 -0.2895  2.6460
 3843SOL     OW23164   3.040   0.212   3.078 -0.4255 -0.2902  0.0025
 3843SOL    HW123165   3.068   0.187   3.166  0.1529 -3.3527 -1.0410
 3843SOL    HW223166   2.948   0.236   3.090 -0.6710 -0.9032 -0.6148
 3844SOL     OW23167   2.459   3.742   7.280 -0.3605  0.6628 -0.2097
 3844SOL    HW123168   2.443   3.753   7.373 -1.8341 -0.9219 -0.2966
 3844SOL    HW223169   2.464   3.831   7.244  1.7341  0.3382 -0.7850
 3845SOL     OW23170   4.248   3.309   3.043  0.2432 -0.2096 -0.8322
 3845SOL    HW123171   4.229   3.366   2.968  0.4622  1.6459  0.5373
 3845SOL    HW223172   4.321   3.262   3.004  0.6962 -0.7704  0.7091
 3846SOL     OW23173   3.462   3.834   4.262  0.7510 -0.0129 -0.1425
 3846SOL    HW123174   3.460   3.929   4.251  0.6480 -0.1739 -1.5116
 3846SOL    HW223175   3.454   3.805   4.171 -2.6880  2.2288 -0.5710
 3847SOL     OW23176   4.441   2.260   7.392  0.4054  0.3311  0.3146
 3847SOL    HW123177   4.533   2.270   7.417  0.0338  0.7223  1.5404
 3847SOL    HW223178   4.418   2.346   7.357  0.4394  0.1717 -0.0996
 3848SOL     OW23179   0.975   3.409   4.762 -0.4689 -0.2938 -0.1557
 3848SOL    HW123180   1.009   3.386   4.675  2.0634  0.4766  0.6462
 3848SOL    HW223181   0.940   3.494   4.736  0.5125  1.1956  3.4892
 3849SOL     OW23182   1.018   4.196   1.836 -0.0936 -0.0622  0.3324
 3849SOL    HW123183   0.930   4.225   1.812 -0.1794 -0.4646  0.1609
 3849SOL    HW223184   1.074   4.265   1.800  1.0085 -1.0145  0.2147
 3850SOL     OW23185   3.901   4.191  16.509  0.0412  0.2611 -0.1401
 3850SOL    HW123186   3.826   4.132  16.510  0.2437 -0.0079 -0.6406
 3850SOL    HW223187   3.936   4.166  16.423  0.5583 -3.0393  1.0552
 3851SOL     OW23188   2.463   1.534  13.386 -0.3421  0.2182 -0.8495
 3851SOL    HW123189   2.425   1.615  13.420 -0.9500 -0.5064  0.1966
 3851SOL    HW223190   2.384   1.487  13.363  0.2584  0.1837 -2.8080
 3852SOL     OW23191   4.050   4.325   4.436  0.9004 -0.1862 -0.1311
 3852SOL    HW123192   4.032   4.416   4.462  0.2370 -0.4253  0.2562
 3852SOL    HW223193   3.960   4.296   4.423  0.1871  1.1402  1.8501
 3853SOL     OW23194   4.151   1.728  13.777  0.3683 -0.5060 -0.1134
 3853SOL    HW123195   4.071   1.781  13.784  0.0072 -1.1393  0.5330
 3853SOL    HW223196   4.193   1.753  13.694 -1.6251  0.8759 -0.7128
 3854SOL     OW23197   3.305   1.073  13.537  0.0392  0.4221 -0.0713
 3854SOL    HW123198   3.297   0.986  13.575  0.4284 -0.1964 -1.4280
 3854SOL    HW223199   3.243   1.117  13.595  2.4297  0.7700  2.2293
 3855SOL     OW23200   1.591   0.641  15.363 -0.0246  0.2995  0.7110
 3855SOL    HW123201   1.507   0.676  15.334 -2.0022 -1.2579  4.6161
 3855SOL    HW223202   1.571   0.557  15.321 -0.1734  1.0133 -0.6577
 3856SOL     OW23203   2.176   0.889   9.564 -0.7206 -0.0760 -0.1073
 3856SOL    HW123204   2.211   0.941   9.491 -1.4847  2.4223  1.2736
 3856SOL    HW223205   2.130   0.961   9.608  2.1296  1.7491 -0.1013
 3857SOL     OW23206   0.206   3.878  15.317  0.2899 -0.1205 -0.1694
 3857SOL    HW123207   0.156   3.854  15.239 -0.0856  0.2814 -0.0501
 3857SOL    HW223208   0.141   3.931  15.363 -1.5232 -1.4353 -1.2109
 3858SOL     OW23209   3.178   1.373  10.954 -0.5855  0.1847 -0.2497
 3858SOL    HW123210   3.237   1.410  11.019 -0.2799 -0.3781 -0.2105
 3858SOL    HW223211   3.237   1.320  10.902  0.2768  2.2536 -1.3982
 3859SOL     OW23212   0.754   3.978  13.072  0.1027  0.0376 -0.5574
 3859SOL    HW123213   0.747   3.889  13.107  0.3701 -0.2611 -1.2578
 3859SOL    HW223214   0.826   3.967  13.010  0.3740 -1.1905 -0.0286
 3860SOL     OW23215   1.058   0.744   5.231  0.1451  0.2408  0.2432
 3860SOL    HW123216   1.122   0.728   5.162 -1.3449 -0.0789 -1.0542
 3860SOL    HW223217   0.976   0.715   5.191 -0.9118  1.0338  1.7985
 3861SOL     OW23218   4.061   2.333   8.385 -0.1223 -0.3917  0.1374
 3861SOL    HW123219   4.103   2.254   8.352  0.6256 -0.2058  0.6638
 3861SOL    HW223220   4.030   2.310   8.473  0.3246  2.2587  0.9740
 3862SOL     OW23221   0.828   2.339   3.596 -0.0619  0.0617  0.2789
 3862SOL    HW123222   0.921   2.360   3.586 -0.1515 -0.4334 -1.5465
 3862SOL    HW223223   0.799   2.395   3.669 -0.0625  2.2504 -1.4106
 3863SOL     OW23224   1.450   1.961   9.121  0.1826  0.0567  0.1444
 3863SOL    HW123225   1.392   2.024   9.078 -0.2056  0.0581  0.6701
 3863SOL    HW223226   1.466   1.903   9.046  2.2300 -0.5402  1.0375
 3864SOL     OW23227   0.902   0.400   4.082  0.3158 -0.3258  0.3551
 3864SOL    HW123228   0.944   0.453   4.013  1.4861  0.4819  1.6958
 3864SOL    HW223229   0.873   0.460   4.150  0.0529 -1.0668  0.8875
 3865SOL     OW23230   1.464   3.910   5.033  0.0966 -0.3980 -0.1993
 3865SOL    HW123231   1.534   3.898   4.969  0.3742  2.7925 -0.4795
 3865SOL    HW223232   1.513   3.884   5.111 -1.6484  0.0366  1.0520
 3866SOL     OW23233   4.568   1.469   0.549 -0.0726  0.0831 -0.2760
 3866SOL    HW123234   4.623   1.429   0.617 -0.4422 -3.0106 -1.8017
 3866SOL    HW223235   4.583   1.563   0.561  1.7596 -0.2971  0.3794
 3867SOL     OW23236   2.761   2.787   8.895 -0.3288 -0.0896  0.0603
 3867SOL    HW123237   2.705   2.859   8.922  1.8425  1.6080  0.0359
 3867SOL    HW223238   2.846   2.801   8.938 -0.6024  0.2482  0.4904
 3868SOL     OW23239   2.526   2.662  14.639  0.1344  0.2844  0.0304
 3868SOL    HW123240   2.564   2.580  14.606 -4.0615 -1.0986 -1.4250
 3868SOL    HW223241   2.506   2.717  14.564  0.4636 -1.2908 -1.2168
 3869SOL     OW23242   4.316   1.944  10.816  0.2952 -0.0801  0.7661
 3869SOL    HW123243   4.298   1.853  10.837 -1.9938  0.0081 -0.7704
 3869SOL    HW223244   4.289   1.951  10.724 -1.0015  0.8135  1.2262
 3870SOL     OW23245   0.537   3.499  13.726 -0.4397 -0.2695 -0.3407
 3870SOL    HW123246   0.518   3.426  13.785  0.9644  1.2163  1.9800
 3870SOL    HW223247   0.460   3.500  13.669 -1.1282 -1.2113  0.5690
 3871SOL     OW23248   1.585   4.210   8.755 -0.2482  0.0993 -0.3073
 3871SOL    HW123249   1.600   4.119   8.730  0.8239  0.5363 -1.2140
 3871SOL    HW223250   1.609   4.253   8.673 -0.1078  3.8712  1.7200
 3872SOL     OW23251   1.861   4.613  15.781  0.1765 -0.2233 -0.1477
 3872SOL    HW123252   1.942   4.641  15.824 -2.4313  1.1172  3.7996
 3872SOL    HW223253   1.892   4.543  15.723  0.8802  2.1102 -2.5609
 3873SOL     OW23254   3.872   2.229   1.825  0.4285 -0.4299 -0.4816
 3873SOL    HW123255   3.883   2.212   1.918 -1.4008 -0.7310 -0.3172
 3873SOL    HW223256   3.960   2.264   1.814 -0.5679  2.2507  0.2226
 3874SOL     OW23257   1.193   2.489   7.360 -0.1628 -0.0686 -0.4598
 3874SOL    HW123258   1.184   2.506   7.266 -0.5330  0.2515 -0.3658
 3874SOL    HW223259   1.171   2.395   7.361 -0.1178 -0.0490  1.8182
 3875SOL     OW23260   4.278   1.650   6.480 -0.7633  0.1244 -0.0280
 3875SOL    HW123261   4.205   1.693   6.436 -1.2379 -0.6792 -0.0250
 3875SOL    HW223262   4.240   1.562   6.489 -0.1054 -0.1180  0.3497
 3876SOL     OW23263   4.527   0.234  10.809 -0.5378 -0.0110  0.4702
 3876SOL    HW123264   4.559   0.253  10.721 -0.6573  1.6882  0.8063
 3876SOL    HW223265   4.609   0.256  10.853 -0.2065 -0.2286 -0.0403
 3877SOL     OW23266   3.634   0.917   5.536 -0.1229  0.0622  0.1818
 3877SOL    HW123267   3.724   0.892   5.555 -0.6620 -2.7810 -0.8202
 3877SOL    HW223268   3.594   0.835   5.567 -1.6212  0.8472  0.3453
 3878SOL     OW23269   0.012   3.287   6.025 -0.3612  0.4537 -0.2681
 3878SOL    HW123270   0.048   3.259   6.109  1.3144  1.2080 -0.7395
 3878SOL    HW223271   4.664   3.267   6.047  0.0552 -0.6304  0.4930
 3879SOL     OW23272   3.507   1.102   1.391  0.2643  0.2439  0.8557
 3879SOL    HW123273   3.583   1.094   1.333  0.4365 -0.6384  1.2030
 3879SOL    HW223274   3.432   1.092   1.332  0.4592  0.2202  0.6107
 3880SOL     OW23275   1.809   3.312   3.690  0.2639  0.4010 -0.4373
 3880SOL    HW123276   1.772   3.233   3.649 -1.2343  0.8817 -0.0125
 3880SOL    HW223277   1.814   3.376   3.619  0.0294  0.5256 -0.3409
 3881SOL     OW23278   0.607   4.593   6.110  0.4389  0.2290 -0.2406
 3881SOL    HW123279   0.655   4.519   6.147 -0.8481 -0.3949  0.2018
 3881SOL    HW223280   0.531   4.608   6.167  0.1687 -2.1512  0.0293
 3882SOL     OW23281   0.964   1.020  14.695  0.9122  0.0616 -0.6584
 3882SOL    HW123282   0.968   1.072  14.614  1.0678  0.7983 -0.1790
 3882SOL    HW223283   1.032   0.955  14.682  0.0830 -0.5652 -1.9002
 3883SOL     OW23284   4.200   4.657  10.593 -0.8285  0.0005  0.1506
 3883SOL    HW123285   4.208   4.742  10.637  1.3520 -0.5975  0.9337
 3883SOL    HW223286   4.120   4.625  10.633 -1.4603  0.1340 -1.0215
 3884SOL     OW23287   2.783   0.301   8.966 -0.0602 -0.1049  0.4231
 3884SOL    HW123288   2.770   0.364   9.036 -1.8088  1.3721 -1.2557
 3884SOL    HW223289   2.785   0.223   9.022  2.1125  0.7216  1.5116
 3885SOL     OW23290   4.296   2.581   2.313 -0.1401  0.3520  0.4401
 3885SOL    HW123291   4.327   2.490   2.307 -1.5462  0.0360 -2.1823
 3885SOL    HW223292   4.288   2.604   2.221  2.6393  0.1808  0.1552
 3886SOL     OW23293   2.704   4.602  16.783  0.4375  0.2221  0.2775
 3886SOL    HW123294   2.667   4.520  16.816 -1.7191  0.6142 -1.1321
 3886SOL    HW223295   2.763   4.638  16.849 -0.3504 -0.2390  1.2401
 3887SOL     OW23296   0.267   3.655  10.961  0.5711  0.4298 -0.2693
 3887SOL    HW123297   0.303   3.647  11.049  0.1883  1.7685 -0.0003
 3887SOL    HW223298   0.246   3.748  10.969  1.5742  0.6202  0.1287
 3888SOL     OW23299   3.376   3.734   3.117 -0.3735  0.4498 -0.1898
 3888SOL    HW123300   3.435   3.691   3.180 -1.2577 -0.2820  0.1438
 3888SOL    HW223301   3.428   3.710   3.041  1.1603  0.7501  0.7659
 3889SOL     OW23302   0.158   0.823   8.688  0.3453  0.4331 -0.1577
 3889SOL    HW123303   0.158   0.784   8.775  0.3225 -0.1103 -0.4034
 3889SOL    HW223304   0.067   0.843   8.666 -0.2634 -1.1732  0.8875
 3890SOL     OW23305   1.809   1.989   7.991  0.3407 -0.3979  0.0070
 3890SOL    HW123306   1.886   1.975   8.046  0.0329  0.3796  0.6436
 3890SOL    HW223307   1.775   2.067   8.036 -2.2767 -1.3038 -0.4083
 3891SOL     OW23308   4.469   0.713  13.598  0.0060  0.0217 -0.3307
 3891SOL    HW123309   4.539   0.700  13.662  0.3786  0.1079 -0.7215
 3891SOL    HW223310   4.509   0.717  13.512  1.9623  1.3830  0.6377
 3892SOL     OW23311   0.485   3.622   0.039 -0.1406  0.7147  0.5738
 3892SOL    HW123312   0.407   3.665   0.073  0.4030  2.3510 -0.2334
 3892SOL    HW223313   0.548   3.662   0.100  1.2874 -2.0105  0.8852
 3893SOL     OW23314   0.057   1.689   7.302  0.0063  0.4528 -0.4256
 3893SOL    HW123315   0.071   1.756   7.235 -1.1991  1.2785  0.1310
 3893SOL    HW223316   0.019   1.626   7.241  0.1497 -2.0155  2.0728
 3894SOL     OW23317   4.507   3.018   4.088 -0.5836  0.0343  0.2862
 3894SOL    HW123318   4.527   3.007   3.996  3.7548 -1.9369  1.4981
 3894SOL    HW223319   4.419   3.056   4.089 -0.5183  0.1999 -1.5937
 3895SOL     OW23320   0.892   1.059   4.709  0.5482  0.0558 -0.5118
 3895SOL    HW123321   0.950   1.048   4.784 -0.5931  0.3475  0.4088
 3895SOL    HW223322   0.946   1.097   4.640  1.5821  1.0406  0.8571
 3896SOL     OW23323   2.397   1.733  13.576  0.2568  0.2930 -0.6391
 3896SOL    HW123324   2.432   1.822  13.569  1.5327 -0.2435 -1.0460
 3896SOL    HW223325   2.392   1.710  13.668  2.1533 -0.6407 -0.7765
 3897SOL     OW23326   0.757   4.523   0.282 -0.4673 -0.0438 -0.3072
 3897SOL    HW123327   0.781   4.443   0.328 -1.8283  0.2662  0.9259
 3897SOL    HW223328   0.667   4.490   0.274 -0.1861 -0.6057 -1.2092
 3898SOL     OW23329   0.564   4.552   4.229 -0.1935 -0.0020  0.5262
 3898SOL    HW123330   0.567   4.480   4.166  2.0085  1.1565 -0.7294
 3898SOL    HW223331   0.565   4.626   4.168  0.4652  0.4279  1.0549
 3899SOL     OW23332   1.883   2.241  16.920  0.1654  0.2128  0.2381
 3899SOL    HW123333   1.868   2.155  16.958  3.1822 -0.6871 -0.6157
 3899SOL    HW223334   1.931   2.278  16.994 -0.0689 -0.1086  0.5507
 3900SOL     OW23335   4.186   0.027  16.861 -0.3482  0.0333 -0.6112
 3900SOL    HW123336   4.101   0.051  16.898 -0.8642  1.6971 -2.9184
 3900SOL    HW223337   4.166   4.697  16.801 -0.5096 -0.3126 -0.1464
 3901SOL     OW23338   0.094   0.266   3.385  0.1503 -0.6078 -0.4755
 3901SOL    HW123339   0.186   0.293   3.382 -0.2563  1.0753  2.7512
 3901SOL    HW223340   0.063   0.309   3.305 -3.2292 -0.8571  0.7027
 3902SOL     OW23341   0.531   2.885   4.130 -0.2103 -0.6971 -0.3799
 3902SOL    HW123342   0.516   2.871   4.037 -4.0414  0.7670  0.0277
 3902SOL    HW223343   0.523   2.798   4.170  0.7509 -0.6569 -0.0874
 3903SOL     OW23344   1.125   1.122   7.863 -0.0959  0.2758  0.1008
 3903SOL    HW123345   1.039   1.085   7.844 -0.1772  0.1053  0.8174
 3903SOL    HW223346   1.125   1.102   7.956  1.8590  0.4714  0.1330
 3904SOL     OW23347   0.387   2.776  15.082  0.3739 -0.0022 -0.2988
 3904SOL    HW123348   0.432   2.784  15.166 -0.2251 -1.5863  0.1785
 3904SOL    HW223349   0.435   2.847  15.040  0.2709  1.1883  1.5943
 3905SOL     OW23350   4.691   0.187  16.490  0.5395  0.0816  0.0764
 3905SOL    HW123351   4.608   0.221  16.521 -1.3748 -3.3731 -1.2571
 3905SOL    HW223352   4.734   0.161  16.572 -1.3283 -1.6307  0.4877
 3906SOL     OW23353   2.327   2.690   7.278 -0.5924 -0.1529 -0.0478
 3906SOL    HW123354   2.268   2.681   7.352 -1.3112 -1.2335 -0.7566
 3906SOL    HW223355   2.403   2.738   7.310 -0.8424  0.1194  0.1357
 3907SOL     OW23356   4.129   3.859   4.997 -0.0775  0.3222  0.3088
 3907SOL    HW123357   4.209   3.912   5.004  0.4821 -0.6178  1.0425
 3907SOL    HW223358   4.163   3.770   5.008  0.2355  0.5904  1.5223
 3908SOL     OW23359   1.921   3.585   1.313 -0.2491  0.4993  0.0370
 3908SOL    HW123360   1.886   3.502   1.345 -0.3935  0.0324 -1.3221
 3908SOL    HW223361   1.883   3.585   1.225  1.1370  0.1381 -0.5559
 3909SOL     OW23362   2.649   1.738   8.667  0.1048  0.8731 -0.0701
 3909SOL    HW123363   2.621   1.654   8.630  1.9091  1.1507 -2.0949
 3909SOL    HW223364   2.743   1.741   8.647  0.3966 -2.1440  0.8578
 3910SOL     OW23365   3.597   1.782  10.969  0.6704  0.1578  0.8167
 3910SOL    HW123366   3.594   1.875  10.992  0.8221  0.5858 -0.8820
 3910SOL    HW223367   3.660   1.774  10.897 -0.1674  1.5634 -0.0799
 3911SOL     OW23368   1.250   2.790   9.098  0.4502  0.4881 -0.3301
 3911SOL    HW123369   1.274   2.713   9.150 -1.3385 -0.9663 -1.6556
 3911SOL    HW223370   1.322   2.849   9.121  0.2178  0.1332  1.3249
 3912SOL     OW23371   2.053   4.679  16.180 -0.3230 -0.5221  0.1576
 3912SOL    HW123372   2.034   4.701  16.089 -1.2120 -0.7203  0.2964
 3912SOL    HW223373   2.146   4.658  16.169 -0.1424 -0.5927  1.7945
 3913SOL     OW23374   3.864   0.563   3.153 -0.3477 -0.4083 -0.0933
 3913SOL    HW123375   3.927   0.520   3.211  0.8671  0.2054 -0.9574
 3913SOL    HW223376   3.926   0.617   3.104  0.6171 -1.6158 -0.1781
 3914SOL     OW23377   2.742   4.076   6.712  0.1113  0.5715  0.3440
 3914SOL    HW123378   2.677   4.006   6.715  0.4804  0.1882 -0.7662
 3914SOL    HW223379   2.716   4.139   6.780 -1.0460  0.2129  0.2365
 3915SOL     OW23380   2.909   4.695   7.676 -0.4954 -0.1304  0.2179
 3915SOL    HW123381   2.977   4.714   7.611 -0.2055 -0.4152  0.4382
 3915SOL    HW223382   2.959   4.639   7.735  2.2503  1.6792 -0.3845
 3916SOL     OW23383   1.901   0.964   9.457  0.4102 -0.6471  0.4970
 3916SOL    HW123384   1.925   0.964   9.549 -0.6785  0.1045  0.7862
 3916SOL    HW223385   1.929   0.880   9.421 -0.8061 -1.3019  1.0832
 3917SOL     OW23386   0.602   4.661   3.417 -0.1897 -0.0943 -0.5444
 3917SOL    HW123387   0.563   0.001   3.444 -2.5175 -1.1862 -0.5394
 3917SOL    HW223388   0.693   4.688   3.431 -0.4724 -1.2338  3.6509
 3918SOL     OW23389   0.347   2.580   9.247  0.2090  0.2267  0.4282
 3918SOL    HW123390   0.320   2.646   9.311 -0.9728  1.3593 -1.2517
 3918SOL    HW223391   0.371   2.626   9.167 -0.4803  2.6133  1.6043
 3919SOL     OW23392   2.389   1.592  11.527 -0.3576 -0.1910 -0.1754
 3919SOL    HW123393   2.348   1.506  11.536  1.5035 -1.0842 -0.2743
 3919SOL    HW223394   2.410   1.616  11.617 -0.7792 -0.4652 -0.0055
 3920SOL     OW23395   4.102   4.276   9.445  0.1602 -0.1905  0.3342
 3920SOL    HW123396   4.148   4.206   9.491 -0.7923 -1.6244 -0.9203
 3920SOL    HW223397   4.122   4.255   9.354 -1.2809 -1.6872  0.3595
 3921SOL     OW23398   3.308   4.727   2.150  0.4121  0.4220 -0.1923
 3921SOL    HW123399   3.390   0.016   2.112  0.5396  0.7424  0.3560
 3921SOL    HW223400   3.331   4.658   2.212 -0.6848  0.2420  0.0102
 3922SOL     OW23401   1.721   0.988   6.814 -0.2559  0.1576  0.4188
 3922SOL    HW123402   1.674   1.049   6.758  0.0411 -1.6501 -1.8181
 3922SOL    HW223403   1.660   0.915   6.824 -0.0927 -0.2270 -1.4524
 3923SOL     OW23404   2.604   0.140   4.777 -0.2599 -0.3300  0.1278
 3923SOL    HW123405   2.521   0.108   4.741 -0.9607  2.1737 -0.5179
 3923SOL    HW223406   2.581   0.219   4.826 -0.3266  0.0654 -0.5290
 3924SOL     OW23407   1.670   1.381   5.487  0.8513  1.0679 -0.7394
 3924SOL    HW123408   1.729   1.313   5.519  0.0370  1.4866  1.7287
 3924SOL    HW223409   1.695   1.461   5.533  3.8862 -0.4174  0.1531
 3925SOL     OW23410   2.059   2.031   4.713 -0.6155 -0.0379 -0.0541
 3925SOL    HW123411   2.008   2.038   4.793  0.4989 -0.8788  0.7282
 3925SOL    HW223412   2.039   2.117   4.676 -1.7114 -1.5659 -2.9726
 3926SOL     OW23413   0.824   2.809   1.817  0.1436 -0.6190 -0.2715
 3926SOL    HW123414   0.848   2.900   1.801  0.1670 -0.9120 -1.8604
 3926SOL    HW223415   0.744   2.814   1.870 -1.2533 -1.3675 -2.3273
 3927SOL     OW23416   0.278   0.970   1.849  0.1186  0.1687 -0.2730
 3927SOL    HW123417   0.323   1.013   1.922 -0.0851 -1.7544  0.9927
 3927SOL    HW223418   0.231   1.047   1.817 -1.0245 -0.6991 -0.6853
 3928SOL     OW23419   2.155   0.171   4.505 -0.7763 -0.0104  0.1877
 3928SOL    HW123420   2.087   0.106   4.491 -0.4123 -0.3144 -0.1593
 3928SOL    HW223421   2.135   0.239   4.441  0.3645 -1.4792 -1.7014
 3929SOL     OW23422   4.385   3.941   9.109  0.3922 -0.3058  0.0658
 3929SOL    HW123423   4.422   3.867   9.061  0.8134 -0.0114 -0.0676
 3929SOL    HW223424   4.454   4.005   9.091 -0.7988  0.5833 -1.4114
 3930SOL     OW23425   1.183   0.941   1.120 -0.1510 -0.1369 -0.2831
 3930SOL    HW123426   1.237   0.989   1.057 -1.9899 -0.5574 -2.2199
 3930SOL    HW223427   1.117   1.007   1.142 -0.0395  0.0427 -0.4806
 3931SOL     OW23428   4.511   0.896  11.811 -0.1316  0.6896  0.8424
 3931SOL    HW123429   4.562   0.959  11.861 -0.2069  1.3993  0.0338
 3931SOL    HW223430   4.500   0.824  11.873  2.6528  0.0867  0.6306
 3932SOL     OW23431   1.918   1.420   9.089  0.2651  0.3365  0.5097
 3932SOL    HW123432   2.007   1.439   9.060  0.7661 -3.8697 -0.7397
 3932SOL    HW223433   1.879   1.395   9.005  2.0979 -3.0501  0.6595
 3933SOL     OW23434   0.479   1.136   6.155 -0.1016  0.2138 -0.4175
 3933SOL    HW123435   0.523   1.165   6.074  3.1202  0.0387  1.2842
 3933SOL    HW223436   0.389   1.165   6.142  0.1297  0.0319 -2.4125
 3934SOL     OW23437   1.928   0.638   2.617 -0.4070 -0.3366 -0.2982
 3934SOL    HW123438   2.024   0.640   2.620 -0.4305  0.3253 -0.0476
 3934SOL    HW223439   1.911   0.723   2.577  2.0200 -0.7354 -2.1767
 3935SOL     OW23440   0.916   2.898   6.472 -0.2610 -0.1641  0.3312
 3935SOL    HW123441   0.993   2.916   6.419 -0.6953  3.2136  0.8725
 3935SOL    HW223442   0.923   2.961   6.543  2.8097 -0.0985 -0.0539
 3936SOL     OW23443   0.964   0.387   3.527 -0.4086  0.3172  0.0550
 3936SOL    HW123444   0.928   0.471   3.555 -0.4863 -0.8611  3.3942
 3936SOL    HW223445   0.971   0.405   3.433 -0.2935 -1.0046 -0.1930
 3937SOL     OW23446   1.476   1.021   3.529  0.0317 -0.0837 -0.1050
 3937SOL    HW123447   1.434   1.031   3.444  1.5287  1.0469 -0.7115
 3937SOL    HW223448   1.511   0.932   3.525 -0.4500 -0.2582 -0.3188
 3938SOL     OW23449   3.855   3.317   6.807  0.4464 -0.1419  0.3326
 3938SOL    HW123450   3.839   3.241   6.751  1.8615  1.6598 -2.5207
 3938SOL    HW223451   3.772   3.365   6.820  0.7850 -0.3485  3.1854
 3939SOL     OW23452   3.032   3.916  17.203  0.0871  0.2787 -0.1121
 3939SOL    HW123453   2.966   3.848  17.187  2.7522 -1.7939 -2.2284
 3939SOL    HW223454   2.992   3.973  17.270  0.4872 -0.6998  0.9491
 3940SOL     OW23455   2.836   3.794   5.459 -0.4430  0.0302  0.5879
 3940SOL    HW123456   2.886   3.718   5.489 -1.9532 -1.1674  0.0975
 3940SOL    HW223457   2.748   3.756   5.460 -0.3240 -0.2877 -1.4554
 3941SOL     OW23458   0.160   1.049   9.642  0.0452  0.1045 -0.1051
 3941SOL    HW123459   0.196   0.969   9.603 -2.3224 -1.0302  0.0256
 3941SOL    HW223460   0.069   1.031   9.618  0.1389 -2.0864  1.1328
 3942SOL     OW23461   0.949   2.552   5.613  0.1763  0.0528 -0.6939
 3942SOL    HW123462   0.871   2.605   5.630  1.0177  0.5491  1.7498
 3942SOL    HW223463   0.916   2.471   5.575 -0.4790  1.3298 -2.8597
 3943SOL     OW23464   2.051   0.243  17.720 -0.3368  0.3731 -0.3534
 3943SOL    HW123465   2.103   0.322  17.731 -0.0647  0.5652 -3.0131
 3943SOL    HW223466   1.961   0.277  17.711 -1.0241 -0.4799  3.4455
 3944SOL     OW23467   4.330   2.468   4.156  0.0192  0.5030 -0.0554
 3944SOL    HW123468   4.424   2.486   4.165  0.1122 -0.2799  0.5673
 3944SOL    HW223469   4.338   2.412   4.079  1.8761 -0.0717  0.5431
 3945SOL     OW23470   0.950   4.628  13.207 -0.5134 -0.4726  0.0516
 3945SOL    HW123471   1.028   4.575  13.189  0.7175  1.3585 -0.0118
 3945SOL    HW223472   0.986   4.676  13.281 -0.7456 -0.2454  0.0189
 3946SOL     OW23473   3.885   4.325   3.388 -0.0065 -0.1951 -0.0761
 3946SOL    HW123474   3.920   4.383   3.319  1.3584 -0.0653  0.7250
 3946SOL    HW223475   3.949   4.346   3.456  0.8507 -3.4361  0.1077
 3947SOL     OW23476   0.350   3.626   9.313 -0.4504  0.3652  0.8042
 3947SOL    HW123477   0.375   3.648   9.403  1.5711 -3.4529  1.1618
 3947SOL    HW223478   0.308   3.541   9.327 -1.8625  1.1157  1.1013
 3948SOL     OW23479   4.357   1.566   5.915 -0.3132 -0.2145  0.0534
 3948SOL    HW123480   4.423   1.608   5.970 -0.8797 -0.5255  0.9664
 3948SOL    HW223481   4.298   1.539   5.985 -3.7579  1.5822 -2.1227
 3949SOL     OW23482   0.804   1.682   0.615  0.3604  0.0587 -0.3484
 3949SOL    HW123483   0.720   1.649   0.646  1.1249 -2.5740 -1.0407
 3949SOL    HW223484   0.774   1.727   0.536 -0.2795  0.3014  0.0338
 3950SOL     OW23485   1.144   0.863  10.667  0.2955  0.5545 -0.0521
 3950SOL    HW123486   1.095   0.871  10.749 -1.2006  1.2105 -1.0069
 3950SOL    HW223487   1.213   0.799  10.686 -1.4429 -0.8419  1.5575
 3951SOL     OW23488   3.190   0.747   0.037 -0.0642 -0.9430  0.0816
 3951SOL    HW123489   3.138   0.717   0.111  0.1164 -0.7518  0.2825
 3951SOL    HW223490   3.226   0.829   0.070  1.8935 -1.5426 -0.5634
 3952SOL     OW23491   1.618   3.505   8.209  0.5593  0.2211 -0.9586
 3952SOL    HW123492   1.642   3.457   8.289  0.6923  1.0378 -0.5093
 3952SOL    HW223493   1.676   3.459   8.147 -0.5421  0.0393 -1.8477
 3953SOL     OW23494   2.629   3.722   4.781 -0.5857 -0.4074 -0.1182
 3953SOL    HW123495   2.636   3.630   4.757 -1.7185 -0.1072 -1.6043
 3953SOL    HW223496   2.715   3.756   4.755 -0.3315 -2.5277 -2.0605
 3954SOL     OW23497   3.595   2.998   7.752 -0.3383  0.1599  0.0211
 3954SOL    HW123498   3.611   3.049   7.673  0.3766 -0.9905 -0.5660
 3954SOL    HW223499   3.646   2.919   7.734 -0.8579 -0.4765  1.3198
 3955SOL     OW23500   4.425   2.374   0.443 -0.2495 -0.0661  0.2668
 3955SOL    HW123501   4.333   2.349   0.434  0.7065 -1.3464 -5.8585
 3955SOL    HW223502   4.423   2.409   0.532 -2.8837  0.8400 -0.1591
 3956SOL     OW23503   4.383   0.464   5.416 -0.2712  0.0116  0.1473
 3956SOL    HW123504   4.455   0.408   5.388  0.6834  0.9675  0.7018
 3956SOL    HW223505   4.338   0.488   5.334 -0.9533 -1.3489  0.1298
 3957SOL     OW23506   0.352   1.917   8.538  0.1117 -0.3624  0.1434
 3957SOL    HW123507   0.308   1.928   8.453 -0.0434 -1.4808  0.0686
 3957SOL    HW223508   0.335   1.997   8.586  0.6669 -0.0447 -0.1856
 3958SOL     OW23509   0.029   3.849   5.681  0.4699 -0.1907  0.0708
 3958SOL    HW123510   0.079   3.807   5.611  2.2389  3.6409 -0.9737
 3958SOL    HW223511   4.740   3.773   5.730  1.7715 -1.2690 -0.7378
 3959SOL     OW23512   2.693   0.234   7.889  0.3973 -0.5891  0.0351
 3959SOL    HW123513   2.787   0.251   7.888  0.0321  1.3421 -0.8244
 3959SOL    HW223514   2.680   0.169   7.959  4.2936 -1.9376 -0.5024
 3960SOL     OW23515   3.625   4.322   3.494 -0.7271 -0.1309  0.2306
 3960SOL    HW123516   3.601   4.229   3.496 -3.2607  0.5682  1.0531
 3960SOL    HW223517   3.713   4.327   3.456 -1.3918 -0.7207 -1.4327
 3961SOL     OW23518   3.465   0.461   3.339  0.9905 -0.6151 -0.4470
 3961SOL    HW123519   3.510   0.512   3.271  2.2704 -1.0577  0.0762
 3961SOL    HW223520   3.530   0.477   3.406  0.6961 -3.6184  0.5653
 3962SOL     OW23521   4.273   2.318   6.266 -0.0992  0.3287  0.4975
 3962SOL    HW123522   4.311   2.239   6.229 -0.1545  0.6082 -0.1521
 3962SOL    HW223523   4.346   2.351   6.318 -1.7041  0.8925  2.4188
 3963SOL     OW23524   3.656   0.376   7.738  0.2895  0.2246  0.5551
 3963SOL    HW123525   3.730   0.417   7.783  1.4480 -1.7383  0.4418
 3963SOL    HW223526   3.607   0.335   7.809  1.2889 -0.6608  0.7531
 3964SOL     OW23527   4.288   0.496   2.112  0.7786 -0.0650  0.4789
 3964SOL    HW123528   4.284   0.463   2.202 -2.9130  0.3778  0.4670
 3964SOL    HW223529   4.227   0.570   2.106  0.1308 -0.5911  0.5841
 3965SOL     OW23530   3.459   2.841   8.768  0.4255 -0.0520  0.0231
 3965SOL    HW123531   3.417   2.868   8.686  2.5416  1.1351 -0.6555
 3965SOL    HW223532   3.546   2.881   8.764 -0.2927  1.4046 -0.7753
 3966SOL     OW23533   3.274   4.420   4.399 -0.3444 -0.0809  0.1763
 3966SOL    HW123534   3.366   4.393   4.396 -0.6084 -0.9174 -0.2026
 3966SOL    HW223535   3.233   4.369   4.468 -3.7122  1.5667 -0.5644
 3967SOL     OW23536   3.973   0.747   5.841  0.0308  0.0459  0.6033
 3967SOL    HW123537   4.020   0.749   5.924  1.6662 -1.9416 -0.2788
 3967SOL    HW223538   3.886   0.770   5.875  0.4115  0.7809  1.0675
 3968SOL     OW23539   2.704   0.106   5.094 -0.2718  0.4537 -0.3971
 3968SOL    HW123540   2.677   0.155   5.172 -0.1573 -2.1784  1.3039
 3968SOL    HW223541   2.622   0.114   5.047 -0.4791 -0.6571 -0.2167
 3969SOL     OW23542   2.717   4.120   8.025 -0.1837 -0.2614 -0.3711
 3969SOL    HW123543   2.724   4.083   7.937  3.6269 -0.9914  0.2394
 3969SOL    HW223544   2.753   4.208   8.010 -1.5249  0.6580  1.6621
 3970SOL     OW23545   1.274   4.202   6.970  0.0986  0.4178  0.0627
 3970SOL    HW123546   1.306   4.181   6.882 -0.1526  0.1872  0.0266
 3970SOL    HW223547   1.186   4.168   6.956 -0.6124  1.6691  1.6522
 3971SOL     OW23548   1.939   1.452   1.236 -0.4641 -0.2284 -0.2404
 3971SOL    HW123549   1.930   1.533   1.186 -0.0965 -0.8269 -1.2796
 3971SOL    HW223550   1.865   1.453   1.296 -1.2774 -1.5866 -1.2421
 3972SOL     OW23551   2.776   2.414   2.379 -0.3362  0.1666 -0.3138
 3972SOL    HW123552   2.739   2.501   2.364  0.1256  0.2103 -1.2334
 3972SOL    HW223553   2.845   2.403   2.313  1.6570  1.0443  1.6194
 3973SOL     OW23554   4.709   2.839   2.011  0.7802 -0.2143  0.2669
 3973SOL    HW123555   0.001   2.810   1.927 -1.8941 -1.3300 -0.4404
 3973SOL    HW223556   0.012   2.924   2.007  0.0968  0.1446 -0.0043
 3974SOL     OW23557   1.185   2.511   7.057  0.0027  0.2335  0.5152
 3974SOL    HW123558   1.273   2.492   7.026 -0.5979 -1.8279  0.0505
 3974SOL    HW223559   1.123   2.460   7.004 -0.1506  3.0303 -2.0014
 3975SOL     OW23560   2.317   1.184   9.100 -0.3193  0.0316  0.6999
 3975SOL    HW123561   2.368   1.246   9.152  1.5684 -0.5936 -0.4098
 3975SOL    HW223562   2.350   1.197   9.011  1.0119 -0.3152  1.1369
 3976SOL     OW23563   2.451   3.360   2.407  0.4621  0.0004  0.3228
 3976SOL    HW123564   2.509   3.348   2.482  0.7336 -1.3165 -0.0896
 3976SOL    HW223565   2.445   3.455   2.404  0.5245  0.0043  0.3270
 3977SOL     OW23566   0.934   0.602   8.115  0.9378  0.2547 -0.0268
 3977SOL    HW123567   0.923   0.531   8.052  1.4291  1.3895 -1.3872
 3977SOL    HW223568   0.997   0.567   8.178  0.0943  1.0095  1.2623
 3978SOL     OW23569   2.409   0.586   5.243  0.3886  0.0666  0.5149
 3978SOL    HW123570   2.496   0.580   5.281  0.6425  0.4022 -0.0197
 3978SOL    HW223571   2.402   0.681   5.234 -1.6024 -0.2377 -1.3148
 3979SOL     OW23572   1.763   0.325   7.838 -0.5864 -0.2355  0.3162
 3979SOL    HW123573   1.790   0.275   7.915 -0.8180  1.2294  1.3316
 3979SOL    HW223574   1.851   0.332   7.801 -1.3905 -0.3524 -1.6191
 3980SOL     OW23575   3.350   2.966   7.890 -0.1809  0.4160 -0.1671
 3980SOL    HW123576   3.435   2.966   7.847  0.7267  0.8823  1.6148
 3980SOL    HW223577   3.377   2.927   7.974 -0.6596 -1.0602 -0.6882
 3981SOL     OW23578   2.782   2.980   5.383  0.0968 -0.3012 -0.1097
 3981SOL    HW123579   2.838   2.940   5.449  0.7551 -1.5388 -1.4102
 3981SOL    HW223580   2.694   2.978   5.422  0.1766 -0.5867  0.0570
 3982SOL     OW23581   4.674   0.794   5.705  0.6642 -0.6130 -0.0866
 3982SOL    HW123582   4.613   0.804   5.631 -0.6008  1.5596  1.2552
 3982SOL    HW223583   4.679   0.699   5.696 -0.8944 -0.8427  1.4519
 3983SOL     OW23584   1.889   0.645   2.082  0.4161  0.4713 -0.1170
 3983SOL    HW123585   1.858   0.587   2.012  2.1465 -1.9407  1.1257
 3983SOL    HW223586   1.871   0.731   2.044 -2.3221 -0.4851 -1.0086
 3984SOL     OW23587   0.656   3.401   9.510 -0.3465  0.3538  0.1765
 3984SOL    HW123588   0.562   3.398   9.529 -0.2285  2.0300  0.9796
 3984SOL    HW223589   0.681   3.324   9.562  2.3233  0.8815 -0.3308
 3985SOL     OW23590   0.396   2.306  17.339 -0.4204 -0.3896  0.0934
 3985SOL    HW123591   0.409   2.343  17.426 -1.1092 -0.8320  0.3894
 3985SOL    HW223592   0.471   2.340  17.291 -0.0958  0.6876  1.3578
 3986SOL     OW23593   0.047   4.406   2.705  0.4065 -0.2825  0.2887
 3986SOL    HW123594   0.016   4.317   2.688  1.4779 -0.3363 -1.3243
 3986SOL    HW223595   0.124   4.402   2.648  0.8060 -1.3862  0.9012
 3987SOL     OW23596   3.704   1.199   5.565 -0.0189  0.7371  0.2813
 3987SOL    HW123597   3.658   1.116   5.572 -1.4065  1.5122  0.2987
 3987SOL    HW223598   3.761   1.201   5.642  0.6224  2.0287 -0.2246
 3988SOL     OW23599   0.021   1.920   3.546  0.3086  0.2711  0.3095
 3988SOL    HW123600   0.106   1.899   3.586 -0.7543  0.7850  2.8433
 3988SOL    HW223601   4.723   1.976   3.612 -0.6863 -0.8796  0.6752
 3989SOL     OW23602   2.439   0.700   7.222  0.5201 -0.2751  0.1478
 3989SOL    HW123603   2.375   0.698   7.151  0.9132  1.7948 -0.2686
 3989SOL    HW223604   2.522   0.707   7.175  0.0271  2.6359 -0.3022
 3990SOL     OW23605   4.347   1.725  12.225  0.4785 -0.1493  0.3954
 3990SOL    HW123606   4.319   1.816  12.212 -0.4349 -0.1482  2.3487
 3990SOL    HW223607   4.383   1.689  12.144 -2.4627  0.1537 -1.0636
 3991SOL     OW23608   0.688   1.773   9.995  0.6292 -0.5581 -0.1456
 3991SOL    HW123609   0.672   1.812  10.082  1.3753 -2.0503  0.6564
 3991SOL    HW223610   0.763   1.827   9.969  1.2089 -1.4316 -0.2906
 3992SOL     OW23611   2.166   4.178   2.466  0.5003  0.1024  0.3331
 3992SOL    HW123612   2.255   4.143   2.472  1.4177  2.0823 -1.7055
 3992SOL    HW223613   2.115   4.114   2.416  0.1953  1.8651 -1.5875
 3993SOL     OW23614   4.023   0.183   9.574 -0.8225 -0.2347  0.9740
 3993SOL    HW123615   4.070   0.127   9.512  0.2332  1.1054  0.5581
 3993SOL    HW223616   4.089   0.252   9.577  0.1995 -1.2177  1.3124
 3994SOL     OW23617   1.975   2.484   6.630 -0.4061  0.4538 -0.2695
 3994SOL    HW123618   2.010   2.516   6.547 -1.1825  3.7933  0.6943
 3994SOL    HW223619   2.032   2.515   6.700 -2.6904  1.1799  1.2626
 3995SOL     OW23620   1.064   4.309   5.204 -0.4879 -0.3004  0.1547
 3995SOL    HW123621   1.126   4.349   5.266 -0.0005 -1.1118  0.1977
 3995SOL    HW223622   0.987   4.315   5.261 -0.8958 -1.6500 -0.2641
 3996SOL     OW23623   3.675   4.354  17.690  0.1461 -0.2503 -0.0815
 3996SOL    HW123624   3.702   4.373   0.012  0.1700 -1.5853  0.2027
 3996SOL    HW223625   3.699   4.262  17.676  0.5502 -0.2179  0.3756
 3997SOL     OW23626   1.534   1.961   8.797 -0.5061  0.6856 -0.4125
 3997SOL    HW123627   1.615   1.960   8.746 -0.6478 -0.9075 -0.6042
 3997SOL    HW223628   1.519   1.869   8.817 -0.0337  0.8562  0.7347
 3998SOL     OW23629   0.585   0.539  10.744  0.3679 -0.2330 -0.2382
 3998SOL    HW123630   0.629   0.494  10.671  1.0930  2.1785 -1.2897
 3998SOL    HW223631   0.663   0.550  10.799  1.0345 -0.1966 -1.1719
 3999SOL     OW23632   2.511   3.713   7.621  0.0299 -0.5113  0.1687
 3999SOL    HW123633   2.601   3.682   7.633  0.4367  0.9559  0.9797
 3999SOL    HW223634   2.489   3.756   7.704  0.5606 -2.7051  1.4342
 4000SOL     OW23635   4.676   1.690   8.555  0.5318 -0.4419 -0.1668
 4000SOL    HW123636   4.627   1.684   8.637 -0.7699  1.4251 -0.8249
 4000SOL    HW223637   0.014   1.731   8.584 -0.0637 -0.4777  1.5032
 4001SOL     OW23638   4.552   3.170  17.438  0.5464 -0.6985  0.5352
 4001SOL    HW123639   4.494   3.208  17.503 -0.8942  2.3299 -2.4984
 4001SOL    HW223640   4.488   3.166  17.366  0.3222  0.0421  0.6924
 4002SOL     OW23641   4.173   1.817  10.318 -0.0882 -0.0409 -0.3024
 4002SOL    HW123642   4.216   1.815  10.404 -1.4726 -1.9213  0.3472
 4002SOL    HW223643   4.086   1.851  10.340  0.9804  3.1468 -1.0814
 4003SOL     OW23644   3.126   2.876   8.810  0.9547 -0.4863 -0.0066
 4003SOL    HW123645   3.218   2.903   8.798  0.3113  1.8235  0.1887
 4003SOL    HW223646   3.108   2.917   8.894  1.1402  1.6473 -0.9952
 4004SOL     OW23647   2.240   3.832   5.685  0.8741  0.4997  0.0978
 4004SOL    HW123648   2.201   3.904   5.636 -1.3033 -0.3905  0.5201
 4004SOL    HW223649   2.234   3.758   5.625 -0.9943  0.9621 -0.2894
 4005SOL     OW23650   1.173   2.992   3.942 -0.0808  0.3624 -0.2571
 4005SOL    HW123651   1.160   3.075   3.896  3.9320  0.2402 -1.6299
 4005SOL    HW223652   1.113   3.005   4.016  0.7684  0.7513  0.3795
 4006SOL     OW23653   0.545   1.427   4.103 -0.3550  0.7851  0.0047
 4006SOL    HW123654   0.491   1.495   4.064 -0.1006  0.6695 -0.5564
 4006SOL    HW223655   0.591   1.484   4.165 -0.6328  0.7006  0.2840
 4007SOL     OW23656   2.957   3.027   2.493  0.4139 -0.2937  0.3116
 4007SOL    HW123657   3.039   3.024   2.443 -0.3982  2.1065 -1.1992
 4007SOL    HW223658   2.909   3.081   2.429 -0.3103 -0.6862  0.5230
 4008SOL     OW23659   0.161   1.613   6.588 -0.6280 -0.1452 -0.0423
 4008SOL    HW123660   0.184   1.598   6.496  0.3369  2.7880 -0.2745
 4008SOL    HW223661   0.212   1.693   6.599  1.5076 -1.2580 -1.7637
 4009SOL     OW23662   1.896   4.505   4.599  0.4650 -0.6340 -0.3268
 4009SOL    HW123663   1.922   4.560   4.673 -1.1232 -1.3107  0.7144
 4009SOL    HW223664   1.840   4.558   4.543 -1.5623 -0.6225  1.7003
 4010SOL     OW23665   1.413   2.306   3.480 -0.6493  0.2935 -0.3304
 4010SOL    HW123666   1.332   2.269   3.445 -1.5028 -0.5935  2.5572
 4010SOL    HW223667   1.420   2.241   3.550 -1.8374 -1.6718 -2.0372
 4011SOL     OW23668   2.440   4.318  15.030 -0.1775 -0.4628  0.0622
 4011SOL    HW123669   2.403   4.352  14.949 -0.2786 -1.7888 -0.4395
 4011SOL    HW223670   2.487   4.242  14.997 -0.2626  0.8575 -3.0605
 4012SOL     OW23671   0.331   0.283   5.642  0.0444  0.4326  0.7118
 4012SOL    HW123672   0.420   0.247   5.636 -0.2370  0.5833 -3.7773
 4012SOL    HW223673   0.324   0.343   5.568  0.2110  0.1154  0.4438
 4013SOL     OW23674   1.272   1.796  12.897 -0.6703  0.3252 -0.4502
 4013SOL    HW123675   1.341   1.852  12.861 -0.6674  1.1163  0.8002
 4013SOL    HW223676   1.193   1.814  12.845 -1.7538 -0.6180  0.8917
 4014SOL     OW23677   4.380   2.101   3.425 -1.0413  0.6305 -0.0184
 4014SOL    HW123678   4.363   2.017   3.384  2.3372 -0.1121  0.1382
 4014SOL    HW223679   4.475   2.107   3.422 -0.9668  0.1423  1.4670
 4015SOL     OW23680   2.839   4.582  10.289  0.9507 -0.5952 -0.1838
 4015SOL    HW123681   2.785   4.530  10.348  0.0154  2.1564  1.3994
 4015SOL    HW223682   2.789   4.576  10.208 -1.1735  1.1701  0.9779
 4016SOL     OW23683   3.026   1.646   5.363  0.2146 -0.7795 -0.3465
 4016SOL    HW123684   3.019   1.693   5.446  2.5880  0.6112 -0.9493
 4016SOL    HW223685   2.995   1.559   5.389 -0.2749 -0.7582 -0.8410
 4017SOL     OW23686   1.364   3.401   8.137 -0.0861 -0.5031 -0.0395
 4017SOL    HW123687   1.366   3.393   8.041  2.4931 -2.0683  0.1290
 4017SOL    HW223688   1.455   3.426   8.152  0.2441 -0.8880 -1.3546
 4018SOL     OW23689   1.909   0.349   7.479 -0.5265 -0.0720 -0.1601
 4018SOL    HW123690   1.960   0.309   7.549 -1.7543  0.2226  0.9098
 4018SOL    HW223691   1.911   0.271   7.424  0.7762 -0.3854  0.3289
 4019SOL     OW23692   3.006   2.913   6.941 -0.1256  0.0126  0.2320
 4019SOL    HW123693   3.077   2.963   6.980  0.2949  1.5464 -2.4699
 4019SOL    HW223694   2.989   2.976   6.870 -1.2170  0.0656  0.5424
 4020SOL     OW23695   1.118   0.961   9.166  0.0147 -0.2881 -0.3129
 4020SOL    HW123696   1.162   1.042   9.191  1.3724 -0.1226 -3.2827
 4020SOL    HW223697   1.181   0.900   9.203 -1.2650 -1.6661 -0.4009
 4021SOL     OW23698   0.394   2.478   2.334  0.3847  0.1194  0.4535
 4021SOL    HW123699   0.469   2.420   2.342 -1.6155 -2.5281 -0.0523
 4021SOL    HW223700   0.353   2.460   2.249  2.0676  0.0557 -0.3554
 4022SOL     OW23701   4.500   4.180  16.023  0.5977  0.0170 -0.3615
 4022SOL    HW123702   4.489   4.204  16.115 -1.9011  0.7289 -0.8419
 4022SOL    HW223703   4.414   4.202  15.988  0.7393  0.4179 -0.4606
 4023SOL     OW23704   3.526   2.312   4.381 -0.8169 -0.0214  0.2516
 4023SOL    HW123705   3.529   2.371   4.305 -1.5202  1.1490  1.1322
 4023SOL    HW223706   3.611   2.340   4.416  0.3917 -0.7312 -2.1190
 4024SOL     OW23707   3.626   3.593   8.455 -0.2670 -0.3362 -1.0008
 4024SOL    HW123708   3.712   3.604   8.496 -0.1679  2.0940 -1.8507
 4024SOL    HW223709   3.630   3.673   8.403 -0.1283 -1.1780 -2.2964
 4025SOL     OW23710   3.356   0.626  12.809 -0.1649 -0.4865  0.1441
 4025SOL    HW123711   3.424   0.561  12.822 -1.1036 -1.4737  0.1548
 4025SOL    HW223712   3.307   0.574  12.745  0.7478 -0.0475 -0.9204
 4026SOL     OW23713   2.915   4.309  10.755 -0.0562 -0.1971  0.1594
 4026SOL    HW123714   2.822   4.332  10.751  0.5574  2.0548 -1.1986
 4026SOL    HW223715   2.942   4.399  10.777  1.6609 -0.8371  0.6886
 4027SOL     OW23716   2.617   2.763  16.580 -0.5090 -0.2650  0.1342
 4027SOL    HW123717   2.604   2.670  16.601 -0.8537  0.0064  1.1223
 4027SOL    HW223718   2.709   2.776  16.602 -0.7389  2.4048 -0.5138
 4028SOL     OW23719   1.888   0.645   1.281  0.1720 -0.0811  0.4694
 4028SOL    HW123720   1.928   0.683   1.203  1.4675 -0.4989  0.9345
 4028SOL    HW223721   1.958   0.667   1.343 -1.3184 -0.8508  2.4505
 4029SOL     OW23722   3.522   2.266  11.987  0.7947  0.0325  0.6543
 4029SOL    HW123723   3.430   2.249  11.967  0.6653  0.7668  0.6214
 4029SOL    HW223724   3.567   2.287  11.906 -1.4783 -1.6157 -1.0437
 4030SOL     OW23725   1.211   0.105  12.327 -0.4712  0.1271  0.2513
 4030SOL    HW123726   1.303   0.080  12.328 -0.4934  0.1082  2.5630
 4030SOL    HW223727   1.209   0.138  12.237  0.0519  2.2341  1.0097
 4031SOL     OW23728   4.033   3.042   5.765 -0.1656  0.4796 -0.0460
 4031SOL    HW123729   4.105   3.067   5.707 -0.2988 -2.5442 -1.5563
 4031SOL    HW223730   3.959   3.025   5.705 -1.3751 -0.7795  1.8076
 4032SOL     OW23731   0.198   1.417   9.995 -0.2281  0.3634 -0.3916
 4032SOL    HW123732   0.217   1.406  10.088  1.8433  1.4840 -0.6931
 4032SOL    HW223733   0.113   1.374   9.995  0.9109 -1.9393  1.9597
 4033SOL     OW23734   0.763   0.165   5.460  0.1847 -0.0121 -0.1541
 4033SOL    HW123735   0.685   0.143   5.510 -0.6052 -0.1681 -1.4710
 4033SOL    HW223736   0.781   0.093   5.399 -2.3138 -1.4803  0.8447
 4034SOL     OW23737   0.186   2.577  11.518 -0.7912  0.0390  0.5670
 4034SOL    HW123738   0.231   2.627  11.586 -1.4207 -0.7196  1.5281
 4034SOL    HW223739   0.117   2.643  11.510  0.2736  1.1814  0.8111
 4035SOL     OW23740   2.284   0.243   3.057  0.6214 -0.2665 -0.6997
 4035SOL    HW123741   2.246   0.199   3.133 -1.4706  0.3596 -1.3844
 4035SOL    HW223742   2.312   0.168   3.004  2.8567 -0.4091  0.7011
 4036SOL     OW23743   4.679   4.540   7.137  0.4373 -0.0777 -0.4751
 4036SOL    HW123744   4.661   4.526   7.230  0.6568 -1.7990 -0.6997
 4036SOL    HW223745   4.714   4.628   7.153 -1.1649  0.4629  0.1329
 4037SOL     OW23746   3.391   4.224   2.906 -0.0241  0.4723 -0.0267
 4037SOL    HW123747   3.467   4.177   2.873  0.4556  2.4266 -1.6704
 4037SOL    HW223748   3.340   4.149   2.936 -0.6250  1.9163  2.5628
 4038SOL     OW23749   0.604   4.144   8.616  0.7469  0.0339 -0.7341
 4038SOL    HW123750   0.670   4.203   8.651  1.3559 -0.0938 -1.6416
 4038SOL    HW223751   0.570   4.195   8.542 -2.3863  1.4034  1.6571
 4039SOL     OW23752   4.558   2.354   5.428 -0.1325 -0.0612  0.0622
 4039SOL    HW123753   4.467   2.364   5.398  0.3832  1.1049 -1.0894
 4039SOL    HW223754   4.590   2.443   5.417 -2.6409  0.7500 -0.6103
 4040SOL     OW23755   3.625   0.697   4.156  0.1902  0.0381 -0.5862
 4040SOL    HW123756   3.545   0.650   4.134  0.5315  0.2831 -2.3938
 4040SOL    HW223757   3.687   0.660   4.093  0.6876  0.3543 -0.2838
 4041SOL     OW23758   4.538   2.504   4.897 -0.2941  0.2379  0.1761
 4041SOL    HW123759   4.535   2.470   4.808 -2.1399  0.4321  0.1644
 4041SOL    HW223760   4.607   2.447   4.932  0.0132  0.9213  0.7002
 4042SOL     OW23761   0.084   1.085   1.539  0.5506  0.5831  0.3158
 4042SOL    HW123762   4.742   1.128   1.526  0.9186  1.3054  0.2999
 4042SOL    HW223763   0.101   1.103   1.631 -3.4240 -3.1533  1.7941
 4043SOL     OW23764   3.165   4.529   3.380  0.1074  0.2648  0.0248
 4043SOL    HW123765   3.231   4.480   3.428  0.3933  1.5472  0.9378
 4043SOL    HW223766   3.136   4.603   3.433 -0.9671 -2.3800  3.1035
 4044SOL     OW23767   0.075   3.644   4.205 -0.8280  0.2780  0.6352
 4044SOL    HW123768   0.156   3.607   4.239 -0.3530  0.0821 -0.7105
 4044SOL    HW223769   0.007   3.630   4.270 -1.0077 -1.9174 -0.0291
 4045SOL     OW23770   0.831   1.491   8.782  0.4539  0.1671  0.2550
 4045SOL    HW123771   0.764   1.517   8.718 -2.1553 -1.3377  2.3455
 4045SOL    HW223772   0.805   1.401   8.802  0.9887  0.7128  3.2993
 4046SOL     OW23773   3.182   1.356  10.202 -0.3394 -0.4253 -0.0689
 4046SOL    HW123774   3.148   1.346  10.113 -3.0059  2.4333  0.6116
 4046SOL    HW223775   3.106   1.401  10.238 -0.1408 -0.6169  0.5832
 4047SOL     OW23776   4.356   1.085  11.398 -0.5905  0.3644 -0.7447
 4047SOL    HW123777   4.341   0.991  11.396 -0.7862  0.4105 -1.5336
 4047SOL    HW223778   4.352   1.108  11.491  0.5695 -0.0014 -0.6101
 4048SOL     OW23779   3.791   2.070   8.449 -0.4399 -0.0346 -0.3220
 4048SOL    HW123780   3.698   2.079   8.431 -0.2655  1.0213 -0.6729
 4048SOL    HW223781   3.814   2.008   8.380 -1.0111  0.9052 -1.3587
 4049SOL     OW23782   0.957   3.345   0.750  0.5596 -0.1744  0.7546
 4049SOL    HW123783   0.914   3.341   0.835  0.4387  0.1508  0.7091
 4049SOL    HW223784   0.879   3.360   0.696  1.1734 -0.6814 -0.2688
 4050SOL     OW23785   0.423   0.191   2.625  0.1616 -0.1621  0.1257
 4050SOL    HW123786   0.451   0.148   2.706 -1.6205 -0.1386  0.7407
 4050SOL    HW223787   0.358   0.255   2.650  0.9399  0.3676  0.7925
 4051SOL     OW23788   3.165   3.253   6.644 -0.1963 -0.2199 -0.0865
 4051SOL    HW123789   3.102   3.186   6.671  1.9732 -1.2664  2.3146
 4051SOL    HW223790   3.142   3.260   6.551 -0.4401 -1.9328 -0.1605
 4052SOL     OW23791   3.535   3.865   5.476  0.4824  0.1655 -0.4639
 4052SOL    HW123792   3.630   3.874   5.465  0.7476 -1.0716  0.7663
 4052SOL    HW223793   3.495   3.942   5.435  0.7539  0.7431  0.3470
 4053SOL     OW23794   4.710   4.162  14.461 -0.0935 -0.3141 -0.3213
 4053SOL    HW123795   0.036   4.098  14.440 -0.0858  0.0503 -1.3947
 4053SOL    HW223796   4.653   4.117  14.524  0.8189 -1.2279 -0.1589
 4054SOL     OW23797   0.225   0.643   3.177 -0.0814  0.5608  0.0022
 4054SOL    HW123798   0.303   0.624   3.125 -1.2935 -0.4225 -1.4832
 4054SOL    HW223799   0.181   0.560   3.159 -2.1508  1.7895 -0.5940
 4055SOL     OW23800   0.236   0.679  13.293 -0.8416  0.6059  0.8074
 4055SOL    HW123801   0.273   0.621  13.227  0.3851  2.4394 -0.1309
 4055SOL    HW223802   0.295   0.754  13.283 -1.0122  0.7678  1.0214
 4056SOL     OW23803   0.167   1.691   9.998  0.2664  0.5477  0.6283
 4056SOL    HW123804   0.189   1.746   9.922  1.2447 -0.9132 -0.1346
 4056SOL    HW223805   0.200   1.605   9.971  1.2289  1.0591  0.1629
 4057SOL     OW23806   2.248   4.297   6.608  0.7054  0.4256 -0.7460
 4057SOL    HW123807   2.340   4.317   6.590  0.8218  0.3611 -0.2465
 4057SOL    HW223808   2.231   4.223   6.550  3.2217  0.5645 -1.6707
 4058SOL     OW23809   2.950   0.364   4.476  0.1712  0.2962  0.0533
 4058SOL    HW123810   3.033   0.321   4.454 -0.3062  0.0548 -1.2526
 4058SOL    HW223811   2.922   0.322   4.557 -1.3732  1.6810  0.2162
 4059SOL     OW23812   3.496   1.417   3.217 -0.0997 -0.3992  0.0993
 4059SOL    HW123813   3.565   1.425   3.151  0.5232 -3.5361  0.3481
 4059SOL    HW223814   3.424   1.375   3.170 -1.4169  1.1165  0.7595
 4060SOL     OW23815   3.788   0.562  12.435  0.2823 -0.2720 -0.5011
 4060SOL    HW123816   3.825   0.548  12.523 -0.8766  2.1116  0.3534
 4060SOL    HW223817   3.841   0.498  12.388  1.2847  1.8056 -2.1646
 4061SOL     OW23818   0.959   3.538   7.756 -0.0031 -0.2219 -0.2214
 4061SOL    HW123819   1.010   3.520   7.677 -1.9951 -0.4890 -1.4808
 4061SOL    HW223820   0.985   3.629   7.772 -2.4910  0.9626 -2.8933
 4062SOL     OW23821   0.448   3.448   6.702 -0.2205  0.0857  0.0349
 4062SOL    HW123822   0.413   3.371   6.657  0.1894 -0.0183 -0.1115
 4062SOL    HW223823   0.509   3.422   6.771 -0.4852 -0.2697  0.1326
 4063SOL     OW23824   1.298   2.180   2.773 -0.8103 -0.8100  0.6976
 4063SOL    HW123825   1.217   2.189   2.822 -0.0604  0.0457  1.7815
 4063SOL    HW223826   1.360   2.184   2.845 -0.7943 -1.2267  0.7048
 4064SOL     OW23827   1.243   2.693   6.129 -0.3253 -0.4568  0.0091
 4064SOL    HW123828   1.174   2.750   6.096  0.3924 -0.1771 -0.9996
 4064SOL    HW223829   1.287   2.743   6.198 -0.5825  1.8419 -1.4787
 4065SOL     OW23830   2.810   2.505  16.878  0.5674 -0.1417  0.6352
 4065SOL    HW123831   2.749   2.570  16.844  1.4710  0.2612 -0.2135
 4065SOL    HW223832   2.783   2.432  16.822  0.0272 -0.3303  1.1341
 4066SOL     OW23833   0.675   0.268   7.360  0.5210  0.2598 -0.5578
 4066SOL    HW123834   0.736   0.218   7.306  1.2301 -2.5188  2.7560
 4066SOL    HW223835   0.670   0.215   7.440 -1.6332 -0.1637 -0.9833
 4067SOL     OW23836   4.030   1.464   2.462 -0.2671 -0.1490 -0.0850
 4067SOL    HW123837   4.120   1.483   2.490 -1.1774  0.5085  2.4028
 4067SOL    HW223838   3.974   1.511   2.525  2.6430  0.1611  2.2562
 4068SOL     OW23839   1.323   3.132  10.450 -0.1054  0.1324 -1.1757
 4068SOL    HW123840   1.396   3.192  10.434 -0.4395  1.1114  0.8991
 4068SOL    HW223841   1.376   3.053  10.457  1.8099  1.4549 -0.8897
 4069SOL     OW23842   3.422   3.117   6.539  0.4388 -0.3407 -0.6033
 4069SOL    HW123843   3.345   3.110   6.595 -1.0118  0.6478 -2.4563
 4069SOL    HW223844   3.396   3.174   6.466 -0.3679 -0.2268 -0.2275
 4070SOL     OW23845   4.617   4.682   3.662  0.5944 -0.3065  0.2359
 4070SOL    HW123846   4.550   4.632   3.615  0.6277 -0.7731  0.6905
 4070SOL    HW223847   4.590   0.031   3.653  2.3785 -0.0006 -2.0471
 4071SOL     OW23848   4.618   3.124   8.917  0.2571 -0.3153  0.0450
 4071SOL    HW123849   4.557   3.132   8.843  1.6377 -0.5394 -1.1080
 4071SOL    HW223850   4.704   3.147   8.882 -0.9462 -0.4070 -3.0089
 4072SOL     OW23851   2.316   3.141  11.432  0.5613 -0.1152 -0.7680
 4072SOL    HW123852   2.297   3.048  11.416  1.7297 -0.4221 -0.3721
 4072SOL    HW223853   2.302   3.131  11.526  2.0484 -1.5954 -0.7066
 4073SOL     OW23854   2.701   0.585  11.701  0.4329 -0.2071  0.0066
 4073SOL    HW123855   2.699   0.537  11.618 -0.5735  0.2529 -0.2449
 4073SOL    HW223856   2.680   0.520  11.767  0.9861 -2.7201 -2.2816
 4074SOL     OW23857   4.736   3.169  13.354  0.6174 -0.1334 -0.2927
 4074SOL    HW123858   0.052   3.243  13.338  0.5819  0.2686  1.3641
 4074SOL    HW223859   4.677   3.169  13.279  0.2677 -1.7748 -0.0039
 4075SOL     OW23860   0.940   4.361  10.900 -0.0445  0.1922  0.0108
 4075SOL    HW123861   0.946   4.270  10.928  0.7660  0.7930  1.8559
 4075SOL    HW223862   0.966   4.348  10.809  0.3604  0.1634  0.1314
 4076SOL     OW23863   4.323   0.883   9.172  0.0273  0.0599 -0.5922
 4076SOL    HW123864   4.283   0.896   9.086  2.9418  0.1086 -1.9320
 4076SOL    HW223865   4.244   0.856   9.220  0.0672  1.2085  0.1226
 4077SOL     OW23866   1.595   0.756   1.899 -0.3588  0.0939  0.8104
 4077SOL    HW123867   1.667   0.697   1.878  0.4788  1.1089  0.8319
 4077SOL    HW223868   1.651   0.828   1.929  0.7212 -0.3637 -0.1398
 4078SOL     OW23869   0.225   3.849  11.438  0.4586 -0.1308 -0.3683
 4078SOL    HW123870   0.143   3.808  11.414 -0.1752  0.7308  0.2997
 4078SOL    HW223871   0.275   3.770  11.457 -1.5069 -1.0429  1.0608
 4079SOL     OW23872   0.079   3.038  10.006  0.6888 -0.5265 -0.3374
 4079SOL    HW123873   0.103   2.968  10.067 -3.1273 -2.0626 -0.5785
 4079SOL    HW223874   0.163   3.057   9.963  1.9424 -1.3206  1.7629
 4080SOL     OW23875   2.075   0.097   5.721 -0.1804 -0.2567 -0.4007
 4080SOL    HW123876   1.980   0.107   5.713  0.2095  1.4705 -2.7883
 4080SOL    HW223877   2.085   0.063   5.810 -1.3574 -1.1223 -0.6051
 4081SOL     OW23878   3.295   1.306   3.071 -0.3337 -0.4909  0.1791
 4081SOL    HW123879   3.358   1.247   3.029 -0.9657 -0.4373 -0.8371
 4081SOL    HW223880   3.254   1.360   3.004  0.5368  0.0715  0.1030
 4082SOL     OW23881   1.596   1.876   2.686 -0.2705  0.6435 -0.5014
 4082SOL    HW123882   1.640   1.961   2.700  1.0028 -0.3620  1.6828
 4082SOL    HW223883   1.577   1.846   2.775  1.3266  1.8576  0.2623
 4083SOL     OW23884   1.657   4.463  10.925  0.4369 -0.3920 -0.2797
 4083SOL    HW123885   1.679   4.530  10.989 -2.7228  0.0744  0.2918
 4083SOL    HW223886   1.728   4.398  10.926 -0.1619 -1.0073  2.2510
 4084SOL     OW23887   4.318   0.571  10.178  0.0872 -0.1905 -0.4080
 4084SOL    HW123888   4.255   0.530  10.237  3.0320 -0.1532  2.7752
 4084SOL    HW223889   4.258   0.624  10.126 -1.6849 -1.5715  0.2351
 4085SOL     OW23890   3.768   4.039  16.024  0.6873 -1.0056  0.2003
 4085SOL    HW123891   3.689   4.073  15.982  1.4777 -0.6985 -1.0109
 4085SOL    HW223892   3.738   3.982  16.095 -0.7152  1.2536  1.4180
 4086SOL     OW23893   0.809   3.765   0.433  0.5408  0.6256  0.1047
 4086SOL    HW123894   0.818   3.856   0.461  0.7431  0.4379  0.6563
 4086SOL    HW223895   0.895   3.764   0.393 -0.8132 -0.8385 -2.7631
 4087SOL     OW23896   0.801   2.758  17.617 -0.2890  0.5177 -0.6189
 4087SOL    HW123897   0.830   2.728  17.703 -4.1024 -1.0273  0.1426
 4087SOL    HW223898   0.870   2.819  17.591 -0.3383  1.5696  1.6940
 4088SOL     OW23899   2.286   4.727  11.662 -0.2930 -0.4775  0.6679
 4088SOL    HW123900   2.375   4.715  11.631 -0.4103 -0.1652  0.1985
 4088SOL    HW223901   2.287   4.697  11.753  0.1207 -0.3818  0.6939
 4089SOL     OW23902   0.137   1.227   3.461 -0.4573 -0.1078  0.0090
 4089SOL    HW123903   0.231   1.241   3.459 -0.6245  0.9853 -0.1414
 4089SOL    HW223904   0.116   1.278   3.383 -3.1830 -0.7680  0.3089
 4090SOL     OW23905   2.105   0.203   8.593  0.5004  0.5835 -0.0916
 4090SOL    HW123906   2.048   0.267   8.550  0.4223 -0.1837 -1.1443
 4090SOL    HW223907   2.169   0.264   8.630  0.4543  0.2215  0.5791
 4091SOL     OW23908   0.103   3.639  11.927 -0.3652 -0.0029  0.1265
 4091SOL    HW123909   0.096   3.572  11.995 -3.3631 -1.5957 -1.7389
 4091SOL    HW223910   0.049   3.605  11.855 -0.1029 -0.6843  0.2448
 4092SOL     OW23911   1.176   3.929   5.498 -0.0412  0.3546 -0.1626
 4092SOL    HW123912   1.096   3.877   5.502  0.3770 -0.1602  1.5560
 4092SOL    HW223913   1.194   3.942   5.405  2.0056 -0.6139  0.0961
 4093SOL     OW23914   2.006   0.058   6.339  0.6715  0.0829  0.9113
 4093SOL    HW123915   2.035   4.730   6.397 -2.7914 -0.9748  1.3644
 4093SOL    HW223916   2.041   0.005   6.267  1.1047 -1.7513  2.4542
 4094SOL     OW23917   4.270   3.363   6.626  0.2551 -0.0540 -0.1131
 4094SOL    HW123918   4.235   3.276   6.608  0.0515  0.3842 -1.9196
 4094SOL    HW223919   4.242   3.412   6.549  1.0497 -1.9196 -1.5880
 4095SOL     OW23920   0.200   2.490  16.469  0.3358 -0.0955  0.1883
 4095SOL    HW123921   0.161   2.540  16.540 -1.0576  0.8735 -1.2766
 4095SOL    HW223922   0.216   2.408  16.515 -0.9803 -2.2392 -3.1565
 4096SOL     OW23923   3.772   2.486  16.659  0.6581  0.0580 -0.7484
 4096SOL    HW123924   3.677   2.494  16.664  0.5212 -1.9209 -0.3723
 4096SOL    HW223925   3.793   2.441  16.741  2.0879 -0.0376 -1.1672
 4097SOL     OW23926   0.255   0.068   5.307 -0.3703  0.4976  0.1513
 4097SOL    HW123927   0.239   0.031   5.220  1.1507 -2.8759  1.3339
 4097SOL    HW223928   0.336   0.042   5.350 -0.3012  0.2265 -0.1424
 4098SOL     OW23929   3.503   4.580   4.547 -0.9149  0.6021 -0.5761
 4098SOL    HW123930   3.417   4.617   4.528 -0.6625  0.6276 -1.6161
 4098SOL    HW223931   3.487   4.552   4.638 -0.2323 -0.3040 -0.7364
 4099SOL     OW23932   2.271   4.104   5.089  0.2917 -0.4192  0.3572
 4099SOL    HW123933   2.336   4.108   5.159  1.0084 -0.4050 -0.3030
 4099SOL    HW223934   2.203   4.166   5.116  0.5338  0.5302 -1.2305
 4100SOL     OW23935   3.584   2.889   4.959 -0.0705  0.2474 -0.3705
 4100SOL    HW123936   3.651   2.953   4.933  0.5476 -0.3175 -0.1808
 4100SOL    HW223937   3.600   2.883   5.053 -0.2198  0.4707 -0.3291
 4101SOL     OW23938   0.731   1.725  17.593 -0.1385 -0.0108  0.8798
 4101SOL    HW123939   0.731   1.743  17.687  0.8937  2.3158  0.4304
 4101SOL    HW223940   0.711   1.632  17.578 -0.5382  0.3875 -1.1327
 4102SOL     OW23941   1.107   2.215   9.508 -0.1468  0.0915 -0.0815
 4102SOL    HW123942   1.120   2.185   9.418 -1.1941 -0.1521 -0.1503
 4102SOL    HW223943   1.199   2.234   9.529  0.9664 -2.9734 -2.2429
 4103SOL     OW23944   3.544   4.065   3.492 -0.2113 -0.1856  0.0161
 4103SOL    HW123945   3.569   4.041   3.403  0.8858  0.2719  0.2094
 4103SOL    HW223946   3.486   3.991   3.507 -0.3688 -0.3392 -1.3474
 4104SOL     OW23947   0.549   4.646  15.879  0.3229 -0.3738 -0.4155
 4104SOL    HW123948   0.558   4.629  15.785 -0.2862 -2.6167 -0.0659
 4104SOL    HW223949   0.557   4.555  15.907 -2.4200 -0.3821  0.3064
 4105SOL     OW23950   4.590   3.752  16.328 -0.0168  0.3205  1.0057
 4105SOL    HW123951   4.660   3.808  16.361 -0.1794  1.5343 -0.7159
 4105SOL    HW223952   4.587   3.686  16.397 -1.7518  1.2237  1.7882
 4106SOL     OW23953   4.236   0.770   2.994  0.5950 -0.1268  0.8573
 4106SOL    HW123954   4.230   0.696   2.934  0.8337 -2.0127  3.2012
 4106SOL    HW223955   4.183   0.831   2.943  1.4996  1.6943  2.0706
 4107SOL     OW23956   4.515   1.429   7.405 -0.6563  0.5636  0.2992
 4107SOL    HW123957   4.464   1.455   7.327 -1.2149  0.6411  0.6898
 4107SOL    HW223958   4.511   1.515   7.447 -1.6127 -0.0325  1.4216
 4108SOL     OW23959   1.831   2.548   2.168  0.5911  0.4712  0.2068
 4108SOL    HW123960   1.904   2.532   2.108  0.0138  2.1634 -0.9561
 4108SOL    HW223961   1.860   2.530   2.258  0.3028 -0.8569  0.0339
 4109SOL     OW23962   2.228   3.288   7.908 -0.5417  0.2205  0.4765
 4109SOL    HW123963   2.189   3.372   7.930 -0.7136  0.6111 -1.3702
 4109SOL    HW223964   2.273   3.309   7.827 -0.1793 -1.4287  0.2398
 4110SOL     OW23965   0.000   2.818  12.174 -0.3979  0.1297 -0.3855
 4110SOL    HW123966   0.028   2.728  12.157  2.9289  1.1061 -0.1043
 4110SOL    HW223967   0.050   2.835  12.255 -1.2778  0.0027  0.1833
 4111SOL     OW23968   1.709   2.485   3.277 -0.1623 -0.1904  0.3509
 4111SOL    HW123969   1.783   2.461   3.221 -1.3590 -1.6178 -0.6043
 4111SOL    HW223970   1.752   2.544   3.339  1.8113 -2.0630  0.7754
 4112SOL     OW23971   4.610   4.393   6.924 -0.1085 -0.3450 -0.3147
 4112SOL    HW123972   4.575   4.451   6.856  0.5192  1.5447  0.9864
 4112SOL    HW223973   4.634   4.452   6.995  0.9272 -1.9854  0.6842
 4113SOL     OW23974   3.259   3.605   5.637  0.1924 -0.7047 -0.0882
 4113SOL    HW123975   3.212   3.668   5.583 -1.2153 -1.3439  0.3714
 4113SOL    HW223976   3.191   3.541   5.661 -1.0665  0.2582 -1.0688
 4114SOL     OW23977   1.783   1.972   6.470  0.1467 -0.3673  0.4918
 4114SOL    HW123978   1.849   1.993   6.537  0.9106 -2.2601  0.3214
 4114SOL    HW223979   1.721   2.044   6.476 -0.0308 -0.4020 -0.9644
 4115SOL     OW23980   1.837   2.569   9.359 -0.1386 -0.4347  0.8012
 4115SOL    HW123981   1.923   2.565   9.400 -0.0195 -0.2005  0.5744
 4115SOL    HW223982   1.860   2.610   9.275 -0.0343 -1.2422  0.4357
 4116SOL     OW23983   4.392   3.605  14.469 -0.3287 -0.3109  0.3243
 4116SOL    HW123984   4.414   3.695  14.492  3.1327 -1.4528  1.4478
 4116SOL    HW223985   4.379   3.604  14.374  0.5465 -0.9469  0.2184
 4117SOL     OW23986   0.241   1.812  15.693 -0.5639 -0.0842 -0.4054
 4117SOL    HW123987   0.169   1.829  15.632 -2.0991  1.1830  1.8183
 4117SOL    HW223988   0.195   1.827  15.775 -0.7798 -2.2153 -0.1320
 4118SOL     OW23989   0.029   4.110  16.024 -0.2560  0.3063  0.4434
 4118SOL    HW123990   4.677   4.121  16.023 -0.3712 -0.8407 -0.8024
 4118SOL    HW223991   0.050   4.191  15.979 -0.6062  0.4462  0.5348
 4119SOL     OW23992   2.470   0.269  12.830 -0.2318  0.2079  0.3250
 4119SOL    HW123993   2.483   0.220  12.911 -3.3315 -0.4428  0.4238
 4119SOL    HW223994   2.377   0.294  12.831  0.1310  1.5471 -0.4182
 4120SOL     OW23995   0.556   2.433   9.095 -0.8852 -0.2188  0.1844
 4120SOL    HW123996   0.549   2.400   9.184 -0.6003 -2.4704 -0.6202
 4120SOL    HW223997   0.568   2.527   9.099  1.1080 -0.4549 -0.2991
 4121SOL     OW23998   0.621   0.870   3.108  0.4237  0.3278 -0.1376
 4121SOL    HW123999   0.622   0.827   3.193  1.2987 -0.1860 -0.4027
 4121SOL    HW224000   0.526   0.875   3.098  0.3605  0.2761  0.4328
 4122SOL     OW24001   1.903   1.141  10.197  1.0124 -0.5667  0.0546
 4122SOL    HW124002   1.848   1.188  10.261  0.0953 -1.6146  0.0280
 4122SOL    HW224003   1.831   1.098  10.151 -0.2852  2.1336 -0.4313
 4123SOL     OW24004   2.190   2.442  13.395 -0.5611 -0.0075  0.2495
 4123SOL    HW124005   2.214   2.401  13.478  1.3106 -2.3924 -1.4520
 4123SOL    HW224006   2.201   2.536  13.409 -0.6345  0.3097 -1.8208
 4124SOL     OW24007   1.893   2.737   9.142 -0.1808 -0.2605  0.4275
 4124SOL    HW124008   1.905   2.806   9.076  2.1229 -0.7151  0.3668
 4124SOL    HW224009   1.860   2.667   9.087  1.1150 -1.5113  1.2483
 4125SOL     OW24010   3.277   0.752   7.398 -1.0931 -0.1242 -0.3386
 4125SOL    HW124011   3.291   0.660   7.375 -2.4115 -0.2018 -0.8743
 4125SOL    HW224012   3.240   0.779   7.314 -1.9454  0.8807  0.3628
 4126SOL     OW24013   2.246   1.939  16.992 -0.1671 -0.4205  0.2755
 4126SOL    HW124014   2.306   1.890  17.048  0.3873 -0.6596 -0.5327
 4126SOL    HW224015   2.188   1.964  17.064 -0.5794  0.4876 -0.3799
 4127SOL     OW24016   1.643   1.685  12.725 -0.1391  0.9637 -0.1768
 4127SOL    HW124017   1.609   1.739  12.654  0.9931 -1.4403 -2.5449
 4127SOL    HW224018   1.605   1.723  12.804 -0.9309  1.2759 -0.7103
 4128SOL     OW24019   3.405   1.378   1.432  0.2045  0.2795  0.0997
 4128SOL    HW124020   3.326   1.349   1.478 -0.8104  2.6096 -0.1694
 4128SOL    HW224021   3.445   1.294   1.411 -0.5408  0.6175 -2.6690
 4129SOL     OW24022   4.108   0.266   6.641  0.2550  0.6512 -0.3251
 4129SOL    HW124023   4.090   0.207   6.714 -3.3374  0.6431 -1.1993
 4129SOL    HW224024   4.048   0.337   6.665  0.2127  0.0497  1.2927
 4130SOL     OW24025   1.015   4.035   1.614  0.9174 -0.0932 -0.1583
 4130SOL    HW124026   1.023   4.130   1.620  1.2387 -0.3735  3.5174
 4130SOL    HW224027   0.957   4.025   1.690  1.0858 -1.3301 -0.1962
 4131SOL     OW24028   2.018   0.301   4.009  0.3034  0.9921  0.1393
 4131SOL    HW124029   2.036   0.208   4.023 -0.6762  0.8411  0.4115
 4131SOL    HW224030   1.931   0.299   3.968 -0.4554  0.8797  1.7772
 4132SOL     OW24031   2.463   2.112   6.369 -0.3463  0.2278  0.2863
 4132SOL    HW124032   2.420   2.084   6.450  0.2243  0.9568  0.8396
 4132SOL    HW224033   2.538   2.052   6.370 -1.4230 -1.1693 -2.0606
 4133SOL     OW24034   3.604   3.232  13.413  0.2624 -0.8062  0.5345
 4133SOL    HW124035   3.514   3.202  13.425  0.0968  0.0545  1.4015
 4133SOL    HW224036   3.624   3.282  13.492  0.2929  0.1892 -0.1038
 4134SOL     OW24037   4.096   3.214   4.963 -0.1989 -0.5569  0.3225
 4134SOL    HW124038   4.014   3.235   4.919  0.7724  0.8061 -0.8229
 4134SOL    HW224039   4.072   3.123   4.981 -3.6263  0.1294 -0.8647
 4135SOL     OW24040   3.235   1.613  12.909  0.1712 -0.4474  0.5979
 4135SOL    HW124041   3.254   1.537  12.854  1.6958 -0.3806  1.0329
 4135SOL    HW224042   3.200   1.566  12.985  2.0099  0.6493  2.1260
 4136SOL     OW24043   1.036   0.054   8.464  0.4637  0.4957  0.0023
 4136SOL    HW124044   1.101   4.727   8.452 -1.0207 -0.6058 -1.8088
 4136SOL    HW224045   1.004   0.077   8.377 -2.1771 -0.1737  0.7899
 4137SOL     OW24046   4.080   3.068  10.914 -0.9695  0.2304 -0.1882
 4137SOL    HW124047   4.099   3.081  10.822  0.0989 -0.9192 -0.1263
 4137SOL    HW224048   4.027   2.988  10.912 -0.0946 -0.3646  0.4228
 4138SOL     OW24049   3.863   4.629  15.010  0.2025  0.3463  0.2313
 4138SOL    HW124050   3.909   4.712  15.019  0.3314  0.2126  0.7823
 4138SOL    HW224051   3.840   4.596  15.097 -0.1255  1.8287  0.7151
 4139SOL     OW24052   3.570   0.445   5.427  0.0010 -0.1896 -0.4897
 4139SOL    HW124053   3.510   0.383   5.470  0.5234 -2.1351 -2.6077
 4139SOL    HW224054   3.642   0.383   5.414  0.1628 -0.1895  0.3870
 4140SOL     OW24055   2.405   3.681   4.360 -0.4006  0.3112 -0.3259
 4140SOL    HW124056   2.500   3.667   4.355 -0.6152 -0.1435 -3.1197
 4140SOL    HW224057   2.371   3.646   4.278  0.6448 -0.8082 -0.2718
 4141SOL     OW24058   2.555   3.962   5.231 -0.3144  0.6399  0.1158
 4141SOL    HW124059   2.530   3.896   5.166 -1.7284  0.5322  0.7752
 4141SOL    HW224060   2.648   3.943   5.244 -0.6653 -1.5760 -0.6851
 4142SOL     OW24061   1.428   0.450   7.560  0.2414 -0.1708  0.2424
 4142SOL    HW124062   1.449   0.524   7.503 -2.6185  0.5560  0.1412
 4142SOL    HW224063   1.510   0.403   7.575  0.5877  0.8291  1.4646
 4143SOL     OW24064   2.699   0.693   5.063  0.3989  0.3304 -0.4641
 4143SOL    HW124065   2.635   0.671   4.996 -2.2160  0.8093  1.8933
 4143SOL    HW224066   2.747   0.751   5.005 -0.2042  0.4583 -0.8288
 4144SOL     OW24067   3.492   4.468   6.256 -0.3417 -0.3531  0.2078
 4144SOL    HW124068   3.481   4.440   6.165  1.2414  1.9102 -0.6759
 4144SOL    HW224069   3.587   4.475   6.257 -0.6440  3.8413  0.2901
 4145SOL     OW24070   3.318   4.211   6.828  0.5642  0.5028 -0.0674
 4145SOL    HW124071   3.370   4.288   6.803  0.5307  0.4367 -0.3485
 4145SOL    HW224072   3.382   4.174   6.888  0.3282 -1.0617 -0.7826
 4146SOL     OW24073   1.804   4.219  10.903  0.2410  0.3051  0.5278
 4146SOL    HW124074   1.846   4.155  10.960  3.0543  0.9456 -0.8088
 4146SOL    HW224075   1.874   4.263  10.854  0.5587 -0.9735 -0.1616
 4147SOL     OW24076   1.275   0.636   8.936 -0.4912  0.3774 -0.8442
 4147SOL    HW124077   1.277   0.577   8.861  1.5335 -0.7746  0.1167
 4147SOL    HW224078   1.340   0.705   8.921  1.9838 -1.0914  3.0782
 4148SOL     OW24079   0.009   4.518  16.133  0.3511 -0.1373  0.3839
 4148SOL    HW124080   0.000   4.586  16.200  1.5260  1.7551 -1.4119
 4148SOL    HW224081   0.104   4.507  16.133  0.5018  1.1248 -1.5736
 4149SOL     OW24082   1.594   0.326  12.402 -0.3128 -0.6533  0.0788
 4149SOL    HW124083   1.654   0.286  12.466 -0.1391  0.8068  0.8439
 4149SOL    HW224084   1.520   0.355  12.456 -1.0259  0.0414 -1.2821
 4150SOL     OW24085   1.149   2.787   2.695  0.7813  0.6081 -0.0515
 4150SOL    HW124086   1.169   2.772   2.602 -0.9501 -0.3396 -0.2693
 4150SOL    HW224087   1.221   2.736   2.732 -0.7483 -0.8770  0.8337
 4151SOL     OW24088   2.338   3.330   3.499 -0.4173  0.0776  0.3736
 4151SOL    HW124089   2.283   3.397   3.458 -1.5072 -0.2180  1.3861
 4151SOL    HW224090   2.420   3.377   3.514 -0.7547  0.7491  0.1131
 4152SOL     OW24091   3.584   3.777   7.464  0.0730  0.1928 -0.5524
 4152SOL    HW124092   3.519   3.710   7.443 -1.3592  1.6225 -0.6911
 4152SOL    HW224093   3.624   3.756   7.548 -0.6323 -1.0479 -0.5315
 4153SOL     OW24094   4.216   1.307  11.315  0.2416 -0.4277 -0.1300
 4153SOL    HW124095   4.163   1.291  11.393  0.3246 -0.7251 -0.1362
 4153SOL    HW224096   4.274   1.231  11.322 -0.7377 -0.9264  2.4626
 4154SOL     OW24097   4.624   1.945   6.586 -0.1862  0.6388 -0.3961
 4154SOL    HW124098   4.680   2.012   6.624  0.7724 -0.9492  0.9836
 4154SOL    HW224099   4.610   1.887   6.661  2.1772  0.4853 -0.0923
 4155SOL     OW24100   0.507   0.607   4.765  0.0518  0.5591 -0.0646
 4155SOL    HW124101   0.426   0.611   4.714  0.6074  2.2919 -0.8138
 4155SOL    HW224102   0.479   0.540   4.827  2.2217  0.3130  0.6317
 4156SOL     OW24103   2.982   0.508   5.461 -0.2376  0.1172 -0.1834
 4156SOL    HW124104   3.023   0.585   5.502  0.4805 -0.5338  0.3082
 4156SOL    HW224105   2.923   0.475   5.529  0.6915 -1.1117  0.0062
 4157SOL     OW24106   0.713   1.154   5.913 -0.3245 -0.4385 -0.3950
 4157SOL    HW124107   0.807   1.147   5.900 -0.1032 -3.5457  3.1020
 4157SOL    HW224108   0.678   1.077   5.870 -3.2074  0.9907 -0.6220
 4158SOL     OW24109   2.580   1.737  12.550 -0.6279  0.8904  0.0787
 4158SOL    HW124110   2.541   1.666  12.601 -2.6204 -0.0400 -2.7538
 4158SOL    HW224111   2.527   1.814  12.573  0.7688  1.1355  2.4555
 4159SOL     OW24112   0.335   3.370   2.063  0.3136 -0.2893 -0.4363
 4159SOL    HW124113   0.370   3.313   2.131  0.5182  0.4593  0.0900
 4159SOL    HW224114   0.345   3.322   1.981 -0.0992 -1.4494  0.2015
 4160SOL     OW24115   2.850   3.921   5.206 -0.2452  0.0037 -0.4248
 4160SOL    HW124116   2.844   3.861   5.280  0.6127  1.7952  1.0835
 4160SOL    HW224117   2.946   3.927   5.201 -0.1472 -1.4082 -0.0427
 4161SOL     OW24118   2.639   2.920   8.680 -0.3442 -0.1067  0.3094
 4161SOL    HW124119   2.712   2.964   8.724  0.0785  1.1439 -1.6438
 4161SOL    HW224120   2.653   2.827   8.693  2.5439  0.4986  1.6269
 4162SOL     OW24121   1.924   3.180  15.613  0.7532 -0.4563 -0.4996
 4162SOL    HW124122   1.839   3.206  15.649  1.1247  0.7141 -0.4584
 4162SOL    HW224123   1.943   3.103  15.667 -0.6033 -1.4987 -1.5150
 4163SOL     OW24124   0.701   1.602   5.873 -0.2116 -0.4879  0.6033
 4163SOL    HW124125   0.673   1.693   5.863 -1.4290 -0.9917 -0.6193
 4163SOL    HW224126   0.776   1.609   5.814  0.0186  0.0071  0.9564
 4164SOL     OW24127   0.646   3.857   7.718  0.0748  0.5175  0.3231
 4164SOL    HW124128   0.608   3.805   7.789 -0.2687 -1.5557 -1.3765
 4164SOL    HW224129   0.687   3.927   7.769  1.5360 -0.7398  0.8774
 4165SOL     OW24130   3.236   3.835  15.249 -0.2460  0.2725 -0.2314
 4165SOL    HW124131   3.299   3.843  15.321 -0.9175 -2.9665  0.7072
 4165SOL    HW224132   3.281   3.867  15.170 -0.0605  0.6520  0.0244
 4166SOL     OW24133   2.769   3.802  17.104 -0.6057  0.1808  0.1301
 4166SOL    HW124134   2.759   3.737  17.034  1.5802 -1.5765  1.4293
 4166SOL    HW224135   2.795   3.746  17.177  0.5082 -0.3708 -0.6715
 4167SOL     OW24136   1.980   0.251   6.102 -0.3165 -0.0494 -0.1203
 4167SOL    HW124137   1.951   0.166   6.066  0.9834 -0.2673 -0.6527
 4167SOL    HW224138   2.073   0.254   6.080  0.0233  0.1855  1.3572
 4168SOL     OW24139   1.531   1.170   3.856  0.7344  0.0121  0.0966
 4168SOL    HW124140   1.617   1.164   3.898  0.3405  0.4755  0.9661
 4168SOL    HW224141   1.522   1.265   3.847 -0.1241  0.0355  1.3095
 4169SOL     OW24142   0.941   2.963   8.920  0.4641  0.2050  0.3571
 4169SOL    HW124143   1.012   2.905   8.949 -0.6559 -0.4906  1.7574
 4169SOL    HW224144   0.979   3.050   8.913 -3.0005  1.6943  0.1353
 4170SOL     OW24145   2.107   0.960   7.597 -0.0392 -0.4089 -0.4980
 4170SOL    HW124146   2.017   0.993   7.602  0.7891  2.1106 -2.2054
 4170SOL    HW224147   2.099   0.888   7.535 -0.2308 -1.1718  0.4131
 4171SOL     OW24148   2.919   3.563  12.491  0.2464  0.4181  0.1559
 4171SOL    HW124149   2.992   3.507  12.465 -0.7738 -0.1935 -1.3768
 4171SOL    HW224150   2.951   3.653  12.482 -0.1829  0.4641 -0.8661
 4172SOL     OW24151   2.526   2.116   6.865  0.1266  0.4378  0.1706
 4172SOL    HW124152   2.458   2.049   6.869  0.0349  0.6350  1.6662
 4172SOL    HW224153   2.531   2.150   6.775 -2.8904  0.9601  0.2129
 4173SOL     OW24154   3.661   0.460   6.528  0.3607 -0.2504 -0.1417
 4173SOL    HW124155   3.618   0.408   6.597  0.0387 -0.5445 -0.5670
 4173SOL    HW224156   3.718   0.399   6.481  1.5510  0.4980  0.3153
 4174SOL     OW24157   2.097   1.423   7.876 -0.1049  0.1965 -0.1096
 4174SOL    HW124158   2.100   1.376   7.793  0.5062 -0.5394  0.3284
 4174SOL    HW224159   2.033   1.491   7.853 -0.4976  0.3867  1.5409
 4175SOL     OW24160   2.866   1.562   8.093 -0.1288 -0.2152  0.4202
 4175SOL    HW124161   2.850   1.614   8.015 -0.8094 -2.1387 -0.7130
 4175SOL    HW224162   2.900   1.484   8.050  1.2893 -0.3480  1.7623
 4176SOL     OW24163   3.647   1.912   3.797 -0.3836  0.2644  0.4767
 4176SOL    HW124164   3.600   1.981   3.843  0.0832  1.0496 -0.2112
 4176SOL    HW224165   3.738   1.943   3.790 -0.1089 -0.7141 -0.3553
 4177SOL     OW24166   0.179   0.755  13.850  0.0597  0.3007 -0.1896
 4177SOL    HW124167   0.222   0.839  13.868 -1.6258  0.7747  1.6245
 4177SOL    HW224168   0.173   0.758  13.755 -2.3057  1.0631 -0.0184
 4178SOL     OW24169   3.641   3.438   3.075  0.3799  0.2402  0.2934
 4178SOL    HW124170   3.721   3.415   3.121  0.7158  0.9063  0.0347
 4178SOL    HW224171   3.593   3.356   3.090  0.4815 -0.1886 -1.7823
 4179SOL     OW24172   1.169   3.262   8.534 -0.5163  0.1303  0.2754
 4179SOL    HW124173   1.112   3.197   8.494 -2.7770  2.4110 -0.1950
 4179SOL    HW224174   1.173   3.312   8.453 -1.1529  0.9471  0.7529
 4180SOL     OW24175   3.124   2.954   9.920 -0.0626 -0.0151 -0.3242
 4180SOL    HW124176   3.134   3.027   9.981  0.9678  1.3168 -2.0685
 4180SOL    HW224177   3.047   2.914   9.960 -0.6199 -0.3201 -1.6976
 4181SOL     OW24178   2.258   0.439   7.768  0.3249  0.3240 -0.5993
 4181SOL    HW124179   2.339   0.402   7.733  1.2014  0.3544  1.3953
 4181SOL    HW224180   2.274   0.423   7.861 -2.1070 -0.6971 -0.3465
 4182SOL     OW24181   0.954   4.625   0.705  0.0507  0.0421  0.0837
 4182SOL    HW124182   0.900   4.588   0.775 -0.6561 -0.9426 -0.9663
 4182SOL    HW224183   0.873   4.650   0.659  0.2621 -0.9563 -0.8387
 4183SOL     OW24184   1.912   1.086   5.337 -0.0826 -0.2445 -0.4931
 4183SOL    HW124185   1.836   1.027   5.329 -0.9598  0.8193  0.0644
 4183SOL    HW224186   1.879   1.168   5.302  2.5423  0.9909 -0.0450
 4184SOL     OW24187   3.579   4.033  15.831 -0.6088  0.2998  0.5177
 4184SOL    HW124188   3.608   4.052  15.742 -2.1891  0.8815  0.1153
 4184SOL    HW224189   3.493   4.075  15.827 -1.3687 -1.4070 -1.3504
 4185SOL     OW24190   1.770   0.819   2.333  0.2591 -0.0849 -0.0173
 4185SOL    HW124191   1.715   0.885   2.291  2.1869  2.7927  2.0269
 4185SOL    HW224192   1.806   0.774   2.256 -1.4465 -0.0486 -0.8161
 4186SOL     OW24193   0.056   1.956  11.852 -0.0025 -0.0579 -0.0214
 4186SOL    HW124194   0.032   1.874  11.809  1.7119 -1.1820  1.1092
 4186SOL    HW224195   0.072   1.922  11.940  0.1797 -1.1943 -0.4965
 4187SOL     OW24196   3.838   1.492   9.264 -0.1210  0.2972 -0.2033
 4187SOL    HW124197   3.883   1.409   9.276 -0.6710 -0.4290 -2.9527
 4187SOL    HW224198   3.788   1.483   9.182  1.7691 -0.6657 -1.2490
 4188SOL     OW24199   3.236   2.977  12.393 -0.4530 -0.2541  0.5840
 4188SOL    HW124200   3.280   2.904  12.438 -1.0575 -0.0947  1.4269
 4188SOL    HW224201   3.177   2.935  12.330 -0.3196  1.4083 -0.6497
 4189SOL     OW24202   0.428   3.430   2.785 -0.2204 -0.0116 -0.6205
 4189SOL    HW124203   0.519   3.408   2.804  0.3133  2.0930 -0.7505
 4189SOL    HW224204   0.434   3.487   2.708 -0.2115  0.6375 -0.1405
 4190SOL     OW24205   0.666   3.115   3.826  0.5441 -0.2123 -0.3256
 4190SOL    HW124206   0.585   3.164   3.845  0.2303 -0.6584 -0.5192
 4190SOL    HW224207   0.644   3.072   3.744 -1.0629 -0.8065  0.4202
 4191SOL     OW24208   3.515   1.426   7.475 -0.5226 -0.8311 -0.5778
 4191SOL    HW124209   3.547   1.492   7.536 -1.5675 -1.8286  1.0264
 4191SOL    HW224210   3.425   1.421   7.506 -0.7631 -0.2995 -1.2040
 4192SOL     OW24211   1.336   4.053  17.471 -0.2341  1.0559 -0.2554
 4192SOL    HW124212   1.381   4.097  17.543  2.1740 -1.6667 -0.1152
 4192SOL    HW224213   1.401   4.039  17.402 -0.8123  1.1890 -0.8276
 4193SOL     OW24214   3.485   2.496  16.735  0.1482  1.2486  0.1540
 4193SOL    HW124215   3.460   2.453  16.817  0.0882  1.9357  0.4920
 4193SOL    HW224216   3.407   2.474  16.685  1.2443  1.4648 -1.6563
 4194SOL     OW24217   0.642   2.871   6.079 -0.6872 -0.2385  0.8122
 4194SOL    HW124218   0.596   2.797   6.041 -1.0276  0.7552 -0.7031
 4194SOL    HW224219   0.645   2.850   6.172  1.7611  1.1981  1.0863
 4195SOL     OW24220   2.349   1.855  12.009 -0.4320 -0.1794 -0.3206
 4195SOL    HW124221   2.427   1.893  12.048  0.5545 -1.9654 -0.5504
 4195SOL    HW224222   2.303   1.935  11.983 -0.5199 -0.4036 -0.8583
 4196SOL     OW24223   2.158   0.526  14.561 -0.2210  0.1324  0.0009
 4196SOL    HW124224   2.253   0.531  14.560 -0.1790 -0.7012 -0.3128
 4196SOL    HW224225   2.137   0.564  14.646  1.2792 -1.1002  0.9374
 4197SOL     OW24226   4.152   1.930   6.169 -0.7202 -0.3731 -0.0593
 4197SOL    HW124227   4.111   2.013   6.195  0.8538  0.3251  0.1720
 4197SOL    HW224228   4.229   1.966   6.125 -0.7075 -0.8552 -0.4332
 4198SOL     OW24229   0.043   0.745   6.943  0.2756 -0.0476  0.3077
 4198SOL    HW124230   0.009   0.691   6.871  0.3399 -1.2606  1.1990
 4198SOL    HW224231   0.022   0.685   7.014  1.0706 -0.0296  0.5565
 4199SOL     OW24232   1.551   4.078  10.290 -0.0952 -0.4307 -0.3653
 4199SOL    HW124233   1.546   4.025  10.211 -1.0157  0.0299 -0.6190
 4199SOL    HW224234   1.465   4.121  10.287  0.9951  1.4387 -4.8443
 4200SOL     OW24235   2.731   3.923   3.170 -0.6354  0.1290  0.2341
 4200SOL    HW124236   2.774   3.844   3.202  2.7206  2.2203  0.8505
 4200SOL    HW224237   2.813   3.968   3.149 -1.8476  1.0348 -2.5600
 4201SOL     OW24238   2.196   4.091   6.817  0.3861  0.9692  0.1302
 4201SOL    HW124239   2.190   4.123   6.727  1.0676 -1.6031 -0.8214
 4201SOL    HW224240   2.248   4.011   6.810 -1.1738 -0.0572  0.3330
 4202SOL     OW24241   2.413   1.895   9.257  1.3887 -0.2944 -0.0048
 4202SOL    HW124242   2.420   1.982   9.216  0.8408 -0.9720 -1.5176
 4202SOL    HW224243   2.461   1.925   9.334  1.3304  1.0342 -0.4806
 4203SOL     OW24244   0.673   3.117   9.078 -0.0783 -0.0292 -0.0438
 4203SOL    HW124245   0.606   3.079   9.136  0.1034  0.1229  0.2622
 4203SOL    HW224246   0.749   3.108   9.134  1.8093  1.2443 -2.4273
 4204SOL     OW24247   0.728   1.394  11.166  0.5174  0.1106 -0.3033
 4204SOL    HW124248   0.721   1.471  11.109  1.2274  1.5639  1.5855
 4204SOL    HW224249   0.779   1.427  11.240  0.2321 -1.1801  0.4701
 4205SOL     OW24250   2.976   0.716   3.772 -0.2875  0.3098  0.2286
 4205SOL    HW124251   2.933   0.752   3.850 -2.8670  3.3826 -2.6023
 4205SOL    HW224252   2.914   0.752   3.708 -1.6845  0.2018  1.5184
 4206SOL     OW24253   0.663   1.061   9.078  0.1015  0.1720  0.2351
 4206SOL    HW124254   0.690   1.145   9.114 -0.6397  0.3405  0.4051
 4206SOL    HW224255   0.725   1.005   9.125  1.1746  2.1029  1.0911
 4207SOL     OW24256   3.539   0.666   5.898 -0.5789  0.1666  0.0259
 4207SOL    HW124257   3.517   0.758   5.908 -0.5949  0.3535 -1.7802
 4207SOL    HW224258   3.546   0.657   5.803 -1.3886  0.7659 -0.0937
 4208SOL     OW24259   3.827   4.422   6.461 -0.0278  0.1610 -0.2508
 4208SOL    HW124260   3.808   4.444   6.370 -1.5913  0.0700  0.0464
 4208SOL    HW224261   3.918   4.395   6.447  0.0378  0.7469 -0.9624
 4209SOL     OW24262   2.818   1.705  13.606 -0.2650  0.2461 -0.3356
 4209SOL    HW124263   2.806   1.796  13.631 -0.7780 -0.0763  0.5974
 4209SOL    HW224264   2.774   1.654  13.674 -0.9017  2.0039  0.5570
 4210SOL     OW24265   1.963   2.417   5.579 -0.3913  0.1061  0.1621
 4210SOL    HW124266   2.015   2.352   5.531  1.1591  0.9089  0.7691
 4210SOL    HW224267   1.995   2.489   5.525  2.7584 -1.7622 -0.4184
 4211SOL     OW24268   2.359   4.602  10.156  0.3771  0.4507 -0.5913
 4211SOL    HW124269   2.427   4.548  10.196 -0.7249  0.0612  0.7459
 4211SOL    HW224270   2.396   4.599  10.068 -1.8378  3.6887 -1.6418
 4212SOL     OW24271   2.333   3.574  15.867 -0.0693 -0.2287 -0.5791
 4212SOL    HW124272   2.321   3.662  15.903  1.2933  0.8841 -2.7875
 4212SOL    HW224273   2.381   3.542  15.944  1.2688  2.1989 -0.3833
 4213SOL     OW24274   1.517   2.333   2.334 -0.0773 -0.4739  0.6751
 4213SOL    HW124275   1.605   2.297   2.317  0.6785  0.5456  2.4155
 4213SOL    HW224276   1.479   2.260   2.383 -1.1153 -0.2960  0.1243
 4214SOL     OW24277   2.258   2.866   7.521 -0.1215  0.0590  0.0583
 4214SOL    HW124278   2.314   2.917   7.581  2.8655 -1.5817 -1.3469
 4214SOL    HW224279   2.222   2.789   7.564 -0.9541 -1.3117 -3.1369
 4215SOL     OW24280   3.635   3.109  13.732 -0.4213 -0.4969 -0.2849
 4215SOL    HW124281   3.628   3.198  13.696  1.6664 -1.1483 -2.2541
 4215SOL    HW224282   3.543   3.089  13.716 -0.9613  1.6754 -0.0109
 4216SOL     OW24283   1.880   3.027   7.517 -0.4069 -0.2762  0.0973
 4216SOL    HW124284   1.935   3.038   7.595  0.2538  1.3797 -0.6122
 4216SOL    HW224285   1.919   2.953   7.470  1.9039  0.8876  0.1966
 4217SOL     OW24286   4.039   2.946   5.053  0.1281 -0.3055 -0.0097
 4217SOL    HW124287   4.029   2.883   4.980 -0.4822  1.1165 -1.1548
 4217SOL    HW224288   4.131   2.934   5.075 -0.0441 -0.1671  0.7712
 4218SOL     OW24289   1.084   3.756   2.534 -0.6063  0.0353  0.4437
 4218SOL    HW124290   1.043   3.670   2.527  0.0013 -0.2503  0.4015
 4218SOL    HW224291   1.047   3.774   2.620  0.0837  0.7448  0.5960
 4219SOL     OW24292   2.400   2.644  14.884  0.0455  0.8497 -0.2371
 4219SOL    HW124293   2.451   2.662  14.805  1.2451 -0.3131  0.2786
 4219SOL    HW224294   2.320   2.601  14.856  0.6294 -0.9118  0.8092
 4220SOL     OW24295   3.792   0.747   1.938  0.6466  0.3966  0.3336
 4220SOL    HW124296   3.737   0.817   1.975 -0.3850  0.7888 -1.8756
 4220SOL    HW224297   3.876   0.792   1.934  0.6918  0.4200  1.5689
 4221SOL     OW24298   2.814   4.309   4.623  0.8626 -0.0643 -0.1907
 4221SOL    HW124299   2.771   4.255   4.688 -0.4490  0.6150 -0.5040
 4221SOL    HW224300   2.877   4.357   4.677 -0.2169  1.4120 -0.2570
 4222SOL     OW24301   1.329   1.570   6.578 -0.0749 -0.3082  0.1827
 4222SOL    HW124302   1.358   1.610   6.496 -1.0355  0.3629  0.1806
 4222SOL    HW224303   1.251   1.615   6.610 -0.1432  0.3650 -0.9289
 4223SOL     OW24304   0.352   1.685   1.812 -0.5041 -0.0499  0.1697
 4223SOL    HW124305   0.307   1.603   1.795 -0.7216 -0.3511  2.1886
 4223SOL    HW224306   0.376   1.704   1.721  0.9352  0.7711  0.7304
 4224SOL     OW24307   1.732   2.220   4.622 -0.6680  0.0701  0.2194
 4224SOL    HW124308   1.680   2.196   4.545  0.8899 -1.7005 -0.2768
 4224SOL    HW224309   1.815   2.239   4.579 -1.0647  1.5226  0.1079
 4225SOL     OW24310   4.311   1.737   7.574 -0.8134 -0.3012 -0.0253
 4225SOL    HW124311   4.260   1.658   7.593  0.5055 -0.6676  1.9063
 4225SOL    HW224312   4.277   1.756   7.486 -3.4355  0.1935  1.1131
 4226SOL     OW24313   0.149   1.058   5.174 -0.4234 -0.2454  0.3045
 4226SOL    HW124314   0.063   1.078   5.211 -0.6907  0.2338 -0.5653
 4226SOL    HW224315   0.136   1.064   5.079 -1.3400  0.3250  0.4631
 4227SOL     OW24316   3.977   3.211   2.805  0.5368  0.2602 -1.0477
 4227SOL    HW124317   3.890   3.172   2.816  0.3044  1.1621  0.3155
 4227SOL    HW224318   4.050   3.154   2.829 -0.0286  0.0190  0.1301
 4228SOL     OW24319   3.628   0.702   6.637 -0.2933  0.0909 -0.4351
 4228SOL    HW124320   3.722   0.718   6.629 -0.0409 -0.8900  0.5678
 4228SOL    HW224321   3.625   0.610   6.611 -1.3709 -0.2266  0.8235
 4229SOL     OW24322   3.365   2.843   9.020 -0.0554  0.2779  0.2442
 4229SOL    HW124323   3.398   2.861   8.932 -0.6099  1.6891  0.3254
 4229SOL    HW224324   3.351   2.929   9.061 -0.2601  1.4062 -2.2066
 4230SOL     OW24325   2.575   1.801  11.689 -0.3977 -0.0477  0.0567
 4230SOL    HW124326   2.622   1.872  11.646 -0.5863 -1.8816 -3.2106
 4230SOL    HW224327   2.629   1.725  11.667 -0.9899  0.4853 -3.2839
 4231SOL     OW24328   1.308   4.363   8.729  0.2051  0.0870  0.1906
 4231SOL    HW124329   1.403   4.362   8.726  0.2798 -2.0389  3.0633
 4231SOL    HW224330   1.286   4.398   8.816 -0.8882  0.4623 -0.2318
 4232SOL     OW24331   2.977   3.525   9.044  0.0965 -0.4641 -0.3036
 4232SOL    HW124332   3.028   3.538   9.124 -0.2200 -0.5627 -0.0857
 4232SOL    HW224333   2.958   3.618   9.027  0.0109 -0.2574  0.9743
 4233SOL     OW24334   3.161   4.598   5.983  0.0382 -0.7440  0.6182
 4233SOL    HW124335   3.219   4.529   5.949 -0.2627  0.2321 -1.8899
 4233SOL    HW224336   3.203   4.619   6.067 -0.4129  0.7946  0.4639
 4234SOL     OW24337   2.544   2.538   7.084 -0.0308 -0.4194  0.1915
 4234SOL    HW124338   2.551   2.443   7.078 -0.6228 -0.4808  0.4135
 4234SOL    HW224339   2.463   2.559   7.037  0.7157 -0.0649 -0.9263
 4235SOL     OW24340   1.025   3.783  15.768  0.4602 -0.6200  0.3054
 4235SOL    HW124341   0.961   3.764  15.837  0.8852 -0.8673  0.6299
 4235SOL    HW224342   1.008   3.717  15.701 -0.8766  0.3216 -0.2872
 4236SOL     OW24343   2.152   2.944   2.856  0.1223 -0.0334 -0.3635
 4236SOL    HW124344   2.086   2.928   2.790 -0.3305 -0.6068  0.2315
 4236SOL    HW224345   2.102   2.989   2.923 -1.5943 -2.4655 -0.0154
 4237SOL     OW24346   0.573   3.296   4.355 -0.6518  0.4316 -0.0679
 4237SOL    HW124347   0.584   3.391   4.361  0.1116  0.4005 -0.8767
 4237SOL    HW224348   0.645   3.283   4.292  0.9993  2.9050  1.2921
 4238SOL     OW24349   2.766   4.589   5.167  0.2389  0.4028  0.0645
 4238SOL    HW124350   2.710   4.622   5.237  1.3011 -0.0349  1.1192
 4238SOL    HW224351   2.760   4.659   5.101  0.3414  2.6834  2.4901
 4239SOL     OW24352   1.766   2.361   2.915  0.0628  0.1648 -0.7900
 4239SOL    HW124353   1.705   2.307   2.965 -1.6706  0.5845 -2.4449
 4239SOL    HW224354   1.824   2.388   2.986 -1.8920  1.3040  0.3902
 4240SOL     OW24355   2.999   1.885  16.306  0.4165 -0.0989 -0.1969
 4240SOL    HW124356   3.070   1.856  16.248 -0.5055  1.0974 -1.9437
 4240SOL    HW224357   3.006   1.981  16.301 -1.4684 -0.0077 -1.1164
 4241SOL     OW24358   2.676   0.050   8.098 -0.4816 -0.1582 -0.6684
 4241SOL    HW124359   2.661   0.120   8.162 -1.7943 -0.5401 -0.5600
 4241SOL    HW224360   2.600   4.734   8.099 -0.5920 -0.0138 -0.3026
 4242SOL     OW24361   1.219   2.375   2.567 -0.3196 -0.0663  0.2127
 4242SOL    HW124362   1.239   2.324   2.646  0.0538 -0.2214  0.0178
 4242SOL    HW224363   1.206   2.305   2.502  1.1959 -0.4234  0.2890
 4243SOL     OW24364   2.965   3.292   5.212  0.0420 -0.2026  0.0362
 4243SOL    HW124365   2.995   3.377   5.244 -0.6887  0.1954 -0.3399
 4243SOL    HW224366   3.047   3.251   5.183  0.3944  0.2776  0.3508
 4244SOL     OW24367   4.247   2.393  10.186 -0.1256  1.2686  0.0373
 4244SOL    HW124368   4.336   2.415  10.211 -0.0277 -0.3589  1.1156
 4244SOL    HW224369   4.249   2.424  10.095  0.7563 -0.6011 -0.5766
 4245SOL     OW24370   3.186   0.776   2.730 -0.6959 -0.2613  0.1171
 4245SOL    HW124371   3.180   0.731   2.646  0.9613 -0.8264  0.2904
 4245SOL    HW224372   3.136   0.721   2.791 -1.0532 -1.8513 -1.6096
 4246SOL     OW24373   3.949   4.115  13.150 -0.2976 -0.7104  0.5292
 4246SOL    HW124374   3.920   4.025  13.162 -0.3941 -0.7438  0.0439
 4246SOL    HW224375   3.866   4.160  13.167  1.5096  2.0492  2.0426
 4247SOL     OW24376   4.690   0.048   1.491  0.6908 -0.0790 -0.3075
 4247SOL    HW124377   4.740   0.128   1.508 -1.1499  1.1631 -0.7443
 4247SOL    HW224378   0.016   0.006   1.440  2.2839 -0.1528  1.8864
 4248SOL     OW24379   3.948   1.140   7.806  0.3561  0.4198 -0.0231
 4248SOL    HW124380   4.016   1.191   7.761 -0.0398  1.0040  0.0284
 4248SOL    HW224381   3.876   1.194   7.772 -0.2333  1.2852  2.6222
 4249SOL     OW24382   2.239   0.616   2.651  0.1202 -0.0476  0.3522
 4249SOL    HW124383   2.270   0.596   2.563  1.2038  0.2620  0.6577
 4249SOL    HW224384   2.239   0.529   2.691  1.8008  0.0602  0.6193
 4250SOL     OW24385   4.680   4.357   5.075  0.1965  0.4208  0.5764
 4250SOL    HW124386   4.633   4.381   5.155  1.2653 -1.0916  1.6597
 4250SOL    HW224387   4.642   4.271   5.055  0.4713  0.7481 -1.3791
 4251SOL     OW24388   3.155   3.550   4.090  0.4379  0.1161  0.0800
 4251SOL    HW124389   3.167   3.457   4.109  0.0304 -0.0765 -0.6125
 4251SOL    HW224390   3.072   3.562   4.044  0.5869 -2.4902 -0.9207
 4252SOL     OW24391   1.841   3.945   3.051  0.1560  0.0563 -0.4908
 4252SOL    HW124392   1.784   3.911   2.982 -0.2352 -1.0327  0.3831
 4252SOL    HW224393   1.792   3.946   3.133  1.0743  0.4707  0.0557
 4253SOL     OW24394   2.363   3.930   8.921  0.0905  0.1349  1.1857
 4253SOL    HW124395   2.423   3.901   8.990  1.6137  1.0474  0.2299
 4253SOL    HW224396   2.300   3.974   8.979 -2.0686 -0.5460 -0.6306
 4254SOL     OW24397   1.568   0.809   4.658  0.0522 -0.2650  0.0711
 4254SOL    HW124398   1.631   0.740   4.681  1.3896  1.2308  0.8864
 4254SOL    HW224399   1.565   0.802   4.563 -1.3803  2.1864 -0.0582
 4255SOL     OW24400   1.239   1.956   1.521 -0.2226  0.6379 -0.2252
 4255SOL    HW124401   1.181   2.032   1.511 -2.5077 -0.9741  0.7510
 4255SOL    HW224402   1.207   1.925   1.606 -0.0097 -1.7801 -1.0274
 4256SOL     OW24403   2.917   1.705  11.929  0.6219 -0.8165 -0.0419
 4256SOL    HW124404   2.900   1.784  11.877 -1.4746 -1.3357 -0.1626
 4256SOL    HW224405   2.848   1.713  11.995  2.5576 -2.8412  2.2103
 4257SOL     OW24406   4.025   3.626   5.569 -0.1024 -0.1176  0.2363
 4257SOL    HW124407   3.948   3.653   5.619 -1.6133  1.0477 -2.7433
 4257SOL    HW224408   3.992   3.594   5.485  0.7381  0.4215 -0.2933
 4258SOL     OW24409   3.976   1.775   4.916 -0.2870 -0.3937  0.1640
 4258SOL    HW124410   3.993   1.790   5.009 -1.6835  2.6950 -0.0733
 4258SOL    HW224411   3.933   1.690   4.922 -0.9622  0.0158  1.0378
 4259SOL     OW24412   1.000   4.075  10.901  0.1941  0.1481 -0.0986
 4259SOL    HW124413   1.093   4.081  10.880  1.0036 -1.0773  3.0555
 4259SOL    HW224414   0.970   3.999  10.851  0.9444  0.4585 -1.0202
 4260SOL     OW24415   2.592   1.204   8.401 -0.3634 -0.3813  0.1079
 4260SOL    HW124416   2.559   1.291   8.423 -1.3257 -0.6460 -0.3074
 4260SOL    HW224417   2.510   1.156   8.412 -0.6388 -0.0705 -0.6375
 4261SOL     OW24418   4.419   0.984   3.704  0.2623 -0.1091 -0.2039
 4261SOL    HW124419   4.378   1.049   3.761 -3.4794 -1.5232 -1.2450
 4261SOL    HW224420   4.482   1.046   3.668 -0.6031  2.3962  2.6243
 4262SOL     OW24421   0.882   3.330   1.892  0.2083 -0.0745  0.0837
 4262SOL    HW124422   0.802   3.292   1.927  0.9493 -0.4732  1.3238
 4262SOL    HW224423   0.910   3.383   1.967 -0.1218  2.0881 -1.3026
 4263SOL     OW24424   3.398   4.095   5.433 -0.2403 -0.7711  0.4290
 4263SOL    HW124425   3.372   4.099   5.342 -4.4987  0.6066  1.7106
 4263SOL    HW224426   3.315   4.101   5.481 -1.8973 -2.2122 -2.2756
 4264SOL     OW24427   1.578   4.634  17.373  0.2758 -0.1368 -0.4158
 4264SOL    HW124428   1.664   4.618  17.413 -0.5928 -0.7249  1.2098
 4264SOL    HW224429   1.579   4.726  17.348  1.3429  0.1051  0.4952
 4265SOL     OW24430   0.981   2.940  14.940  0.4994  0.1629  0.0242
 4265SOL    HW124431   0.935   2.918  14.859  0.8284 -0.1633 -0.0791
 4265SOL    HW224432   1.009   3.031  14.933 -0.3909  0.4019 -0.3388
 4266SOL     OW24433   2.567   4.635  14.810 -0.2312 -0.1060  0.3351
 4266SOL    HW124434   2.646   4.581  14.814 -0.6143 -0.5512  1.9648
 4266SOL    HW224435   2.583   4.729  14.824  1.8311 -0.8506  3.0913
 4267SOL     OW24436   0.244   4.277   8.881 -0.3099 -0.0788 -0.1088
 4267SOL    HW124437   0.244   4.187   8.913 -0.4056  0.3219  0.9880
 4267SOL    HW224438   0.276   4.322   8.959 -1.7903  0.5585  0.1403
 4268SOL     OW24439   1.681   2.468   7.386  0.3891 -0.2463  0.3820
 4268SOL    HW124440   1.684   2.564   7.389  3.0843 -0.3180 -0.1624
 4268SOL    HW224441   1.591   2.444   7.408 -0.0127 -0.1611 -1.2098
 4269SOL     OW24442   0.180   0.910   4.550  0.2403 -0.1020  0.1728
 4269SOL    HW124443   0.251   0.895   4.488  2.0056 -0.7813  2.3556
 4269SOL    HW224444   0.140   0.824   4.543  0.5496 -0.4295  2.3296
 4270SOL     OW24445   3.140   3.053   9.383  0.7859  0.0768  0.3359
 4270SOL    HW124446   3.082   3.080   9.311  1.1748 -2.5522 -0.9677
 4270SOL    HW224447   3.079   3.053   9.457  1.9008 -0.1738  1.2408
 4271SOL     OW24448   4.722   0.344   7.263 -0.2835  0.2320  0.0642
 4271SOL    HW124449   4.629   0.362   7.276  0.3773  3.8594 -0.3657
 4271SOL    HW224450   0.000   0.425   7.217 -0.5425  1.0884  1.4897
 4272SOL     OW24451   0.841   2.033   8.306 -0.4276  0.1655  0.2805
 4272SOL    HW124452   0.778   2.015   8.376 -0.0948 -0.1980  0.4805
 4272SOL    HW224453   0.791   2.097   8.254  1.0384 -0.0026 -1.3275
 4273SOL     OW24454   1.081   0.034   1.732 -0.4147 -0.3094 -0.8612
 4273SOL    HW124455   1.098   0.117   1.775 -0.8424 -0.3185 -0.6807
 4273SOL    HW224456   1.037   4.730   1.803  0.5267  0.4115  0.2006
 4274SOL     OW24457   3.595   0.950   6.213 -0.3762  0.5930 -0.5178
 4274SOL    HW124458   3.668   0.912   6.165 -1.0157 -0.4897 -0.6218
 4274SOL    HW224459   3.571   1.025   6.159 -0.8643  0.9087  0.1300
 4275SOL     OW24460   2.334   4.356   3.060 -0.0498 -0.0726  0.2659
 4275SOL    HW124461   2.406   4.415   3.081  0.0522 -0.3534  0.7175
 4275SOL    HW224462   2.355   4.335   2.969  1.2615  1.6445  0.1644
 4276SOL     OW24463   3.727   1.726   7.166 -0.0482  0.4754  0.3573
 4276SOL    HW124464   3.683   1.642   7.180 -0.1126  0.5817  0.8201
 4276SOL    HW224465   3.755   1.719   7.075 -2.1747  0.0705 -0.2707
 4277SOL     OW24466   3.368   3.980  15.019  0.3299  0.1486 -0.1943
 4277SOL    HW124467   3.371   4.075  15.016 -0.2131  0.1814  0.2815
 4277SOL    HW224468   3.318   3.956  14.941  0.0234 -0.3733  0.1567
 4278SOL     OW24469   1.135   0.786  17.638 -0.1986  0.3451  0.4217
 4278SOL    HW124470   1.111   0.802  17.730  1.6653  1.6180  0.6845
 4278SOL    HW224471   1.150   0.876  17.608  1.1298 -0.4067 -1.1478
 4279SOL     OW24472   1.589   4.332   4.117 -0.3800  0.0479 -0.1723
 4279SOL    HW124473   1.496   4.310   4.130 -0.4803  0.2741 -0.5107
 4279SOL    HW224474   1.590   4.311   4.024 -0.1458  0.6182 -0.3006
 4280SOL     OW24475   2.839   2.870   7.156 -0.2359 -0.4380  0.5809
 4280SOL    HW124476   2.864   2.796   7.211  0.6857  0.2423  1.0847
 4280SOL    HW224477   2.898   2.860   7.082  0.4327  1.8208  0.8198
 4281SOL     OW24478   0.869   3.225  13.270 -0.0356 -0.1244 -0.1031
 4281SOL    HW124479   0.814   3.303  13.264  2.4204  1.6027 -0.0892
 4281SOL    HW224480   0.809   3.154  13.245 -1.9614  0.6738  2.2147
 4282SOL     OW24481   3.875   3.878   7.358  0.1110  0.0116  0.2936
 4282SOL    HW124482   3.961   3.902   7.394  1.5709 -0.1838 -3.0196
 4282SOL    HW224483   3.835   3.852   7.441 -1.2941  0.2459 -0.3216
 4283SOL     OW24484   0.321   3.641  17.572  0.2785  0.2520 -0.0601
 4283SOL    HW124485   0.380   3.638  17.648  0.6818 -0.0834 -0.3873
 4283SOL    HW224486   0.352   3.715  17.520 -0.3666  0.6438  0.1217
 4284SOL     OW24487   0.316   2.300  16.633 -0.1481 -0.0212 -0.1272
 4284SOL    HW124488   0.371   2.336  16.702  1.9995  1.8198 -2.7966
 4284SOL    HW224489   0.248   2.266  16.691  0.5517  0.1793  0.8047
 4285SOL     OW24490   2.435   1.862   8.130 -0.1535 -0.6016 -0.1454
 4285SOL    HW124491   2.399   1.843   8.217 -1.1371  0.4949 -0.3159
 4285SOL    HW224492   2.502   1.925   8.157 -1.7996  1.0617  0.0698
 4286SOL     OW24493   3.904   4.293   2.586  0.4140 -0.2557 -0.1697
 4286SOL    HW124494   3.810   4.284   2.575  0.1185  0.5532  1.6400
 4286SOL    HW224495   3.928   4.335   2.504  1.8969  0.5531  0.6712
 4287SOL     OW24496   1.061   3.102   1.461 -0.2585 -0.0624  0.2057
 4287SOL    HW124497   1.107   3.157   1.524 -1.4972  1.0812  0.0904
 4287SOL    HW224498   0.968   3.102   1.482 -0.7444  0.4143 -1.8850
 4288SOL     OW24499   0.371   1.985   9.973  0.5538 -0.1392 -0.6814
 4288SOL    HW124500   0.428   2.027   9.909 -1.9629  0.0519 -2.8261
 4288SOL    HW224501   0.334   1.915   9.920 -1.4082 -0.4252  1.0700
 4289SOL     OW24502   2.906   1.041   8.576  0.2521 -0.1921  0.5627
 4289SOL    HW124503   2.901   0.986   8.655  0.4136  0.3903  0.9791
 4289SOL    HW224504   2.903   1.128   8.617  1.1607  0.5394 -0.9676
 4290SOL     OW24505   4.092   2.982   2.342 -0.1905  0.1970 -0.2773
 4290SOL    HW124506   4.157   3.028   2.289 -1.3761  0.6271 -1.3598
 4290SOL    HW224507   4.014   3.010   2.293 -0.4701 -0.5681 -0.2659
 4291SOL     OW24508   2.536   1.334  16.729  0.1439  0.4398 -0.3457
 4291SOL    HW124509   2.520   1.275  16.655 -0.0076  2.5745 -2.0246
 4291SOL    HW224510   2.614   1.370  16.687 -0.1662  1.9818  0.4357
 4292SOL     OW24511   3.926   3.175   4.528  0.1220 -0.3593  0.0975
 4292SOL    HW124512   3.833   3.168   4.510  0.1647  1.3360 -0.8541
 4292SOL    HW224513   3.958   3.222   4.451  0.5238 -0.7395  0.0338
 4293SOL     OW24514   1.852   3.102   1.417 -0.0776 -0.3184 -0.2857
 4293SOL    HW124515   1.866   3.132   1.506  1.3220  2.2075 -1.3435
 4293SOL    HW224516   1.944   3.086   1.397  0.1809 -0.2206  0.8671
 4294SOL     OW24517   2.785   3.819  12.219  0.3550  0.2975  0.4699
 4294SOL    HW124518   2.880   3.825  12.210  0.7107 -2.6495  2.2192
 4294SOL    HW224519   2.774   3.812  12.314 -0.3670 -0.1165  0.3534
 4295SOL     OW24520   0.045   3.625   2.481 -0.3289  0.8211 -0.0358
 4295SOL    HW124521   0.111   3.693   2.469  0.4466 -0.3903 -2.5731
 4295SOL    HW224522   0.054   3.566   2.406  0.6594  1.7028 -0.6146
 4296SOL     OW24523   2.434   4.416   5.145 -0.2285  0.5636 -0.5014
 4296SOL    HW124524   2.410   4.407   5.237  0.3971 -0.0981 -0.3995
 4296SOL    HW224525   2.523   4.378   5.146  0.6930  2.7269 -1.1153
 4297SOL     OW24526   0.137   2.367   1.927  0.2728 -0.5151  0.2843
 4297SOL    HW124527   0.054   2.376   1.880 -0.0130 -1.1699  0.6675
 4297SOL    HW224528   0.150   2.273   1.923 -2.3723 -0.8552 -0.0153
 4298SOL     OW24529   1.676   3.022   4.057  0.3126 -0.0054 -0.2722
 4298SOL    HW124530   1.634   3.087   4.001  0.0852 -1.4510 -1.7702
 4298SOL    HW224531   1.598   2.974   4.085  1.3034 -1.2624  0.2976
 4299SOL     OW24532   0.830   3.516   7.132  0.3289 -0.2200 -0.0029
 4299SOL    HW124533   0.828   3.426   7.102 -1.0584  0.2902 -1.4624
 4299SOL    HW224534   0.918   3.525   7.168 -0.4903  0.3374  1.8965
 4300SOL     OW24535   0.740   4.479  11.009 -0.4003 -0.0864  0.3751
 4300SOL    HW124536   0.818   4.466  10.955  0.1036 -0.3017  1.1476
 4300SOL    HW224537   0.714   4.387  11.010 -1.3849  0.1913 -0.4412
 4301SOL     OW24538   4.352   3.555  16.061  0.1066  0.0799 -0.2821
 4301SOL    HW124539   4.263   3.576  16.089 -0.2651 -2.1370  0.2121
 4301SOL    HW224540   4.380   3.637  16.019  1.4858 -0.8467 -1.1871
 4302SOL     OW24541   0.698   3.026  17.565  0.5543  0.5164  0.3365
 4302SOL    HW124542   0.715   2.940  17.603  0.5396  0.1843 -0.4029
 4302SOL    HW224543   0.672   3.064  17.649 -1.3047  0.4706 -0.2181
 4303SOL     OW24544   4.544   3.124   9.296  0.0500 -0.4998  0.0994
 4303SOL    HW124545   4.530   3.171   9.214  0.6118 -3.6039 -1.7633
 4303SOL    HW224546   4.494   3.179   9.356  0.1417 -1.1436  0.7648
 4304SOL     OW24547   3.177   4.225  15.282  0.1085  0.5380  0.3700
 4304SOL    HW124548   3.221   4.155  15.329  1.3874  0.4156 -0.9990
 4304SOL    HW224549   3.089   4.221  15.320  0.5502 -2.0236  1.0791
 4305SOL     OW24550   2.884   3.307  17.731  0.0285 -0.3236 -0.0949
 4305SOL    HW124551   2.790   3.287  17.726  0.1704 -0.4649 -2.7010
 4305SOL    HW224552   2.923   3.229  17.692  1.0578  0.6957 -1.0952
 4306SOL     OW24553   3.707   3.383  17.094  0.7051 -0.6892  0.6525
 4306SOL    HW124554   3.683   3.351  17.007  0.9580 -1.5488  0.8921
 4306SOL    HW224555   3.780   3.322  17.106  1.7778  0.2561 -0.9926
 4307SOL     OW24556   2.982   3.322   6.382 -0.3313  0.2675  0.2800
 4307SOL    HW124557   2.910   3.385   6.389 -0.3460  0.2840 -0.0280
 4307SOL    HW224558   2.937   3.245   6.348 -0.7333  0.7542 -0.2901
 4308SOL     OW24559   0.055   0.727   6.614 -0.2843 -0.0336 -0.4572
 4308SOL    HW124560   0.126   0.761   6.559  0.0866 -1.3516 -0.7923
 4308SOL    HW224561   0.021   0.651   6.567 -0.1590 -0.2738 -0.1575
 4309SOL     OW24562   1.164   3.934   3.317 -0.5157 -0.0268 -0.4374
 4309SOL    HW124563   1.218   3.875   3.369 -0.7528  0.2529  0.1323
 4309SOL    HW224564   1.210   4.018   3.315 -0.0972 -0.2587 -0.4378
 4310SOL     OW24565   1.586   3.996  12.651 -0.2985 -0.2872 -0.3315
 4310SOL    HW124566   1.667   3.997  12.600  1.4708 -0.6063  2.4744
 4310SOL    HW224567   1.624   3.957  12.730 -1.6629  1.6444  1.2936
 4311SOL     OW24568   1.240   3.472   3.258  0.6453  0.1853  0.4316
 4311SOL    HW124569   1.178   3.514   3.318 -0.0641 -1.4910  0.8755
 4311SOL    HW224570   1.317   3.529   3.257  0.0285  1.0014 -1.4088
 4312SOL     OW24571   0.629   0.975  15.856 -0.1991  0.5610 -0.7927
 4312SOL    HW124572   0.658   0.885  15.871  0.7986  1.2874  1.6698
 4312SOL    HW224573   0.592   0.996  15.942 -2.0260 -1.6110 -1.0359
 4313SOL     OW24574   3.291   2.211   8.590  0.1925 -0.0444  0.0073
 4313SOL    HW124575   3.309   2.122   8.620  0.3655 -0.6028 -1.7203
 4313SOL    HW224576   3.379   2.249   8.587 -0.0661  0.4019 -1.9399
 4314SOL     OW24577   0.587   2.063   0.700 -0.0494 -0.6249 -0.9990
 4314SOL    HW124578   0.671   2.108   0.693 -0.0212 -0.3089  1.2864
 4314SOL    HW224579   0.563   2.083   0.609 -1.4248  0.9918 -0.2833
 4315SOL     OW24580   2.589   0.658  17.062 -0.3079 -0.0839 -0.1516
 4315SOL    HW124581   2.534   0.668  17.140 -1.6781 -1.1041 -0.9750
 4315SOL    HW224582   2.567   0.736  17.011 -3.1383 -0.1693  0.9249
 4316SOL     OW24583   3.609   3.721   3.706 -0.5686 -0.3520  0.5263
 4316SOL    HW124584   3.611   3.808   3.745 -0.5100  1.2962 -3.1424
 4316SOL    HW224585   3.605   3.735   3.611 -0.2626  0.1239  0.5836
 4317SOL     OW24586   3.034   2.509   8.527 -0.4211  0.1975 -0.0126
 4317SOL    HW124587   2.966   2.576   8.528 -0.4388  0.1682  0.6359
 4317SOL    HW224588   3.054   2.498   8.434 -1.7849  2.9715 -0.6475
 4318SOL     OW24589   1.628   4.081   3.864  0.0929  0.3151  0.0761
 4318SOL    HW124590   1.567   4.024   3.818 -0.7470  1.5703 -0.3785
 4318SOL    HW224591   1.674   4.132   3.797  0.7368  0.1113  0.3542
 4319SOL     OW24592   4.491   4.563   4.682 -0.2598 -0.5732 -0.2678
 4319SOL    HW124593   4.420   4.567   4.617  0.4897  0.4800 -1.0329
 4319SOL    HW224594   4.551   4.633   4.656 -0.2145  0.0362  1.4975
 4320SOL     OW24595   2.558   2.190   4.348 -0.0413 -0.0737 -0.1445
 4320SOL    HW124596   2.575   2.219   4.437 -2.3380  0.1733  0.2112
 4320SOL    HW224597   2.646   2.161   4.323 -0.0586 -0.0187 -0.2712
 4321SOL     OW24598   2.904   3.979  10.360 -0.2307  0.0809  0.0026
 4321SOL    HW124599   2.894   3.987  10.265 -0.0041 -2.2526 -0.2097
 4321SOL    HW224600   2.997   4.001  10.360  0.3458 -2.4241  1.8033
 4322SOL     OW24601   1.417   2.842   3.403 -1.1848  0.1976  0.4478
 4322SOL    HW124602   1.470   2.858   3.481  0.1881  0.7884 -0.6103
 4322SOL    HW224603   1.448   2.757   3.373 -1.8931 -0.6347  2.0626
 4323SOL     OW24604   2.653   1.626  15.207 -0.3164 -0.1433  0.0430
 4323SOL    HW124605   2.679   1.536  15.187  2.1519  0.7677 -0.9307
 4323SOL    HW224606   2.722   1.668  15.154 -0.4820 -0.8744 -0.7474
 4324SOL     OW24607   2.477   3.197   7.835  0.7277  0.3082 -0.0714
 4324SOL    HW124608   2.527   3.266   7.791  1.2592  1.5113  2.3820
 4324SOL    HW224609   2.526   3.192   7.918 -0.8969 -1.1508  0.7707
 4325SOL     OW24610   0.666   1.007  10.102 -0.3001 -0.1102 -0.3625
 4325SOL    HW124611   0.733   1.069  10.072 -1.2836  0.2407 -1.8643
 4325SOL    HW224612   0.703   1.000  10.190 -0.3945  0.3152 -0.2854
 4326SOL     OW24613   0.901   4.389   4.412 -0.2149 -0.0938  0.3497
 4326SOL    HW124614   0.915   4.457   4.346  1.6575 -0.8927 -0.0665
 4326SOL    HW224615   0.867   4.437   4.487  0.2549 -0.4196  0.7648
 4327SOL     OW24616   4.649   0.007  14.837  0.1304 -0.3498  0.5947
 4327SOL    HW124617   4.669   4.704  14.755 -5.7112 -1.5569 -0.1546
 4327SOL    HW224618   4.629   0.094  14.803  1.3505 -0.7236 -1.0635
 4328SOL     OW24619   1.122   3.935   3.851 -0.7913  0.0526 -0.5857
 4328SOL    HW124620   1.069   4.012   3.871  0.6269  1.0611 -0.6957
 4328SOL    HW224621   1.193   3.984   3.811 -0.6540  0.0156 -0.3869
 4329SOL     OW24622   2.273   2.844   2.169 -0.9638 -0.5627  0.0145
 4329SOL    HW124623   2.322   2.895   2.103  2.0572 -1.8290  1.2627
 4329SOL    HW224624   2.193   2.839   2.117  0.0383 -1.8317 -1.4363
 4330SOL     OW24625   2.154   4.222  14.793 -0.2335 -0.2908  0.0928
 4330SOL    HW124626   2.182   4.291  14.852  0.5946  0.3874 -1.0860
 4330SOL    HW224627   2.060   4.213  14.809 -0.3919 -0.1866 -0.7635
 4331SOL     OW24628   4.140   3.256   1.948  0.0590  0.3495 -0.1647
 4331SOL    HW124629   4.083   3.192   1.906  0.4154 -0.5914  0.7751
 4331SOL    HW224630   4.084   3.320   1.992 -1.2210  0.1236 -1.4557
 4332SOL     OW24631   3.241   1.072  11.571  0.0965  0.6028  0.4136
 4332SOL    HW124632   3.209   1.128  11.500  1.3791  0.0484 -0.6128
 4332SOL    HW224633   3.193   0.995  11.540  0.4602  0.4517  0.2287
 4333SOL     OW24634   3.179   3.180   8.715 -0.1206 -0.7106 -0.5725
 4333SOL    HW124635   3.275   3.181   8.705 -0.0987 -0.4303 -0.3179
 4333SOL    HW224636   3.163   3.225   8.798 -1.7950 -1.0257 -0.7324
 4334SOL     OW24637   2.730   3.474   1.920 -0.7748 -0.1110  0.2577
 4334SOL    HW124638   2.733   3.542   1.988  0.3319  1.9603 -1.8559
 4334SOL    HW224639   2.692   3.405   1.974  0.5847  0.5996  2.1201
 4335SOL     OW24640   2.394   0.946  15.216 -0.5164  0.2640 -0.9260
 4335SOL    HW124641   2.315   0.999  15.220 -1.1348 -0.7793  1.1162
 4335SOL    HW224642   2.374   0.876  15.154  1.5817 -0.7047 -0.5379
 4336SOL     OW24643   2.124   3.187   5.250 -0.2619 -0.0334 -0.3898
 4336SOL    HW124644   2.063   3.216   5.319  0.3276  2.1158 -0.7525
 4336SOL    HW224645   2.098   3.242   5.176 -0.3249 -0.1736 -0.4721
 4337SOL     OW24646   4.244   2.029  16.702 -0.0415 -0.5989 -0.2700
 4337SOL    HW124647   4.198   2.026  16.618  1.0372 -2.0805 -0.8159
 4337SOL    HW224648   4.226   2.120  16.726  1.3474 -0.5830  0.6953
 4338SOL     OW24649   1.034   3.763   8.078  0.2829 -0.1409 -0.5915
 4338SOL    HW124650   1.123   3.792   8.100 -0.4732  0.8215  1.1663
 4338SOL    HW224651   1.047   3.781   7.984  0.3533 -1.7895 -0.9082
 4339SOL     OW24652   2.181   0.108  14.947 -0.1691 -0.2958 -0.0333
 4339SOL    HW124653   2.213   0.034  14.895  1.2571  1.1111 -1.2059
 4339SOL    HW224654   2.258   0.163  14.929  0.0468 -0.9350 -1.0971
 4340SOL     OW24655   4.098   3.689  17.312  0.4052  0.0705  0.0382
 4340SOL    HW124656   4.110   3.708  17.219 -0.8320 -2.3684 -0.6041
 4340SOL    HW224657   4.180   3.651  17.344 -0.9347 -1.4847  1.6514
 4341SOL     OW24658   1.279   0.288   5.208  0.4406  0.2988 -0.6440
 4341SOL    HW124659   1.235   0.334   5.279  0.2304 -1.0043  0.0691
 4341SOL    HW224660   1.343   0.355   5.184  1.3450  0.0650  1.0898
 4342SOL     OW24661   4.064   4.368   7.282  0.1203  0.6259  0.8575
 4342SOL    HW124662   4.157   4.380   7.265  0.3630 -1.3449  0.8819
 4342SOL    HW224663   4.051   4.274   7.283  2.0995  0.3302 -1.3949
 4343SOL     OW24664   3.395   1.991  16.519 -0.0727  0.2245 -0.0208
 4343SOL    HW124665   3.388   2.057  16.450  1.3963  0.1224 -0.2619
 4343SOL    HW224666   3.316   2.011  16.570  0.1159  1.4061 -0.1873
 4344SOL     OW24667   3.652   1.396   2.995  0.2092  0.1980 -0.1812
 4344SOL    HW124668   3.665   1.363   2.906 -0.4105 -2.0261  0.5603
 4344SOL    HW224669   3.726   1.457   3.003  0.9270 -0.7463  0.5015
 4345SOL     OW24670   0.126   1.299   4.413  0.1813 -0.2508  0.1978
 4345SOL    HW124671   0.188   1.245   4.463  0.8561 -0.1188 -0.5059
 4345SOL    HW224672   0.055   1.236   4.399 -1.0373  0.8945  1.2832
 4346SOL     OW24673   2.355   4.701   5.339 -0.6653  0.6076 -0.1061
 4346SOL    HW124674   2.306   4.629   5.300 -1.9324  2.2624 -1.6022
 4346SOL    HW224675   2.386   4.739   5.257 -3.0629  0.3305 -1.1351
 4347SOL     OW24676   0.476   2.436   3.130 -0.1754  0.4816 -0.1878
 4347SOL    HW124677   0.486   2.464   3.039  1.4635 -1.7376 -0.6905
 4347SOL    HW224678   0.563   2.456   3.166  0.4376 -0.7428 -1.0185
 4348SOL     OW24679   1.531   2.030   3.921 -0.2704 -0.1309  0.1368
 4348SOL    HW124680   1.569   1.982   3.994 -1.0959  1.3029  1.4985
 4348SOL    HW224681   1.607   2.082   3.893  0.6425 -1.6967 -0.2937
 4349SOL     OW24682   0.401   0.018  17.327  0.0025  0.0573 -0.3277
 4349SOL    HW124683   0.452   4.695  17.375 -0.5849 -0.5826 -0.5794
 4349SOL    HW224684   0.337   0.049  17.391 -2.2953 -0.3118 -2.4775
 4350SOL     OW24685   1.187   0.462  16.948 -0.6039 -0.2035  0.8561
 4350SOL    HW124686   1.189   0.533  17.012  0.9375  0.9423 -0.4741
 4350SOL    HW224687   1.174   0.391  17.011 -0.8712 -0.7613  0.1772
 4351SOL     OW24688   1.427   2.167   2.532 -0.2285 -0.3910  0.2705
 4351SOL    HW124689   1.392   2.164   2.621 -0.0888  1.1047  0.3685
 4351SOL    HW224690   1.394   2.083   2.500 -1.4188  0.5506 -0.9343
 4352SOL     OW24691   3.930   2.619  17.588 -0.5557 -0.4573 -0.1874
 4352SOL    HW124692   3.952   2.697  17.537 -1.5138  0.3738  0.6714
 4352SOL    HW224693   3.850   2.645  17.632  0.4175  1.0019  0.7251
 4353SOL     OW24694   4.210   0.900   4.995  0.4076 -0.4336  0.0488
 4353SOL    HW124695   4.142   0.870   5.054 -0.0031 -0.5864 -0.4959
 4353SOL    HW224696   4.236   0.982   5.036  1.3240 -1.1634  0.9072
 4354SOL     OW24697   4.231   0.455   7.547 -0.2340  0.1744 -0.0318
 4354SOL    HW124698   4.279   0.398   7.607  2.0665  2.4929  0.3639
 4354SOL    HW224699   4.271   0.542   7.552 -0.8030  0.2344  3.1414
 4355SOL     OW24700   2.299   0.950  17.182 -0.2846  0.4787  0.2969
 4355SOL    HW124701   2.362   0.987  17.120  0.1363  0.2810  0.6053
 4355SOL    HW224702   2.233   1.019  17.179 -0.1637  0.6487  1.9718
 4356SOL     OW24703   1.503   2.468  13.916  0.5202  0.4218  0.1307
 4356SOL    HW124704   1.490   2.558  13.945  2.3684  0.6038  0.3767
 4356SOL    HW224705   1.507   2.432  14.004 -1.4651 -2.0754 -0.7942
 4357SOL     OW24706   2.437   1.428   7.667 -0.2505 -0.2569  0.4932
 4357SOL    HW124707   2.461   1.496   7.605 -0.4481 -1.4608 -0.9183
 4357SOL    HW224708   2.347   1.412   7.638 -0.1224 -1.4451  0.7290
 4358SOL     OW24709   2.855   2.049   8.937 -0.2146  0.4973  0.0309
 4358SOL    HW124710   2.888   1.960   8.954  1.5786  1.2009  0.2682
 4358SOL    HW224711   2.762   2.029   8.933 -0.2125  0.0373  2.0949
 4359SOL     OW24712   2.128   2.702   3.314 -0.2925  0.2406  0.7482
 4359SOL    HW124713   2.199   2.661   3.265  0.0327  0.9933  0.5869
 4359SOL    HW224714   2.084   2.629   3.357  2.0244  0.4998  3.5974
 4360SOL     OW24715   0.263   1.578  10.459  0.3787 -0.5761  0.4637
 4360SOL    HW124716   0.178   1.551  10.491  0.8560  1.3878  3.4033
 4360SOL    HW224717   0.274   1.640  10.531  3.0127 -0.0382 -0.3949
 4361SOL     OW24718   3.616   2.506   3.058 -0.1165 -0.0089  0.1019
 4361SOL    HW124719   3.580   2.431   3.010  0.2914  0.8162 -1.4911
 4361SOL    HW224720   3.537   2.552   3.088 -0.4422 -1.5543  1.6183
 4362SOL     OW24721   4.422   0.264   6.548 -0.2577  0.5576  0.1168
 4362SOL    HW124722   4.488   0.215   6.599  1.6770 -0.4103 -3.3200
 4362SOL    HW224723   4.381   0.309   6.622  1.8285 -0.4779  1.9146
 4363SOL     OW24724   4.201   4.637   4.225 -0.3881 -0.2476 -0.1214
 4363SOL    HW124725   4.177   4.688   4.303  0.0991 -0.6474  0.2854
 4363SOL    HW224726   4.238   4.562   4.271  1.0319 -1.3373 -3.0821
 4364SOL     OW24727   0.493   1.362  10.065 -0.1394 -0.2933  0.0309
 4364SOL    HW124728   0.440   1.372  10.144 -1.3609  0.3032 -0.8748
 4364SOL    HW224729   0.574   1.368  10.116  0.0169 -3.0641  0.0878
 4365SOL     OW24730   0.819   4.044   5.411  0.1511 -0.1541 -0.6757
 4365SOL    HW124731   0.843   3.990   5.336 -1.2406 -0.9785 -0.5165
 4365SOL    HW224732   0.725   4.031   5.422  0.1941  1.5736  1.7172
 4366SOL     OW24733   0.206   0.994   2.303 -0.0973  0.1071  0.4327
 4366SOL    HW124734   0.161   0.916   2.271  0.6805 -0.9458  1.9021
 4366SOL    HW224735   0.135   1.057   2.318 -0.2344  0.3813 -1.3866
 4367SOL     OW24736   0.687   1.509   3.775  0.2910 -0.2646  0.4412
 4367SOL    HW124737   0.603   1.521   3.731  0.7574  1.8441  0.1174
 4367SOL    HW224738   0.735   1.444   3.723 -1.7651 -1.4845  0.1050
 4368SOL     OW24739   0.548   2.130   0.404 -0.1978  0.1999 -0.0489
 4368SOL    HW124740   0.518   2.188   0.335 -0.6692 -0.6508 -0.5610
 4368SOL    HW224741   0.637   2.110   0.377 -0.7489 -1.7599 -0.4177
 4369SOL     OW24742   4.056   3.676   6.710 -0.1972  0.1252  0.2759
 4369SOL    HW124743   4.149   3.697   6.707  0.1727 -1.6260 -0.1115
 4369SOL    HW224744   4.038   3.670   6.804  0.9821  1.1471  0.5765
 4370SOL     OW24745   4.693   4.021  13.529  0.7350  0.3282  0.1767
 4370SOL    HW124746   0.031   4.069  13.548 -1.4749  3.2719  2.0634
 4370SOL    HW224747   4.628   4.087  13.508  0.4303  0.3971  1.3202
 4371SOL     OW24748   3.031   0.922   2.212  0.0430  0.6098 -1.0186
 4371SOL    HW124749   3.023   0.896   2.120 -1.5435 -0.8303 -0.4722
 4371SOL    HW224750   2.972   0.997   2.215 -0.6353  0.0015  0.3644
 4372SOL     OW24751   4.129   0.258  16.656  0.3812 -0.1651  0.0699
 4372SOL    HW124752   4.061   0.238  16.721  1.8943 -0.7169  1.4698
 4372SOL    HW224753   4.199   0.280  16.717 -0.1039 -1.3074  1.0344
 4373SOL     OW24754   3.555   2.399   5.299 -0.5365 -0.5978  0.0059
 4373SOL    HW124755   3.566   2.468   5.366  0.0069 -0.2858 -0.4038
 4373SOL    HW224756   3.645   2.380   5.270  0.5246  1.0214  2.1800
 4374SOL     OW24757   0.874   4.723   6.246 -0.5578 -0.3015 -0.2961
 4374SOL    HW124758   0.883   0.076   6.248 -0.2515 -0.3045 -1.4122
 4374SOL    HW224759   0.873   4.699   6.154 -2.6849 -0.0595 -0.3359
 4375SOL     OW24760   0.175   3.884   7.104  0.4171  0.0235  0.6329
 4375SOL    HW124761   0.143   3.868   7.015 -0.8029  0.1888  1.0562
 4375SOL    HW224762   0.198   3.792   7.122 -2.3246 -0.8403 -0.2993
 4376SOL     OW24763   2.485   2.917  12.644 -0.2611 -0.1418  0.0301
 4376SOL    HW124764   2.571   2.875  12.640 -1.4561 -2.6185  0.5721
 4376SOL    HW224765   2.503   2.987  12.707 -0.8400 -0.1361  0.1860
 4377SOL     OW24766   0.694   2.385   4.085 -0.0967  0.1991 -0.1942
 4377SOL    HW124767   0.738   2.306   4.120 -0.4170  0.3509  0.5470
 4377SOL    HW224768   0.678   2.444   4.158  1.6654  0.7439 -0.2388
 4378SOL     OW24769   2.145   3.168  16.133 -0.0031  0.0932  0.0109
 4378SOL    HW124770   2.217   3.159  16.070 -0.0419  1.0869 -0.1719
 4378SOL    HW224771   2.186   3.121  16.205 -1.0504  0.6518  0.9706
 4379SOL     OW24772   2.603   3.760   3.722 -0.7084 -0.1958  0.2671
 4379SOL    HW124773   2.537   3.803   3.777 -0.7545  0.1091 -0.0250
 4379SOL    HW224774   2.631   3.830   3.663  1.8879 -1.1100  0.4155
 4380SOL     OW24775   0.157   2.893  13.131  0.6317  0.1928  0.7740
 4380SOL    HW124776   0.165   2.982  13.097 -1.6295  0.3130  0.5782
 4380SOL    HW224777   0.178   2.906  13.223 -1.5154  2.6442  0.9016
 4381SOL     OW24778   2.156   2.586   6.350  0.6237  0.2912 -0.3050
 4381SOL    HW124779   2.211   2.509   6.339 -0.2225 -0.7242  2.4622
 4381SOL    HW224780   2.075   2.573   6.302  0.7851 -1.1832 -0.1723
 4382SOL     OW24781   2.879   1.132  11.430 -0.5749  0.0872  0.2729
 4382SOL    HW124782   2.854   1.059  11.375 -1.0071  0.7081 -0.3604
 4382SOL    HW224783   2.853   1.103  11.518  1.2161 -3.5949 -0.4565
 4383SOL     OW24784   1.883   0.044   7.452  0.5500 -0.2085 -0.5717
 4383SOL    HW124785   1.978   0.051   7.439  1.0282  2.0638  4.2885
 4383SOL    HW224786   1.871   0.059   7.545  2.5715 -0.4278 -0.2842
 4384SOL     OW24787   0.720   2.790   1.572  0.0931  0.1333 -0.1601
 4384SOL    HW124788   0.784   2.793   1.644  0.3262 -2.8664 -0.2625
 4384SOL    HW224789   0.676   2.874   1.587  1.3510  0.5557  1.2269
 4385SOL     OW24790   1.960   0.100   2.622  0.1648 -0.1171  0.6713
 4385SOL    HW124791   2.002   0.074   2.703 -0.0418 -1.1464  0.4463
 4385SOL    HW224792   2.005   0.034   2.569 -1.2174  0.5445 -1.3676
 4386SOL     OW24793   3.575   0.256  16.720  0.5591 -0.2889  0.5524
 4386SOL    HW124794   3.516   0.183  16.703  0.9036 -0.8794  1.8856
 4386SOL    HW224795   3.525   0.298  16.791 -0.2994  0.5777 -0.5691
 4387SOL     OW24796   1.511   0.937   1.685 -0.3563 -0.0837 -0.2709
 4387SOL    HW124797   1.554   0.898   1.608 -0.8147  0.6245 -0.8818
 4387SOL    HW224798   1.535   0.867   1.746  1.1907 -0.2723 -1.0817
 4388SOL     OW24799   1.861   1.848  15.491  0.3079  0.1871 -0.0256
 4388SOL    HW124800   1.853   1.866  15.585 -1.3544  1.6007 -0.4391
 4388SOL    HW224801   1.861   1.931  15.444  0.6922  0.1351 -0.1201
 4389SOL     OW24802   0.299   4.171   3.723 -0.0440  0.3520  0.4283
 4389SOL    HW124803   0.212   4.208   3.709  1.0279  1.7814 -2.5108
 4389SOL    HW224804   0.294   4.086   3.681  1.5123  1.0407 -1.1141
 4390SOL     OW24805   4.283   4.676   8.003  0.2300 -0.0699 -0.3567
 4390SOL    HW124806   4.220   4.737   7.965 -2.1240 -1.2695  1.6506
 4390SOL    HW224807   4.332   4.741   8.054  0.6950  0.2501 -1.2175
 4391SOL     OW24808   3.199   1.802   6.561  0.2721 -0.0974 -0.5785
 4391SOL    HW124809   3.167   1.810   6.471  2.2443  1.1085 -1.1515
 4391SOL    HW224810   3.175   1.712   6.586 -0.8613 -0.1571 -1.8769
 4392SOL     OW24811   0.499   0.990  15.263 -0.0726  0.2236 -0.2201
 4392SOL    HW124812   0.418   0.999  15.214  1.1122 -0.8962 -2.3836
 4392SOL    HW224813   0.525   0.899  15.248 -0.2855  0.3617 -1.4168
 4393SOL     OW24814   2.941   4.065  14.394 -0.5269  1.1175 -0.2097
 4393SOL    HW124815   2.876   4.020  14.339 -1.1894  1.3553  0.3875
 4393SOL    HW224816   3.019   4.012  14.376 -0.8643 -0.1846  2.0848
 4394SOL     OW24817   4.151   1.943  15.105  0.2073 -0.0978  0.6049
 4394SOL    HW124818   4.109   1.973  15.185  0.2237  0.8956  0.2399
 4394SOL    HW224819   4.234   1.906  15.137  0.9023 -0.0824 -1.1468
 4395SOL     OW24820   3.363   4.689   3.529 -0.4158 -0.7306 -0.1224
 4395SOL    HW124821   3.373   0.024   3.474  0.2454 -1.4435 -1.0087
 4395SOL    HW224822   3.455   4.665   3.529 -0.2848 -0.2427  0.8650
 4396SOL     OW24823   1.632   4.066   4.806  0.3759 -0.3363  0.0734
 4396SOL    HW124824   1.695   4.040   4.739 -1.3917  0.1707 -1.7933
 4396SOL    HW224825   1.559   4.015   4.770 -0.1602 -0.7243  1.7195
 4397SOL     OW24826   2.878   1.102   4.135  0.3636 -0.2781 -0.4231
 4397SOL    HW124827   2.873   1.010   4.160  2.1156 -0.6634 -1.5374
 4397SOL    HW224828   2.922   1.145   4.209  0.4481  0.4592 -0.8981
 4398SOL     OW24829   3.873   1.694   8.668  0.1710 -0.1981 -0.0583
 4398SOL    HW124830   3.932   1.706   8.594  0.8850 -1.5955  0.2898
 4398SOL    HW224831   3.922   1.727   8.744  0.2425  0.6341 -0.4622
 4399SOL     OW24832   0.290   1.563   4.716  0.2702 -0.3140 -0.3440
 4399SOL    HW124833   0.306   1.632   4.781  0.0321  1.1688 -1.8631
 4399SOL    HW224834   0.282   1.486   4.772  0.3840 -0.9283 -1.1685
 4400SOL     OW24835   3.922   0.783   2.904 -0.3181 -0.5408  0.3698
 4400SOL    HW124836   3.832   0.802   2.933 -0.0685  1.1309  0.0565
 4400SOL    HW224837   3.962   0.859   2.946  0.8885 -0.5220 -0.8135
 4401SOL     OW24838   1.612   0.584   4.413 -0.5369  1.0399 -0.1170
 4401SOL    HW124839   1.536   0.542   4.453  2.2534 -2.2327  1.7272
 4401SOL    HW224840   1.575   0.672   4.419 -0.8477  0.8235  0.9991
 4402SOL     OW24841   1.897   4.116   6.619  0.2839  1.0760 -0.1351
 4402SOL    HW124842   1.930   4.033   6.585 -0.1101  1.5177 -1.5826
 4402SOL    HW224843   1.845   4.147   6.545 -0.6552 -0.4179 -0.1033
 4403SOL     OW24844   4.668   1.941   8.089 -0.4030 -0.4356  0.0339
 4403SOL    HW124845   4.674   1.940   8.184  1.3412  0.1835 -0.0765
 4403SOL    HW224846   4.613   1.866   8.062 -2.8056  1.6656 -0.9234
 4404SOL     OW24847   4.400   2.329  12.684  0.3538  0.4327 -0.1451
 4404SOL    HW124848   4.306   2.342  12.699  0.3553 -2.1654  2.1523
 4404SOL    HW224849   4.428   2.415  12.715 -0.7037  1.6134 -2.4593
 4405SOL     OW24850   4.256   4.267  12.111  0.6578 -0.5381 -0.2966
 4405SOL    HW124851   4.328   4.328  12.095 -1.2861  2.4438  2.3933
 4405SOL    HW224852   4.229   4.242  12.022  0.6773  1.2063 -0.7858
 4406SOL     OW24853   0.061   3.144  10.445  0.0829  0.0942  0.5733
 4406SOL    HW124854   4.738   3.121  10.511  0.2310 -1.5048  0.1796
 4406SOL    HW224855   0.095   3.059  10.416  3.1029 -0.0600  4.6095
 4407SOL     OW24856   3.204   0.678   5.127 -0.2579  0.2872 -0.3656
 4407SOL    HW124857   3.154   0.643   5.053 -0.0061  0.9739 -0.8682
 4407SOL    HW224858   3.248   0.599   5.159  1.0032  0.8341 -0.7257
 4408SOL     OW24859   4.166   3.392   5.752  0.1077 -0.5049  0.3155
 4408SOL    HW124860   4.142   3.474   5.708 -0.2530 -0.4718  0.5715
 4408SOL    HW224861   4.123   3.322   5.704 -1.5042  1.4632 -1.1048
 4409SOL     OW24862   1.560   0.629   2.991  0.1567  0.2105  0.6580
 4409SOL    HW124863   1.589   0.617   3.082 -0.7860 -0.6074  0.8416
 4409SOL    HW224864   1.638   0.670   2.955  0.4050 -0.3764  0.5386
 4410SOL     OW24865   0.342   1.064   0.448 -0.3150 -0.4144 -0.8155
 4410SOL    HW124866   0.329   0.970   0.454 -0.7648 -0.2399  0.9474
 4410SOL    HW224867   0.425   1.065   0.399  0.8642 -1.3282  1.1662
 4411SOL     OW24868   1.116   4.596   7.561 -0.0946  0.1006 -0.2613
 4411SOL    HW124869   1.078   4.518   7.602  1.2232 -1.5176 -2.1044
 4411SOL    HW224870   1.113   4.559   7.472  0.5183 -1.7825  0.4921
 4412SOL     OW24871   1.794   1.723  13.940 -0.1111  0.4633 -0.4805
 4412SOL    HW124872   1.778   1.681  14.025  0.9172 -1.8171 -1.3967
 4412SOL    HW224873   1.874   1.774  13.956  0.3981 -1.0701  1.8698
 4413SOL     OW24874   0.810   0.046   7.219 -0.1506 -0.2316 -0.1216
 4413SOL    HW124875   0.864   4.710   7.225  1.5213  0.9327  0.0405
 4413SOL    HW224876   0.729   0.016   7.260  0.6202 -1.0475  0.8115
 4414SOL     OW24877   1.882   2.960   6.201  0.8859 -0.1822 -0.3595
 4414SOL    HW124878   1.813   2.914   6.153  0.9386  0.3922 -0.9924
 4414SOL    HW224879   1.836   3.027   6.251  2.4893  0.6760 -0.0414
 4415SOL     OW24880   3.839   0.538   2.757  0.3175  0.7403  0.6013
 4415SOL    HW124881   3.837   0.633   2.746  0.3913  0.8665  1.6419
 4415SOL    HW224882   3.876   0.508   2.674  0.5803 -0.3533  1.1186
 4416SOL     OW24883   2.853   1.326   9.640 -0.0581  0.4594  0.4553
 4416SOL    HW124884   2.826   1.250   9.691  1.4613 -0.5390 -0.2607
 4416SOL    HW224885   2.774   1.338   9.587 -0.3489  1.4831  1.1126
 4417SOL     OW24886   4.413   2.771   2.954  0.2919  0.2702 -0.2285
 4417SOL    HW124887   4.493   2.738   2.996 -0.6663 -0.1911  1.2312
 4417SOL    HW224888   4.356   2.807   3.022  0.0677 -0.0777 -0.2308
 4418SOL     OW24889   3.216   2.416  17.728 -0.1497  0.0870  0.3462
 4418SOL    HW124890   3.259   2.464   0.031  0.6620 -2.6593  1.7038
 4418SOL    HW224891   3.154   2.483  17.697 -0.2896  1.2290  3.1400
 4419SOL     OW24892   1.093   3.237  10.351 -0.0821  0.1744 -0.2645
 4419SOL    HW124893   1.174   3.202  10.389 -0.7889  0.1341  1.2136
 4419SOL    HW224894   1.035   3.258  10.424  0.9135 -0.3332  0.6813
 4420SOL     OW24895   3.931   4.662   5.496 -0.3211 -0.0660 -0.0356
 4420SOL    HW124896   3.949   4.689   5.586  1.2771 -3.0481  0.5212
 4420SOL    HW224897   3.839   4.688   5.490 -0.8409 -1.9521 -0.1351
 4421SOL     OW24898   4.334   2.861   3.233 -0.1194 -0.1588 -0.0870
 4421SOL    HW124899   4.335   2.806   3.311 -2.9997  0.3649  0.3087
 4421SOL    HW224900   4.352   2.949   3.267 -1.4832 -0.5821  1.6920
 4422SOL     OW24901   2.432   1.591  13.966  0.8655 -0.4442  0.2601
 4422SOL    HW124902   2.457   1.501  13.946 -2.5974 -1.4500  0.4985
 4422SOL    HW224903   2.445   1.598  14.061 -1.6665  0.3302  0.5548
 4423SOL     OW24904   1.665   2.692   9.551 -0.3051  0.3162  0.6631
 4423SOL    HW124905   1.726   2.759   9.582 -0.9239  0.9502  0.5212
 4423SOL    HW224906   1.720   2.617   9.532 -0.8940 -0.4444  1.9687
 4424SOL     OW24907   2.156   0.564   5.332  0.7097  0.9208 -0.4088
 4424SOL    HW124908   2.168   0.621   5.408  0.0541 -0.4369  0.7234
 4424SOL    HW224909   2.247   0.562   5.302  0.7074 -1.8036 -0.2388
 4425SOL     OW24910   4.347   2.909   6.548  0.2032  0.0650 -0.6691
 4425SOL    HW124911   4.389   2.941   6.468  1.2045 -0.5706 -0.3946
 4425SOL    HW224912   4.311   2.994   6.574 -2.0450 -0.8286 -0.9215
 4426SOL     OW24913   0.302   1.905  12.922  0.5991  0.7910  0.5149
 4426SOL    HW124914   0.217   1.888  12.883  1.1461  0.4990 -0.5635
 4426SOL    HW224915   0.366   1.880  12.855  0.7142  2.0227  0.1490
 4427SOL     OW24916   1.391   4.337   2.543 -0.1633  0.0575  0.3360
 4427SOL    HW124917   1.376   4.432   2.544  0.0893  0.1259 -1.5272
 4427SOL    HW224918   1.376   4.327   2.636 -0.8177  1.5297  0.3905
 4428SOL     OW24919   3.482   4.705   6.093 -0.4399 -0.3128 -0.3542
 4428SOL    HW124920   3.573   4.729   6.113 -1.4086  2.1195  1.0746
 4428SOL    HW224921   3.473   4.632   6.154  0.8702  0.1911  0.4500
 4429SOL     OW24922   1.169   2.630   9.439 -0.3704 -0.1876 -0.0703
 4429SOL    HW124923   1.220   2.689   9.495  0.2393 -2.0251  1.2717
 4429SOL    HW224924   1.081   2.664   9.452 -0.7722 -1.6961  1.1080
 4430SOL     OW24925   2.428   2.279  13.749 -0.7337  0.8170 -0.0587
 4430SOL    HW124926   2.442   2.361  13.703  1.3651  0.3279 -0.3033
 4430SOL    HW224927   2.371   2.302  13.822 -0.4443  0.3264  0.3314
 4431SOL     OW24928   0.610   0.966  12.826 -0.0968  0.3252  0.3287
 4431SOL    HW124929   0.643   0.877  12.841  0.4263  0.5692  0.6198
 4431SOL    HW224930   0.583   0.961  12.734  0.1763 -0.5026  0.2889
 4432SOL     OW24931   0.397   0.333   7.297  0.0299  0.2267  0.0909
 4432SOL    HW124932   0.411   0.274   7.223  3.2097  0.8010  0.2200
 4432SOL    HW224933   0.490   0.344   7.316 -0.5831  1.1938  2.5827
 4433SOL     OW24934   2.669   4.540   7.475 -0.3314  0.2506  0.6451
 4433SOL    HW124935   2.720   4.472   7.431  1.3192  2.4232 -0.7981
 4433SOL    HW224936   2.663   4.610   7.410 -3.7680  0.8822  1.6487
 4434SOL     OW24937   0.851   4.638   9.433  0.0834  0.0872 -0.2387
 4434SOL    HW124938   0.813   4.715   9.476  2.0128  0.0604  1.4710
 4434SOL    HW224939   0.900   4.681   9.363  0.6992  0.1954  0.2609
 4435SOL     OW24940   3.469   3.466   3.329  0.2596 -0.1718 -0.1297
 4435SOL    HW124941   3.513   3.403   3.386  0.5019  0.3364  0.2445
 4435SOL    HW224942   3.494   3.550   3.367 -1.7700 -0.1046  1.0766
 4436SOL     OW24943   1.585   2.333   6.880  0.8428  0.0787 -0.1119
 4436SOL    HW124944   1.655   2.279   6.844  0.1146 -1.0303  0.1519
 4436SOL    HW224945   1.625   2.370   6.959  0.6429  0.6345 -0.2652
 4437SOL     OW24946   3.267   3.882  17.628 -0.4512 -0.3060 -0.1757
 4437SOL    HW124947   3.250   3.976  17.631 -1.8630 -0.5268 -1.3267
 4437SOL    HW224948   3.183   3.842  17.651 -1.3393  1.5402 -0.2695
 4438SOL     OW24949   0.918   4.288   5.439 -0.3927  0.3684  0.7344
 4438SOL    HW124950   0.861   4.211   5.442  1.1280 -0.7329  0.8231
 4438SOL    HW224951   1.003   4.255   5.467  0.0109  0.2414 -0.6199
 4439SOL     OW24952   2.426   0.106   5.080  0.1040  0.0486  0.3252
 4439SOL    HW124953   2.413   0.200   5.068 -1.2419  0.0583  1.9026
 4439SOL    HW224954   2.357   0.071   5.023 -1.3055  0.8984  1.5244
 4440SOL     OW24955   1.800   1.144  14.407  0.9401 -0.1836  0.3326
 4440SOL    HW124956   1.745   1.221  14.422  0.2892 -0.4228 -0.8032
 4440SOL    HW224957   1.815   1.152  14.312  1.6911  2.7516  0.7031
 4441SOL     OW24958   0.409   4.682  14.243  0.1655 -0.2184 -0.6308
 4441SOL    HW124959   0.499   4.711  14.226  0.3839 -0.2929  0.4061
 4441SOL    HW224960   0.392   4.721  14.329  3.0666 -4.8144  1.9867
 4442SOL     OW24961   0.059   3.107   2.338 -0.3418 -0.0964  0.1494
 4442SOL    HW124962   0.130   3.043   2.331  1.7033  2.1707  0.2772
 4442SOL    HW224963   4.735   3.056   2.384  0.5749 -1.1827  0.3090
 4443SOL     OW24964   1.589   0.100   1.978  0.0610 -0.4477  0.3271
 4443SOL    HW124965   1.518   0.157   1.948  1.1836  1.0829  0.5761
 4443SOL    HW224966   1.547   0.059   2.054  1.4522 -0.5017  1.0590
 4444SOL     OW24967   2.503   2.671   1.617 -0.0727  0.4517 -0.0296
 4444SOL    HW124968   2.518   2.609   1.546  1.2740  2.1885 -1.2601
 4444SOL    HW224969   2.583   2.671   1.669 -0.0775 -2.0540 -0.0371
 4445SOL     OW24970   3.277   1.911   9.994  0.1149 -0.8763 -0.3565
 4445SOL    HW124971   3.262   1.846   9.925 -1.1272 -0.9781 -0.0027
 4445SOL    HW224972   3.204   1.965   9.963 -1.4153 -1.9457  1.3867
 4446SOL     OW24973   2.655   1.707  11.034  0.1634  0.4498 -0.4704
 4446SOL    HW124974   2.627   1.714  11.125 -2.6496  0.8876 -1.3358
 4446SOL    HW224975   2.680   1.615  11.037 -0.3928  0.3384  0.8398
 4447SOL     OW24976   2.387   0.966   8.584 -0.2760  0.4242  0.7341
 4447SOL    HW124977   2.300   0.926   8.586 -0.8702  1.6756 -0.4495
 4447SOL    HW224978   2.367   1.058   8.566  0.5833  0.9432  2.3667
 4448SOL     OW24979   1.010   1.582   1.227 -0.3280 -0.7087 -0.0991
 4448SOL    HW124980   1.067   1.623   1.292 -0.0772 -0.3483 -0.5488
 4448SOL    HW224981   1.073   1.522   1.187  1.8359 -0.8083  3.4045
 4449SOL     OW24982   2.677   1.044   4.558  0.0123 -0.2342  0.4290
 4449SOL    HW124983   2.735   1.120   4.552 -0.6303  0.0370 -2.6448
 4449SOL    HW224984   2.673   1.012   4.468 -3.0488 -0.1173  0.5263
 4450SOL     OW24985   2.878   4.543   5.628  0.9350  0.0792 -0.2887
 4450SOL    HW124986   2.824   4.621   5.614 -0.5081 -0.5977  1.3649
 4450SOL    HW224987   2.898   4.520   5.538  0.8402 -0.9288 -0.0578
 4451SOL     OW24988   3.869   4.196   6.652  0.4843  0.7859 -0.0572
 4451SOL    HW124989   3.791   4.180   6.599 -1.3586  0.9031  2.5967
 4451SOL    HW224990   3.901   4.272   6.605 -0.1860  0.6870 -0.6789
 4452SOL     OW24991   0.661   1.880   1.518 -0.1096 -0.0474  0.2321
 4452SOL    HW124992   0.730   1.836   1.467  0.1642  2.9805 -1.9686
 4452SOL    HW224993   0.712   1.946   1.566 -1.6535  0.5834  0.9813
 4453SOL     OW24994   2.652   4.134   9.120  0.0816 -0.5783 -0.6068
 4453SOL    HW124995   2.724   4.159   9.062  0.1471  1.3438  0.2892
 4453SOL    HW224996   2.589   4.175   9.060  2.6047  2.5285 -1.1233
 4454SOL     OW24997   0.063   2.647  16.673 -0.1910  0.8577  0.3988
 4454SOL    HW124998   0.028   2.639  16.761 -0.3865  0.5094  0.2888
 4454SOL    HW224999   0.141   2.702  16.675  0.8801 -0.7998  3.1413
 4455SOL     OW25000   0.127   3.678  14.531 -0.1499  0.3481 -0.2094
 4455SOL    HW125001   0.197   3.626  14.569  2.2098  4.7632  1.5283
 4455SOL    HW225002   0.058   3.675  14.597  0.0954  1.6161  0.1175
 4456SOL     OW25003   3.009   2.471   4.369  0.3635 -0.2154  0.0139
 4456SOL    HW125004   3.049   2.408   4.430 -1.6666 -0.8287  0.6917
 4456SOL    HW225005   3.008   2.546   4.428 -1.5196 -1.1384  1.1823
 4457SOL     OW25006   3.009   4.075   0.582  0.1454 -0.4488  0.1941
 4457SOL    HW125007   2.932   4.020   0.592  0.9959 -1.6960 -0.1015
 4457SOL    HW225008   2.984   4.148   0.525  1.2685 -0.2957 -0.1124
 4458SOL     OW25009   1.588   4.682   2.521  0.5135  0.4105  0.1063
 4458SOL    HW125010   1.616   4.737   2.447  1.4609 -2.5081 -1.6724
 4458SOL    HW225011   1.493   4.691   2.513  0.1449 -2.2611  1.6793
 4459SOL     OW25012   0.302   1.993   1.669  0.2066 -0.3389 -0.5012
 4459SOL    HW125013   0.346   1.912   1.646  1.7777 -0.3196  2.4992
 4459SOL    HW225014   0.228   2.006   1.609 -1.7083  2.0948  2.3863
 4460SOL     OW25015   3.150   3.428   0.681  0.3999 -0.0254 -0.6413
 4460SOL    HW125016   3.236   3.402   0.649  0.3295 -0.3982 -0.5364
 4460SOL    HW225017   3.171   3.517   0.707 -0.6550 -0.4140  1.5614
 4461SOL     OW25018   4.231   1.216  16.770  0.5521  0.1264  0.0672
 4461SOL    HW125019   4.291   1.286  16.794 -0.0974  0.9154 -0.6267
 4461SOL    HW225020   4.292   1.142  16.769  0.1803 -0.1778 -0.6085
 4462SOL     OW25021   4.283   1.962  17.128 -0.0948 -0.0665 -0.6896
 4462SOL    HW125022   4.322   1.961  17.041 -1.5005 -3.3261 -1.2906
 4462SOL    HW225023   4.333   2.028  17.176  0.3682 -2.4342  2.1033
 4463SOL     OW25024   0.248   0.568   0.230 -0.7916  0.1343  0.3994
 4463SOL    HW125025   0.190   0.493   0.219  0.8224 -0.9679 -0.6697
 4463SOL    HW225026   0.320   0.542   0.288  0.1726  0.6720 -0.5513
 4464SOL     OW25027   3.811   2.499   5.000  0.6201  0.5356 -0.3245
 4464SOL    HW125028   3.716   2.501   4.993  0.7150  0.1189 -1.8677
 4464SOL    HW225029   3.816   2.560   5.074 -1.4148  0.7115 -0.3391
 4465SOL     OW25030   0.664   2.545  14.647 -0.2328 -0.0366  0.2217
 4465SOL    HW125031   0.751   2.570  14.675 -0.9130 -0.2175  2.4485
 4465SOL    HW225032   0.643   2.467  14.698 -1.1669 -0.3709 -0.6505
 4466SOL     OW25033   4.665   4.742   6.622  0.0573 -0.2231  0.3534
 4466SOL    HW125034   4.742   4.722   6.570  0.7555  1.3222  0.7914
 4466SOL    HW225035   4.648   4.666   6.678  0.6735 -0.5504  0.0853
 4467SOL     OW25036   2.922   0.187  14.050  0.7515  0.1161  0.3351
 4467SOL    HW125037   3.006   0.228  14.030  0.3843  0.8061  0.2119
 4467SOL    HW225038   2.948   0.095  14.060  0.7695 -0.0638 -1.3914
 4468SOL     OW25039   3.369   3.725   4.021  0.1056 -0.1116 -0.0658
 4468SOL    HW125040   3.333   3.637   4.035 -0.5519  0.4065  1.4961
 4468SOL    HW225041   3.354   3.746   3.929 -1.6446 -0.6762  0.0898
 4469SOL     OW25042   1.938   2.660   3.927  0.2578 -0.2817  0.3067
 4469SOL    HW125043   1.979   2.678   3.842  2.0609 -0.7786  1.0830
 4469SOL    HW225044   1.999   2.690   3.994  0.3375 -0.4203  0.2968
 4470SOL     OW25045   2.148   3.322  15.839  0.7167  0.4029 -0.4326
 4470SOL    HW125046   2.223   3.380  15.837 -0.1013  1.4159 -1.2758
 4470SOL    HW225047   2.123   3.333  15.747 -0.5058 -0.0826 -0.1711
 4471SOL     OW25048   0.320   1.344  17.139  0.1586  0.4773 -0.1437
 4471SOL    HW125049   0.239   1.305  17.104 -1.8739  3.0017  1.7212
 4471SOL    HW225050   0.289   1.434  17.138 -4.1297 -0.9916 -1.0190
 4472SOL     OW25051   2.871   4.006  14.659 -0.4915  0.1831  0.4683
 4472SOL    HW125052   2.907   4.020  14.572  1.3794 -0.3958  1.1553
 4472SOL    HW225053   2.809   4.079  14.667  0.6888  1.1254  1.0578
 4473SOL     OW25054   4.039   1.553   9.476  0.0053 -0.3983 -0.0041
 4473SOL    HW125055   3.975   1.486   9.501 -0.6868 -0.1874 -1.2299
 4473SOL    HW225056   3.999   1.639   9.460  1.3136  1.0103  4.0646
 4474SOL     OW25057   2.962   1.242   0.637 -0.0833  0.6996  0.2284
 4474SOL    HW125058   3.044   1.289   0.650  0.5992 -0.6111  0.6229
 4474SOL    HW225059   2.896   1.274   0.699 -0.6088 -1.8899  1.0160
 4475SOL     OW25060   0.436   3.729   5.067  0.3762  0.0663 -0.0819
 4475SOL    HW125061   0.514   3.779   5.043  0.8555 -1.2161 -1.2315
 4475SOL    HW225062   0.471   3.640   5.058 -2.3528 -0.7887 -2.1925
 4476SOL     OW25063   3.119   1.922   3.281 -0.0476 -1.0821  0.0294
 4476SOL    HW125064   3.049   1.900   3.343 -0.0886 -1.3276 -0.1009
 4476SOL    HW225065   3.193   1.926   3.341 -1.4651  1.7138  1.5633
 4477SOL     OW25066   4.354   4.162   7.451 -0.1161  0.0512 -0.2046
 4477SOL    HW125067   4.392   4.250   7.448  0.1745 -0.0712 -0.1771
 4477SOL    HW225068   4.402   4.117   7.382  0.2993  0.2324 -0.0382
 4478SOL     OW25069   0.779   2.341   5.555  0.1570 -0.2649  0.5927
 4478SOL    HW125070   0.773   2.321   5.461 -0.0185  2.9574 -0.0776
 4478SOL    HW225071   0.685   2.346   5.570  0.0712  0.0035 -0.0243
 4479SOL     OW25072   0.938   1.149   1.181 -0.0089  0.3608  0.5446
 4479SOL    HW125073   0.864   1.087   1.180  1.2538 -1.0682 -2.5399
 4479SOL    HW225074   0.908   1.212   1.246 -1.7405  1.3542 -1.2093
 4480SOL     OW25075   3.701   2.342  15.054 -0.2956 -0.4041 -0.0277
 4480SOL    HW125076   3.780   2.290  15.042  0.9362  1.6756 -0.8894
 4480SOL    HW225077   3.676   2.377  14.969  0.7952 -0.5930 -0.4144
 4481SOL     OW25078   1.777   2.126   6.869 -0.0688 -0.1239  0.0301
 4481SOL    HW125079   1.718   2.081   6.929 -0.5543 -0.2916 -0.5742
 4481SOL    HW225080   1.844   2.151   6.933 -2.0075  0.3975  1.8561
 4482SOL     OW25081   1.817   1.262   1.054 -0.0373  0.9373 -0.6481
 4482SOL    HW125082   1.766   1.241   1.133 -0.4937  2.8201 -0.4566
 4482SOL    HW225083   1.873   1.331   1.088 -1.6224  2.0715 -0.3476
 4483SOL     OW25084   2.169   2.030   4.035 -0.4759 -0.1471 -0.5238
 4483SOL    HW125085   2.239   1.969   4.011 -0.1570 -0.0854  0.2588
 4483SOL    HW225086   2.220   2.092   4.087 -0.7859 -1.0832  0.9149
 4484SOL     OW25087   0.590   4.323   0.839  0.3889 -0.1593  0.6328
 4484SOL    HW125088   0.633   4.269   0.905  3.1699  0.0847 -0.9844
 4484SOL    HW225089   0.644   4.402   0.845  0.4181 -0.1377  0.1471
 4485SOL     OW25090   1.918   2.814   4.823  0.6392 -0.0654  0.2097
 4485SOL    HW125091   1.921   2.754   4.897  0.2729 -1.7438 -1.1296
 4485SOL    HW225092   1.937   2.901   4.857 -0.2286  0.1155  0.2353
 4486SOL     OW25093   4.513   3.567  11.239  0.0014 -0.3138  0.5337
 4486SOL    HW125094   4.564   3.487  11.226  0.8791 -0.0005  2.0229
 4486SOL    HW225095   4.429   3.536  11.205 -0.8396  2.9647 -0.3928
 4487SOL     OW25096   3.501   3.144   3.002 -0.3302  0.1468 -0.1933
 4487SOL    HW125097   3.472   3.119   3.090  1.1420 -3.0992 -0.6491
 4487SOL    HW225098   3.421   3.184   2.968 -0.1169  0.1818 -0.6458
 4488SOL     OW25099   0.326   1.588   2.182  0.0225 -0.1536 -0.1280
 4488SOL    HW125100   0.240   1.545   2.184  0.0473 -0.2883 -1.4561
 4488SOL    HW225101   0.338   1.580   2.087 -0.3055  0.0098 -0.1856
 4489SOL     OW25102   2.525   1.924   4.138  0.6137 -0.1024 -0.0664
 4489SOL    HW125103   2.579   1.990   4.094  0.6269 -0.3802 -0.4704
 4489SOL    HW225104   2.535   1.844   4.087 -0.3311 -0.2913  0.0446
 4490SOL     OW25105   4.687   4.152   5.351  0.2355  0.4648  0.0938
 4490SOL    HW125106   4.664   4.060   5.368 -2.1412  0.8865 -0.7613
 4490SOL    HW225107   4.668   4.160   5.257  0.5772  0.8542  0.0606
 4491SOL     OW25108   2.907   2.198   3.959  0.1412 -0.4027 -0.2752
 4491SOL    HW125109   3.002   2.189   3.950  0.2624  2.1341 -1.3689
 4491SOL    HW225110   2.916   2.251   4.038 -4.0619 -0.4187  0.2454
 4492SOL     OW25111   0.923   1.609   0.857  0.7469  0.3880  0.0110
 4492SOL    HW125112   0.882   1.609   0.771  2.2681  0.4305 -0.7193
 4492SOL    HW225113   1.007   1.568   0.837  0.8743  0.0634  1.1878
 4493SOL     OW25114   1.348   1.483  11.186 -0.0085 -0.0515  0.6020
 4493SOL    HW125115   1.320   1.487  11.277 -1.1245  0.8054  0.2221
 4493SOL    HW225116   1.277   1.537  11.150  1.0213 -0.9446 -2.7991
 4494SOL     OW25117   0.465   0.865  15.617  0.0696  0.2342 -0.0369
 4494SOL    HW125118   0.490   0.935  15.556  2.1803 -0.3521  0.1615
 4494SOL    HW225119   0.479   0.900  15.705  1.6603  2.4693 -1.1598
 4495SOL     OW25120   0.297   1.589   7.441 -0.2071  0.1036  0.0836
 4495SOL    HW125121   0.228   1.602   7.376 -0.7190 -0.4133  0.5296
 4495SOL    HW225122   0.317   1.681   7.458  0.5013 -0.0250 -0.0233
 4496SOL     OW25123   3.647   0.025  16.954  0.6368 -0.2305  0.3332
 4496SOL    HW125124   3.600   4.711  16.894  0.1447 -1.2910  1.7328
 4496SOL    HW225125   3.575   0.041  17.015  0.4128 -1.5320  0.3960
 4497SOL     OW25126   0.066   0.107  17.197  0.7352 -0.4149  0.0105
 4497SOL    HW125127   0.098   0.111  17.287 -2.4382 -1.8008  1.1949
 4497SOL    HW225128   4.738   0.172  17.196 -0.6544 -1.9678 -0.9317
 4498SOL     OW25129   1.212   1.485   5.695  0.2377 -0.2636 -0.1055
 4498SOL    HW125130   1.224   1.579   5.680  0.1534 -0.2956 -0.3802
 4498SOL    HW225131   1.224   1.481   5.790  1.5916 -0.3345 -0.2904
 4499SOL     OW25132   2.803   1.491   2.738 -0.2469  0.0762  0.3487
 4499SOL    HW125133   2.809   1.565   2.798 -0.1830 -1.2074  1.9535
 4499SOL    HW225134   2.716   1.456   2.758  0.2895 -0.2373  2.1648
 4500SOL     OW25135   2.768   3.644   8.259 -0.0466 -0.7472 -0.3849
 4500SOL    HW125136   2.814   3.618   8.179 -2.0922 -2.3005 -1.0621
 4500SOL    HW225137   2.846   3.675   8.306 -0.2950 -0.6665 -0.0267
 4501SOL     OW25138   3.578   2.007   4.264 -0.5457 -0.4072 -0.0474
 4501SOL    HW125139   3.651   2.058   4.299 -1.3136  0.5958  0.0938
 4501SOL    HW225140   3.510   2.012   4.332 -0.4693  3.8671 -0.2650
 4502SOL     OW25141   3.768   1.832   2.930  0.5939  0.0963 -0.3396
 4502SOL    HW125142   3.708   1.901   2.900  1.2396  0.4926 -0.7257
 4502SOL    HW225143   3.823   1.882   2.990 -0.6868  0.2710  0.6989
 4503SOL     OW25144   3.892   2.539  14.678 -0.9689  0.8089  0.2484
 4503SOL    HW125145   3.968   2.595  14.692  0.7069 -1.4688  0.0669
 4503SOL    HW225146   3.922   2.466  14.732 -0.5840  0.5270 -0.3494
 4504SOL     OW25147   3.504   1.081   1.650 -0.3120  0.2966 -0.3468
 4504SOL    HW125148   3.560   1.154   1.676 -2.4550  1.8859 -0.2301
 4504SOL    HW225149   3.517   1.080   1.555 -1.7089  0.2616 -0.5335
 4505SOL     OW25150   3.009   0.350   5.245 -0.2304 -0.5260 -0.2179
 4505SOL    HW125151   3.000   0.399   5.326  0.6867  1.7398 -1.4903
 4505SOL    HW225152   3.081   0.390   5.196  1.2958 -1.9281  0.8730
 4506SOL     OW25153   0.665   2.535   4.316  0.4182 -0.1206 -0.1369
 4506SOL    HW125154   0.693   2.625   4.335 -3.2690  0.6442  1.7778
 4506SOL    HW225155   0.737   2.482   4.350 -0.5702 -0.4625  1.4113
 4507SOL     OW25156   0.476   0.607   3.043  0.2389  0.4438  0.4383
 4507SOL    HW125157   0.549   0.639   3.095 -1.8915  0.9731  3.0938
 4507SOL    HW225158   0.474   0.514   3.066 -0.5946 -0.4339 -3.1651
 4508SOL     OW25159   3.104   0.768   8.707  0.4173 -0.4818 -0.3476
 4508SOL    HW125160   3.038   0.796   8.771  0.5103  0.5512 -0.7046
 4508SOL    HW225161   3.054   0.704   8.657  0.3174 -1.6733  1.2815
 4509SOL     OW25162   0.545   4.607  15.582 -0.7823 -0.4485  0.0153
 4509SOL    HW125163   0.486   4.666  15.535 -0.9176  0.0258  0.7754
 4509SOL    HW225164   0.626   4.611  15.531 -0.9973  0.9617 -0.2246
 4510SOL     OW25165   3.569   2.472   4.152  1.0208 -0.2859  0.2907
 4510SOL    HW125166   3.600   2.562   4.142  0.5885 -0.1991 -0.2988
 4510SOL    HW225167   3.647   2.435   4.111  0.6276 -2.0662  1.1614
 4511SOL     OW25168   2.592   0.540   2.725 -0.3362 -0.1898 -0.0469
 4511SOL    HW125169   2.560   0.490   2.800  1.0769  2.1004  2.0870
 4511SOL    HW225170   2.640   0.602   2.780  0.1464  0.6169 -1.3594
 4512SOL     OW25171   0.029   3.000   3.660 -0.0145  0.1704  0.1851
 4512SOL    HW125172   0.042   3.095   3.656  1.5229 -0.0437 -0.1688
 4512SOL    HW225173   4.714   2.998   3.584 -0.0397  0.6155  0.1934
 4513SOL     OW25174   0.140   0.174   5.836  0.0204 -0.2722 -0.1955
 4513SOL    HW125175   0.167   0.082   5.844 -0.9481 -0.6601 -1.3021
 4513SOL    HW225176   0.194   0.211   5.766 -0.1079 -0.4949 -0.4169
 4514SOL     OW25177   1.368   3.246   4.112 -0.1429  0.2617 -0.1558
 4514SOL    HW125178   1.319   3.288   4.041  0.0306  0.2557 -0.2800
 4514SOL    HW225179   1.438   3.210   4.058  1.4349  1.4878  1.0733
 4515SOL     OW25180   2.829   3.065   3.153 -0.0413  0.3043 -0.6066
 4515SOL    HW125181   2.782   2.988   3.119  1.1717  0.3964 -2.4647
 4515SOL    HW225182   2.807   3.075   3.246  0.0433  0.7882 -0.6418
 4516SOL     OW25183   0.662   2.523   6.171 -0.2946 -0.2159 -0.1972
 4516SOL    HW125184   0.586   2.580   6.173  0.2881  0.6097 -1.9332
 4516SOL    HW225185   0.692   2.527   6.080  0.9680 -1.1895  0.1697
 4517SOL     OW25186   0.090   4.619   5.958 -0.3282  0.3027 -0.0136
 4517SOL    HW125187   0.009   4.670   5.958  0.7541  2.0457  1.5963
 4517SOL    HW225188   0.073   4.540   5.906 -1.2804  0.5836 -0.1230
 4518SOL     OW25189   2.650   0.529  15.888  1.2884  0.1158 -0.0851
 4518SOL    HW125190   2.662   0.601  15.950  1.3764 -0.4459  0.5425
 4518SOL    HW225191   2.555   0.520  15.883  1.0104  3.0699 -0.2717
 4519SOL     OW25192   0.780   4.024   4.029  0.4443 -0.3683 -0.2530
 4519SOL    HW125193   0.695   4.006   4.068  0.7017 -1.6441 -0.2703
 4519SOL    HW225194   0.788   3.946   3.974 -1.8498 -0.5954 -0.2399
 4520SOL     OW25195   3.079   2.925   2.978 -0.2570  0.4355  0.2268
 4520SOL    HW125196   3.164   2.960   2.951  0.2921 -1.6742 -0.6856
 4520SOL    HW225197   3.030   2.967   2.908  3.0049 -1.0414 -2.9019
 4521SOL     OW25198   2.172   2.621   8.328  0.2177  0.0832  0.3703
 4521SOL    HW125199   2.151   2.548   8.270  1.1714  1.1088 -1.2532
 4521SOL    HW225200   2.103   2.682   8.302  0.2521 -0.7289 -1.5819
 4522SOL     OW25201   0.892   1.366   7.392  0.3136 -0.0470 -0.2844
 4522SOL    HW125202   0.874   1.289   7.338  1.0510  0.6527 -1.5202
 4522SOL    HW225203   0.803   1.384   7.425  0.1182 -2.5780  0.5755
 4523SOL     OW25204   0.654   4.488   7.023  0.2832  0.0061  0.2508
 4523SOL    HW125205   0.632   4.402   6.987 -1.4674  1.1824 -1.4729
 4523SOL    HW225206   0.631   4.462   7.112 -1.4039 -2.5132 -0.9089
 4524SOL     OW25207   1.139   3.439   8.733 -0.4130  0.0680 -0.4471
 4524SOL    HW125208   1.176   3.382   8.666  0.3710 -0.9826  0.8834
 4524SOL    HW225209   1.192   3.515   8.711 -0.6254  0.2700 -0.2575
 4525SOL     OW25210   3.201   2.338   6.410 -0.4150 -0.3303  0.2467
 4525SOL    HW125211   3.199   2.244   6.392 -2.3921  0.4232 -3.4393
 4525SOL    HW225212   3.246   2.371   6.332  0.4748 -0.5427  0.6697
 4526SOL     OW25213   2.413   0.619  14.503  0.1277 -0.1586  0.2035
 4526SOL    HW125214   2.461   0.607  14.421  2.5922  0.0095  1.6273
 4526SOL    HW225215   2.489   0.588  14.552  1.4540  0.7125 -1.3080
 4527SOL     OW25216   0.693   2.434  11.569 -0.2501  0.6637  0.2146
 4527SOL    HW125217   0.633   2.437  11.494 -2.2436  3.3646  1.9220
 4527SOL    HW225218   0.774   2.404  11.527 -0.3916  1.9324 -0.9848
 4528SOL     OW25219   0.150   1.007   8.231  0.1267 -0.7556 -0.0851
 4528SOL    HW125220   0.223   1.043   8.180 -0.0959 -2.1061 -1.3407
 4528SOL    HW225221   0.178   1.038   8.318  0.4062  2.5380 -1.3403
 4529SOL     OW25222   1.560   0.063  14.454  0.0885 -0.3095 -0.3318
 4529SOL    HW125223   1.607   0.077  14.372 -0.8236 -2.5261 -1.2362
 4529SOL    HW225224   1.603   0.121  14.516  1.4966 -1.2775 -0.3889
 4530SOL     OW25225   4.722   4.394   8.994 -0.2351 -0.0772  0.1128
 4530SOL    HW125226   0.071   4.418   9.010 -0.2231  0.1705 -0.3111
 4530SOL    HW225227   4.676   4.475   9.018 -1.3040 -1.3256  2.1992
 4531SOL     OW25228   0.197   2.958   0.763  0.0783  0.6537  0.3205
 4531SOL    HW125229   0.113   2.978   0.721  0.2918 -3.0115 -1.8349
 4531SOL    HW225230   0.200   3.026   0.830 -3.7194  0.5047  0.6231
 4532SOL     OW25231   4.677   0.363  16.940  0.4291 -0.0723  0.2026
 4532SOL    HW125232   4.640   0.281  16.972  0.0725 -0.7761 -2.0072
 4532SOL    HW225233   0.025   0.333  16.934  0.3575  0.1584 -2.2601
 4533SOL     OW25234   1.732   3.442   9.641 -0.5860  0.4397  0.4894
 4533SOL    HW125235   1.770   3.455   9.554 -2.4343 -0.9375 -0.5032
 4533SOL    HW225236   1.668   3.513   9.645 -3.7461 -2.3863 -0.2913
 4534SOL     OW25237   3.768   0.919   2.605 -0.0381 -0.1156  0.2386
 4534SOL    HW125238   3.703   0.891   2.541 -0.3272 -1.3326  1.0601
 4534SOL    HW225239   3.844   0.866   2.581 -0.0811 -0.2958  0.5037
 4535SOL     OW25240   3.457   0.205   4.438 -0.6409 -0.4532  0.0668
 4535SOL    HW125241   3.544   0.190   4.401  0.0529  2.9950  0.3216
 4535SOL    HW225242   3.408   0.125   4.418 -2.3176  1.0122 -1.6469
 4536SOL     OW25243   2.070   2.546   1.976 -0.0256 -0.3484 -0.1034
 4536SOL    HW125244   2.090   2.522   1.885  2.1919 -1.9086  0.8014
 4536SOL    HW225245   2.111   2.628   2.004  0.9203 -1.9301  3.1484
 4537SOL     OW25246   2.132   1.812   2.648 -0.4897  0.8135 -0.1374
 4537SOL    HW125247   2.073   1.746   2.683 -2.0742  2.4642  0.3079
 4537SOL    HW225248   2.117   1.811   2.553  1.0110 -1.9318 -0.3483
 4538SOL     OW25249   2.988   4.109  15.450 -0.3691  0.1720  0.2618
 4538SOL    HW125250   2.987   4.029  15.397 -1.0848  0.6684 -0.4773
 4538SOL    HW225251   3.062   4.089  15.507 -0.1798 -0.0141 -0.0487
 4539SOL     OW25252   4.648   3.376   7.135 -0.3842  0.3878 -0.6414
 4539SOL    HW125253   4.590   3.300   7.148  0.9764 -0.4879  0.3126
 4539SOL    HW225254   4.643   3.416   7.222  1.6593 -1.1730  0.1943
 4540SOL     OW25255   2.142   2.108   6.286 -0.4395 -0.2553  0.1192
 4540SOL    HW125256   2.147   2.021   6.326  0.3103  1.6667  4.1951
 4540SOL    HW225257   2.049   2.123   6.268  0.0306  1.4241 -0.8532
 4541SOL     OW25258   2.229   2.133   9.420  0.0669  0.4611  0.4972
 4541SOL    HW125259   2.150   2.080   9.424  0.5056 -0.1510  0.9498
 4541SOL    HW225260   2.196   2.222   9.434  1.7488  0.6900  3.1264
 4542SOL     OW25261   1.266   3.517   6.755 -0.6428  0.4757  0.7014
 4542SOL    HW125262   1.343   3.461   6.744 -1.8135 -0.6907 -1.7842
 4542SOL    HW225263   1.303   3.605   6.756  0.1172  0.1688 -0.0826
 4543SOL     OW25264   1.405   2.758   9.612 -0.2493 -0.2972 -0.1866
 4543SOL    HW125265   1.402   2.746   9.707  0.1775  1.7820  0.0860
 4543SOL    HW225266   1.496   2.730   9.603  0.0201 -0.2045  2.0347
 4544SOL     OW25267   1.890   3.286   6.008 -0.3425 -0.6946 -0.4421
 4544SOL    HW125268   1.800   3.309   5.988 -0.0484  0.2975 -0.6028
 4544SOL    HW225269   1.875   3.257   6.098 -1.0539  0.5915 -0.1478
 4545SOL     OW25270   0.289   3.288   2.983 -0.4601  0.3704  0.3210
 4545SOL    HW125271   0.353   3.330   2.925 -1.8303 -0.0582 -1.5104
 4545SOL    HW225272   0.337   3.217   3.025  1.2519  1.0259 -0.5081
 4546SOL     OW25273   0.891   3.961  13.503 -0.1573 -0.1810  0.1372
 4546SOL    HW125274   0.910   3.927  13.416 -1.9913  1.1946 -0.7960
 4546SOL    HW225275   0.977   3.945  13.543  1.4579  0.0855 -3.2239
 4547SOL     OW25276   3.839   1.354   2.783 -0.4989 -0.3955  0.6143
 4547SOL    HW125277   3.862   1.424   2.844  1.7706 -1.4222  0.9104
 4547SOL    HW225278   3.770   1.395   2.729  0.5088  0.4659 -0.0327
 4548SOL     OW25279   1.285   3.901   7.271  0.5601 -0.0869  0.0296
 4548SOL    HW125280   1.230   3.969   7.310 -0.8402 -0.1108 -1.9307
 4548SOL    HW225281   1.226   3.827   7.255 -0.5326  0.7619  0.0789
 4549SOL     OW25282   3.187   1.242  16.914  0.4802 -0.4375 -0.0267
 4549SOL    HW125283   3.272   1.240  16.870  0.4418  2.9352 -0.3184
 4549SOL    HW225284   3.204   1.209  17.002 -1.5175  0.4271  0.6992
 4550SOL     OW25285   0.864   0.223   1.166 -0.0464 -0.6557 -0.0888
 4550SOL    HW125286   0.890   0.261   1.250 -0.1586  0.5893 -0.6241
 4550SOL    HW225287   0.938   0.246   1.110 -1.6220  0.3538 -1.7696
 4551SOL     OW25288   3.905   3.163   5.340  0.3676 -0.3678  0.6881
 4551SOL    HW125289   3.941   3.218   5.410  1.3691 -0.8020  0.5127
 4551SOL    HW225290   3.872   3.103   5.407 -0.1226 -1.0093 -0.1256
 4552SOL     OW25291   0.231   2.358   7.566 -0.1149  0.0804  0.0123
 4552SOL    HW125292   0.275   2.281   7.530 -0.0372  0.2619 -0.2816
 4552SOL    HW225293   0.272   2.372   7.651  0.5130 -0.0543 -0.2681
 4553SOL     OW25294   3.315   0.459   5.210  0.9698  0.0307  0.0008
 4553SOL    HW125295   3.397   0.486   5.252  0.4584 -2.5161  2.5847
 4553SOL    HW225296   3.311   0.366   5.234 -0.2385  0.4306  1.3382
 4554SOL     OW25297   3.898   3.414   3.958  0.1369 -0.0739  0.4416
 4554SOL    HW125298   3.986   3.377   3.948 -0.8592 -3.1449  2.7944
 4554SOL    HW225299   3.910   3.457   4.042 -0.3874  1.3136 -0.2026
 4555SOL     OW25300   4.108   2.340   2.495 -0.0528  1.2679  0.5195
 4555SOL    HW125301   4.120   2.427   2.533  1.2426  1.2502  0.1523
 4555SOL    HW225302   4.048   2.364   2.424  0.7743  0.7738 -0.3447
 4556SOL     OW25303   0.864   0.192  16.693  0.2038  0.0299  0.0384
 4556SOL    HW125304   0.947   0.223  16.655  1.2734 -3.8138 -0.7872
 4556SOL    HW225305   0.805   0.199  16.619  0.3893 -2.8932 -0.3864
 4557SOL     OW25306   3.952   2.151  11.382  0.4205  0.0192  0.1718
 4557SOL    HW125307   3.971   2.155  11.475  0.6082  1.8054  0.0596
 4557SOL    HW225308   3.945   2.055  11.383  2.9638 -0.1561 -1.1017
 4558SOL     OW25309   2.574   2.842   7.773 -0.4615  0.6484 -0.4010
 4558SOL    HW125310   2.594   2.750   7.791  1.2688  0.9774 -0.6518
 4558SOL    HW225311   2.659   2.876   7.745  0.7064 -3.0872 -1.3635
 4559SOL     OW25312   0.307   0.507   1.934  0.0044 -0.0536 -0.7003
 4559SOL    HW125313   0.325   0.601   1.939 -0.4064  0.0269 -0.7551
 4559SOL    HW225314   0.373   0.488   1.867  3.1402  1.1991  2.0194
 4560SOL     OW25315   0.386   3.657  16.316  0.4883  0.7523  0.0918
 4560SOL    HW125316   0.391   3.725  16.249  2.3990  1.4590  0.9682
 4560SOL    HW225317   0.306   3.685  16.360  1.4189  4.2422 -0.4846
 4561SOL     OW25318   2.976   3.661   7.324 -0.0135 -0.0066  0.2202
 4561SOL    HW125319   3.036   3.703   7.262  2.7967 -1.1058  2.2284
 4561SOL    HW225320   2.906   3.725   7.312 -1.0214 -0.9324  1.2530
 4562SOL     OW25321   3.212   4.295   6.400  0.2827 -0.2800 -0.1317
 4562SOL    HW125322   3.234   4.369   6.456 -1.5024 -1.2378  1.8131
 4562SOL    HW225323   3.201   4.227   6.467 -1.3265  2.7427  2.6499
 4563SOL     OW25324   4.457   0.603   4.031  0.1939 -0.1687 -0.7422
 4563SOL    HW125325   4.517   0.676   4.017 -0.7359  1.2431  2.6036
 4563SOL    HW225326   4.520   0.535   4.054 -0.3603 -0.6341 -0.6105
 4564SOL     OW25327   2.345   2.183   4.172  0.0720 -0.8817  0.3774
 4564SOL    HW125328   2.398   2.257   4.201 -2.4205  0.4650  1.4108
 4564SOL    HW225329   2.408   2.122   4.213  2.2663 -0.2168 -2.0316
 4565SOL     OW25330   3.580   2.890   5.238  0.0737  0.0500  0.5338
 4565SOL    HW125331   3.512   2.848   5.291 -0.3250  0.8860  0.6772
 4565SOL    HW225332   3.559   2.983   5.246 -2.6809 -0.4966 -0.4095
 4566SOL     OW25333   0.378   0.389  12.250 -0.2587 -0.3084  0.5170
 4566SOL    HW125334   0.294   0.353  12.220 -1.1233  1.1254  1.2001
 4566SOL    HW225335   0.438   0.321  12.222  0.4034  0.6490 -0.3787
 4567SOL     OW25336   1.214   3.567  14.532  0.0179 -0.0065  0.4147
 4567SOL    HW125337   1.195   3.473  14.525  1.5630 -0.2643 -0.2684
 4567SOL    HW225338   1.148   3.592  14.468 -0.5112  0.1967  1.0325
 4568SOL     OW25339   0.346   4.436   2.650  0.4853  0.1347  0.2234
 4568SOL    HW125340   0.420   4.486   2.614 -0.6579  2.0571  0.5331
 4568SOL    HW225341   0.357   4.354   2.602  0.0411 -0.7663  1.6514
 4569SOL     OW25342   2.684   1.228   3.716  0.2130 -0.1027  0.7438
 4569SOL    HW125343   2.625   1.264   3.782  0.4885 -0.2597  1.0794
 4569SOL    HW225344   2.767   1.271   3.738  0.2979  0.6153 -0.9776
 4570SOL     OW25345   4.514   2.804   4.261 -0.4981 -0.5501 -0.0686
 4570SOL    HW125346   4.608   2.809   4.240 -0.6201  0.3566 -0.3980
 4570SOL    HW225347   4.477   2.863   4.195  0.2762 -0.7255 -0.6560
 4571SOL     OW25348   3.855   0.958   0.814  0.2178 -0.3052 -0.0663
 4571SOL    HW125349   3.809   1.041   0.829 -0.2288 -0.2242 -1.9464
 4571SOL    HW225350   3.779   0.910   0.783  0.4538 -1.2343  0.7934
 4572SOL     OW25351   0.189   3.913   7.528  0.4465 -0.1486  0.4287
 4572SOL    HW125352   0.283   3.899   7.527  0.2083 -1.5455 -1.5971
 4572SOL    HW225353   0.190   3.950   7.440  2.5679 -0.0483  0.4954
 4573SOL     OW25354   4.739   2.020   9.931 -0.9912 -0.4949 -0.0562
 4573SOL    HW125355   0.080   1.998   9.891  0.2520 -0.5283  2.6042
 4573SOL    HW225356   0.001   2.116   9.930 -1.4635 -0.4524  2.8753
 4574SOL     OW25357   2.249   0.683   4.669  0.2112 -0.6456  0.5574
 4574SOL    HW125358   2.214   0.630   4.741 -1.0013 -1.8953 -0.9262
 4574SOL    HW225359   2.206   0.768   4.681  2.3920  0.5207  0.0209
 4575SOL     OW25360   3.691   4.304  12.518 -0.2767 -0.0963  0.3285
 4575SOL    HW125361   3.750   4.342  12.452 -3.7807 -0.3768 -2.9688
 4575SOL    HW225362   3.711   4.212  12.500  0.1125  0.0036  0.2406
 4576SOL     OW25363   2.310   1.651   1.040  0.1345 -0.2400  0.4949
 4576SOL    HW125364   2.218   1.670   1.056  0.2332  0.9060 -0.3165
 4576SOL    HW225365   2.353   1.602   1.110  1.9925  0.7174  0.0144
 4577SOL     OW25366   3.726   3.273   3.636  0.0093 -0.3883 -0.4687
 4577SOL    HW125367   3.762   3.186   3.618 -0.0064 -0.8530  1.8058
 4577SOL    HW225368   3.667   3.280   3.560 -1.4702  0.4733  0.7578
 4578SOL     OW25369   3.946   2.178   2.079 -0.2913 -0.3849  0.2945
 4578SOL    HW125370   3.991   2.177   2.163 -1.8289 -0.3887  1.1031
 4578SOL    HW225371   3.939   2.083   2.076  0.4509 -0.4290 -0.1436
 4579SOL     OW25372   1.601   1.840  10.757 -0.2228 -0.1481  0.3443
 4579SOL    HW125373   1.648   1.758  10.741  1.0565  1.3322 -3.3388
 4579SOL    HW225374   1.628   1.855  10.848  1.3361  0.1471 -0.1796
 4580SOL     OW25375   2.374   3.798  12.656 -0.2645 -0.2778 -0.4823
 4580SOL    HW125376   2.297   3.848  12.684 -0.0036 -0.0813 -0.1127
 4580SOL    HW225377   2.327   3.746  12.591 -0.6518 -0.0993 -0.3444
 4581SOL     OW25378   4.439   3.781   8.291 -0.2981 -0.2426 -0.0321
 4581SOL    HW125379   4.415   3.716   8.225 -0.9029 -2.3595  2.3011
 4581SOL    HW225380   4.448   3.725   8.367 -0.3028  0.8136  0.7468
 4582SOL     OW25381   4.257   2.475   7.645 -0.5828  0.3770  0.2992
 4582SOL    HW125382   4.224   2.414   7.711 -1.3049 -2.7631 -2.9404
 4582SOL    HW225383   4.331   2.429   7.605 -1.8137 -1.1117 -0.2668
 4583SOL     OW25384   1.957   3.266   2.672  0.5358  0.4569 -0.1250
 4583SOL    HW125385   1.872   3.309   2.681  0.6161  0.5491  0.2124
 4583SOL    HW225386   1.969   3.268   2.577 -1.5701  0.9019 -0.3866
 4584SOL     OW25387   4.593   4.128   9.066 -0.0684  0.4564  0.1144
 4584SOL    HW125388   4.623   4.213   9.034  1.5363 -0.8440 -1.8366
 4584SOL    HW225389   4.673   4.081   9.089 -0.6809 -0.5781  0.1505
 4585SOL     OW25390   1.219   0.697   8.534  0.2195 -0.5657 -0.4525
 4585SOL    HW125391   1.258   0.635   8.596 -1.0527 -3.1027 -2.1722
 4585SOL    HW225392   1.172   0.759   8.589  0.4079 -1.5694  0.8584
 4586SOL     OW25393   0.882   4.588   2.323  0.6959 -0.3992  0.1924
 4586SOL    HW125394   0.972   4.564   2.300  1.7954  2.9233  1.1540
 4586SOL    HW225395   0.881   4.672   2.278  1.5520 -1.6042 -2.0679
 4587SOL     OW25396   1.927   1.479   6.356  0.2497  0.4452  0.5719
 4587SOL    HW125397   1.918   1.395   6.312 -0.4400  0.3637  0.8676
 4587SOL    HW225398   1.970   1.535   6.291 -2.5365  1.0607 -0.7678
 4588SOL     OW25399   2.282   1.794   4.944  0.6924  0.1530  0.4020
 4588SOL    HW125400   2.200   1.747   4.960  0.7808 -0.1057  0.0921
 4588SOL    HW225401   2.275   1.804   4.849 -1.2301  0.2313  0.5604
 4589SOL     OW25402   3.191   3.519   2.821  0.4388  0.7012  0.0840
 4589SOL    HW125403   3.165   3.553   2.907  0.7734 -0.5613  0.6835
 4589SOL    HW225404   3.102   3.513   2.787  0.6516 -0.0976 -0.3297
 4590SOL     OW25405   1.575   4.244   5.022 -0.2598 -0.0984 -0.5451
 4590SOL    HW125406   1.599   4.168   4.969  1.6095 -1.4268  2.1618
 4590SOL    HW225407   1.529   4.298   4.958  0.4913  3.0578  1.6207
 4591SOL     OW25408   4.381   3.091   8.304  0.3488  0.5559 -0.1178
 4591SOL    HW125409   4.442   3.025   8.271  0.2430  0.3743  0.0523
 4591SOL    HW225410   4.296   3.056   8.276  1.1888 -1.0247 -0.7214
 4592SOL     OW25411   3.677   4.042   1.676 -0.0103 -0.7236  0.4289
 4592SOL    HW125412   3.753   4.027   1.732  0.6436 -0.3235 -0.3630
 4592SOL    HW225413   3.618   4.092   1.733  1.9871  1.1171  0.8243
 4593SOL     OW25414   3.963   4.606  15.756  0.3860  0.2777 -0.1278
 4593SOL    HW125415   3.942   4.677  15.816  0.1376 -1.4267  1.8060
 4593SOL    HW225416   3.958   4.642  15.667 -1.2993  1.8582  0.6159
 4594SOL     OW25417   2.040   4.498  11.816 -0.0144  0.6045 -0.1423
 4594SOL    HW125418   1.974   4.535  11.757 -1.0844 -0.7539  0.2000
 4594SOL    HW225419   2.025   4.406  11.795 -0.1812  0.4212  0.7819
 4595SOL     OW25420   0.000   4.530   5.390 -0.1039  0.1586 -0.6876
 4595SOL    HW125421   4.656   4.492   5.378 -0.7847  1.5230 -0.1163
 4595SOL    HW225422   0.065   4.461   5.380  2.0631  1.9382  1.0143
 4596SOL     OW25423   3.985   3.630   8.967 -0.6684  0.3324  0.1616
 4596SOL    HW125424   3.945   3.608   9.051  0.3677  0.0368  0.5726
 4596SOL    HW225425   4.038   3.554   8.944  0.2434  0.4213  1.9822
 4597SOL     OW25426   0.817   4.487   7.515 -0.0168 -0.1827 -0.3454
 4597SOL    HW125427   0.840   4.502   7.424 -0.5531 -2.4978 -0.8666
 4597SOL    HW225428   0.751   4.554   7.531  0.7597  0.3242  0.7210
 4598SOL     OW25429   1.279   0.525   3.219  0.4425 -0.0279  0.0327
 4598SOL    HW125430   1.342   0.461   3.250 -1.2733 -0.6019  2.3340
 4598SOL    HW225431   1.291   0.601   3.276  2.2361  0.1759 -0.6186
 4599SOL     OW25432   2.043   0.954  10.752  0.0983 -0.2132  0.3132
 4599SOL    HW125433   2.135   0.964  10.729 -0.1340  1.6242  0.1461
 4599SOL    HW225434   2.035   0.981  10.843 -0.5921  1.4613 -0.2328
 4600SOL     OW25435   4.633   3.902   4.100 -0.0958  0.2771  0.2085
 4600SOL    HW125436   4.557   3.844   4.092  0.4242 -0.3391 -0.2833
 4600SOL    HW225437   4.618   3.976   4.159  3.4045  1.1387 -0.0274
 4601SOL     OW25438   3.617   3.994   4.050 -0.3004  0.6613 -0.1825
 4601SOL    HW125439   3.650   3.910   4.081  0.4955  0.4302 -1.6307
 4601SOL    HW225440   3.677   4.049   4.100 -0.9324  1.0612  0.1330
 4602SOL     OW25441   2.185   3.555   2.018  0.4031  0.2208 -0.2528
 4602SOL    HW125442   2.247   3.608   1.968  1.2093  2.3151  2.9952
 4602SOL    HW225443   2.104   3.563   1.967  0.2310  0.4218  0.0494
 4603SOL     OW25444   4.720   0.416   5.255  0.1628  0.5911  0.3767
 4603SOL    HW125445   4.642   0.380   5.298 -1.4592  4.6221  0.8173
 4603SOL    HW225446   4.717   0.507   5.283 -0.7157  0.7854 -0.3313
 4604SOL     OW25447   2.675   3.453   4.704  0.4827  0.2544  0.6023
 4604SOL    HW125448   2.721   3.400   4.638  0.9395  3.4535 -1.6394
 4604SOL    HW225449   2.755   3.476   4.751 -0.2619  2.4915  0.7804
 4605SOL     OW25450   0.702   3.276   8.557 -0.1826 -0.3340  0.1140
 4605SOL    HW125451   0.633   3.330   8.518  0.5294  1.2367  1.0404
 4605SOL    HW225452   0.645   3.236   8.623  0.9258 -2.9876 -0.5590
 4606SOL     OW25453   3.770   2.353  11.801  0.4594  0.4456 -0.0565
 4606SOL    HW125454   3.818   2.381  11.724 -0.2643 -0.0070 -0.6708
 4606SOL    HW225455   3.735   2.438  11.826  1.5705  0.8883 -0.0172
 4607SOL     OW25456   2.359   3.264   6.905 -0.2984 -0.1353  0.3881
 4607SOL    HW125457   2.404   3.254   6.988  0.7185 -0.1198 -0.1625
 4607SOL    HW225458   2.384   3.355   6.887 -2.2487  0.8258  2.6037
 4608SOL     OW25459   2.891   2.766  16.563  0.3645  0.5045 -0.1906
 4608SOL    HW125460   2.979   2.767  16.525  0.1153  0.2944 -0.7799
 4608SOL    HW225461   2.908   2.791  16.654 -3.5855 -1.4015  1.0678
 4609SOL     OW25462   0.688   1.998   8.067 -0.1175 -0.2786 -0.1982
 4609SOL    HW125463   0.671   1.938   8.139  1.4694 -0.6144 -0.1057
 4609SOL    HW225464   0.677   1.947   7.987 -1.4188 -2.3075  1.2636
 4610SOL     OW25465   1.143   0.665   4.987  0.0897  0.0848 -0.1877
 4610SOL    HW125466   1.219   0.610   4.968 -0.7597 -0.5763 -1.6909
 4610SOL    HW225467   1.091   0.629   4.915 -2.9867  1.7315  1.2213
 4611SOL     OW25468   4.219   2.252   3.150  0.1504 -0.4073 -0.0410
 4611SOL    HW125469   4.236   2.190   3.221 -0.1896  0.3636  0.7224
 4611SOL    HW225470   4.305   2.290   3.135  0.1224 -0.4301 -0.2570
 4612SOL     OW25471   4.259   0.325  16.405  0.0600 -0.3883 -0.3021
 4612SOL    HW125472   4.246   0.250  16.346  0.8093 -1.4000  0.8034
 4612SOL    HW225473   4.202   0.313  16.481  2.5902  0.1060  1.6736
 4613SOL     OW25474   3.132   3.716   7.683 -0.3392  0.9430  0.7375
 4613SOL    HW125475   3.116   3.625   7.656  0.9619  0.7678  0.5169
 4613SOL    HW225476   3.173   3.757   7.606  0.1277 -1.4930 -0.3139
 4614SOL     OW25477   1.232   0.618  10.834  0.0758  0.1008 -0.1530
 4614SOL    HW125478   1.186   0.552  10.780  0.1670 -0.4177  0.4050
 4614SOL    HW225479   1.167   0.671  10.879  1.6205  2.4470 -0.7232
 4615SOL     OW25480   0.558   2.675   8.689 -0.3351  0.5781 -0.6134
 4615SOL    HW125481   0.613   2.736   8.739  1.4161 -1.6762  0.2140
 4615SOL    HW225482   0.606   2.592   8.696  0.1881  0.9585  0.4776
 4616SOL     OW25483   1.261   2.979   7.619 -0.2168  0.4252 -0.4982
 4616SOL    HW125484   1.311   3.024   7.688 -0.4805  1.7939 -1.1894
 4616SOL    HW225485   1.334   2.930   7.580 -1.9246 -0.2262 -2.8212
 4617SOL     OW25486   4.115   1.787   5.932  0.0100 -0.0573 -0.4854
 4617SOL    HW125487   4.136   1.816   6.020  0.5513 -0.0763 -0.6053
 4617SOL    HW225488   4.171   1.710   5.922  1.2097  0.2184  4.4926
 4618SOL     OW25489   0.908   3.824   5.882 -0.0063  0.0035 -0.0393
 4618SOL    HW125490   0.963   3.902   5.887 -0.8658  0.6085 -0.0954
 4618SOL    HW225491   0.879   3.835   5.792  0.5884  0.4038 -0.1823
 4619SOL     OW25492   3.051   1.712   2.116  0.0950 -0.4067  0.3364
 4619SOL    HW125493   3.123   1.775   2.110 -1.5196  1.4100 -0.0217
 4619SOL    HW225494   3.107   1.634   2.118  1.0663  0.2731 -0.6451
 4620SOL     OW25495   2.013   3.810   7.300 -0.1181  0.0753 -0.1393
 4620SOL    HW125496   1.926   3.807   7.259  0.5721 -3.6907 -1.3178
 4620SOL    HW225497   2.046   3.884   7.249 -0.9117 -0.0979 -0.9155
 4621SOL     OW25498   2.943   0.857   6.258 -0.2379 -0.6875 -0.2795
 4621SOL    HW125499   3.013   0.796   6.232  1.1693  0.5755  0.5883
 4621SOL    HW225500   2.905   0.897   6.180  1.9477  2.1828  0.1410
 4622SOL     OW25501   1.745   1.348  11.729  0.2694  0.0580  0.8074
 4622SOL    HW125502   1.682   1.310  11.791  1.5197 -0.8004  1.5385
 4622SOL    HW225503   1.707   1.309  11.650 -0.1042  2.7008 -0.3250
 4623SOL     OW25504   0.566   4.278   5.339 -1.1065  0.8785  0.4056
 4623SOL    HW125505   0.626   4.263   5.266 -0.2107 -2.5358  1.8160
 4623SOL    HW225506   0.544   4.190   5.370 -0.5186 -0.0336 -1.7932
 4624SOL     OW25507   2.125   4.065   2.007 -0.2913 -0.5952  0.3439
 4624SOL    HW125508   2.052   4.026   2.055 -0.7313  0.1277  0.2539
 4624SOL    HW225509   2.087   4.127   1.945  1.7174 -0.1372 -0.4293
 4625SOL     OW25510   2.708   1.101   7.928  0.2863 -0.0010  0.0250
 4625SOL    HW125511   2.775   1.073   7.865  0.1817  0.5129 -0.3187
 4625SOL    HW225512   2.646   1.144   7.868 -1.4334 -2.2175  0.2184
 4626SOL     OW25513   3.501   3.848   4.717 -0.6770 -0.3280  0.2598
 4626SOL    HW125514   3.469   3.911   4.652  1.3989  1.6037  1.1164
 4626SOL    HW225515   3.512   3.775   4.656  1.5001 -1.1085  1.5925
 4627SOL     OW25516   2.122   3.281   4.597 -0.7407 -0.1492 -0.0896
 4627SOL    HW125517   2.076   3.329   4.666 -1.4865 -0.1406 -0.5986
 4627SOL    HW225518   2.047   3.236   4.557  0.0412 -1.6887  0.1887
 4628SOL     OW25519   1.456   0.327   3.324  0.2838  0.0634 -0.2097
 4628SOL    HW125520   1.494   0.273   3.255  0.0568 -0.3513 -0.0097
 4628SOL    HW225521   1.409   0.259   3.372  1.5581  0.3099  1.4240
 4629SOL     OW25522   4.400   1.709   0.142 -0.6530  0.0131 -0.4329
 4629SOL    HW125523   4.366   1.647   0.206 -2.0503  0.6243 -0.5971
 4629SOL    HW225524   4.491   1.680   0.131 -0.0718  1.9488 -0.7770
 4630SOL     OW25525   2.744   1.320  10.039 -0.1935 -0.1824 -0.1339
 4630SOL    HW125526   2.779   1.231  10.029 -0.4854 -0.0573 -2.1726
 4630SOL    HW225527   2.803   1.347  10.110 -1.5541  3.1733 -0.2816
 4631SOL     OW25528   4.648   0.483   8.429 -0.4407 -0.4076 -0.1921
 4631SOL    HW125529   4.717   0.548   8.440 -3.6198  2.8754 -0.0009
 4631SOL    HW225530   4.580   0.515   8.488  0.1682  0.9224 -0.2115
 4632SOL     OW25531   0.028   1.405   1.698 -0.1513 -0.2427  0.5323
 4632SOL    HW125532   0.055   1.428   1.609  2.6378 -0.1956  1.3759
 4632SOL    HW225533   4.676   1.414   1.688  0.1583  1.2810 -1.1376
 4633SOL     OW25534   0.680   4.226   6.328  0.8901 -0.5518 -0.4148
 4633SOL    HW125535   0.725   4.310   6.322 -0.8099  0.4703  1.0759
 4633SOL    HW225536   0.693   4.199   6.237 -0.8907 -0.4391 -0.6924
 4634SOL     OW25537   3.242   1.874   2.004  0.0036  0.2033 -0.0831
 4634SOL    HW125538   3.319   1.887   2.059  1.7904  0.7486 -2.7230
 4634SOL    HW225539   3.289   1.849   1.925 -0.4747  0.5583 -0.4802
 4635SOL     OW25540   0.189   1.826   8.012 -0.4397 -0.2137  0.2587
 4635SOL    HW125541   0.099   1.848   7.986 -0.7364 -0.6244  0.9310
 4635SOL    HW225542   0.229   1.827   7.925  1.7531  0.9715  1.2936
 4636SOL     OW25543   3.075   3.106  16.377 -0.6726 -0.7294  0.1219
 4636SOL    HW125544   3.092   3.050  16.453 -0.5676 -1.1399 -0.2036
 4636SOL    HW225545   3.108   3.186  16.416 -3.0203  0.4211 -0.2172
 4637SOL     OW25546   3.765   2.716   5.169 -0.5953  0.0744 -0.0471
 4637SOL    HW125547   3.825   2.774   5.121 -0.2842  0.8797  1.3026
 4637SOL    HW225548   3.701   2.782   5.194 -0.5115  0.2599 -0.3222
 4638SOL     OW25549   4.468   3.889   9.533 -0.6703 -0.0512 -0.2180
 4638SOL    HW125550   4.411   3.954   9.495 -1.0622  0.6735  1.5912
 4638SOL    HW225551   4.427   3.804   9.515 -1.5204 -0.2814  2.8176
 4639SOL     OW25552   3.721   0.237   3.466 -0.1732 -0.2077 -0.3090
 4639SOL    HW125553   3.691   0.324   3.490 -0.8983 -0.6412  0.3749
 4639SOL    HW225554   3.659   0.195   3.526 -0.6525 -0.7328 -1.1709
 4640SOL     OW25555   1.117   1.217   4.493  0.1163 -0.1247  0.1359
 4640SOL    HW125556   1.153   1.183   4.576  1.1537  0.1810 -0.1834
 4640SOL    HW225557   1.175   1.292   4.479 -0.3434  0.4445  1.2603
 4641SOL     OW25558   3.335   3.734   8.530  0.2173 -0.2707  0.1288
 4641SOL    HW125559   3.394   3.801   8.565 -1.7196  0.8144  1.3280
 4641SOL    HW225560   3.378   3.654   8.557 -0.8007 -0.9305 -0.2136
 4642SOL     OW25561   1.976   2.809   2.631 -0.4654  0.1254 -0.2302
 4642SOL    HW125562   2.018   2.864   2.565  1.3504 -0.7955  0.1489
 4642SOL    HW225563   2.031   2.733   2.613  0.8385  0.7413  1.1409
 4643SOL     OW25564   2.946   2.898   9.075  0.8671  0.0264  0.0961
 4643SOL    HW125565   3.001   2.822   9.095  0.8523 -0.3981 -1.4905
 4643SOL    HW225566   2.943   2.948   9.157 -1.2414 -0.6593  0.4433
 4644SOL     OW25567   1.820   2.920  15.754  0.2927  0.2896  0.0530
 4644SOL    HW125568   1.854   2.951  15.837 -0.4053 -0.3578  0.5877
 4644SOL    HW225569   1.896   2.879  15.713  0.0169  0.2819 -0.4473
 4645SOL     OW25570   1.497   2.194   5.981  0.5620  0.4910  0.0127
 4645SOL    HW125571   1.475   2.285   5.998  0.7028  1.1259 -3.1275
 4645SOL    HW225572   1.409   2.157   5.979  0.2709  1.1830 -0.2848
 4646SOL     OW25573   3.230   0.734   1.849 -0.1736 -0.2121  0.4758
 4646SOL    HW125574   3.321   0.740   1.820  0.0574 -1.6621  0.8944
 4646SOL    HW225575   3.219   0.822   1.887 -2.8716  0.3574 -1.6119
 4647SOL     OW25576   0.829   3.057   4.275  0.6664  0.0264  0.1521
 4647SOL    HW125577   0.887   3.063   4.351  0.4161 -1.2103  0.4505
 4647SOL    HW225578   0.763   2.997   4.311  0.5795 -0.8137 -1.4235
 4648SOL     OW25579   2.499   4.582   8.401  0.6366 -0.9382  0.8002
 4648SOL    HW125580   2.586   4.622   8.394 -0.3951  0.9166 -1.3730
 4648SOL    HW225581   2.529   4.499   8.439  0.9027 -1.5601 -0.7821
 4649SOL     OW25582   3.540   2.565   5.555 -0.1774 -0.6275  0.0662
 4649SOL    HW125583   3.471   2.506   5.586  0.0594 -0.1320  1.5590
 4649SOL    HW225584   3.485   2.641   5.534 -0.3421 -0.3241  1.6085
 4650SOL     OW25585   0.648   2.442  12.064  0.1711 -0.0605 -0.2100
 4650SOL    HW125586   0.732   2.408  12.033  0.8183 -0.4353  1.9595
 4650SOL    HW225587   0.596   2.437  11.983 -2.3523 -0.6825  1.4478
 4651SOL     OW25588   1.222   3.242   6.871 -0.3732  0.0098 -0.1976
 4651SOL    HW125589   1.235   3.336   6.885  1.8767 -0.3706  0.3523
 4651SOL    HW225590   1.206   3.215   6.961  0.2374 -0.5876 -0.2658
 4652SOL     OW25591   4.218   1.893   7.094  0.1937  0.0522  0.4502
 4652SOL    HW125592   4.242   1.966   7.037  1.1599  0.7046  1.7060
 4652SOL    HW225593   4.128   1.923   7.107  0.0382 -0.1841 -0.0795
 4653SOL     OW25594   3.676   2.519  12.535 -0.1836  0.2428  0.5465
 4653SOL    HW125595   3.764   2.482  12.532  0.0815  0.6719  2.6506
 4653SOL    HW225596   3.662   2.546  12.444 -1.1020 -1.4107  0.1982
 4654SOL     OW25597   1.128   0.475  11.241 -0.1323 -0.4244 -0.0430
 4654SOL    HW125598   1.223   0.471  11.237 -0.0005  1.8668  0.6432
 4654SOL    HW225599   1.110   0.418  11.316  2.2431 -3.3855 -1.7201
 4655SOL     OW25600   0.407   4.125   4.339  0.1160 -0.6037 -0.2525
 4655SOL    HW125601   0.357   4.150   4.261 -1.3384  1.2674  1.2783
 4655SOL    HW225602   0.332   4.112   4.397  1.2261  0.0434  1.3530
 4656SOL     OW25603   2.678   0.192   6.007 -0.3996  0.0649 -0.0020
 4656SOL    HW125604   2.645   0.270   5.964  0.1879  0.7953  0.8749
 4656SOL    HW225605   2.698   0.223   6.095  0.1565 -3.0379  0.9614
 4657SOL     OW25606   0.483   1.688   8.562 -0.3691  0.1288  0.3831
 4657SOL    HW125607   0.424   1.763   8.553 -0.1974  0.0432 -1.3105
 4657SOL    HW225608   0.493   1.660   8.472  2.4686  0.1640  0.6813
 4658SOL     OW25609   3.072   0.275   2.497  0.0028 -0.0768 -0.8643
 4658SOL    HW125610   3.088   0.201   2.438  1.8711 -0.3883  0.0341
 4658SOL    HW225611   3.102   0.231   2.576 -1.0084  0.1890 -0.3469
 4659SOL     OW25612   1.211   1.168  14.757  0.0458  0.3852  0.2832
 4659SOL    HW125613   1.205   1.099  14.692  0.2340  1.3757 -0.7814
 4659SOL    HW225614   1.120   1.196  14.770 -0.8397 -2.4168  0.1109
 4660SOL     OW25615   2.733   2.481  10.461  0.1395  0.5018 -0.1309
 4660SOL    HW125616   2.784   2.459  10.383  0.6047 -0.0103  0.3176
 4660SOL    HW225617   2.750   2.575  10.467  3.1573 -0.0781  0.3660
 4661SOL     OW25618   2.682   0.100   2.997  0.0489  0.0410 -0.2200
 4661SOL    HW125619   2.724   0.176   3.036 -1.2391  1.3601 -1.3988
 4661SOL    HW225620   2.751   0.061   2.944 -0.5398 -3.5305  1.6070
 4662SOL     OW25621   4.325   1.291   9.523  0.2109  0.1467  0.5029
 4662SOL    HW125622   4.331   1.201   9.554 -1.4139 -0.6097 -1.3846
 4662SOL    HW225623   4.393   1.295   9.456 -0.5668  1.0827 -0.2284
 4663SOL     OW25624   4.368   3.008  10.042 -0.0683 -0.4679  0.1484
 4663SOL    HW125625   4.453   3.026  10.002  0.1878 -2.3540 -0.1653
 4663SOL    HW225626   4.337   2.948   9.974  1.6780  0.8633 -1.8090
 4664SOL     OW25627   0.320   2.094   1.343  0.0927  0.6247 -0.3764
 4664SOL    HW125628   0.411   2.076   1.367 -0.8499 -1.7115  1.4073
 4664SOL    HW225629   0.322   2.095   1.248  2.7868  1.3428 -0.3067
 4665SOL     OW25630   2.929   3.520  12.759 -0.1002 -0.2122  0.1958
 4665SOL    HW125631   2.912   3.537  12.666 -1.6686 -0.0993  0.5073
 4665SOL    HW225632   2.857   3.566  12.801 -1.3866 -0.0765 -2.1345
 4666SOL     OW25633   4.359   1.374   3.603  0.1638  0.0986  0.5086
 4666SOL    HW125634   4.300   1.393   3.530 -1.1162 -0.4371  1.3852
 4666SOL    HW225635   4.438   1.409   3.562  2.8737 -2.7148  3.2831
 4667SOL     OW25636   1.391   4.329   4.843  0.4724 -0.2065 -0.3985
 4667SOL    HW125637   1.321   4.341   4.779  0.8912 -1.5775 -1.1090
 4667SOL    HW225638   1.374   4.236   4.855 -0.0117  0.0925  1.1847
 4668SOL     OW25639   2.307   1.437   6.760 -0.3843 -0.3616  0.0352
 4668SOL    HW125640   2.292   1.485   6.679 -1.3592 -1.1092 -0.2247
 4668SOL    HW225641   2.224   1.454   6.804 -1.4711  0.6998 -2.4647
 4669SOL     OW25642   0.326   3.981  10.531  0.0312  0.5013 -0.6622
 4669SOL    HW125643   0.406   3.930  10.526  0.7185  1.3814  1.3524
 4669SOL    HW225644   0.357   4.065  10.565  0.6463 -0.7789  1.9121
 4670SOL     OW25645   4.311   4.020   2.080  0.2234  0.0154 -0.9023
 4670SOL    HW125646   4.300   3.987   1.991  2.8917 -3.6542  0.1056
 4670SOL    HW225647   4.318   4.113   2.060 -2.3121  0.5255  0.6243
 4671SOL     OW25648   0.763   2.361   4.750  0.5968  0.5677  0.4630
 4671SOL    HW125649   0.734   2.299   4.683 -0.3713 -0.9077  2.2808
 4671SOL    HW225650   0.684   2.383   4.798  0.0052  0.0266 -0.2748
 4672SOL     OW25651   2.157   3.102   6.502 -0.2646  0.1062  0.0858
 4672SOL    HW125652   2.237   3.118   6.553 -1.1089  1.1170  1.0865
 4672SOL    HW225653   2.168   3.008   6.487 -2.9727 -0.2267  0.1583
 4673SOL     OW25654   3.028   1.084  17.550 -0.0787  0.4077  0.3281
 4673SOL    HW125655   3.115   1.064  17.586  0.9499  1.4746 -1.5482
 4673SOL    HW225656   3.059   1.127  17.470 -3.0498  1.0543 -0.4511
 4674SOL     OW25657   1.952   3.145   5.469 -0.1606  0.3327 -0.6611
 4674SOL    HW125658   2.023   3.105   5.519  0.4425  0.8311 -1.1155
 4674SOL    HW225659   1.886   3.154   5.538  1.1435 -1.2290  0.7849
 4675SOL     OW25660   0.971   1.197  13.422  0.1622 -0.0603 -0.4367
 4675SOL    HW125661   0.985   1.283  13.384 -1.1469 -0.4553 -1.8264
 4675SOL    HW225662   0.931   1.146  13.351  1.0390 -0.8967 -0.3375
 4676SOL     OW25663   1.608   3.352   6.012 -0.1541 -0.0738 -0.4346
 4676SOL    HW125664   1.639   3.344   6.102 -0.3797  0.8000 -0.2758
 4676SOL    HW225665   1.589   3.446   6.014 -0.4351 -0.0648 -3.6505
 4677SOL     OW25666   1.495   2.510  13.090 -0.2597  0.0825 -0.0401
 4677SOL    HW125667   1.578   2.473  13.061  0.6735  1.3873  0.9831
 4677SOL    HW225668   1.518   2.602  13.076  0.7429  0.0927  1.7360
 4678SOL     OW25669   0.960   2.898   7.021 -0.1557  0.6341  0.2382
 4678SOL    HW125670   1.044   2.861   7.050  0.3667  0.5899 -1.3693
 4678SOL    HW225671   1.000   2.932   6.942  0.2680 -0.9599 -0.2265
 4679SOL     OW25672   2.305   1.878  11.656  0.1330 -0.2488  0.0112
 4679SOL    HW125673   2.393   1.856  11.627 -0.0483 -0.4907 -0.3527
 4679SOL    HW225674   2.254   1.830  11.591  1.9629 -1.2820 -0.6620
 4680SOL     OW25675   1.740   3.512   0.283  0.1273  0.2732 -0.6629
 4680SOL    HW125676   1.649   3.502   0.311  0.0869  0.1863 -0.8227
 4680SOL    HW225677   1.767   3.601   0.304  0.4084  0.0273  0.0258
 4681SOL     OW25678   2.921   1.461  13.454  0.1409 -0.2800 -0.4126
 4681SOL    HW125679   2.998   1.440  13.401  0.0580 -1.8074  0.0840
 4681SOL    HW225680   2.959   1.539  13.495  0.6770 -0.8261  0.1071
 4682SOL     OW25681   1.684   3.310   9.216 -0.3714 -0.2833  0.0117
 4682SOL    HW125682   1.748   3.281   9.281 -0.8883  1.0964  1.1420
 4682SOL    HW225683   1.613   3.346   9.270  2.0654  1.2089  2.2045
 4683SOL     OW25684   4.264   1.509   5.480  0.9838 -0.3633 -0.2772
 4683SOL    HW125685   4.329   1.510   5.550 -0.1637 -2.1232  0.8089
 4683SOL    HW225686   4.191   1.565   5.508  0.3390 -0.1156 -2.4802
 4684SOL     OW25687   3.617   2.366   8.120  0.2348 -0.0146 -0.4930
 4684SOL    HW125688   3.525   2.384   8.138 -0.5652 -1.6407 -2.9725
 4684SOL    HW225689   3.614   2.282   8.074  0.8371  0.0116 -0.5842
 4685SOL     OW25690   1.656   0.479   1.069  0.4410  0.7381  0.2063
 4685SOL    HW125691   1.722   0.441   1.011  0.1431 -0.4372  0.6366
 4685SOL    HW225692   1.577   0.432   1.041 -1.3557  2.3154  2.6531
 4686SOL     OW25693   1.292   0.372  17.564 -0.3006 -0.5720  0.3851
 4686SOL    HW125694   1.380   0.399  17.589 -0.5772  0.5446  0.1753
 4686SOL    HW225695   1.294   0.338  17.474 -1.3680  0.1616  0.0852
 4687SOL     OW25696   2.598   2.978   9.006  0.1217 -0.2040 -0.0854
 4687SOL    HW125697   2.669   3.013   9.060  1.3665 -0.4945 -1.5483
 4687SOL    HW225698   2.537   3.051   9.015 -1.1308 -1.2443 -0.0218
 4688SOL     OW25699   4.574   4.556   5.682  0.0892  0.3810  0.1455
 4688SOL    HW125700   4.667   4.577   5.674 -0.0596  2.3710  3.5187
 4688SOL    HW225701   4.538   4.616   5.616  0.4434  1.6115  1.0653
 4689SOL     OW25702   4.504   1.898   9.849 -0.0047 -0.0098  0.2641
 4689SOL    HW125703   4.526   1.821   9.902  1.3758  1.4960  1.9019
 4689SOL    HW225704   4.588   1.941   9.868 -1.3724  2.2473  1.2703
 4690SOL     OW25705   0.180   1.615   3.726  0.1636 -0.6618  0.4381
 4690SOL    HW125706   0.214   1.687   3.674  0.9466  0.3234  2.3018
 4690SOL    HW225707   0.127   1.668   3.786  0.0895  0.6645 -0.7951
 4691SOL     OW25708   4.629   0.933   3.395  0.2249 -0.0979 -0.5028
 4691SOL    HW125709   4.695   0.981   3.345  0.3106  1.6103  1.2511
 4691SOL    HW225710   4.652   0.846   3.360  2.0021  0.3565 -0.4619
 4692SOL     OW25711   3.198   0.874   4.748  0.1942  0.3549 -0.0079
 4692SOL    HW125712   3.178   0.864   4.841  0.7025  0.8221  0.1480
 4692SOL    HW225713   3.115   0.834   4.720 -1.2892  2.2136  1.7045
 4693SOL     OW25714   1.995   4.526   6.960 -0.2786  0.2509 -0.1797
 4693SOL    HW125715   2.001   4.618   6.934  1.1019  0.4670  0.9156
 4693SOL    HW225716   2.002   4.477   6.878 -0.7303  0.4943 -0.3630
 4694SOL     OW25717   2.051   4.095   2.994  0.0510 -0.3562  0.1228
 4694SOL    HW125718   2.013   4.183   3.001  0.2391 -0.0880 -2.2459
 4694SOL    HW225719   1.976   4.034   2.992  0.3245 -0.6622 -0.9488
 4695SOL     OW25720   1.013   2.714   1.071 -0.4185 -0.2308 -0.7009
 4695SOL    HW125721   0.929   2.721   1.026 -0.7631 -1.6496 -0.2477
 4695SOL    HW225722   1.045   2.628   1.043 -0.2048 -0.1550 -0.6947
 4696SOL     OW25723   2.989   2.373   2.236  0.1668 -0.0442 -0.5861
 4696SOL    HW125724   3.007   2.322   2.156 -1.2402 -0.2172 -0.7892
 4696SOL    HW225725   3.063   2.346   2.290  0.3881  1.6546 -0.0463
 4697SOL     OW25726   1.763   4.487   2.926 -0.3322  0.5845 -0.4401
 4697SOL    HW125727   1.767   4.570   2.878  2.3574  0.3138 -0.6647
 4697SOL    HW225728   1.673   4.457   2.909 -0.2502  0.3918 -0.5308
 4698SOL     OW25729   1.578   4.140   8.354  0.0540 -0.0370 -0.3414
 4698SOL    HW125730   1.671   4.144   8.374 -0.5069 -2.4523  2.7784
 4698SOL    HW225731   1.578   4.230   8.321 -3.5958  0.1677  0.1505
 4699SOL     OW25732   3.953   3.903   3.780 -0.1353  0.2307  0.4521
 4699SOL    HW125733   3.976   3.811   3.794  2.6592  0.7928 -0.2542
 4699SOL    HW225734   3.860   3.895   3.762 -0.3694  0.5883  1.5252
 4700SOL     OW25735   4.737   1.693  11.777  0.9117  0.2051 -0.6455
 4700SOL    HW125736   0.060   1.623  11.777 -1.0682 -1.6428  0.4224
 4700SOL    HW225737   4.666   1.648  11.731 -0.4940  0.4497  1.2567
 4701SOL     OW25738   0.318   2.191   6.457  0.2508  0.3364  0.3167
 4701SOL    HW125739   0.376   2.196   6.381 -0.6782 -1.1081 -0.4996
 4701SOL    HW225740   0.365   2.257   6.506  0.8983  1.2453 -1.5283
 4702SOL     OW25741   3.057   2.093   6.591  0.1974  0.0112 -1.0222
 4702SOL    HW125742   3.120   2.105   6.521 -0.4666  0.0842 -1.6080
 4702SOL    HW225743   3.047   1.998   6.591 -2.3930  0.2706  2.2090
 4703SOL     OW25744   0.710   3.687   2.760  0.2083 -0.7375 -0.1204
 4703SOL    HW125745   0.696   3.766   2.709  2.1870  1.0864  2.1539
 4703SOL    HW225746   0.690   3.730   2.843  1.6529 -1.6275  0.6892
 4704SOL     OW25747   3.897   3.321  13.636  0.1946 -0.1323 -0.0387
 4704SOL    HW125748   3.929   3.396  13.686  0.7766 -0.0115 -0.6070
 4704SOL    HW225749   3.801   3.331  13.638  0.1871 -0.0714 -0.7026
 4705SOL     OW25750   0.438   2.628   6.373 -0.4553 -0.6914 -0.5449
 4705SOL    HW125751   0.402   2.649   6.287 -2.5633  1.4420  0.8541
 4705SOL    HW225752   0.475   2.713   6.396 -0.6020 -0.7375 -0.1225
 4706SOL     OW25753   4.583   4.201   0.653  0.3253  0.0399 -0.0280
 4706SOL    HW125754   4.518   4.173   0.589  0.3893  1.4716 -0.7116
 4706SOL    HW225755   4.536   4.274   0.693  0.9427  0.8169 -0.7252
 4707SOL     OW25756   2.390   4.289  15.399 -0.2686  0.2868 -0.0685
 4707SOL    HW125757   2.471   4.268  15.351 -0.4511 -2.0642  0.6686
 4707SOL    HW225758   2.360   4.372  15.363 -1.4351 -0.4295 -0.7328
 4708SOL     OW25759   3.330   2.670   6.914 -0.1791 -0.0483 -0.2786
 4708SOL    HW125760   3.240   2.637   6.907  0.2981 -0.7596 -2.9609
 4708SOL    HW225761   3.331   2.702   7.004 -0.0502  0.8324 -0.5941
 4709SOL     OW25762   1.185   0.027  13.291 -0.2466 -0.2451 -0.2908
 4709SOL    HW125763   1.236   0.097  13.330 -3.0311  0.4481  2.1308
 4709SOL    HW225764   1.253   4.703  13.294 -0.3208 -0.3041  0.1477
 4710SOL     OW25765   4.137   4.069   2.316  0.3793 -0.7061 -0.5186
 4710SOL    HW125766   4.191   3.996   2.348 -2.2189 -1.9721  0.9696
 4710SOL    HW225767   4.163   4.071   2.224 -0.1708  0.8507 -0.6444
 4711SOL     OW25768   0.426   4.371   2.952  0.0024 -0.2183  0.4083
 4711SOL    HW125769   0.349   4.315   2.963 -0.0424 -0.4097 -0.8708
 4711SOL    HW225770   0.450   4.339   2.865  0.9819  1.0088  0.2294
 4712SOL     OW25771   1.640   2.899   5.743  0.0934 -0.2602  0.1436
 4712SOL    HW125772   1.552   2.900   5.779 -0.6561 -1.0658 -1.6469
 4712SOL    HW225773   1.666   2.990   5.753  0.9851 -0.2980 -1.6488
 4713SOL     OW25774   4.379   2.520  17.285 -0.2136 -0.3459 -0.0870
 4713SOL    HW125775   4.358   2.492  17.374  0.7306  1.8331  0.8109
 4713SOL    HW225776   4.471   2.547  17.294  0.2494 -1.5850 -1.0569
 4714SOL     OW25777   0.041   4.410   1.514 -1.1473 -0.8661  0.4737
 4714SOL    HW125778   4.739   4.399   1.431 -0.6944  1.8782 -0.1159
 4714SOL    HW225779   0.065   4.502   1.503  0.7611 -1.3618  0.3365
 4715SOL     OW25780   1.673   2.141   4.870  0.2679  0.0260  0.1178
 4715SOL    HW125781   1.584   2.173   4.885  0.7193  1.3869 -0.1591
 4715SOL    HW225782   1.674   2.147   4.775 -1.3062  1.0079  0.1649
 4716SOL     OW25783   0.478   4.034  15.270  0.2538  0.3346 -0.2162
 4716SOL    HW125784   0.536   3.960  15.287  1.3741  0.8082 -1.8539
 4716SOL    HW225785   0.417   3.993  15.210  0.1512  0.8885 -0.4936
 4717SOL     OW25786   4.047   3.276   6.267  0.8676  0.1257  0.0604
 4717SOL    HW125787   4.041   3.217   6.191  2.0326  0.5805 -0.3941
 4717SOL    HW225788   3.980   3.238   6.323  1.0655 -0.8714 -0.3709
 4718SOL     OW25789   1.661   0.327   7.596 -0.0302 -0.0244 -0.4486
 4718SOL    HW125790   1.750   0.322   7.559  0.3031 -0.5225  0.4480
 4718SOL    HW225791   1.683   0.341   7.688  3.1556 -0.5946 -1.0993
 4719SOL     OW25792   1.669   1.336  15.132 -0.4906 -0.0400 -0.4747
 4719SOL    HW125793   1.608   1.406  15.155 -1.1481 -0.9479  0.5239
 4719SOL    HW225794   1.619   1.255  15.148 -1.4867  0.3733 -1.4878
 4720SOL     OW25795   0.310   3.232   9.166  0.7572 -0.3167  0.1416
 4720SOL    HW125796   0.380   3.223   9.230  1.0898 -0.6343 -0.2720
 4720SOL    HW225797   0.243   3.267   9.225  0.1466  0.3334 -0.9257
 4721SOL     OW25798   4.058   1.404   0.825  0.2080  0.3095 -0.1837
 4721SOL    HW125799   3.986   1.461   0.797 -0.5024 -0.4713  0.0366
 4721SOL    HW225800   4.126   1.471   0.815 -2.5684  3.1423 -0.0957
 4722SOL     OW25801   3.177   1.969   5.566 -0.1010 -0.4683 -0.2747
 4722SOL    HW125802   3.156   1.876   5.579 -1.9861  0.1952  1.3191
 4722SOL    HW225803   3.269   1.954   5.544  0.1927  2.5732 -1.0750
 4723SOL     OW25804   4.688   3.900   3.201 -0.1856 -0.0575  0.7169
 4723SOL    HW125805   4.654   3.816   3.232  0.0646 -0.7114 -0.7761
 4723SOL    HW225806   4.613   3.955   3.226 -1.0782 -1.3859  0.9368
 4724SOL     OW25807   0.977   0.330   1.404  0.4583  0.4588  0.2903
 4724SOL    HW125808   1.056   0.277   1.407  0.2681  0.2435  1.6971
 4724SOL    HW225809   1.013   0.418   1.395  2.7184 -0.3399  1.6435
 4725SOL     OW25810   1.436   2.745   2.343 -0.1584  0.0999  0.0139
 4725SOL    HW125811   1.346   2.727   2.370 -0.6132  0.0662 -1.5150
 4725SOL    HW225812   1.433   2.840   2.350 -0.5903  0.0545  0.4581
 4726SOL     OW25813   1.453   4.222   6.473 -0.3932  0.7685 -0.3943
 4726SOL    HW125814   1.482   4.311   6.494  2.3076  0.2145 -1.8663
 4726SOL    HW225815   1.369   4.244   6.433 -0.0346  0.2089 -1.4453
 4727SOL     OW25816   3.778   3.681  17.122 -0.0798  0.2636 -0.3891
 4727SOL    HW125817   3.694   3.723  17.144 -0.0590 -0.3911  0.9456
 4727SOL    HW225818   3.748   3.591  17.129  1.0627 -0.0691  0.1370
 4728SOL     OW25819   2.418   4.360   3.922  0.0505 -0.4306  0.3414
 4728SOL    HW125820   2.373   4.289   3.967 -3.1630 -0.5026 -2.9700
 4728SOL    HW225821   2.371   4.436   3.958 -0.2280 -1.9497  3.1923
 4729SOL     OW25822   1.289   4.487   3.229 -0.4022  0.5040 -0.3535
 4729SOL    HW125823   1.251   4.573   3.211 -1.3778  0.3517  1.0021
 4729SOL    HW225824   1.294   4.508   3.322  3.1244  2.1384 -0.9034
 4730SOL     OW25825   0.254   4.080  17.507 -0.5008  0.1662  0.4698
 4730SOL    HW125826   0.245   4.175  17.503 -1.0835  0.1097  0.4003
 4730SOL    HW225827   0.164   4.048  17.509  0.2091 -1.8659 -0.0792
 4731SOL     OW25828   1.256   2.793   6.586  0.6841  0.3413  0.4479
 4731SOL    HW125829   1.330   2.741   6.555  0.5415 -0.6277  1.7211
 4731SOL    HW225830   1.194   2.720   6.593 -0.2974  1.0411 -1.0151
 4732SOL     OW25831   0.189   3.421   2.652  0.1118 -0.2505 -0.5661
 4732SOL    HW125832   0.195   3.515   2.633  1.5044 -0.1771  0.2395
 4732SOL    HW225833   0.226   3.422   2.740 -2.3392 -1.8682  0.4487
 4733SOL     OW25834   0.796   3.973   9.054 -0.4670 -0.2401 -0.4584
 4733SOL    HW125835   0.854   3.970   8.978 -0.1783 -3.0256 -0.1507
 4733SOL    HW225836   0.740   3.895   9.057 -1.8257  0.6930 -1.5725
 4734SOL     OW25837   4.673   4.274   3.462 -0.1802  0.3825  0.2915
 4734SOL    HW125838   4.626   4.343   3.414 -0.8091  0.0434  0.4281
 4734SOL    HW225839   4.605   4.242   3.520  0.5804 -1.6540  0.0662
 4735SOL     OW25840   0.152   1.134   3.091 -0.1837 -0.3662  0.1518
 4735SOL    HW125841   0.087   1.189   3.136  0.3590  2.6698 -2.8376
 4735SOL    HW225842   0.120   1.047   3.116  3.7823 -1.5716  1.1465
 4736SOL     OW25843   4.221   4.430   8.147 -0.0397 -0.2478 -0.1576
 4736SOL    HW125844   4.128   4.442   8.127  0.3159  0.3442 -1.4436
 4736SOL    HW225845   4.260   4.503   8.100 -1.5616  0.7568  0.1400
 4737SOL     OW25846   3.442   3.446   6.043 -1.1184 -0.5871 -0.3691
 4737SOL    HW125847   3.447   3.435   5.948 -1.0524  0.4580 -0.4842
 4737SOL    HW225848   3.352   3.411   6.045 -0.5965 -2.0530 -1.9958
 4738SOL     OW25849   2.604   1.441  11.095 -0.2628  0.0029 -0.1605
 4738SOL    HW125850   2.557   1.498  11.156  1.4311 -0.8283  1.9206
 4738SOL    HW225851   2.551   1.363  11.110  0.7124 -0.6717 -0.2144
 4739SOL     OW25852   1.870   4.479  14.107  0.1877  0.1005  0.0127
 4739SOL    HW125853   1.940   4.414  14.094  0.7726  1.0655 -1.6960
 4739SOL    HW225854   1.908   4.562  14.078 -0.4365  0.4351  0.1627
 4740SOL     OW25855   1.058   1.917   3.480 -0.5395  0.0565  0.1784
 4740SOL    HW125856   1.061   1.863   3.559  0.5270  1.2522  0.9474
 4740SOL    HW225857   1.124   1.866   3.433 -0.7153 -0.3422  0.3622
 4741SOL     OW25858   4.326   4.635   6.205  1.1144 -0.2744 -0.2868
 4741SOL    HW125859   4.377   4.594   6.136 -0.6243 -2.6267 -0.1587
 4741SOL    HW225860   4.399   4.673   6.254 -0.9149  4.0993 -0.5931
 4742SOL     OW25861   3.806   1.712  10.760  0.1046 -0.7944 -0.4437
 4742SOL    HW125862   3.830   1.707  10.668 -1.0366 -0.1780 -0.7730
 4742SOL    HW225863   3.873   1.657  10.800  0.1607 -0.7253 -0.4430
 4743SOL     OW25864   2.442   0.051  14.324  0.2338  0.1278  0.5703
 4743SOL    HW125865   2.514   0.041  14.262  0.5283  0.2170  0.8978
 4743SOL    HW225866   2.376   0.023  14.260 -0.7045 -0.7535  1.9483
 4744SOL     OW25867   1.625   2.963   6.373 -0.4532 -0.6737  0.1007
 4744SOL    HW125868   1.684   2.895   6.404 -2.9743 -3.0740 -0.3272
 4744SOL    HW225869   1.597   3.007   6.453  1.9611  0.0971  0.5270
 4745SOL     OW25870   2.640   2.583   4.419 -0.4525 -0.1693 -0.7700
 4745SOL    HW125871   2.691   2.573   4.339  0.4445 -1.5093 -0.0341
 4745SOL    HW225872   2.565   2.525   4.407 -1.1066  0.8537 -1.5445
 4746SOL     OW25873   2.315   1.224   5.978 -0.2403 -0.6831 -0.3993
 4746SOL    HW125874   2.263   1.293   6.019  1.2487  0.4395 -0.3901
 4746SOL    HW225875   2.257   1.197   5.907 -1.6391 -2.9152  1.6058
 4747SOL     OW25876   2.261   3.152   7.442  0.1192 -0.6996 -0.5561
 4747SOL    HW125877   2.226   3.079   7.494 -1.1040  0.1793 -0.1600
 4747SOL    HW225878   2.321   3.200   7.498 -0.9360  0.5789 -0.5266
 4748SOL     OW25879   3.534   1.361  16.509 -0.2989 -0.3743  0.1182
 4748SOL    HW125880   3.471   1.308  16.460  0.0482 -0.6097 -0.0753
 4748SOL    HW225881   3.616   1.317  16.484 -0.9997 -1.2901 -0.5728
 4749SOL     OW25882   3.709   1.113   2.818 -0.2183 -0.0712 -0.2249
 4749SOL    HW125883   3.768   1.185   2.795 -0.6434  0.2681 -0.2552
 4749SOL    HW225884   3.741   1.042   2.762  1.5262  2.4169 -2.4040
 4750SOL     OW25885   3.503   0.299   7.983 -0.1932 -0.7238  0.2350
 4750SOL    HW125886   3.511   0.352   8.062 -1.1570 -1.1027  0.5976
 4750SOL    HW225887   3.424   0.343   7.950 -0.3270  1.2879  3.2565
 4751SOL     OW25888   4.682   3.112   5.649 -0.5974 -0.3769  0.0556
 4751SOL    HW125889   4.658   3.189   5.701  0.9075  1.2340 -1.6494
 4751SOL    HW225890   4.598   3.066   5.653 -0.5489 -0.5693 -1.1579
 4752SOL     OW25891   3.040   3.635   6.003 -0.3942 -0.0975  0.1897
 4752SOL    HW125892   2.962   3.688   5.986  0.2502  0.0541 -2.2501
 4752SOL    HW225893   3.113   3.693   5.982  0.7177 -1.4094  0.3998
 4753SOL     OW25894   1.494   0.602  15.639  0.0374 -0.0596 -0.1220
 4753SOL    HW125895   1.538   0.586  15.555 -1.1742  0.9547 -0.9392
 4753SOL    HW225896   1.550   0.668  15.680  0.6546  0.4896 -1.8505
 4754SOL     OW25897   1.726   1.833   7.785 -0.5087 -0.9686 -0.3239
 4754SOL    HW125898   1.632   1.824   7.800  0.0632 -1.0860  3.1961
 4754SOL    HW225899   1.749   1.891   7.858 -0.7150  0.3799 -1.3305
 4755SOL     OW25900   0.378   0.285  16.167  0.3199 -0.3039  0.2008
 4755SOL    HW125901   0.347   0.196  16.179 -0.5211 -0.2333 -1.4541
 4755SOL    HW225902   0.318   0.337  16.220 -1.2829 -1.3171 -0.6370
 4756SOL     OW25903   0.542   1.352   0.601 -0.2547 -0.1692 -0.1502
 4756SOL    HW125904   0.492   1.367   0.681  0.8729 -2.3340  0.9594
 4756SOL    HW225905   0.539   1.257   0.592 -0.0824  0.0609 -2.6980
 4757SOL     OW25906   2.918   1.968   4.939 -0.3688  0.2731 -0.0764
 4757SOL    HW125907   2.839   1.931   4.899 -0.3742  0.5991 -0.3701
 4757SOL    HW225908   2.883   2.051   4.972 -0.6326 -0.1733  0.7588
 4758SOL     OW25909   3.945   2.430   5.845  0.0510 -0.1591  0.3639
 4758SOL    HW125910   3.893   2.427   5.925 -1.3958  1.2605 -0.5146
 4758SOL    HW225911   4.007   2.362   5.870  1.7982  1.0943 -0.5411
 4759SOL     OW25912   4.165   2.720   5.927  0.1234 -0.1449  0.4190
 4759SOL    HW125913   4.179   2.690   5.838  2.1658  1.0605  0.3421
 4759SOL    HW225914   4.155   2.637   5.974 -1.9110  1.2040  2.3440
 4760SOL     OW25915   2.711   1.741   5.938  0.5576  0.3251  0.3260
 4760SOL    HW125916   2.702   1.763   5.845 -0.1992 -3.1535 -0.4629
 4760SOL    HW225917   2.743   1.823   5.974  0.4670 -0.4910  2.2319
 4761SOL     OW25918   2.506   2.918   3.099 -0.4752  0.9470 -0.6473
 4761SOL    HW125919   2.489   2.932   3.006  0.6237  2.1281 -0.6689
 4761SOL    HW225920   2.527   3.006   3.129  0.7498  0.3008  0.4183
 4762SOL     OW25921   2.777   2.021   9.827 -0.2656 -0.4279 -0.0232
 4762SOL    HW125922   2.771   1.928   9.805 -0.4771 -0.1010 -1.3263
 4762SOL    HW225923   2.795   2.024   9.921  1.3796 -0.9125 -0.3248
 4763SOL     OW25924   2.637   2.031   8.456 -0.4463  0.1038 -0.8308
 4763SOL    HW125925   2.578   2.093   8.500  0.4666 -0.4282  1.1728
 4763SOL    HW225926   2.640   1.960   8.521  2.6543  0.7315 -0.3022
 4764SOL     OW25927   2.529   3.765  16.134  0.1219 -0.4905 -0.0706
 4764SOL    HW125928   2.477   3.788  16.057  1.5453  1.4533 -0.4344
 4764SOL    HW225929   2.543   3.672  16.116  2.3912 -0.1098 -0.2154
 4765SOL     OW25930   1.005   1.309  12.364 -0.5354 -0.6585  0.4564
 4765SOL    HW125931   1.096   1.335  12.359 -0.9981  0.7028 -0.9035
 4765SOL    HW225932   1.013   1.216  12.342  1.2434 -0.7130  1.3954
 4766SOL     OW25933   1.852   3.774   0.296  0.5021  0.2717 -0.0296
 4766SOL    HW125934   1.945   3.792   0.288  0.4991  0.4107  0.2528
 4766SOL    HW225935   1.812   3.846   0.248  0.6028  1.0661  1.0722
 4767SOL     OW25936   0.033   1.530   3.083  0.0961  0.0262 -0.1458
 4767SOL    HW125937   0.013   1.616   3.119  0.0074  0.8797 -2.2248
 4767SOL    HW225938   0.120   1.554   3.051  0.6607 -0.3044  1.1500
 4768SOL     OW25939   3.395   1.055   6.510 -0.0824 -0.3620 -0.6689
 4768SOL    HW125940   3.316   1.051   6.455 -0.2515  1.8388 -0.5969
 4768SOL    HW225941   3.362   1.048   6.600 -1.2324  0.9839 -0.9752
 4769SOL     OW25942   4.718   4.115   2.788  0.5138  0.0966  0.4763
 4769SOL    HW125943   4.663   4.098   2.712  0.2481 -2.4317  1.2522
 4769SOL    HW225944   4.659   4.101   2.862  0.0295  1.6709  0.4005
 4770SOL     OW25945   4.323   1.185  17.100  0.0621  0.2306 -0.0890
 4770SOL    HW125946   4.263   1.118  17.067  1.7872 -0.3498 -1.9943
 4770SOL    HW225947   4.276   1.218  17.177 -1.8802 -0.3731 -1.0041
 4771SOL     OW25948   1.627   2.742   9.268  0.0794  0.2390 -0.0329
 4771SOL    HW125949   1.706   2.796   9.264  1.8862 -2.5201 -1.9421
 4771SOL    HW225950   1.647   2.698   9.351  0.1646  0.5169  0.0951
 4772SOL     OW25951   2.363   2.130   9.092 -0.6944  0.3796 -0.1665
 4772SOL    HW125952   2.287   2.180   9.123  0.3768  1.8412  0.1158
 4772SOL    HW225953   2.427   2.199   9.108  0.1190 -0.9154  2.1553
 4773SOL     OW25954   4.427   2.431   9.242 -0.3206  0.0196  0.1852
 4773SOL    HW125955   4.505   2.448   9.189  1.0028  0.6411  2.3412
 4773SOL    HW225956   4.363   2.452   9.174  0.2411 -0.7356 -0.5805
 4774SOL     OW25957   0.961   2.382   2.690 -0.4003 -0.1837 -0.5014
 4774SOL    HW125958   0.972   2.422   2.777  1.1557 -0.3889 -0.5929
 4774SOL    HW225959   1.014   2.443   2.639  1.0005 -2.7816 -2.1364
 4775SOL     OW25960   1.223   1.059   8.926  0.2146  0.0103  0.4064
 4775SOL    HW125961   1.192   1.057   9.017  2.3750 -0.3331  1.1191
 4775SOL    HW225962   1.210   1.152   8.905 -2.3879 -0.7496 -1.4023
 4776SOL     OW25963   0.701   3.842   2.980 -0.4225  0.0401 -0.1195
 4776SOL    HW125964   0.779   3.837   3.036 -0.8840 -2.1165  0.3163
 4776SOL    HW225965   0.701   3.932   2.948  0.5742 -0.2037 -0.8352
 4777SOL     OW25966   2.210   2.655  12.386 -0.4103 -0.2664 -0.0602
 4777SOL    HW125967   2.196   2.734  12.333  1.1932 -0.0436 -0.1447
 4777SOL    HW225968   2.256   2.605  12.319  1.7985 -0.2551  1.4492
 4778SOL     OW25969   0.449   2.478  16.852  0.6596 -0.6172  0.0412
 4778SOL    HW125970   0.404   2.434  16.924 -1.0897 -1.1653 -1.3769
 4778SOL    HW225971   0.392   2.554  16.841  0.9499 -0.5010 -0.6531
 4779SOL     OW25972   1.826   4.644   7.752  0.6384 -0.3473  0.8219
 4779SOL    HW125973   1.731   4.629   7.757  0.2432  1.6119 -0.6270
 4779SOL    HW225974   1.820   4.711   7.820 -0.4351  0.2848  0.1123
 4780SOL     OW25975   1.531   2.231   0.630  0.5862 -0.1715 -0.1627
 4780SOL    HW125976   1.488   2.315   0.640  0.1131 -0.4509  0.1360
 4780SOL    HW225977   1.478   2.187   0.564 -1.7139  0.4897  1.2615
 4781SOL     OW25978   2.563   3.551  13.445  0.6063  0.0895  0.1304
 4781SOL    HW125979   2.489   3.605  13.471  0.8117  1.1976 -1.5622
 4781SOL    HW225980   2.600   3.536  13.532 -0.1069  0.0846  0.4323
 4782SOL     OW25981   4.534   1.555   8.343  0.3347 -0.4667  0.2164
 4782SOL    HW125982   4.532   1.460   8.352  0.0840 -0.3368  1.5583
 4782SOL    HW225983   4.571   1.574   8.430 -0.2544  0.9255  0.1586
 4783SOL     OW25984   2.849   4.162  17.644  0.4432  0.1099 -0.3232
 4783SOL    HW125985   2.940   4.186  17.657  0.0874  0.5592  1.3154
 4783SOL    HW225986   2.835   4.089  17.705  1.5165  0.2115  0.0456
 4784SOL     OW25987   3.412   2.701   9.680 -0.4795  0.4509 -0.2869
 4784SOL    HW125988   3.395   2.684   9.587  0.4327  0.5522 -0.4724
 4784SOL    HW225989   3.491   2.648   9.689 -0.5925 -0.0357 -2.1181
 4785SOL     OW25990   3.347   3.962   6.360 -0.4326  0.4854  0.2857
 4785SOL    HW125991   3.401   4.041   6.348 -2.4316  2.0703  1.7338
 4785SOL    HW225992   3.261   3.981   6.322  0.2227  2.5358 -0.2035
 4786SOL     OW25993   0.419   2.418   6.558 -0.1039 -0.2978  0.1102
 4786SOL    HW125994   0.499   2.402   6.508 -0.0474 -1.6099  0.6260
 4786SOL    HW225995   0.382   2.486   6.502  1.5240  0.5528  0.0629
 4787SOL     OW25996   3.719   3.896   1.307 -0.1178 -0.4338 -0.0863
 4787SOL    HW125997   3.642   3.929   1.353 -1.2150 -0.1416 -2.1660
 4787SOL    HW225998   3.778   3.861   1.374  1.1224  0.1172 -0.8911
 4788SOL     OW25999   3.046   3.611   3.041 -0.0979  0.2666 -0.4100
 4788SOL    HW126000   3.047   3.685   3.102 -0.3237  0.9957 -1.2938
 4788SOL    HW226001   3.115   3.558   3.082  0.1343  1.5582  0.8944
 4789SOL     OW26002   2.922   2.211   5.801 -0.1301  0.0848  0.0467
 4789SOL    HW126003   3.013   2.209   5.769 -0.3391  1.3991 -0.6207
 4789SOL    HW226004   2.899   2.121   5.780  0.2252 -0.3335  1.4237
 4790SOL     OW26005   4.250   3.111   4.123  0.0156  0.1463 -0.0445
 4790SOL    HW126006   4.248   3.079   4.033  1.7160 -1.4004  0.4667
 4790SOL    HW226007   4.246   3.206   4.109 -2.0685 -0.0661 -0.8624
 4791SOL     OW26008   3.016   3.717   1.668 -0.1154  0.3738 -0.5800
 4791SOL    HW126009   2.951   3.647   1.659  0.5080 -0.0559 -1.7428
 4791SOL    HW226010   3.100   3.678   1.645 -0.3235 -1.2438  1.4278
 4792SOL     OW26011   4.250   3.803   8.650  0.2222  0.0971  0.9048
 4792SOL    HW126012   4.220   3.826   8.738 -0.1261 -0.6642  0.9834
 4792SOL    HW226013   4.230   3.885   8.604 -0.7225  0.1423  1.3915
 4793SOL     OW26014   0.318   1.523  14.713 -0.0825  0.2007 -0.4346
 4793SOL    HW126015   0.233   1.541  14.754  0.5462 -1.0330  1.4397
 4793SOL    HW226016   0.342   1.437  14.750 -0.4108  1.0386  1.7582
 4794SOL     OW26017   1.802   4.501   5.077 -0.5607 -0.0862 -0.1486
 4794SOL    HW126018   1.780   4.417   5.119  0.1319 -1.4565 -2.5233
 4794SOL    HW226019   1.892   4.485   5.049 -1.0307  1.2969 -2.3503
 4795SOL     OW26020   3.387   4.088   5.160  0.4258  0.3526 -0.1789
 4795SOL    HW126021   3.431   4.172   5.149  0.8573 -0.0863 -1.8112
 4795SOL    HW226022   3.428   4.040   5.088  0.8141  0.6278 -0.1409
 4796SOL     OW26023   1.397   4.365   7.660 -0.3479 -0.0297  0.0363
 4796SOL    HW126024   1.375   4.272   7.674  0.0100  0.0405  1.0767
 4796SOL    HW226025   1.359   4.380   7.574  1.5153 -0.1577 -0.8067
 4797SOL     OW26026   2.097   1.349   2.686  0.0966 -0.0834 -0.1209
 4797SOL    HW126027   2.164   1.343   2.753  1.3006  0.3338 -1.2825
 4797SOL    HW226028   2.123   1.272   2.637 -0.2117 -0.7487  0.7652
 4798SOL     OW26029   3.995   0.242   1.595  0.6041  0.4541 -0.0277
 4798SOL    HW126030   3.908   0.215   1.566 -1.2404  0.9379  4.9469
 4798SOL    HW226031   4.056   0.227   1.523  3.0197  1.7673  1.7246
 4799SOL     OW26032   3.989   0.535   4.136  0.6688  0.4971 -0.0556
 4799SOL    HW126033   3.949   0.584   4.064  1.3347  2.9708  1.2432
 4799SOL    HW226034   4.078   0.540   4.102  0.5340 -1.3758 -0.6430
 4800SOL     OW26035   1.574   1.822  12.998  0.2360 -0.0616 -0.0945
 4800SOL    HW126036   1.539   1.888  12.937  0.9414 -0.1361 -0.5805
 4800SOL    HW226037   1.576   1.879  13.075 -0.2192  0.1335 -0.2218
 4801SOL     OW26038   4.675   0.889   4.980  1.0195  0.3694 -0.0058
 4801SOL    HW126039   4.652   0.980   5.000  0.8583  0.1321  0.8581
 4801SOL    HW226040   4.600   0.845   5.020 -0.2542  0.9363 -1.7473
 4802SOL     OW26041   1.543   3.444   2.289  0.4847  0.1066  0.2462
 4802SOL    HW126042   1.497   3.528   2.291 -0.4769 -0.4463  1.2646
 4802SOL    HW226043   1.634   3.462   2.311  0.4380 -0.3662  0.8311
 4803SOL     OW26044   0.841   1.191   3.900  0.3091  0.0804 -0.3555
 4803SOL    HW126045   0.927   1.208   3.939  0.0811 -1.2583  0.7405
 4803SOL    HW226046   0.844   1.244   3.821  0.9256 -0.4475 -0.6878
 4804SOL     OW26047   0.530   2.328   9.347  0.4612 -0.4050 -0.2336
 4804SOL    HW126048   0.571   2.252   9.387  0.8082 -0.2223 -0.2413
 4804SOL    HW226049   0.598   2.394   9.360  0.0037 -0.1282  0.8413
 4805SOL     OW26050   3.634   3.394  13.660  0.4091  0.7636 -0.3513
 4805SOL    HW126051   3.635   3.470  13.603 -1.5326  1.8241  0.9905
 4805SOL    HW226052   3.641   3.440  13.744  1.8753 -2.4976  1.3319
 4806SOL     OW26053   0.025   1.417   0.754 -0.0053  0.0145 -0.5398
 4806SOL    HW126054   0.086   1.489   0.739  1.1786 -1.3031 -1.9718
 4806SOL    HW226055   0.080   1.340   0.745 -0.6858 -0.1826 -3.1720
 4807SOL     OW26056   2.140   3.602   5.538  0.3143  0.4275  0.4056
 4807SOL    HW126057   2.047   3.619   5.550 -0.0213 -0.4969 -1.0099
 4807SOL    HW226058   2.153   3.612   5.444  2.1551 -2.5256  0.3591
 4808SOL     OW26059   4.587   4.724   2.232 -0.4564 -0.4742 -0.1502
 4808SOL    HW126060   4.663   0.009   2.282 -0.2055  0.0987 -0.8509
 4808SOL    HW226061   4.552   4.656   2.291 -0.9602  2.4600  2.9313
 4809SOL     OW26062   2.848   3.333   6.662 -0.4458  0.4975 -0.8875
 4809SOL    HW126063   2.909   3.330   6.588 -0.9092  0.3519 -1.2675
 4809SOL    HW226064   2.788   3.405   6.641 -1.9412 -0.2967  0.6360
 4810SOL     OW26065   2.738   1.677  14.030 -0.6599  0.1974  0.3036
 4810SOL    HW126066   2.671   1.658  14.096  1.0201 -0.7912  1.7312
 4810SOL    HW226067   2.794   1.736  14.081  0.9904 -0.6403 -0.5368
 4811SOL     OW26068   3.223   0.378   8.923  0.0597  0.3205 -0.5638
 4811SOL    HW126069   3.221   0.299   8.976 -0.0391  0.7994  0.1559
 4811SOL    HW226070   3.241   0.446   8.988 -2.5374  0.9014 -0.4214
 4812SOL     OW26071   0.360   1.074   5.845  0.1646 -0.1427  0.1742
 4812SOL    HW126072   0.412   1.062   5.765 -0.2828  1.4049 -0.3350
 4812SOL    HW226073   0.368   1.169   5.851  1.9049 -0.1720 -1.7685
 4813SOL     OW26074   0.293   3.929   7.962  0.5042 -0.1209  0.4081
 4813SOL    HW126075   0.249   3.882   8.032 -0.1456 -1.3975 -0.8638
 4813SOL    HW226076   0.249   3.889   7.886  2.4677 -0.4467 -0.5663
 4814SOL     OW26077   2.254   0.007  17.247 -0.3403  0.0102 -0.0202
 4814SOL    HW126078   2.230   0.000  17.154  1.5761  0.7791 -0.5681
 4814SOL    HW226079   2.250   0.102  17.260 -0.7161  0.1728 -1.2852
 4815SOL     OW26080   1.667   2.984   0.709 -0.7472 -0.0809 -0.0321
 4815SOL    HW126081   1.587   2.941   0.679 -1.1745 -0.4391  1.6336
 4815SOL    HW226082   1.641   3.075   0.692 -0.1705  0.1679  0.4235
 4816SOL     OW26083   3.507   0.869   8.632  0.0550  0.0328 -0.2357
 4816SOL    HW126084   3.571   0.851   8.563  0.8145  0.1791  0.4279
 4816SOL    HW226085   3.511   0.784   8.676  0.4060  0.5735  0.7772
 4817SOL     OW26086   2.996   3.045  17.683 -0.2146  0.3144  0.1305
 4817SOL    HW126087   3.013   2.987  17.757 -1.2366 -1.2999 -0.9055
 4817SOL    HW226088   3.084   3.039  17.646 -0.3125 -0.1735 -0.0295
 4818SOL     OW26089   2.848   1.884   8.106  0.2595 -0.1460 -0.4727
 4818SOL    HW126090   2.875   1.972   8.132 -2.3070  0.3679  0.4482
 4818SOL    HW226091   2.859   1.897   8.012 -1.7679  1.1044 -0.5163
 4819SOL     OW26092   1.733   2.776   2.744  0.3598 -0.1373  0.9774
 4819SOL    HW126093   1.817   2.811   2.715 -0.9778  1.5144 -0.8768
 4819SOL    HW226094   1.706   2.743   2.659  1.2872  1.1523  0.1882
 4820SOL     OW26095   0.635   3.324   8.881 -0.0741 -0.9774  0.3859
 4820SOL    HW126096   0.639   3.285   8.968  1.1112 -1.0409  0.3062
 4820SOL    HW226097   0.728   3.321   8.856 -0.1749 -0.3823 -0.0560
 4821SOL     OW26098   2.672   1.299   4.071  0.5714  0.4423  0.9984
 4821SOL    HW126099   2.729   1.222   4.079  1.7209  1.2599  0.5272
 4821SOL    HW226100   2.657   1.314   4.164  0.9616  2.8350  0.6757
 4822SOL     OW26101   3.638   3.875   9.031  0.4531 -0.2351 -0.3361
 4822SOL    HW126102   3.726   3.862   8.995  0.4351 -1.0991 -0.0827
 4822SOL    HW226103   3.605   3.791   8.999  0.1345  0.4385 -1.7644
 4823SOL     OW26104   4.102   2.779   2.849 -0.1207 -0.5832 -0.1167
 4823SOL    HW126105   4.035   2.712   2.838 -2.3084  1.6088 -0.2718
 4823SOL    HW226106   4.106   2.828   2.767 -2.9929  1.5787  0.9903
 4824SOL     OW26107   0.625   1.358   5.715  0.4475 -0.1718 -0.6397
 4824SOL    HW126108   0.652   1.343   5.805 -2.2923  3.0770  0.7086
 4824SOL    HW226109   0.699   1.318   5.669 -1.4288 -2.1816 -1.9434
 4825SOL     OW26110   0.132   3.956  14.771 -0.0288  0.2106  0.3089
 4825SOL    HW126111   0.158   3.937  14.681 -0.6898  1.3963 -0.1210
 4825SOL    HW226112   0.110   4.048  14.756 -2.3052 -0.3903 -0.0042
 4826SOL     OW26113   3.301   2.237   7.108  0.6256 -0.1269 -0.2213
 4826SOL    HW126114   3.321   2.144   7.119  2.7712  0.5019  1.2223
 4826SOL    HW226115   3.309   2.260   7.016  1.4086  0.1793 -0.0800
 4827SOL     OW26116   2.390   1.550   2.524 -0.6907 -0.5175 -0.1996
 4827SOL    HW126117   2.308   1.598   2.532 -0.9738 -1.4071  2.2630
 4827SOL    HW226118   2.365   1.479   2.465  0.9650 -0.4705 -0.9483
 4828SOL     OW26119   3.907   3.619   7.566  0.2749  0.4819  0.1949
 4828SOL    HW126120   3.979   3.673   7.534 -0.8550  0.3880 -2.5151
 4828SOL    HW226121   3.875   3.588   7.482  1.4826  0.3322 -0.2104
 4829SOL     OW26122   0.127   2.672   9.538  0.4501 -0.4108 -0.4604
 4829SOL    HW126123   0.085   2.664   9.624  3.4165  1.8466  1.1838
 4829SOL    HW226124   0.129   2.585   9.499 -2.4828  0.4233 -2.4575
 4830SOL     OW26125   0.444   4.522   5.300  0.7102  0.5525 -0.1624
 4830SOL    HW126126   0.432   4.550   5.209  2.0265  0.9479 -0.2193
 4830SOL    HW226127   0.523   4.468   5.305  0.1793 -0.3269 -1.1880
 4831SOL     OW26128   4.317   0.274  16.835  0.4540  0.4449 -0.5456
 4831SOL    HW126129   4.285   0.326  16.908 -1.4223  1.6317 -2.2286
 4831SOL    HW226130   4.312   0.181  16.857 -0.5170  0.5224 -0.4644
 4832SOL     OW26131   3.966   2.791   7.579 -0.0961 -0.1263 -0.2671
 4832SOL    HW126132   4.016   2.751   7.508 -1.4451  1.1952 -1.9748
 4832SOL    HW226133   4.002   2.880   7.579 -0.4310  0.0130 -2.2558
 4833SOL     OW26134   2.696   2.699   2.316 -0.1427  0.4850 -0.0371
 4833SOL    HW126135   2.611   2.679   2.356  1.0700 -1.1030  1.7599
 4833SOL    HW226136   2.675   2.731   2.228 -1.8818 -3.9912 -1.2970
 4834SOL     OW26137   3.528   0.983   4.481 -0.0713  0.3292  0.1601
 4834SOL    HW126138   3.508   0.889   4.475  0.7020  0.1912 -0.3434
 4834SOL    HW226139   3.527   0.990   4.576 -1.0683 -0.3851  0.2062
 4835SOL     OW26140   3.484   2.225  15.515  0.2630 -0.3290  0.0663
 4835SOL    HW126141   3.552   2.185  15.461  1.8676 -0.2781  2.0400
 4835SOL    HW226142   3.422   2.152  15.518  2.2243 -2.0319 -1.2106
 4836SOL     OW26143   0.872   0.303   4.745  0.7330  0.1737 -0.3578
 4836SOL    HW126144   0.805   0.342   4.689  1.1485  1.0078 -0.2766
 4836SOL    HW226145   0.811   0.260   4.805  0.7336  0.6278 -0.0334
 4837SOL     OW26146   1.152   1.122   7.296  0.1694  0.6550  0.0096
 4837SOL    HW126147   1.247   1.113   7.289  0.1861  0.4818  0.4569
 4837SOL    HW226148   1.126   1.037   7.260  0.9456  0.5628 -0.3357
 4838SOL     OW26149   2.795   1.311   4.585  0.1096  0.6025 -0.1229
 4838SOL    HW126150   2.797   1.304   4.680 -1.6287  0.9692 -0.0462
 4838SOL    HW226151   2.839   1.396   4.572 -0.4009  0.9192  0.2217
 4839SOL     OW26152   2.795   2.922  17.172  0.6042 -0.6375  0.0323
 4839SOL    HW126153   2.766   3.013  17.172 -0.5128 -0.9944 -0.9925
 4839SOL    HW226154   2.749   2.882  17.245 -1.7641  0.0162 -1.1305
 4840SOL     OW26155   0.065   2.299   5.277  0.6436  0.0972  0.3992
 4840SOL    HW126156   0.039   2.221   5.227  0.2422 -0.0954  0.9192
 4840SOL    HW226157   4.723   2.310   5.319  0.9249 -1.2553  1.3049
 4841SOL     OW26158   1.088   1.301   2.545 -0.3585  0.0355  0.0743
 4841SOL    HW126159   1.132   1.250   2.477 -1.3600 -1.0171  0.2234
 4841SOL    HW226160   1.167   1.329   2.590  0.6887  0.4382 -1.9819
 4842SOL     OW26161   3.625   0.540   8.760  0.1916  0.0676  0.0780
 4842SOL    HW126162   3.638   0.486   8.839  0.2490 -1.2696 -0.8488
 4842SOL    HW226163   3.541   0.576   8.785  0.0639  0.5954 -1.1445
 4843SOL     OW26164   4.066   0.704  10.361 -0.0167  0.2686 -0.1634
 4843SOL    HW126165   3.996   0.767  10.379  0.8311  0.5617  2.2338
 4843SOL    HW226166   4.143   0.761  10.369  1.1360 -1.2317 -0.6655
 4844SOL     OW26167   2.712   3.676  15.064 -0.0929 -0.2514 -0.3451
 4844SOL    HW126168   2.758   3.624  15.130 -0.5307 -0.4894 -0.2294
 4844SOL    HW226169   2.658   3.611  15.019 -0.2717  0.4535 -1.1604
 4845SOL     OW26170   3.900   4.694  12.085 -0.0449 -0.2411 -0.9669
 4845SOL    HW126171   3.909   0.007  12.162 -2.5561  0.7772 -1.4004
 4845SOL    HW226172   3.940   4.612  12.115 -1.8903 -1.4508 -1.7339
 4846SOL     OW26173   2.044   4.340   6.318  0.5765  0.0859 -0.0817
 4846SOL    HW126174   2.060   4.247   6.304 -0.6133 -0.4897  2.3526
 4846SOL    HW226175   2.135   4.366   6.334  0.5799 -0.8850  1.5126
 4847SOL     OW26176   1.061   3.800  17.695 -0.2320  0.5434 -0.1480
 4847SOL    HW126177   1.013   3.883  17.694 -1.1778 -0.0075  0.1350
 4847SOL    HW226178   1.127   3.810  17.627  1.1449 -0.1851  1.0866
 4848SOL     OW26179   4.626   2.401   3.426  0.3346  0.1011  0.5543
 4848SOL    HW126180   4.656   2.311   3.416 -1.8572 -0.4879 -0.6917
 4848SOL    HW226181   4.592   2.426   3.340  0.8223  0.2227  0.3964
 4849SOL     OW26182   2.362   1.930   7.293  0.2482 -0.2916 -0.5153
 4849SOL    HW126183   2.399   1.851   7.332  0.4792 -0.4732 -1.1102
 4849SOL    HW226184   2.314   1.888   7.223 -0.6932 -1.1453  0.6450
 4850SOL     OW26185   1.123   2.161  12.252  0.0845  0.0676  0.1163
 4850SOL    HW126186   1.145   2.201  12.336 -1.1004 -0.5941  0.7336
 4850SOL    HW226187   1.077   2.081  12.277  4.2514 -1.5534  2.5722
 4851SOL     OW26188   3.173   2.635   3.666  1.0575  0.4466 -0.7052
 4851SOL    HW126189   3.163   2.714   3.613 -0.6946 -0.4465 -1.7005
 4851SOL    HW226190   3.175   2.564   3.602 -0.2418  0.3580 -0.6550
 4852SOL     OW26191   0.521   1.669  17.352  0.3431 -0.3513 -0.2632
 4852SOL    HW126192   0.575   1.713  17.286  0.9257  0.2551  0.6203
 4852SOL    HW226193   0.541   1.726  17.426  0.8961  0.8888 -1.3696
 4853SOL     OW26194   3.058   2.064   9.920 -0.2620  0.0357  0.1663
 4853SOL    HW126195   2.995   2.036   9.986 -0.0287  0.6132  0.6399
 4853SOL    HW226196   3.008   2.129   9.871 -2.2583  0.3812  2.6720
 4854SOL     OW26197   1.873   2.765  12.462  0.2712  0.3514 -0.5253
 4854SOL    HW126198   1.954   2.717  12.444  0.9463  1.6435 -0.9697
 4854SOL    HW226199   1.815   2.727  12.396 -0.0327 -0.8075  0.4109
 4855SOL     OW26200   3.291   2.428   5.561 -0.3684  0.5779 -0.2507
 4855SOL    HW126201   3.262   2.453   5.473  1.5912 -1.1872 -1.3818
 4855SOL    HW226202   3.239   2.348   5.575 -1.4453  1.1730 -0.9059
 4856SOL     OW26203   2.929   2.186  11.909  0.0042 -0.1619 -0.1186
 4856SOL    HW126204   2.877   2.264  11.889  2.7607  1.7768  0.1370
 4856SOL    HW226205   2.965   2.206  11.996 -3.7237  1.4547  1.0365
 4857SOL     OW26206   3.833   0.252  16.739  0.0201  0.4583  0.1904
 4857SOL    HW126207   3.835   0.347  16.731 -0.0714  0.4321 -0.1742
 4857SOL    HW226208   3.739   0.240  16.729 -0.1041  1.5985 -0.0017
 4858SOL     OW26209   3.191   2.169   2.324 -0.6474  0.4944  0.2560
 4858SOL    HW126210   3.194   2.159   2.420 -4.3243  2.3069  0.5302
 4858SOL    HW226211   3.258   2.103   2.308  0.5680  1.4677  1.2228
 4859SOL     OW26212   2.012   3.204  16.441 -0.1980  0.2452 -0.1202
 4859SOL    HW126213   1.976   3.116  16.428  2.2558 -0.4609 -2.0926
 4859SOL    HW226214   2.046   3.212  16.352  1.7684  0.5999  0.6786
 4860SOL     OW26215   1.989   4.354   6.713  0.2346  0.5866  0.4410
 4860SOL    HW126216   2.081   4.358   6.689  0.3208  1.4661  0.9395
 4860SOL    HW226217   1.963   4.287   6.649  0.9985  0.8071 -0.0896
 4861SOL     OW26218   1.991   1.736   8.974 -0.0804  0.7799  0.4959
 4861SOL    HW126219   2.068   1.764   9.023 -0.0936  0.9200  0.4355
 4861SOL    HW226220   2.023   1.658   8.928 -1.0691 -0.5453  2.0515
 4862SOL     OW26221   0.118   1.840   8.683 -0.2282 -0.4508  0.0720
 4862SOL    HW126222   0.108   1.828   8.777 -0.1173 -0.1071  0.1288
 4862SOL    HW226223   0.158   1.925   8.666  0.4540 -0.7429  0.1765
 4863SOL     OW26224   0.042   2.717   2.993 -0.3019 -0.0916  0.1793
 4863SOL    HW126225   0.095   2.724   2.914  2.4747 -2.0963  1.8118
 4863SOL    HW226226   4.727   2.791   2.976 -0.0989  0.1659  0.5951
 4864SOL     OW26227   3.466   0.002   4.154  0.1114  0.2691  0.6302
 4864SOL    HW126228   3.545   4.725   4.204 -0.6463 -2.2410  0.8360
 4864SOL    HW226229   3.498   4.697   4.077  1.0367 -0.2355  1.3223
 4865SOL     OW26230   0.917   2.525   5.330  0.0811  0.1278  0.4859
 4865SOL    HW126231   0.947   2.598   5.276 -0.2836 -0.8248 -1.0080
 4865SOL    HW226232   0.847   2.564   5.382  1.4065  2.4360  0.5391
 4866SOL     OW26233   0.304   3.033   7.706 -0.1156  0.3428 -0.0899
 4866SOL    HW126234   0.308   3.116   7.753 -0.6779  0.8936 -1.0186
 4866SOL    HW226235   0.395   3.031   7.674 -0.0072  0.0173  0.2366
 4867SOL     OW26236   4.270   3.794   1.455  0.3380  0.1129 -0.1112
 4867SOL    HW126237   4.284   3.888   1.471  0.4907  0.0231  0.2806
 4867SOL    HW226238   4.304   3.792   1.366  1.1251 -1.4673  0.2382
 4868SOL     OW26239   0.353   2.643   8.879 -1.0035 -0.2631  0.2302
 4868SOL    HW126240   0.416   2.672   8.944 -0.9229  0.9715 -0.3919
 4868SOL    HW226241   0.404   2.625   8.800 -1.1711  2.3753 -0.5197
 4869SOL     OW26242   2.279   4.600   3.434  0.0394 -0.1508 -0.3483
 4869SOL    HW126243   2.330   4.577   3.511  2.0754 -1.0071 -1.9390
 4869SOL    HW226244   2.241   4.516   3.409  0.0282 -0.0933 -0.5279
 4870SOL     OW26245   1.856   2.141  12.660 -0.9966  0.4417  0.9078
 4870SOL    HW126246   1.778   2.148  12.716 -1.9472 -1.0918 -0.2234
 4870SOL    HW226247   1.921   2.117  12.725 -2.5955 -0.3994  2.1999
 4871SOL     OW26248   2.400   4.431  14.788 -0.0760 -0.4033  0.4074
 4871SOL    HW126249   2.435   4.403  14.703  0.2522  0.5086  0.2428
 4871SOL    HW226250   2.442   4.515  14.807  1.5717 -0.3456 -3.5300
 4872SOL     OW26251   0.971   2.027   6.044 -0.4732 -0.8446 -0.4601
 4872SOL    HW126252   0.876   2.038   6.054 -0.2829 -1.2529  1.8527
 4872SOL    HW226253   0.982   2.040   5.950  0.4828  0.0594 -0.2234
 4873SOL     OW26254   2.212   2.982  17.196 -0.6075 -0.2332  0.4917
 4873SOL    HW126255   2.235   2.971  17.104 -0.8075  0.7646  0.3222
 4873SOL    HW226256   2.294   2.996  17.242  1.1865  0.5584 -2.9877
 4874SOL     OW26257   0.992   4.570   6.917  0.4147 -0.3213  0.2973
 4874SOL    HW126258   1.016   4.660   6.939 -1.2208  0.6318 -1.8105
 4874SOL    HW226259   1.062   4.543   6.857  2.2634  3.7000  0.6220
 4875SOL     OW26260   0.979   0.640   2.615  0.4089 -0.0011 -0.1755
 4875SOL    HW126261   0.939   0.726   2.627  1.7604  0.3456  1.8303
 4875SOL    HW226262   1.058   0.672   2.570 -0.1384  3.0639  1.0795
 4876SOL     OW26263   2.537   3.509   5.066  0.1713  0.2289 -0.0950
 4876SOL    HW126264   2.523   3.489   5.158 -0.3841 -0.2668 -0.2876
 4876SOL    HW226265   2.584   3.430   5.038 -2.0782 -0.6218 -1.4494
 4877SOL     OW26266   0.971   0.271  16.916 -0.0349  0.6468 -0.6979
 4877SOL    HW126267   0.927   0.230  16.842 -0.4123  1.2279 -0.8019
 4877SOL    HW226268   0.903   0.328  16.954  0.2321  0.9685 -0.7014
 4878SOL     OW26269   3.465   1.638   3.365  0.4201  0.0619  0.1262
 4878SOL    HW126270   3.406   1.598   3.429 -0.0209  0.9962  0.3052
 4878SOL    HW226271   3.488   1.563   3.309 -0.6861 -0.0500 -0.1853
 4879SOL     OW26272   4.320   2.960   7.352  0.1842  0.0027  0.6699
 4879SOL    HW126273   4.279   2.961   7.265  0.8792 -0.0842  0.3393
 4879SOL    HW226274   4.377   2.884   7.341  0.1528  0.0876 -0.1097
 4880SOL     OW26275   1.933   4.137   8.044  0.0968 -0.5767 -0.1300
 4880SOL    HW126276   1.854   4.147   7.991 -1.3663  0.0604  2.1401
 4880SOL    HW226277   1.965   4.057   8.004 -0.0186 -0.5824 -0.2114
 4881SOL     OW26278   2.242   1.470   5.166 -0.3522 -0.0226 -0.4088
 4881SOL    HW126279   2.214   1.510   5.248  2.0992  0.5784  0.1260
 4881SOL    HW226280   2.157   1.467   5.122 -1.9611  3.8425  2.4039
 4882SOL     OW26281   4.181   2.242   3.935 -0.8621 -0.6799 -0.0119
 4882SOL    HW126282   4.117   2.179   3.968 -0.2122 -0.8800  0.8623
 4882SOL    HW226283   4.129   2.321   3.920  1.6611  1.2258  1.3811
 4883SOL     OW26284   1.362   0.095   4.521 -0.2309  0.1523 -0.3085
 4883SOL    HW126285   1.270   0.081   4.501 -0.4715 -0.6584  1.4279
 4883SOL    HW226286   1.389   0.102   4.429  0.7308 -0.2099 -0.0522
 4884SOL     OW26287   0.193   0.796   1.062  0.6359  0.0452 -0.0244
 4884SOL    HW126288   0.263   0.853   1.093  1.0476 -0.2400 -0.4139
 4884SOL    HW226289   0.210   0.722   1.120  1.1412  0.9803  1.0040
 4885SOL     OW26290   1.411   0.833   4.901 -0.0657 -0.1544 -0.0115
 4885SOL    HW126291   1.453   0.854   4.818 -0.7946 -0.4952 -0.4638
 4885SOL    HW226292   1.331   0.791   4.872  0.9437  0.0547 -3.0703
 4886SOL     OW26293   1.194   0.247   6.315  0.2779 -0.1876 -0.2358
 4886SOL    HW126294   1.161   0.260   6.404 -0.9954 -1.4942 -0.5017
 4886SOL    HW226295   1.138   0.179   6.277  2.5124 -1.5918 -1.0459
 4887SOL     OW26296   1.894   1.984   2.106  1.4162  0.2543  0.0005
 4887SOL    HW126297   1.801   2.001   2.094  1.1732 -0.7587  0.4678
 4887SOL    HW226298   1.932   2.057   2.155 -0.4276  0.0710  1.6811
 4888SOL     OW26299   3.612   1.196  11.549  0.3428 -0.2697 -0.4781
 4888SOL    HW126300   3.626   1.139  11.624 -2.9161 -0.5146 -0.0387
 4888SOL    HW226301   3.676   1.264  11.568  1.4003 -1.5491  0.5154
 4889SOL     OW26302   0.283   1.836   3.626 -0.0535  0.8909 -0.0098
 4889SOL    HW126303   0.324   1.909   3.671 -1.7279  0.7407  1.7615
 4889SOL    HW226304   0.334   1.833   3.545 -1.5030  1.0161 -0.9356
 4890SOL     OW26305   1.269   2.345  12.743  0.2312 -0.2693  0.8838
 4890SOL    HW126306   1.356   2.329  12.705 -0.4376 -0.5086 -0.5588
 4890SOL    HW226307   1.268   2.441  12.734 -2.5936 -0.6668 -2.8728
 4891SOL     OW26308   3.844   4.535  17.004  0.6138 -0.0699 -0.6533
 4891SOL    HW126309   3.870   4.621  16.970  0.0246  0.9251  1.4029
 4891SOL    HW226310   3.798   4.551  17.086 -0.3781  0.0788 -1.2292
 4892SOL     OW26311   1.637   3.298   7.230  0.1265  0.2800  0.9761
 4892SOL    HW126312   1.664   3.374   7.179 -0.3047  0.9055  1.6664
 4892SOL    HW226313   1.711   3.283   7.290  1.3189  1.2236 -0.2533
 4893SOL     OW26314   2.867   1.973   0.993 -0.3747 -0.2768 -0.0166
 4893SOL    HW126315   2.885   2.062   1.023  4.0478 -0.8878 -0.9023
 4893SOL    HW226316   2.904   1.915   1.060  0.2226  1.3341  1.0417
 4894SOL     OW26317   2.623   3.858  11.988 -0.0521 -0.1048 -0.1361
 4894SOL    HW126318   2.566   3.821  12.056  0.3293  0.8326  0.6973
 4894SOL    HW226319   2.706   3.872  12.035  0.4948 -0.7963 -0.9097
 4895SOL     OW26320   1.984   4.734   4.029  0.8302  0.2943  0.0946
 4895SOL    HW126321   1.897   0.003   3.992  0.1287  0.2189  1.7048
 4895SOL    HW226322   1.977   4.642   4.055  1.7939  0.2220  0.1270
 4896SOL     OW26323   3.594   3.432  15.806 -0.1024  0.5238 -0.3729
 4896SOL    HW126324   3.645   3.357  15.778 -1.8161 -0.2646 -1.3941
 4896SOL    HW226325   3.566   3.475  15.726  0.8682 -0.1519 -1.0694
 4897SOL     OW26326   4.016   2.526   3.248  0.1835  0.3113 -0.1575
 4897SOL    HW126327   3.934   2.576   3.244 -1.3718 -2.0823  1.6036
 4897SOL    HW226328   4.063   2.560   3.172 -1.4319 -0.3990 -1.4770
 4898SOL     OW26329   1.336   0.737   7.460 -0.4748 -0.2618  0.8125
 4898SOL    HW126330   1.398   0.810   7.469  1.3751 -1.7796  0.1663
 4898SOL    HW226331   1.275   0.756   7.532 -0.7113  1.9502  0.0441
 4899SOL     OW26332   4.555   3.617   3.015 -0.1322  0.1724  0.1697
 4899SOL    HW126333   4.520   3.606   2.926  0.7817  0.0235 -0.1676
 4899SOL    HW226334   4.628   3.677   3.007 -0.2380  0.3003  0.1669
 4900SOL     OW26335   0.187   4.388   7.798  0.3900 -0.1923 -0.0585
 4900SOL    HW126336   0.133   4.411   7.874  0.9828 -0.0081  0.3087
 4900SOL    HW226337   0.233   4.320   7.848 -0.3526 -0.8802 -0.3145
 4901SOL     OW26338   2.332   1.107   0.212  0.3039  0.2717  0.3682
 4901SOL    HW126339   2.303   1.023   0.175 -0.8021  1.8443 -2.3203
 4901SOL    HW226340   2.416   1.118   0.167 -0.4805  0.2053 -1.1181
 4902SOL     OW26341   1.135   4.226   5.570 -0.0192 -0.2037 -0.2178
 4902SOL    HW126342   1.220   4.266   5.549  0.9487 -0.0921  3.9083
 4902SOL    HW226343   1.154   4.134   5.551  1.4079  0.6996 -3.1250
 4903SOL     OW26344   0.594   1.569   8.261 -0.2650  0.2721 -0.5589
 4903SOL    HW126345   0.648   1.542   8.187 -0.4584  0.3419 -0.7251
 4903SOL    HW226346   0.507   1.531   8.245 -0.6478  1.0298 -0.2659
 4904SOL     OW26347   3.912   2.464   4.693 -0.1238 -0.0351  0.1491
 4904SOL    HW126348   3.950   2.379   4.673 -0.4145  0.1394 -1.1616
 4904SOL    HW226349   3.911   2.453   4.788  0.6476  1.1199  0.2996
 4905SOL     OW26350   4.699   0.415   4.957  0.9251  0.2087 -0.5203
 4905SOL    HW126351   0.043   0.455   4.958  1.0719 -0.0692 -1.9597
 4905SOL    HW226352   4.688   0.389   5.049 -3.3439 -1.6294 -1.5233
 4906SOL     OW26353   0.639   4.334   4.542 -0.6603  0.3884  0.1417
 4906SOL    HW126354   0.562   4.325   4.598 -1.4566  4.4809 -0.3117
 4906SOL    HW226355   0.671   4.249   4.513  1.2594  1.8844 -2.1175
 4907SOL     OW26356   3.584   4.403   4.214  0.2313  0.0597  0.1204
 4907SOL    HW126357   3.647   4.371   4.150  0.4810  0.2364  0.2781
 4907SOL    HW226358   3.602   4.496   4.204 -1.6329  0.5660  1.4194
 4908SOL     OW26359   2.062   2.911  14.341  0.3115 -0.2617 -0.2198
 4908SOL    HW126360   2.042   3.001  14.316  0.9726 -0.1931 -0.5251
 4908SOL    HW226361   2.113   2.892  14.262 -0.2517  0.1261 -0.6671
 4909SOL     OW26362   0.247   4.215  16.747 -0.1505  0.0340 -0.1283
 4909SOL    HW126363   0.187   4.288  16.732 -1.0771 -0.3809  1.5009
 4909SOL    HW226364   0.199   4.145  16.703 -0.2922  0.3138 -0.4165
 4910SOL     OW26365   1.964   2.400  16.419 -0.2450 -1.2018  0.1809
 4910SOL    HW126366   1.937   2.478  16.468 -0.8446 -1.0919 -0.3307
 4910SOL    HW226367   1.893   2.384  16.357 -0.5690 -1.0091  0.4994
 4911SOL     OW26368   0.474   2.196   1.698 -0.0109  0.0878 -0.2160
 4911SOL    HW126369   0.413   2.122   1.701  0.0749  0.1265  2.4362
 4911SOL    HW226370   0.413   2.258   1.660  0.0897  0.2013 -0.1910
 4912SOL     OW26371   0.744   2.538   7.353  0.4480  0.1365  0.3785
 4912SOL    HW126372   0.686   2.570   7.284  1.4835 -0.7690 -0.9004
 4912SOL    HW226373   0.719   2.599   7.423  0.3165 -0.2526  0.6696
 4913SOL     OW26374   2.431   2.148   3.145 -0.5283 -0.0244 -0.4926
 4913SOL    HW126375   2.380   2.095   3.084 -0.5280  2.7458 -2.8874
 4913SOL    HW226376   2.522   2.134   3.121 -0.2651  0.1006  0.4143
 4914SOL     OW26377   2.645   4.209   2.407 -0.1579 -0.4451  0.1745
 4914SOL    HW126378   2.683   4.286   2.365  0.3471 -1.3415 -1.0150
 4914SOL    HW226379   2.672   4.142   2.344 -1.6317  0.1617 -1.0957
 4915SOL     OW26380   0.728   3.756   0.183 -0.3697  0.2776 -0.1437
 4915SOL    HW126381   0.751   3.769   0.275  2.1323 -1.7395 -0.4993
 4915SOL    HW226382   0.694   3.840   0.153 -1.9554  0.4641  2.1172
 4916SOL     OW26383   1.494   2.200   9.944  0.3506 -0.0626  0.0213
 4916SOL    HW126384   1.428   2.267   9.926 -0.6324 -0.9991  0.1356
 4916SOL    HW226385   1.570   2.243   9.907  0.4727 -1.7832 -1.7041
 4917SOL     OW26386   2.807   3.224   4.261  0.1629 -0.2401  0.1708
 4917SOL    HW126387   2.832   3.197   4.173  3.7937  0.9348  0.8419
 4917SOL    HW226388   2.820   3.319   4.258 -1.0939 -0.0640  0.3061
 4918SOL     OW26389   3.814   2.619  10.803 -0.0579  0.1533 -0.0396
 4918SOL    HW126390   3.725   2.643  10.777 -0.4522 -2.1599 -0.8572
 4918SOL    HW226391   3.799   2.541  10.856 -0.7238  2.4489  3.1291
 4919SOL     OW26392   3.063   2.889   8.252  0.1546 -0.4481 -0.2041
 4919SOL    HW126393   2.982   2.892   8.302 -0.7719  1.1033 -1.7716
 4919SOL    HW226394   3.054   2.963   8.193 -1.9103  0.5542  1.4076
 4920SOL     OW26395   2.312   0.292   1.400  0.2310  0.4524  0.2099
 4920SOL    HW126396   2.324   0.380   1.435  2.4081 -0.2137  1.1115
 4920SOL    HW226397   2.242   0.258   1.456 -1.2646  2.3277 -0.5197
 4921SOL     OW26398   3.129   0.023   2.377  0.2772  0.6220  0.6820
 4921SOL    HW126399   3.207   4.731   2.420 -0.6616 -0.4217  1.5492
 4921SOL    HW226400   3.168   0.028   2.290 -1.3814 -2.4679 -0.2424
 4922SOL     OW26401   3.144   3.753  15.796 -0.3244  0.1691  0.2242
 4922SOL    HW126402   3.204   3.804  15.742 -0.6969 -0.2947 -0.6342
 4922SOL    HW226403   3.127   3.675  15.742 -1.1737  0.8196 -0.4489
 4923SOL     OW26404   4.580   1.291   8.399 -0.2104  0.3547 -0.1211
 4923SOL    HW126405   4.612   1.258   8.484  1.8449  2.7217  0.0094
 4923SOL    HW226406   4.629   1.221   8.356  0.2216  0.4062  0.2905
 4924SOL     OW26407   3.191   3.644   0.874  0.3153 -0.0209  0.5439
 4924SOL    HW126408   3.269   3.604   0.914  0.0325  0.3340  1.4323
 4924SOL    HW226409   3.155   3.700   0.942 -0.0075 -0.4352  0.7126
 4925SOL     OW26410   2.041   4.390  17.381  0.0213  0.3705 -0.3450
 4925SOL    HW126411   2.067   4.414  17.292 -0.7731  1.2750 -0.3273
 4925SOL    HW226412   2.100   4.316  17.397  1.1563  1.6305  1.3368
 4926SOL     OW26413   0.534   0.066   0.315  0.2816 -0.1955  0.2547
 4926SOL    HW126414   0.440   0.082   0.324 -0.2406 -2.0914 -1.8247
 4926SOL    HW226415   0.539   4.724   0.270 -1.1547  0.5860 -1.3868
 4927SOL     OW26416   3.850   2.537   7.352  0.1505 -0.2787 -0.5821
 4927SOL    HW126417   3.944   2.551   7.361  0.2230 -1.8275  1.0628
 4927SOL    HW226418   3.846   2.472   7.282  0.6909 -2.5811  1.5189
 4928SOL     OW26419   1.422   0.351  17.167  0.1156 -0.3726  0.0827
 4928SOL    HW126420   1.469   0.403  17.102  1.6674  1.7260  2.8725
 4928SOL    HW226421   1.330   0.365  17.145  0.3707  1.5713  0.2586
 4929SOL     OW26422   2.926   4.546   1.970 -0.1863 -0.2946 -0.4396
 4929SOL    HW126423   2.926   4.460   1.928 -0.3828 -0.8461  0.6873
 4929SOL    HW226424   2.832   4.544   1.990  0.3824  0.0558  2.2704
 4930SOL     OW26425   2.510   3.243   9.051 -0.2459 -0.0804 -0.7180
 4930SOL    HW126426   2.486   3.248   9.144 -0.1365 -2.3060 -0.5651
 4930SOL    HW226427   2.572   3.316   9.045 -0.5551  0.5881  4.2373
 4931SOL     OW26428   2.868   1.572   8.868  0.1392 -0.6349 -0.5517
 4931SOL    HW126429   2.951   1.529   8.888  1.4444  2.1885  0.1208
 4931SOL    HW226430   2.846   1.531   8.784 -0.3960 -0.0994 -0.6795
 4932SOL     OW26431   0.056   3.760   1.999  0.4477 -0.1336 -0.2133
 4932SOL    HW126432   0.124   3.826   2.013  0.6010  0.1705 -2.4904
 4932SOL    HW226433   0.108   3.680   1.989 -0.6793 -1.3205  3.2420
 4933SOL     OW26434   2.658   2.333   1.699  0.0430 -0.3179  0.7508
 4933SOL    HW126435   2.703   2.259   1.660  3.7064  2.1705  0.2718
 4933SOL    HW226436   2.734   2.391   1.706  1.0408 -1.6502  0.8398
 4934SOL     OW26437   1.797   0.768   2.966  0.7465 -0.5865 -0.4340
 4934SOL    HW126438   1.881   0.790   3.007  1.5479 -3.5511 -0.4169
 4934SOL    HW226439   1.825   0.682   2.933  1.9841 -1.7071  3.4816
 4935SOL     OW26440   3.711   3.119   1.206  0.5637  0.0937  0.3648
 4935SOL    HW126441   3.664   3.102   1.288  0.0990  1.7024  0.4300
 4935SOL    HW226442   3.652   3.073   1.146  2.2847 -0.1036 -1.1530
 4936SOL     OW26443   0.482   0.313   7.764  0.6267  0.3129  0.8014
 4936SOL    HW126444   0.502   0.293   7.856 -0.7127 -0.8940  0.8361
 4936SOL    HW226445   0.388   0.330   7.771 -0.1235 -1.7132 -4.7870
 4937SOL     OW26446   2.910   2.125   7.410 -0.7598 -0.2556  0.1916
 4937SOL    HW126447   2.972   2.168   7.351 -0.0132 -1.0268  0.4104
 4937SOL    HW226448   2.852   2.198   7.431 -0.1739 -0.0514  1.1166
 4938SOL     OW26449   1.152   0.703   7.962 -0.6467  0.2950 -0.0898
 4938SOL    HW126450   1.214   0.686   8.033 -1.2740  0.9167  0.6119
 4938SOL    HW226451   1.177   0.636   7.898  0.6500  1.5847 -0.9294
 4939SOL     OW26452   3.878   0.370   5.461 -0.0133  0.2656  0.0685
 4939SOL    HW126453   3.873   0.399   5.552  0.1846 -2.3812  0.9219
 4939SOL    HW226454   3.933   0.443   5.431  0.2678 -0.1168 -0.3436
 4940SOL     OW26455   1.903   0.059   4.465 -0.2646 -0.2086  0.3820
 4940SOL    HW126456   1.845   0.002   4.413  0.8813 -0.1160 -1.0059
 4940SOL    HW226457   1.847   0.126   4.503 -0.1721  0.7121 -1.1252
 4941SOL     OW26458   1.587   1.463   6.962  0.2700 -0.0896  0.1783
 4941SOL    HW126459   1.530   1.482   7.037  0.9650  1.0172  0.4274
 4941SOL    HW226460   1.561   1.537   6.907  0.6360  1.6896  2.4063
 4942SOL     OW26461   4.272   1.710   8.609 -0.6732 -0.2375  0.0478
 4942SOL    HW126462   4.355   1.714   8.656 -0.4032  0.9982 -0.5291
 4942SOL    HW226463   4.234   1.790   8.645  0.8439  1.0577 -1.2625
 4943SOL     OW26464   4.720   1.303   3.211  0.0156 -0.3958 -0.1164
 4943SOL    HW126465   4.627   1.281   3.211  0.0084 -0.3659  0.8005
 4943SOL    HW226466   4.719   1.387   3.165 -1.0025 -0.1701  0.3145
 4944SOL     OW26467   0.560   1.905  10.204 -0.0705  0.6043  0.2059
 4944SOL    HW126468   0.501   1.832  10.226 -0.0896 -0.2085 -2.4551
 4944SOL    HW226469   0.522   1.936  10.121  0.8178 -1.0962 -0.8456
 4945SOL     OW26470   0.188   1.947   1.001 -0.4072  0.5937 -0.4305
 4945SOL    HW126471   0.111   1.923   0.951 -0.0883 -2.5161  0.5747
 4945SOL    HW226472   0.229   2.010   0.941  1.4565 -0.0868  0.1106
 4946SOL     OW26473   4.725   2.876   5.849  0.2486 -0.0691  0.0654
 4946SOL    HW126474   4.639   2.837   5.864  0.4351 -1.2245 -1.9148
 4946SOL    HW226475   4.732   2.854   5.757 -0.4740  2.8009 -0.6636
 4947SOL     OW26476   0.029   3.010   9.245 -0.4055  0.3883 -0.4899
 4947SOL    HW126477   0.068   3.031   9.329  1.0624 -1.4914 -0.7044
 4947SOL    HW226478   4.686   3.046   9.267 -0.4271 -0.6137  1.0691
 4948SOL     OW26479   2.837   1.690  16.475  0.5913  0.6286 -0.0430
 4948SOL    HW126480   2.781   1.763  16.449 -1.3372 -0.3180  1.4975
 4948SOL    HW226481   2.914   1.704  16.419 -0.6859  0.3915 -1.8181
 4949SOL     OW26482   2.330   0.076   4.101  0.3769 -0.2125  0.0914
 4949SOL    HW126483   2.396   0.057   4.168  1.1951  0.8682 -0.4065
 4949SOL    HW226484   2.324   0.171   4.103 -0.2875 -0.2512 -0.0919
 4950SOL     OW26485   2.084   0.292   5.256  0.1586  0.1695  0.3772
 4950SOL    HW126486   2.128   0.228   5.311 -1.8011 -1.8263 -0.3583
 4950SOL    HW226487   2.080   0.364   5.320  2.5643 -1.3871  2.2687
 4951SOL     OW26488   0.554   1.941   3.574  0.2245 -0.0417  0.2579
 4951SOL    HW126489   0.631   1.959   3.521 -0.6723  2.4924 -0.1718
 4951SOL    HW226490   0.537   2.033   3.594  0.2997 -0.1286  0.7350
 4952SOL     OW26491   0.701   4.131   5.099 -0.4796  0.1380 -0.2816
 4952SOL    HW126492   0.794   4.115   5.085 -1.1233 -3.0596 -0.8750
 4952SOL    HW226493   0.669   4.042   5.084  1.1798 -0.2803 -1.2519
 4953SOL     OW26494   1.305   1.253   3.055  0.0275  0.2686 -0.0223
 4953SOL    HW126495   1.241   1.320   3.079 -0.7487 -0.8365  1.0003
 4953SOL    HW226496   1.268   1.172   3.089 -0.0440  0.8204  1.2098
 4954SOL     OW26497   2.124   3.643   1.694  0.0659  0.9960 -0.5805
 4954SOL    HW126498   2.055   3.681   1.749 -1.8131  2.1357 -3.7333
 4954SOL    HW226499   2.109   3.549   1.705 -2.3654  1.2466 -1.8682
 4955SOL     OW26500   3.290   2.972   4.907 -0.4067  0.0647  0.3553
 4955SOL    HW126501   3.278   2.940   4.818 -1.6871 -0.3807  0.6872
 4955SOL    HW226502   3.385   2.982   4.908 -0.5063  0.7407  4.1259
 4956SOL     OW26503   0.389   4.096   8.212  0.1381  0.0195 -0.2341
 4956SOL    HW126504   0.301   4.076   8.242 -0.3992  1.0226 -1.1653
 4956SOL    HW226505   0.424   4.009   8.194 -0.1897 -0.2860  0.6126
 4957SOL     OW26506   1.963   0.841   4.954  0.0625 -0.4705 -0.5137
 4957SOL    HW126507   1.888   0.893   4.984  0.6843  1.0621 -1.5986
 4957SOL    HW226508   1.939   0.756   4.989  0.4900  0.6420  2.5063
 4958SOL     OW26509   2.806   4.361   7.012  0.2349 -0.1299 -0.7436
 4958SOL    HW126510   2.883   4.329   7.060  1.2382  2.0256 -0.8933
 4958SOL    HW226511   2.755   4.285   6.985 -1.1747  0.0953  1.2984
 4959SOL     OW26512   2.859   1.414   5.879 -0.1223  0.2794  0.4413
 4959SOL    HW126513   2.840   1.375   5.793  1.4334  1.5164 -0.4607
 4959SOL    HW226514   2.790   1.386   5.939 -0.9668 -0.7009 -0.9803
 4960SOL     OW26515   4.000   1.024   6.190 -0.4295 -0.5558 -0.3514
 4960SOL    HW126516   4.036   0.938   6.170 -0.6398 -1.0221  1.2092
 4960SOL    HW226517   3.938   0.994   6.257  0.0155  2.2721  1.3584
 4961SOL     OW26518   4.390   1.975   0.154 -0.1147  0.1273 -0.1485
 4961SOL    HW126519   4.401   1.955   0.247  0.1455 -1.5527 -0.5334
 4961SOL    HW226520   4.395   1.884   0.124 -1.1413  0.0381 -0.0455
 4962SOL     OW26521   1.644   3.978   7.323 -0.1251  0.6707  0.1506
 4962SOL    HW126522   1.686   4.018   7.247  3.5381 -1.1480  1.2129
 4962SOL    HW226523   1.641   4.053   7.381  1.0979 -1.1352  2.5576
 4963SOL     OW26524   3.184   2.237   5.158 -0.3661 -0.1969  0.9284
 4963SOL    HW126525   3.233   2.164   5.121 -1.4751 -0.9793  1.0332
 4963SOL    HW226526   3.145   2.196   5.235  1.0296 -2.3565  0.4846
 4964SOL     OW26527   2.570   4.473  10.256 -0.2311  0.2164  0.4554
 4964SOL    HW126528   2.602   4.411  10.191 -1.4839  1.0483 -0.9394
 4964SOL    HW226529   2.601   4.434  10.338 -1.1906 -0.5600  0.4529
 4965SOL     OW26530   0.467   4.696   1.445 -0.0577 -0.4773 -0.3202
 4965SOL    HW126531   0.479   0.044   1.420  1.0258 -0.8672 -1.2008
 4965SOL    HW226532   0.537   4.661   1.390  0.9430 -0.7817  1.1251
 4966SOL     OW26533   4.356   3.654   9.464 -0.0246 -0.7587 -0.0510
 4966SOL    HW126534   4.356   3.594   9.539 -0.4343 -1.6009 -0.7310
 4966SOL    HW226535   4.263   3.674   9.461  0.4200  1.3589 -0.1304
 4967SOL     OW26536   3.743   0.037   6.115  0.0734  0.4917  0.7080
 4967SOL    HW126537   3.821   0.075   6.156  0.1219  0.0032  1.0610
 4967SOL    HW226538   3.736   0.089   6.035  2.2771  0.0078  0.1877
 4968SOL     OW26539   1.613   4.456   3.810  0.1100  0.3853  0.5777
 4968SOL    HW126540   1.697   4.417   3.837 -1.0647 -1.5691  1.4478
 4968SOL    HW226541   1.647   4.512   3.740 -0.9981  1.1649  0.6730
 4969SOL     OW26542   1.904   2.199   2.417  0.1859  0.6522 -0.2693
 4969SOL    HW126543   1.978   2.239   2.371  0.4324  3.1126  2.2478
 4969SOL    HW226544   1.907   2.251   2.498 -5.4166  0.9581 -0.2853
 4970SOL     OW26545   4.274   0.914  14.288  0.4707  0.1015 -0.2674
 4970SOL    HW126546   4.344   0.934  14.227  1.1370 -1.4720 -0.0221
 4970SOL    HW226547   4.277   0.994  14.341 -0.7491 -0.3345  0.4696
 4971SOL     OW26548   2.399   0.737   6.566  0.3812  0.1259  0.0238
 4971SOL    HW126549   2.348   0.768   6.642  0.4003  0.2915 -0.0320
 4971SOL    HW226550   2.418   0.826   6.538 -1.2621  1.3179  2.6454
 4972SOL     OW26551   4.332   2.544   1.994 -0.4576  0.2973 -0.3110
 4972SOL    HW126552   4.303   2.456   2.015  0.8127  0.4101  1.8740
 4972SOL    HW226553   4.263   2.577   1.936  0.0689  0.8880 -0.6124
 4973SOL     OW26554   2.215   4.183  17.461  0.0932 -0.5051  0.3457
 4973SOL    HW126555   2.280   4.249  17.482 -1.2761  0.9205  0.1325
 4973SOL    HW226556   2.158   4.190  17.538 -0.6368  1.5602 -0.3916
 4974SOL     OW26557   4.205   1.584  11.244 -0.8896 -0.2085 -0.2764
 4974SOL    HW126558   4.163   1.610  11.326 -1.0660 -1.2242 -0.0529
 4974SOL    HW226559   4.232   1.499  11.279  2.2514 -0.7084 -3.9487
 4975SOL     OW26560   2.914   1.848   6.612  0.1205  0.5261  0.4754
 4975SOL    HW126561   2.935   1.758   6.587 -3.7510  0.4639 -2.5627
 4975SOL    HW226562   2.901   1.840   6.706 -3.1720 -1.3219 -0.1362
 4976SOL     OW26563   3.639   1.780  17.690 -0.8119 -0.4485 -0.2900
 4976SOL    HW126564   3.571   1.847  17.697 -0.0780  0.1287  1.2819
 4976SOL    HW226565   3.629   1.743  17.602  1.3453 -0.6459 -0.4430
 4977SOL     OW26566   3.939   3.515  17.511 -0.0496  0.4221  0.3977
 4977SOL    HW126567   3.982   3.488  17.593  0.6327  2.3387  0.6525
 4977SOL    HW226568   3.999   3.585  17.487 -0.0755  0.2485 -0.1713
 4978SOL     OW26569   4.145   3.039  11.526  0.0090 -0.0910  0.3110
 4978SOL    HW126570   4.076   3.077  11.471  0.1080  0.4969  0.5910
 4978SOL    HW226571   4.201   3.009  11.454 -1.5844 -1.8353 -0.2028
 4979SOL     OW26572   1.347   4.253   9.150  0.0795  0.7813  0.1779
 4979SOL    HW126573   1.383   4.259   9.239 -0.3252 -1.8918  0.5140
 4979SOL    HW226574   1.314   4.163   9.143  0.3605  0.6312  0.8083
 4980SOL     OW26575   1.211   3.693   7.532 -0.7563  0.2233  0.3894
 4980SOL    HW126576   1.133   3.749   7.536 -0.7165  0.3912 -1.3239
 4980SOL    HW226577   1.278   3.748   7.572 -0.7019  0.8047 -0.5226
 4981SOL     OW26578   2.888   4.692   2.849 -0.3059 -0.2256 -0.2661
 4981SOL    HW126579   2.824   4.672   2.781 -0.6220 -0.9091  0.2330
 4981SOL    HW226580   2.961   4.672   2.791  0.1703  0.8116 -0.0234
 4982SOL     OW26581   3.493   4.279  14.593  0.5170  0.0143 -0.1518
 4982SOL    HW126582   3.505   4.249  14.502 -0.8363  1.3809 -0.7814
 4982SOL    HW226583   3.421   4.226  14.626 -0.3975  0.7259 -0.9557
 4983SOL     OW26584   4.356   3.219   9.808  0.4007  0.4464 -0.1210
 4983SOL    HW126585   4.314   3.210   9.894  4.5466 -0.6305  1.7593
 4983SOL    HW226586   4.436   3.171   9.827 -0.0640  0.0719  0.8862
 4984SOL     OW26587   3.061   4.556  12.500 -0.1704 -0.2227 -0.1735
 4984SOL    HW126588   2.995   4.606  12.452  0.2643  0.3608 -0.1572
 4984SOL    HW226589   3.019   4.550  12.586  1.4758  0.4419  0.6726
 4985SOL     OW26590   2.135   4.008  15.845 -0.0591  0.2135 -0.0401
 4985SOL    HW126591   2.042   4.028  15.838 -0.7285 -1.9997  2.5027
 4985SOL    HW226592   2.171   4.094  15.826  2.1145 -1.0409 -1.6114
 4986SOL     OW26593   4.640   3.034  10.645  0.0535 -0.0920  0.7469
 4986SOL    HW126594   4.636   2.940  10.662  0.3033  0.0142  1.3862
 4986SOL    HW226595   4.706   3.061  10.709  0.1543 -2.0808  1.5090
 4987SOL     OW26596   3.727   3.536   5.184  0.2542 -0.4051 -0.2264
 4987SOL    HW126597   3.688   3.623   5.183  0.3370 -0.3965 -2.7403
 4987SOL    HW226598   3.682   3.490   5.255 -1.6341  0.3524 -0.9476
 4988SOL     OW26599   1.098   0.262   3.951  0.1275 -0.1790 -0.3038
 4988SOL    HW126600   1.010   0.295   3.973 -0.6581 -0.7029 -2.6698
 4988SOL    HW226601   1.098   0.202   3.877  1.6990 -0.4046 -0.1250
 4989SOL     OW26602   3.088   1.641   8.225  0.3587 -0.1479  0.2020
 4989SOL    HW126603   3.046   1.725   8.243  1.0347  0.3980 -0.7971
 4989SOL    HW226604   3.023   1.598   8.169  0.5383 -0.3009  0.1117
 4990SOL     OW26605   0.599   1.269   2.014 -0.1256  0.3973  0.0960
 4990SOL    HW126606   0.660   1.325   1.966  1.4951 -0.9779  0.5740
 4990SOL    HW226607   0.517   1.300   1.976 -0.7947 -1.7531 -0.2017
 4991SOL     OW26608   4.556   2.794   4.557 -0.4628 -0.5808 -0.5372
 4991SOL    HW126609   4.470   2.836   4.559  1.1390  2.6540  0.6259
 4991SOL    HW226610   4.583   2.813   4.467 -0.4950  2.3389  0.0698
 4992SOL     OW26611   0.768   2.173  11.708  0.0282  0.5206  0.1389
 4992SOL    HW126612   0.779   2.261  11.671 -2.9828  1.4409  1.3624
 4992SOL    HW226613   0.686   2.176  11.758 -1.5161  3.7205 -2.5722
 4993SOL     OW26614   1.096   2.858   9.644 -0.8670  0.0232 -0.5581
 4993SOL    HW126615   1.181   2.878   9.605 -0.5863 -1.5341 -0.7479
 4993SOL    HW226616   1.094   2.924   9.713  1.0578 -1.8783  1.3329
 4994SOL     OW26617   4.134   1.791  16.172 -0.6626 -0.2848  0.2721
 4994SOL    HW126618   4.218   1.834  16.154 -0.0333 -0.1130  3.6974
 4994SOL    HW226619   4.070   1.857  16.198  1.5496  2.5369 -1.3945
 4995SOL     OW26620   2.372   2.496   4.853 -0.1008  0.2803  0.3929
 4995SOL    HW126621   2.412   2.568   4.805 -1.2326  1.0899  0.6743
 4995SOL    HW226622   2.328   2.541   4.926  2.1076  1.4417  1.0152
 4996SOL     OW26623   4.334   4.538   2.079  0.7924 -0.2317 -0.1569
 4996SOL    HW126624   4.363   4.545   1.988  0.5540 -0.2191 -0.2328
 4996SOL    HW226625   4.403   4.584   2.126  1.2955  0.6305 -1.7226
 4997SOL     OW26626   0.318   3.135  13.223  0.1499 -0.2960  0.4381
 4997SOL    HW126627   0.279   3.148  13.136 -0.7649  3.5202  1.4194
 4997SOL    HW226628   0.280   3.216  13.258  3.6327  1.1536  0.8260
 4998SOL     OW26629   4.390   1.147   4.154 -0.1673  0.6664  0.0744
 4998SOL    HW126630   4.393   1.097   4.072 -0.4477  1.8981 -0.6892
 4998SOL    HW226631   4.304   1.121   4.188  0.6614 -0.9546  0.9049
 4999SOL     OW26632   2.391   2.947   4.942  0.1211  0.2058 -0.4712
 4999SOL    HW126633   2.404   2.968   5.034 -1.2150  1.1438 -0.4829
 4999SOL    HW226634   2.339   3.025   4.919  1.7419  0.2524 -3.9076
 5000SOL     OW26635   1.275   3.347   5.365 -0.3466  0.2365  0.4168
 5000SOL    HW126636   1.200   3.393   5.402  1.0043  2.2173  0.7129
 5000SOL    HW226637   1.290   3.383   5.278 -0.9575  3.2471  1.5824
 5001SOL     OW26638   0.267   0.471   6.987 -0.1301 -0.2040  0.1126
 5001SOL    HW126639   0.315   0.404   7.037 -0.7770  0.3677  1.4781
 5001SOL    HW226640   0.257   0.535   7.058 -0.9174  1.1118 -1.1813
 5002SOL     OW26641   1.871   1.669   6.731  0.0573  0.5373 -0.0565
 5002SOL    HW126642   1.925   1.595   6.759  0.1629  1.0266  1.0174
 5002SOL    HW226643   1.904   1.740   6.786  0.8265 -0.7926  1.1841
 5003SOL     OW26644   0.899   2.773   7.410 -0.4493 -0.3835  0.6470
 5003SOL    HW126645   0.887   2.693   7.462  1.0722 -2.2465 -1.8758
 5003SOL    HW226646   0.845   2.752   7.334 -1.1817  2.0466  0.5033
 5004SOL     OW26647   3.158   1.649  13.441 -0.0941  0.2275  0.5537
 5004SOL    HW126648   3.152   1.683  13.530 -1.1437 -0.2794  0.6745
 5004SOL    HW226649   3.247   1.674  13.415  0.7417 -1.0150  2.2042
 5005SOL     OW26650   1.007   2.416   8.757 -0.4799 -0.3848 -0.0182
 5005SOL    HW126651   0.995   2.426   8.851  1.0180  0.5545  0.0789
 5005SOL    HW226652   1.100   2.397   8.747 -0.2153  0.1861  1.4086
 5006SOL     OW26653   2.154   1.443  12.056 -0.3594  0.0938 -0.1847
 5006SOL    HW126654   2.092   1.412  11.989 -2.6066  2.5649  0.7767
 5006SOL    HW226655   2.134   1.395  12.137 -0.4571  1.3657  0.5370
 5007SOL     OW26656   4.056   0.868   7.297  0.0778 -0.1984  0.3036
 5007SOL    HW126657   4.007   0.942   7.332 -1.8917 -1.6439  0.6126
 5007SOL    HW226658   4.028   0.796   7.352  0.2955  0.5704  1.4219
 5008SOL     OW26659   2.305   2.074  13.619  0.4256  0.4266 -0.0643
 5008SOL    HW126660   2.345   2.136  13.680 -3.0886  1.0048  1.6661
 5008SOL    HW226661   2.380   2.059  13.561 -0.9988  0.8129 -1.9967
 5009SOL     OW26662   3.672   0.546   4.609  0.0904 -0.3864 -0.4784
 5009SOL    HW126663   3.634   0.627   4.644  0.0467 -0.9720  0.8524
 5009SOL    HW226664   3.689   0.495   4.689  1.5495  0.8775  0.0373
 5010SOL     OW26665   3.373   0.670   8.797 -0.0363 -0.0096  0.0668
 5010SOL    HW126666   3.347   0.750   8.842 -1.1384 -0.3589  0.0430
 5010SOL    HW226667   3.304   0.671   8.731  0.4161  0.5155 -0.3945
 5011SOL     OW26668   1.020   2.244  16.200  0.0139  0.0720  0.0560
 5011SOL    HW126669   0.933   2.271  16.174 -0.2278  0.3483  1.1524
 5011SOL    HW226670   1.021   2.295  16.281 -0.8673 -0.3928  0.3587
 5012SOL     OW26671   4.020   1.710   2.318 -0.5653  0.3913  0.3277
 5012SOL    HW126672   3.961   1.703   2.243  1.4445  1.6132 -1.3296
 5012SOL    HW226673   4.014   1.627   2.366 -0.2587 -0.2478 -0.7422
 5013SOL     OW26674   3.505   0.091  17.652 -0.4368 -0.5057  0.5587
 5013SOL    HW126675   3.450   0.089  17.574 -0.9189  2.2311  0.8271
 5013SOL    HW226676   3.499   0.184  17.674  0.6947 -0.2976  0.0158
 5014SOL     OW26677   1.680   0.582  11.922 -0.6807 -0.4892 -0.5694
 5014SOL    HW126678   1.696   0.665  11.967 -1.8477 -1.2957  1.3457
 5014SOL    HW226679   1.620   0.546  11.988 -0.2878  0.8432  0.5181
 5015SOL     OW26680   2.771   1.560   9.414  0.2186 -0.1993 -0.6690
 5015SOL    HW126681   2.702   1.624   9.434 -0.5939 -2.1371  2.6533
 5015SOL    HW226682   2.754   1.484   9.469  1.2913  0.1386  0.1455
 5016SOL     OW26683   1.450   3.378   1.533  0.2676  0.0586  0.4490
 5016SOL    HW126684   1.434   3.417   1.447 -0.8336 -2.1374 -0.3398
 5016SOL    HW226685   1.542   3.397   1.553  0.4675  3.0280 -3.3909
 5017SOL     OW26686   1.138   0.565   2.856  0.8124  0.4262 -0.1251
 5017SOL    HW126687   1.080   0.605   2.792 -0.8697 -1.5697  0.1297
 5017SOL    HW226688   1.222   0.562   2.811  0.5352 -1.4411 -0.5306
 5018SOL     OW26689   3.709   1.714   2.382 -0.6797 -0.0965 -0.0678
 5018SOL    HW126690   3.764   1.665   2.443  1.2339 -0.3601 -1.9718
 5018SOL    HW226691   3.643   1.754   2.438  1.5253  0.3792  2.1880
 5019SOL     OW26692   3.885   3.896   8.955 -0.0734  0.2578 -0.3743
 5019SOL    HW126693   3.933   3.822   8.992 -0.4068  0.0156 -0.4174
 5019SOL    HW226694   3.948   3.928   8.890 -0.7103  2.1588 -0.0495
 5020SOL     OW26695   1.586   4.469   0.361  0.6538 -0.3137 -0.8652
 5020SOL    HW126696   1.594   4.562   0.340 -3.9401  0.4609  0.7880
 5020SOL    HW226697   1.672   4.427   0.359  0.4056 -0.9551  1.9308
 5021SOL     OW26698   1.175   2.772   7.158 -0.3064  0.3656  0.1857
 5021SOL    HW126699   1.271   2.775   7.157 -0.3275  1.5541  0.8320
 5021SOL    HW226700   1.175   2.682   7.126 -0.4280  0.4470 -0.0402
 5022SOL     OW26701   4.416   3.874  14.402 -0.3686  0.2855  0.4145
 5022SOL    HW126702   4.383   3.917  14.481 -0.4002  0.2705  0.4094
 5022SOL    HW226703   4.402   3.937  14.332 -1.4726  0.9455  1.2300
 5023SOL     OW26704   2.810   1.711  10.776 -0.9826  0.5430  0.2160
 5023SOL    HW126705   2.876   1.653  10.814 -1.9793  0.0342  1.2000
 5023SOL    HW226706   2.737   1.701  10.837 -0.4780 -1.0300  0.5534
 5024SOL     OW26707   0.093   2.251   2.891  0.0985 -0.1351 -0.5611
 5024SOL    HW126708   0.061   2.317   2.830  0.6165  1.1910  0.6048
 5024SOL    HW226709   0.171   2.298   2.920  0.4935 -0.4058 -1.1896
 5025SOL     OW26710   3.489   0.954   3.729 -0.1675 -0.0170 -0.2933
 5025SOL    HW126711   3.551   0.949   3.801 -0.2727 -1.8144 -0.3361
 5025SOL    HW226712   3.430   1.019   3.768 -0.7212 -0.8825  0.3091
 5026SOL     OW26713   3.298   0.399   8.668 -0.5270 -0.2011  0.4734
 5026SOL    HW126714   3.270   0.385   8.759 -0.3273 -0.0228  0.5617
 5026SOL    HW226715   3.349   0.480   8.671  0.1707 -0.5828 -0.8017
 5027SOL     OW26716   1.594   4.636   3.433 -0.0315  0.1285  0.0171
 5027SOL    HW126717   1.668   4.588   3.469 -1.1741 -1.5190  0.1932
 5027SOL    HW226718   1.617   4.659   3.343  1.5166 -0.4161  0.2828
 5028SOL     OW26719   2.253   3.299   6.320  0.0890  0.2443  0.1826
 5028SOL    HW126720   2.206   3.363   6.265 -1.5722  0.2339  1.5687
 5028SOL    HW226721   2.190   3.244   6.366  0.4516 -0.6309 -0.3754
 5029SOL     OW26722   2.799   1.686   2.562  0.2226 -0.8371  0.3237
 5029SOL    HW126723   2.820   1.652   2.475  0.5520  2.7900 -1.0137
 5029SOL    HW226724   2.801   1.601   2.607  0.1972 -0.4058  1.1433
 5030SOL     OW26725   2.835   3.961   7.521 -0.0553  0.0793 -0.0011
 5030SOL    HW126726   2.798   3.904   7.453  1.5261  0.4319 -1.1641
 5030SOL    HW226727   2.905   4.007   7.475  0.6519 -0.2803  0.7175
 5031SOL     OW26728   1.488   1.466   7.846 -0.2015 -0.4615  0.4347
 5031SOL    HW126729   1.425   1.400   7.817  1.0479 -1.4569 -0.0752
 5031SOL    HW226730   1.433   1.544   7.844  0.5556  0.0707  0.3342
 5032SOL     OW26731   0.056   4.544   7.630  0.0820 -0.6412 -1.2265
 5032SOL    HW126732   0.117   4.502   7.691 -1.2719  0.0998  0.6220
 5032SOL    HW226733   0.045   4.626   7.677 -1.4515 -0.9658 -1.0485
 5033SOL     OW26734   0.746   2.944   5.409  0.1461  0.6734 -0.4476
 5033SOL    HW126735   0.682   3.003   5.368 -0.5846  0.1139 -0.1258
 5033SOL    HW226736   0.748   2.981   5.497  1.0505  0.4216 -0.3626
 5034SOL     OW26737   0.869   0.562   5.653  0.4857  0.5425 -0.7877
 5034SOL    HW126738   0.863   0.526   5.565  0.6548  1.6918 -1.2637
 5034SOL    HW226739   0.861   0.656   5.637 -0.1034  0.4050 -1.2733
 5035SOL     OW26740   2.778   0.256   3.942 -0.1804 -0.4116  0.0123
 5035SOL    HW126741   2.718   0.207   3.998 -0.5946  0.0916  0.0062
 5035SOL    HW226742   2.760   0.344   3.973 -0.8586 -1.9343  3.8763
 5036SOL     OW26743   4.536   4.212   6.111  0.5889 -0.4308  0.6215
 5036SOL    HW126744   4.601   4.215   6.181 -0.4995 -0.0988  1.6186
 5036SOL    HW226745   4.502   4.123   6.111 -0.4929 -0.0277  0.0558
 5037SOL     OW26746   3.692   2.699  17.695  0.0073  0.2053  0.1560
 5037SOL    HW126747   3.692   2.791  17.719 -1.0593  0.2758 -0.0879
 5037SOL    HW226748   3.618   2.675  17.752 -0.4015 -0.0025 -0.4557
 5038SOL     OW26749   3.143   4.369   1.721  0.2634 -0.5651 -0.4980
 5038SOL    HW126750   3.117   4.425   1.648 -4.3206  0.4565  1.9620
 5038SOL    HW226751   3.212   4.419   1.765 -0.3972  0.0506 -0.1711
 5039SOL     OW26752   3.564   3.818  15.090  0.1070  0.1776 -0.5243
 5039SOL    HW126753   3.593   3.846  15.003  0.6942  3.0584  0.6096
 5039SOL    HW226754   3.499   3.886  15.105  0.1057  0.1750 -0.5179
 5040SOL     OW26755   1.829   4.263  17.218 -0.1459 -0.1557  0.1193
 5040SOL    HW126756   1.908   4.284  17.269 -0.4490 -0.0081  0.5266
 5040SOL    HW226757   1.783   4.346  17.227  1.0080  0.6239 -1.0602
 5041SOL     OW26758   4.604   1.824  13.602  0.5664 -0.0805  0.8563
 5041SOL    HW126759   4.677   1.818  13.541 -0.9069  1.4705 -1.0548
 5041SOL    HW226760   4.640   1.898  13.652  1.8292  0.6288 -1.0915
 5042SOL     OW26761   3.801   3.046   2.083  0.0234 -0.4274  0.0306
 5042SOL    HW126762   3.824   3.137   2.062  0.8202 -0.4839  0.6755
 5042SOL    HW226763   3.764   3.056   2.171  0.5681  1.6340  0.0175
 5043SOL     OW26764   0.160   2.011   3.983  0.1293 -0.0993 -0.1280
 5043SOL    HW126765   0.169   2.042   4.073 -1.1828 -5.8172  2.0058
 5043SOL    HW226766   0.233   2.061   3.946 -2.1435  4.1435  1.1934
 5044SOL     OW26767   0.524   3.384  17.617  0.4458 -0.4382 -0.4800
 5044SOL    HW126768   0.564   3.349  17.538 -0.6245  0.4640 -1.4346
 5044SOL    HW226769   0.510   3.478  17.604 -1.3824 -0.3726  2.0070
 5045SOL     OW26770   3.481   4.081   4.575  0.0480 -0.2249 -0.0937
 5045SOL    HW126771   3.577   4.081   4.570  0.0080  2.1752 -0.8873
 5045SOL    HW226772   3.456   4.129   4.496 -0.6162  1.2455  1.0150
 5046SOL     OW26773   1.780   1.167   9.338  0.5869 -0.2718 -0.3425
 5046SOL    HW126774   1.692   1.140   9.362  1.0849 -0.0421  1.7747
 5046SOL    HW226775   1.823   1.091   9.377  0.6595  1.1902  2.4601
 5047SOL     OW26776   1.588   1.294   3.493 -0.1156 -0.2564 -0.1294
 5047SOL    HW126777   1.505   1.340   3.503  0.3755  0.6977 -0.3869
 5047SOL    HW226778   1.559   1.212   3.533  2.1666 -0.7075  0.6208
 5048SOL     OW26779   2.259   1.708  15.670  0.0382  0.8320 -0.1915
 5048SOL    HW126780   2.174   1.679  15.704  0.6728 -1.3964 -0.5430
 5048SOL    HW226781   2.246   1.708  15.575  0.3008 -0.8937 -0.2182
 5049SOL     OW26782   0.921   2.611   6.438 -0.0506 -0.2563 -0.7604
 5049SOL    HW126783   0.982   2.595   6.510  1.2136 -1.3751 -2.0811
 5049SOL    HW226784   0.899   2.703   6.454  0.8268 -0.3249  0.8925
 5050SOL     OW26785   3.171   3.686   6.234  0.1882  0.3502 -0.7262
 5050SOL    HW126786   3.125   3.677   6.151  0.2641  1.3112 -0.8702
 5050SOL    HW226787   3.111   3.742   6.283 -1.0542 -1.5366 -0.1314
 5051SOL     OW26788   2.639   0.640   4.274 -0.4162  0.5151 -0.1119
 5051SOL    HW126789   2.635   0.649   4.370 -0.8331  0.1420 -0.0986
 5051SOL    HW226790   2.550   0.662   4.249 -0.8304 -3.4871 -2.1921
 5052SOL     OW26791   3.185   0.000   6.681 -0.2661  0.4953 -0.5059
 5052SOL    HW126792   3.107   0.049   6.655 -1.8128 -1.3049  0.7405
 5052SOL    HW226793   3.166   4.721   6.772  0.3820 -1.2141 -0.7836
 5053SOL     OW26794   1.812   4.011   5.197  0.3993 -0.0025 -0.4142
 5053SOL    HW126795   1.733   3.996   5.146  0.5391  1.2062 -0.9744
 5053SOL    HW226796   1.856   3.927   5.181  0.5778 -0.4355  2.3606
 5054SOL     OW26797   3.789   4.245   3.745 -0.5932 -0.4812 -0.0887
 5054SOL    HW126798   3.808   4.232   3.652  3.1352 -0.8766  0.7301
 5054SOL    HW226799   3.878   4.239   3.778  0.1900  0.1817 -2.0976
 5055SOL     OW26800   2.308   0.973   7.259 -0.2869 -0.1451  0.3544
 5055SOL    HW126801   2.271   0.968   7.170  0.1507  1.1566  0.1009
 5055SOL    HW226802   2.228   0.944   7.302 -1.2976  2.6793  0.3661
 5056SOL     OW26803   2.781   1.982  13.649 -0.3320  0.6227  0.4687
 5056SOL    HW126804   2.747   2.069  13.631 -0.4635  0.1185 -1.6303
 5056SOL    HW226805   2.797   1.997  13.743 -0.4132 -0.3753  0.6441
 5057SOL     OW26806   0.498   0.796   5.230  0.1056 -0.4535 -0.6432
 5057SOL    HW126807   0.543   0.858   5.173 -0.2813 -1.0384 -1.5922
 5057SOL    HW226808   0.448   0.855   5.286 -0.3505 -1.8122  0.3701
 5058SOL     OW26809   4.580   4.025  12.063  0.2085 -0.4198 -0.0852
 5058SOL    HW126810   4.525   4.063  11.995 -1.8063 -0.6333  1.4143
 5058SOL    HW226811   4.597   4.091  12.130  0.7361  0.4375 -1.0655
 5059SOL     OW26812   0.741   3.226   6.307 -0.2322 -0.4298  0.0185
 5059SOL    HW126813   0.683   3.302   6.313  0.8856  0.3133  1.2448
 5059SOL    HW226814   0.790   3.231   6.389  0.6759 -1.8499 -0.4408
 5060SOL     OW26815   4.096   1.382  10.295 -0.5123 -0.0913  0.1446
 5060SOL    HW126816   4.118   1.465  10.252  0.3564  0.3235  1.3901
 5060SOL    HW226817   4.011   1.399  10.335 -0.4596 -0.7152  0.5132
 5061SOL     OW26818   2.958   3.932   7.077  0.3704  0.2987  0.0856
 5061SOL    HW126819   3.039   3.883   7.085 -0.7599 -1.3278  1.4729
 5061SOL    HW226820   2.899   3.864   7.042  0.1563 -0.1478  1.3339
 5062SOL     OW26821   4.541   3.695   1.521  0.0915  0.2654  0.1792
 5062SOL    HW126822   4.446   3.691   1.524 -0.0672  2.0156 -2.2735
 5062SOL    HW226823   4.569   3.660   1.606  2.0527  1.9713  0.2472
 5063SOL     OW26824   4.660   3.332  12.939 -0.4829 -0.1552  0.1408
 5063SOL    HW126825   4.700   3.250  12.912 -1.6432 -0.9049  0.7093
 5063SOL    HW226826   4.622   3.314  13.025  0.5997 -1.1121  0.4183
 5064SOL     OW26827   3.528   2.096   7.628  0.2324  0.2736  0.0053
 5064SOL    HW126828   3.457   2.033   7.637  0.9529 -0.4041  0.9371
 5064SOL    HW226829   3.585   2.036   7.581  0.9173  0.3324  0.7584
 5065SOL     OW26830   4.215   4.168   0.704 -0.1951 -0.3488 -0.4550
 5065SOL    HW126831   4.203   4.155   0.610 -0.0152  0.7111 -0.6222
 5065SOL    HW226832   4.284   4.103   0.718 -1.2884 -1.3935  0.0070
 5066SOL     OW26833   4.541   1.336   4.585  0.2090  0.0348 -0.5922
 5066SOL    HW126834   4.478   1.276   4.544 -2.2796  0.7918  2.1325
 5066SOL    HW226835   4.575   1.380   4.507  1.0384 -0.4238 -0.4976
 5067SOL     OW26836   0.171   4.455   6.193  0.0106  0.3649  0.5432
 5067SOL    HW126837   0.153   4.506   6.115 -0.1664  0.3416  0.5700
 5067SOL    HW226838   0.086   4.458   6.236 -0.9375 -1.7006 -1.1931
 5068SOL     OW26839   3.759   0.917   4.689  0.0127 -0.3119  0.4590
 5068SOL    HW126840   3.796   0.883   4.608 -0.9955 -2.2383  0.7950
 5068SOL    HW226841   3.825   0.885   4.750  0.2913  0.9873  0.8334
 5069SOL     OW26842   2.067   3.271   2.109 -0.1094  0.1806 -0.3111
 5069SOL    HW126843   2.099   3.361   2.110  3.4540 -1.0932 -2.1776
 5069SOL    HW226844   2.084   3.241   2.020 -1.6241 -2.3486  0.2517
 5070SOL     OW26845   0.682   4.013   6.644 -0.0261 -0.0611  0.1190
 5070SOL    HW126846   0.775   3.994   6.637  0.1729  0.8391  0.3571
 5070SOL    HW226847   0.674   4.053   6.730  3.4007  0.1996  0.2977
 5071SOL     OW26848   4.311   1.073   6.236 -0.0583  0.2930 -0.2653
 5071SOL    HW126849   4.247   1.109   6.297 -0.4891 -1.3196  0.2142
 5071SOL    HW226850   4.302   0.979   6.226  1.2064  0.2087 -0.7059
 5072SOL     OW26851   1.823   1.547   2.951  0.0635 -0.3482 -0.0353
 5072SOL    HW126852   1.898   1.588   2.908 -0.8487 -0.7046 -1.9597
 5072SOL    HW226853   1.848   1.563   3.042 -0.7706  1.5345 -0.1288
 5073SOL     OW26854   2.640   1.812   9.090  0.1022  0.0272 -0.2956
 5073SOL    HW126855   2.707   1.877   9.114  1.8247 -1.1387 -1.9066
 5073SOL    HW226856   2.572   1.821   9.157 -0.4344  3.3453 -1.2675
 5074SOL     OW26857   2.738   2.371  15.206  0.2081 -0.2094  0.1403
 5074SOL    HW126858   2.789   2.321  15.142 -1.9187  0.4747 -2.0679
 5074SOL    HW226859   2.730   2.308  15.278 -0.7748  0.6071  0.7365
 5075SOL     OW26860   3.545   3.544   4.717  0.1472 -0.7394  0.0394
 5075SOL    HW126861   3.469   3.486   4.710 -0.4256 -0.2352  1.9936
 5075SOL    HW226862   3.530   3.578   4.806  1.3212 -1.0650  0.3644
 5076SOL     OW26863   3.878   4.163   1.359  0.3511 -0.2640  0.2936
 5076SOL    HW126864   3.854   4.176   1.267 -0.7223  1.6088  0.8223
 5076SOL    HW226865   3.866   4.068   1.365  2.5046 -0.5876 -0.4516
 5077SOL     OW26866   2.841   3.159   7.428  0.2947  0.0961 -0.6200
 5077SOL    HW126867   2.902   3.156   7.501  1.5802 -0.7664 -1.7224
 5077SOL    HW226868   2.817   3.251   7.434  0.2843  0.0748 -0.3358
 5078SOL     OW26869   2.056   1.900   3.806  0.1249 -0.1316  0.1039
 5078SOL    HW126870   2.072   1.920   3.899  3.7606 -1.3970 -0.2513
 5078SOL    HW226871   1.996   1.827   3.819  0.1571 -0.1310  0.2618
 5079SOL     OW26872   3.053   2.179   8.733 -0.1243  0.4213 -0.1919
 5079SOL    HW126873   3.047   2.252   8.795  0.3647  0.0478  0.2825
 5079SOL    HW226874   3.131   2.208   8.687  0.2701  0.6325  0.6087
 5080SOL     OW26875   4.710   1.767   3.181  0.2951  0.6128  0.2166
 5080SOL    HW126876   4.621   1.752   3.150  1.5953 -3.4594 -1.6392
 5080SOL    HW226877   4.693   1.819   3.259  0.7293  2.5759 -1.0098
 5081SOL     OW26878   0.602   4.681   7.323 -0.0867 -0.0490  0.5498
 5081SOL    HW126879   0.522   4.680   7.269 -0.0185  1.8914  0.4034
 5081SOL    HW226880   0.558   4.690   7.408  0.4326  0.7695  0.7309
 5082SOL     OW26881   2.175   2.410   5.776  0.1455 -0.3361 -0.5626
 5082SOL    HW126882   2.178   2.503   5.799 -0.7006 -0.2820 -0.6660
 5082SOL    HW226883   2.111   2.406   5.705  0.1194 -1.2306 -0.4934
 5083SOL     OW26884   1.297   3.258   1.957 -0.1892 -0.5843  0.3358
 5083SOL    HW126885   1.254   3.298   2.032  0.4525  0.4618  0.1402
 5083SOL    HW226886   1.386   3.236   1.983  0.0218 -1.5952 -1.2579
 5084SOL     OW26887   1.876   1.641   3.202  0.2619 -0.6302 -0.1800
 5084SOL    HW126888   1.877   1.568   3.263  0.6847 -0.1812  0.3465
 5084SOL    HW226889   1.786   1.674   3.211  1.2429  1.6283  1.2314
 5085SOL     OW26890   0.416   0.211   7.046 -0.1494  0.7132  0.2577
 5085SOL    HW126891   0.501   0.167   7.038 -0.5801 -0.1533  0.3982
 5085SOL    HW226892   0.369   0.162   6.978 -1.9573  0.6740  1.5455
 5086SOL     OW26893   2.596   1.935   8.845  0.3325  0.6044 -0.2284
 5086SOL    HW126894   2.564   1.902   8.929  2.4558  0.8607  0.6636
 5086SOL    HW226895   2.624   1.853   8.805  3.1438  1.4027  0.1183
 5087SOL     OW26896   3.307   0.456  14.109 -0.1988  0.4642  0.0904
 5087SOL    HW126897   3.277   0.377  14.065 -2.1760  0.8656  0.6741
 5087SOL    HW226898   3.226   0.495  14.145 -1.9282 -3.4026  0.3672
 5088SOL     OW26899   0.869   4.309   2.610  0.3658  0.1974  0.0882
 5088SOL    HW126900   0.935   4.330   2.676 -2.4741 -0.5177  3.1114
 5088SOL    HW226901   0.929   4.268   2.547 -0.7235 -1.6064  0.2502
 5089SOL     OW26902   4.592   3.477   8.650 -0.0351 -0.5517  0.1939
 5089SOL    HW126903   4.577   3.399   8.596 -1.5907  0.2282 -0.5163
 5089SOL    HW226904   4.686   3.494   8.649  0.1465 -1.6551 -1.0993
 5090SOL     OW26905   3.707   0.384   2.147  0.3687  0.1603  0.5435
 5090SOL    HW126906   3.649   0.342   2.211  1.0082 -2.0412 -0.3490
 5090SOL    HW226907   3.644   0.447   2.110  0.3583 -1.6777 -2.5777
 5091SOL     OW26908   1.881   1.990  11.489 -0.0302 -0.2988 -0.2036
 5091SOL    HW126909   1.913   1.900  11.482  0.7766 -0.0716  0.6254
 5091SOL    HW226910   1.808   1.964  11.546 -0.9343  0.2612 -1.0921
 5092SOL     OW26911   4.019   2.464  10.426 -0.4654  0.1422 -0.3643
 5092SOL    HW126912   4.055   2.470  10.338 -1.6850 -0.3192 -0.8922
 5092SOL    HW226913   4.040   2.373  10.445 -0.8009 -0.2778 -2.0233
 5093SOL     OW26914   3.521   4.512   8.568  0.0628  0.2021  0.1340
 5093SOL    HW126915   3.506   4.440   8.507 -0.6856  2.9004 -2.9267
 5093SOL    HW226916   3.607   4.543   8.538 -0.3320  2.4623  1.3531
 5094SOL     OW26917   0.326   4.172  15.444  0.4566  0.5033 -0.1945
 5094SOL    HW126918   0.325   4.257  15.400 -0.8020 -0.9738 -3.0277
 5094SOL    HW226919   0.353   4.124  15.366  0.6347  0.8049 -0.3207
 5095SOL     OW26920   1.536   4.282   1.661 -0.3854 -0.0582 -0.6905
 5095SOL    HW126921   1.572   4.222   1.725  0.7788  1.9844  0.5598
 5095SOL    HW226922   1.589   4.362   1.668 -0.1952 -0.2163 -0.3429
 5096SOL     OW26923   2.198   3.147  13.914  0.1606  0.4609  0.0584
 5096SOL    HW126924   2.169   3.156  14.005  2.5806  2.8354  0.5921
 5096SOL    HW226925   2.288   3.178  13.918  0.0779  0.7224 -0.0757
 5097SOL     OW26926   1.323   4.546  17.638  0.2979  0.1006  0.0743
 5097SOL    HW126927   1.313   4.638  17.664  0.2199 -0.3030  1.4910
 5097SOL    HW226928   1.278   4.501  17.710 -0.8951  0.5211 -0.4011
 5098SOL     OW26929   1.788   1.154  14.910  0.0359  0.1406  0.0041
 5098SOL    HW126930   1.834   1.213  14.850 -0.5782 -1.1727 -1.7655
 5098SOL    HW226931   1.723   1.212  14.949 -0.0946 -1.2411  1.8558
 5099SOL     OW26932   4.692   1.707   6.777  0.6755 -0.0669 -0.1339
 5099SOL    HW126933   0.011   1.675   6.711  1.5250 -1.4841  1.3558
 5099SOL    HW226934   4.613   1.656   6.756  0.8717 -0.8129  0.9183
 5100SOL     OW26935   2.484   3.108  17.598  0.1837  0.0951  0.3200
 5100SOL    HW126936   2.526   3.168  17.659 -0.2468 -0.6192  1.3227
 5100SOL    HW226937   2.405   3.089  17.649 -0.5908  0.1361 -0.8585
 5101SOL     OW26938   1.049   1.802   6.217  0.1731 -0.0875 -0.1829
 5101SOL    HW126939   1.133   1.840   6.245 -0.1572 -0.2333  1.0092
 5101SOL    HW226940   1.020   1.868   6.154 -1.4369 -0.1208  0.5164
 5102SOL     OW26941   4.459   1.816   4.229  0.0729  0.2639  0.1224
 5102SOL    HW126942   4.454   1.828   4.323 -2.8230 -1.0875  0.1447
 5102SOL    HW226943   4.438   1.907   4.207 -1.2244 -0.9424 -3.7500
 5103SOL     OW26944   2.588   4.726   7.307  0.7096  0.0213 -0.5740
 5103SOL    HW126945   2.611   4.670   7.233 -0.5133  0.0078 -0.9367
 5103SOL    HW226946   2.550   0.060   7.265  2.2365  2.4121  2.3878
 5104SOL     OW26947   3.297   2.810  15.203 -0.7990  0.1015  0.5014
 5104SOL    HW126948   3.222   2.788  15.147  0.7256  0.7177 -1.7762
 5104SOL    HW226949   3.364   2.755  15.164 -0.2272  1.7895 -0.9158
 5105SOL     OW26950   0.436   2.902   2.632 -0.1969 -0.3043  0.4265
 5105SOL    HW126951   0.439   2.991   2.597 -1.1414 -1.9750 -3.9102
 5105SOL    HW226952   0.491   2.848   2.575  1.1735 -0.2573  1.6937
 5106SOL     OW26953   3.721   0.164   5.867  0.5188 -0.0273  0.4273
 5106SOL    HW126954   3.630   0.149   5.841  0.5343  1.2807 -0.3963
 5106SOL    HW226955   3.705   0.247   5.914 -0.7033 -0.1778  0.2950
 5107SOL     OW26956   0.198   3.920   8.574 -0.6753 -0.6826  0.1005
 5107SOL    HW126957   0.276   3.885   8.616 -0.3699  2.6244  2.2968
 5107SOL    HW226958   0.209   3.870   8.493  1.1225  0.3297 -0.2781
 5108SOL     OW26959   2.505   2.945   1.553 -0.1979 -0.0639 -0.1989
 5108SOL    HW126960   2.553   2.989   1.624  2.3634  0.2154 -2.1093
 5108SOL    HW226961   2.512   2.852   1.572  1.3098 -0.4602 -2.7877
 5109SOL     OW26962   0.747   2.732   9.120  0.2649  0.8921 -0.3467
 5109SOL    HW126963   0.823   2.676   9.102  0.0334  0.2883  0.5461
 5109SOL    HW226964   0.736   2.777   9.036 -1.4447  2.2282  0.5806
 5110SOL     OW26965   4.291   1.161   5.058  0.4816 -0.4840  0.7539
 5110SOL    HW126966   4.379   1.167   5.019  0.1720  4.1417  0.7451
 5110SOL    HW226967   4.292   1.213   5.139  0.2949 -2.4792  2.0187
 5111SOL     OW26968   3.776   1.590   9.827 -0.4688 -0.5936 -0.1760
 5111SOL    HW126969   3.741   1.517   9.776 -1.0741 -1.8486  2.0340
 5111SOL    HW226970   3.867   1.606   9.805 -0.6199 -1.1150 -1.1829
 5112SOL     OW26971   3.512   2.717  15.058  0.0608 -0.1926  0.1703
 5112SOL    HW126972   3.580   2.761  15.007 -0.3348 -1.2271 -1.2156
 5112SOL    HW226973   3.428   2.720  15.014 -0.7101  0.1376  1.6603
 5113SOL     OW26974   0.597   2.195  15.174 -0.0824  0.2830 -0.4069
 5113SOL    HW126975   0.548   2.267  15.133  0.2467  0.9430  0.3618
 5113SOL    HW226976   0.603   2.225  15.265 -0.6538 -0.4734 -0.1190
 5114SOL     OW26977   4.086   3.482   0.784  0.2426  0.3757 -0.1083
 5114SOL    HW126978   4.058   3.541   0.853 -2.6174  0.0251 -0.9439
 5114SOL    HW226979   4.102   3.403   0.836 -0.5314  0.9103  0.9388
 5115SOL     OW26980   0.724   4.026   8.255  0.6108 -0.0174  0.0366
 5115SOL    HW126981   0.738   3.952   8.197 -1.1919 -0.6344  0.4165
 5115SOL    HW226982   0.691   3.991   8.337  0.9672  1.1623  0.6858
 5116SOL     OW26983   3.254   0.929   5.043  0.2615  0.1999  0.0357
 5116SOL    HW126984   3.242   0.955   5.135 -1.6652  2.0314 -0.7132
 5116SOL    HW226985   3.249   0.837   5.068 -3.2033 -0.0938 -1.6689
 5117SOL     OW26986   0.030   3.696   7.627  0.5468  0.5762 -0.2038
 5117SOL    HW126987   0.077   3.625   7.584 -2.8325 -1.0863 -1.1432
 5117SOL    HW226988   0.089   3.763   7.594 -1.5579  1.6439 -1.7950
 5118SOL     OW26989   1.589   1.784   9.980  0.0427  0.0302  0.9477
 5118SOL    HW126990   1.624   1.715  10.037  0.4062  0.2460  0.9849
 5118SOL    HW226991   1.502   1.749   9.957 -0.1322  0.7777  0.4651
 5119SOL     OW26992   2.310   4.430  17.743 -0.1528 -0.6504 -0.2948
 5119SOL    HW126993   2.301   4.501   0.039 -1.9533  0.0703 -1.3622
 5119SOL    HW226994   2.364   4.470  17.675  0.0834 -0.0542  0.2391
 5120SOL     OW26995   2.632   2.026   8.178 -0.3494  0.6700 -0.1014
 5120SOL    HW126996   2.652   2.038   8.271 -1.6316 -0.2939  0.3104
 5120SOL    HW226997   2.694   1.958   8.152 -0.7285  0.0808  0.5227
 5121SOL     OW26998   2.741   0.073  15.519  0.3249  0.0078 -0.5103
 5121SOL    HW126999   2.652   0.082  15.554  0.8410  3.1732 -0.0298
 5121SOL    HW227000   2.736   4.731  15.474  1.3695 -1.1241  1.4821
 5122SOL     OW27001   3.447   0.544   7.399 -0.2262  0.0054 -0.4554
 5122SOL    HW127002   3.496   0.539   7.317 -0.2386 -0.4703 -0.4333
 5122SOL    HW227003   3.422   0.455   7.422 -0.1413  0.5133  1.6455
 5123SOL     OW27004   1.065   4.226  13.578  0.6130 -0.1961 -0.2174
 5123SOL    HW127005   1.017   4.226  13.661  2.4576 -4.1172  0.8173
 5123SOL    HW227006   1.063   4.133  13.558  1.3882  0.0484 -1.4568
 5124SOL     OW27007   1.818   4.116   7.176 -0.4646 -0.1672  0.3355
 5124SOL    HW127008   1.835   4.140   7.085 -0.2912 -2.6700 -0.2807
 5124SOL    HW227009   1.901   4.135   7.220  0.9186 -3.0617 -1.0395
 5125SOL     OW27010   2.711   3.286   5.119 -0.1773 -0.3479  0.0498
 5125SOL    HW127011   2.798   3.294   5.158  0.6503  3.0701 -2.4838
 5125SOL    HW227012   2.710   3.192   5.097  0.8030 -0.2338 -0.5063
 5126SOL     OW27013   2.339   2.384   1.817 -0.1752 -0.5574  0.2799
 5126SOL    HW127014   2.430   2.409   1.801  0.3929 -0.3628  3.7877
 5126SOL    HW227015   2.328   2.295   1.783 -1.0760 -0.5179  0.4506
 5127SOL     OW27016   4.713   2.979   3.158 -0.1147  1.1220  0.0296
 5127SOL    HW127017   4.681   2.966   3.069  2.3025  0.6110 -0.7425
 5127SOL    HW227018   0.045   2.920   3.158  1.0701  2.6191 -1.5272
 5128SOL     OW27019   2.104   3.575   6.972  0.5518  0.3979 -0.5248
 5128SOL    HW127020   2.064   3.541   6.892 -1.3455  4.4330 -1.2562
 5128SOL    HW227021   2.102   3.670   6.960  0.9054  0.2378 -1.9342
 5129SOL     OW27022   1.926   4.009  11.015 -0.3743  0.2719  0.0245
 5129SOL    HW127023   1.966   3.970  10.937  0.6281  0.7853  0.2919
 5129SOL    HW227024   1.848   3.954  11.023 -0.9778  0.9014 -1.3388
 5130SOL     OW27025   1.249   2.697   1.546  0.3395 -0.4943 -0.1049
 5130SOL    HW127026   1.207   2.769   1.498 -0.5709 -1.9134 -1.4295
 5130SOL    HW227027   1.291   2.751   1.613 -0.2585  0.2245 -0.3041
 5131SOL     OW27028   1.159   3.352   2.752 -0.0592  0.2322 -0.3604
 5131SOL    HW127029   1.127   3.270   2.790  1.6545 -0.7309 -0.9660
 5131SOL    HW227030   1.249   3.323   2.737  0.8922  2.5501  0.8918
 5132SOL     OW27031   0.044   1.516   1.474  0.1237 -0.1845 -0.2671
 5132SOL    HW127032   0.029   1.519   1.380  0.6478  0.9007 -0.3192
 5132SOL    HW227033   0.046   1.611   1.485 -3.3256 -0.1367 -0.1909
 5133SOL     OW27034   2.498   4.404   1.627  0.1887 -0.1004  0.2930
 5133SOL    HW127035   2.408   4.377   1.647  0.0595 -0.0776 -0.2608
 5133SOL    HW227036   2.477   4.451   1.546 -1.5236 -1.9166 -0.3048
 5134SOL     OW27037   1.771   1.150   3.986  0.3790 -0.4693  0.1374
 5134SOL    HW127038   1.832   1.172   4.056 -1.1292  1.7316  0.7818
 5134SOL    HW227039   1.823   1.178   3.911 -0.2686  0.9677  0.2153
 5135SOL     OW27040   4.522   1.665  10.006  0.0493  0.1936 -0.2102
 5135SOL    HW127041   4.453   1.712  10.053 -1.1427  0.7787 -2.5501
 5135SOL    HW227042   4.588   1.659  10.075 -0.9318  0.4151  0.7435
 5136SOL     OW27043   4.027   4.552   4.779  0.1180 -0.2156  0.1631
 5136SOL    HW127044   4.098   4.489   4.788  0.1748 -0.1572  0.1216
 5136SOL    HW227045   4.054   4.627   4.831 -1.6445  0.3993  0.1890
 5137SOL     OW27046   0.042   2.152   2.218  0.0117 -0.5147  0.1035
 5137SOL    HW127047   0.066   2.244   2.204  1.8365 -0.7489  1.6347
 5137SOL    HW227048   0.124   2.105   2.225  0.7008  0.9375  1.7249
 5138SOL     OW27049   0.174   1.987   6.557 -0.3153  0.1478  0.4497
 5138SOL    HW127050   0.216   2.054   6.504 -0.6860 -1.3786 -1.7741
 5138SOL    HW227051   0.218   1.997   6.642  0.3735 -0.5855  0.1751
 5139SOL     OW27052   1.322   2.678   5.377 -0.2949 -0.1018  0.2903
 5139SOL    HW127053   1.251   2.708   5.434  0.0118  0.9787  0.1014
 5139SOL    HW227054   1.371   2.620   5.435  1.4985  2.4582  1.2975
 5140SOL     OW27055   3.318   1.335   9.232 -0.1112 -0.4346 -0.1954
 5140SOL    HW127056   3.240   1.282   9.245  0.9144 -1.2622  2.4996
 5140SOL    HW227057   3.278   1.412   9.190  1.7245 -0.0572 -1.2348
 5141SOL     OW27058   2.387   3.557   4.120  0.0023  0.5994 -0.0765
 5141SOL    HW127059   2.336   3.581   4.042  0.7921 -0.7701 -1.0106
 5141SOL    HW227060   2.472   3.561   4.076 -0.5784 -1.4349 -1.3667
 5142SOL     OW27061   0.244   3.989   2.643  0.5045  0.3946  0.1849
 5142SOL    HW127062   0.316   4.048   2.664  0.8636 -0.4424  1.3178
 5142SOL    HW227063   0.198   4.040   2.577  0.9929  1.3410  0.5715
 5143SOL     OW27064   0.005   3.498  10.771  0.0294  0.1776  0.1559
 5143SOL    HW127065   4.737   3.551  10.692  2.6413 -0.5291 -0.6623
 5143SOL    HW227066   0.079   3.554  10.795 -0.3624  0.6034  0.3744
 5144SOL     OW27067   2.388   0.175   2.065  0.4535 -0.4089 -0.0320
 5144SOL    HW127068   2.394   0.247   2.128 -1.5482  0.3193 -0.6807
 5144SOL    HW227069   2.479   0.146   2.062 -0.3163 -2.9482  1.3885
 5145SOL     OW27070   4.155   3.356  15.875 -0.3478 -0.1256  0.1829
 5145SOL    HW127071   4.248   3.354  15.855 -0.0133 -1.6959  1.9338
 5145SOL    HW227072   4.126   3.407  15.799  1.5309 -2.6675 -2.2564
 5146SOL     OW27073   0.270   3.969  11.204  0.5054  0.4393 -0.3791
 5146SOL    HW127074   0.233   3.918  11.132 -0.0022  1.1993 -0.6567
 5146SOL    HW227075   0.254   3.920  11.284 -0.8533  0.2554 -0.7726
 5147SOL     OW27076   1.495   1.309   5.931  0.1891 -0.2802 -0.3278
 5147SOL    HW127077   1.429   1.319   6.000  0.9071  1.1273  0.1658
 5147SOL    HW227078   1.512   1.400   5.905 -0.8739  0.2968  0.9759
 5148SOL     OW27079   4.044   3.978   0.797  0.4273  0.5097 -0.4170
 5148SOL    HW127080   3.968   4.036   0.808  0.1915 -0.7296  4.3252
 5148SOL    HW227081   4.111   4.046   0.788  3.7755 -2.5482  1.6346
 5149SOL     OW27082   1.378   3.519  14.261 -0.0632 -0.2580  0.1314
 5149SOL    HW127083   1.302   3.513  14.203  1.5906  1.7580 -2.2485
 5149SOL    HW227084   1.338   3.559  14.338 -0.9575 -0.8176 -0.0375
 5150SOL     OW27085   3.605   3.661   6.055 -0.3959  0.2179 -0.6132
 5150SOL    HW127086   3.525   3.609   6.049 -0.3767  0.3329 -1.8605
 5150SOL    HW227087   3.599   3.697   6.143 -1.8056  0.6701 -0.8918
 5151SOL     OW27088   3.927   2.994   6.517 -0.4550 -0.0559  0.9193
 5151SOL    HW127089   3.923   2.955   6.429  0.1729  0.6178  0.5863
 5151SOL    HW227090   3.856   3.058   6.510 -0.5221 -0.1621  0.6412
 5152SOL     OW27091   0.610   3.997   3.622  0.3579  0.0346 -0.2017
 5152SOL    HW127092   0.546   4.002   3.551  0.0932 -1.5559 -0.0768
 5152SOL    HW227093   0.632   4.090   3.627  1.0151 -0.1295  0.0099
 5153SOL     OW27094   4.625   1.493   4.377  0.3186 -0.1252 -0.0251
 5153SOL    HW127095   4.592   1.474   4.289  1.7361 -4.4685  0.3986
 5153SOL    HW227096   4.718   1.501   4.358  0.2072  2.4038  0.3902
 5154SOL     OW27097   0.632   3.123   1.213 -0.0146  0.3149 -0.1063
 5154SOL    HW127098   0.697   3.054   1.229  1.1920  1.6719  0.7704
 5154SOL    HW227099   0.619   3.112   1.119 -3.0292  2.0730  0.0972
 5155SOL     OW27100   2.865   1.683   7.599 -0.4650 -0.2683  0.2842
 5155SOL    HW127101   2.887   1.776   7.586 -2.9505  0.1845 -0.7921
 5155SOL    HW227102   2.772   1.680   7.622 -0.4559 -0.2945  0.3165
 5156SOL     OW27103   4.499   3.702   3.672 -0.2900 -0.1566 -0.4437
 5156SOL    HW127104   4.526   3.619   3.632 -1.5313 -0.5628 -0.4554
 5156SOL    HW227105   4.548   3.776   3.636 -0.7849  1.4193  2.1121
 5157SOL     OW27106   2.084   4.673  17.447 -0.4120  0.0109 -0.1449
 5157SOL    HW127107   2.080   4.579  17.430 -0.5732 -0.1710  0.8524
 5157SOL    HW227108   2.152   4.698  17.385 -1.3382  0.7864 -0.8465
 5158SOL     OW27109   1.820   3.325  14.304 -0.3336  0.5372  0.8419
 5158SOL    HW127110   1.742   3.359  14.261 -1.9463 -1.3020  2.3180
 5158SOL    HW227111   1.886   3.350  14.239  0.4019 -0.1064  1.3404
 5159SOL     OW27112   0.665   3.589  15.387  0.1406  0.5421 -0.0931
 5159SOL    HW127113   0.624   3.529  15.449  0.4847  0.6678  0.2530
 5159SOL    HW227114   0.592   3.647  15.363 -0.7967 -0.6314 -0.0560
 5160SOL     OW27115   1.494   3.277   0.160  0.3314  0.0658  0.5829
 5160SOL    HW127116   1.520   3.243   0.245  3.1714  0.6160 -0.0857
 5160SOL    HW227117   1.468   3.196   0.115  2.1294 -0.5880  0.7514
 5161SOL     OW27118   2.847   0.753  10.051  0.3642  0.9609 -0.5031
 5161SOL    HW127119   2.868   0.703  10.130  0.5381  2.9954  0.7379
 5161SOL    HW227120   2.756   0.779  10.069 -0.2950 -0.5606 -1.6382
 5162SOL     OW27121   3.386   3.484   5.208  0.4712  0.5807  0.7477
 5162SOL    HW127122   3.304   3.515   5.247  0.2706 -0.9091  1.5251
 5162SOL    HW227123   3.425   3.450   5.289 -0.0858  1.2961  1.3207
 5163SOL     OW27124   1.694   2.521  11.444  0.0232  0.3500  0.2441
 5163SOL    HW127125   1.609   2.523  11.400 -0.2102 -0.8556  0.6360
 5163SOL    HW227126   1.741   2.585  11.391  0.8079 -1.8635 -1.7107
 5164SOL     OW27127   4.454   1.193   8.769  0.1300  0.1532 -0.1152
 5164SOL    HW127128   4.539   1.210   8.727  0.0750  0.3757 -0.1378
 5164SOL    HW227129   4.490   1.198   8.857  0.9687  2.3727 -0.5861
 5165SOL     OW27130   0.616   3.038   3.568  0.1017  0.3685 -0.0992
 5165SOL    HW127131   0.645   2.961   3.520  0.3345  0.3933  0.0037
 5165SOL    HW227132   0.533   3.040   3.521  1.0205 -1.5083 -1.7651
 5166SOL     OW27133   1.174   3.400   2.231  0.0420  0.4594 -1.4254
 5166SOL    HW127134   1.235   3.329   2.251  0.0117  1.4369  2.0584
 5166SOL    HW227135   1.208   3.478   2.275  1.6230 -0.6202 -0.7102
 5167SOL     OW27136   4.742   2.711   4.764 -0.1453 -0.7370  0.5293
 5167SOL    HW127137   4.722   2.736   4.674  0.2439  0.4289  0.7763
 5167SOL    HW227138   0.051   2.631   4.751 -0.0584 -0.5114 -0.4886
 5168SOL     OW27139   0.657   0.319  13.890 -0.2896 -0.1640  0.2350
 5168SOL    HW127140   0.611   0.318  13.973 -1.6186  4.1852 -0.4228
 5168SOL    HW227141   0.704   0.241  13.918  0.6285  1.0198  1.9953
 5169SOL     OW27142   1.243   4.308   7.423 -0.4047  0.1083  0.5802
 5169SOL    HW127143   1.181   4.246   7.386  0.1571 -0.1107  0.0006
 5169SOL    HW227144   1.292   4.333   7.344 -0.2349 -0.1829  0.5927
 5170SOL     OW27145   0.569   3.260  17.102 -0.1059  0.2437  0.2765
 5170SOL    HW127146   0.648   3.262  17.048  0.2559  0.9347  0.8315
 5170SOL    HW227147   0.565   3.352  17.127  0.3202  0.2141  0.4520
 5171SOL     OW27148   0.181   2.362   7.205  0.0536 -0.8723  0.3662
 5171SOL    HW127149   0.157   2.275   7.236 -1.3668 -1.8547 -3.3891
 5171SOL    HW227150   0.125   2.372   7.128  0.6096  0.7725  0.1780
 5172SOL     OW27151   1.997   2.728  14.876 -0.3019  0.3988 -0.2287
 5172SOL    HW127152   2.012   2.781  14.797 -0.7734  1.5425  0.4464
 5172SOL    HW227153   2.049   2.651  14.852  2.2460  2.4425 -1.3392
 5173SOL     OW27154   2.884   3.725  15.527  0.9210 -0.0889 -0.5001
 5173SOL    HW127155   2.957   3.705  15.585  0.0839 -0.0095  0.5996
 5173SOL    HW227156   2.850   3.635  15.518 -0.2622 -0.2583  5.2720
 5174SOL     OW27157   1.105   3.553   2.935  0.2723  0.4471  0.4111
 5174SOL    HW127158   1.176   3.525   2.993  0.0418 -2.1397 -0.5544
 5174SOL    HW227159   1.105   3.493   2.860 -0.7347  1.8196 -0.6747
 5175SOL     OW27160   2.690   4.456  10.787 -0.3643 -0.6776  0.1984
 5175SOL    HW127161   2.735   4.538  10.807  0.2365 -1.3984  1.8511
 5175SOL    HW227162   2.700   4.413  10.872  1.5037  0.0707  0.3538
 5176SOL     OW27163   3.767   4.369   4.470 -0.0139 -0.0671 -0.2998
 5176SOL    HW127164   3.710   4.354   4.395  1.5499 -0.3622 -1.4291
 5176SOL    HW227165   3.716   4.426   4.528 -0.4487  0.7528 -1.4946
 5177SOL     OW27166   4.603   3.003   8.491 -0.0458  0.2901 -0.7725
 5177SOL    HW127167   4.598   3.008   8.587 -1.9534  4.6277 -1.0759
 5177SOL    HW227168   4.585   2.910   8.483 -0.3296  0.1617  1.4606
 5178SOL     OW27169   1.383   4.627   7.980 -0.4631  0.8449  0.6014
 5178SOL    HW127170   1.329   4.699   7.946 -2.3197 -0.3203  1.0582
 5178SOL    HW227171   1.326   4.553   8.000 -0.0700 -0.1716 -2.0397
 5179SOL     OW27172   4.345   1.384   0.131  0.4587 -0.0608  0.0960
 5179SOL    HW127173   4.317   1.451   0.068  1.6725  0.8433  0.5222
 5179SOL    HW227174   4.376   1.435   0.206  2.1676  0.3215 -0.8938
 5180SOL     OW27175   3.310   0.639  13.908 -0.4593 -0.5264  0.3852
 5180SOL    HW127176   3.339   0.722  13.946 -0.7322  0.0670 -0.7362
 5180SOL    HW227177   3.338   0.581  13.979 -0.4824 -1.3488 -0.2763
 5181SOL     OW27178   2.689   3.967   7.797 -0.1494  0.9935  0.1286
 5181SOL    HW127179   2.741   3.893   7.830 -0.0156  0.9956 -0.0753
 5181SOL    HW227180   2.701   3.953   7.703 -1.0757  0.1592  0.1286
 5182SOL     OW27181   2.556   0.606   3.157 -0.5917  0.1066  0.0906
 5182SOL    HW127182   2.645   0.587   3.186 -1.1784 -0.7491  1.3305
 5182SOL    HW227183   2.514   0.616   3.242  0.1473  1.3135  0.3137
 5183SOL     OW27184   4.402   4.277   4.689  0.6979 -0.1137  0.3116
 5183SOL    HW127185   4.460   4.206   4.660 -0.1014 -0.9530  0.7464
 5183SOL    HW227186   4.461   4.352   4.689 -0.2432  0.6395  0.3017
 5184SOL     OW27187   0.359   0.322   3.465  0.4642 -0.1086  0.2644
 5184SOL    HW127188   0.447   0.304   3.499  1.2952  2.4710 -0.5095
 5184SOL    HW227189   0.316   0.330   3.550  1.3590  1.9238  0.5404
 5185SOL     OW27190   2.105   4.006   0.903 -0.8009 -0.1803 -0.1979
 5185SOL    HW127191   2.086   4.006   0.809 -0.7425 -1.0725 -0.2113
 5185SOL    HW227192   2.064   3.922   0.925 -0.4964 -0.3189 -0.1497
 5186SOL     OW27193   1.737   4.259  14.085 -0.0922 -0.6255  0.5353
 5186SOL    HW127194   1.756   4.237  13.994  0.6660  0.1215  0.5123
 5186SOL    HW227195   1.760   4.351  14.098  0.2909 -0.2106 -3.2113
 5187SOL     OW27196   3.266   1.586   3.558 -0.2398 -0.5767  0.2586
 5187SOL    HW127197   3.172   1.571   3.549 -0.1759 -1.4807  1.0614
 5187SOL    HW227198   3.264   1.666   3.610 -3.8278 -1.0126  0.7744
 5188SOL     OW27199   2.801   0.044   0.148  0.1061  0.2485  0.6521
 5188SOL    HW127200   2.783   0.133   0.179 -1.6725 -0.2191  0.9623
 5188SOL    HW227201   2.731   0.038   0.083 -0.4787 -1.3965  1.4318
 5189SOL     OW27202   3.337   2.339   9.528 -0.7542  0.1804 -0.3922
 5189SOL    HW127203   3.255   2.302   9.494 -2.6916  1.3910  2.9133
 5189SOL    HW227204   3.296   2.404   9.586 -1.6827 -0.0317 -0.8063
 5190SOL     OW27205   2.516   4.044  14.002 -0.0818  0.4419 -0.8084
 5190SOL    HW127206   2.427   4.071  14.025 -0.3120 -2.7601  2.0407
 5190SOL    HW227207   2.503   3.950  13.985 -0.2736  0.3958 -0.4100
 5191SOL     OW27208   4.343   3.092   6.336  0.4001  0.1521 -0.0323
 5191SOL    HW127209   4.356   3.184   6.312  0.5039 -0.0940 -0.9205
 5191SOL    HW227210   4.380   3.052   6.257  0.2070  0.3622 -0.2316
 5192SOL     OW27211   3.783   4.080  10.179  0.3661 -0.0704 -0.3566
 5192SOL    HW127212   3.698   4.095  10.219  0.3847  0.3236 -0.4721
 5192SOL    HW227213   3.820   4.011  10.235  0.9184  1.1760  0.8021
 5193SOL     OW27214   3.758   1.449   3.453 -0.6841  0.4546 -0.0558
 5193SOL    HW127215   3.773   1.358   3.428  2.8130  1.3407 -1.1321
 5193SOL    HW227216   3.701   1.471   3.380 -0.5039 -0.3741 -0.4472
 5194SOL     OW27217   2.388   1.733   5.695 -0.0111 -0.0886  0.0352
 5194SOL    HW127218   2.333   1.723   5.773 -1.1227 -0.1848 -0.7770
 5194SOL    HW227219   2.334   1.799   5.654  1.2905  1.0766  0.1922
 5195SOL     OW27220   2.397   2.590   2.698 -0.3968  0.4091 -0.1362
 5195SOL    HW127221   2.343   2.598   2.619  0.9459 -1.4362 -1.2312
 5195SOL    HW227222   2.481   2.550   2.679  0.7145  1.8685  1.7098
 5196SOL     OW27223   3.874   0.190   2.750 -0.1060  0.5588  0.3217
 5196SOL    HW127224   3.846   0.249   2.680 -0.0515 -0.6697 -0.7356
 5196SOL    HW227225   3.790   0.152   2.775 -0.2031  0.8061  0.3704
 5197SOL     OW27226   2.590   1.364   5.979 -0.2770  0.1690  0.1224
 5197SOL    HW127227   2.551   1.422   5.914  0.2733  0.5393  0.1269
 5197SOL    HW227228   2.521   1.298   5.989 -1.1453  1.4909  2.8634
 5198SOL     OW27229   1.422   1.041   2.798 -0.2800  0.6145 -0.2675
 5198SOL    HW127230   1.507   1.013   2.762  0.0194  1.4465 -0.2213
 5198SOL    HW227231   1.388   0.954   2.816  2.9508 -1.0132 -1.9247
 5199SOL     OW27232   2.007   2.415   4.906  0.1091 -0.4875  0.0265
 5199SOL    HW127233   1.925   2.433   4.860 -0.5723  0.3459  1.5401
 5199SOL    HW227234   2.065   2.444   4.836 -1.3922  1.0648 -0.5722
 5200SOL     OW27235   1.515   3.438   8.623  0.3737 -0.2343 -0.7761
 5200SOL    HW127236   1.457   3.510   8.647 -0.4265 -0.6323 -1.5292
 5200SOL    HW227237   1.488   3.365   8.679  0.5553  0.5827  0.3883
 5201SOL     OW27238   3.550   3.098   7.315  0.5667  0.6436 -0.4011
 5201SOL    HW127239   3.619   3.032   7.309 -0.9975 -0.8131 -2.6167
 5201SOL    HW227240   3.585   3.155   7.247 -0.2192  0.1267 -1.2398
 5202SOL     OW27241   3.166   3.985   8.414  0.3704  0.4035  0.0146
 5202SOL    HW127242   3.242   4.043   8.413 -0.0348  0.9814  1.4723
 5202SOL    HW227243   3.155   3.981   8.510  1.5858  0.4325  0.1501
 5203SOL     OW27244   1.766   1.947   9.835 -0.1353 -0.3703 -0.6143
 5203SOL    HW127245   1.719   1.922   9.755 -1.9156  1.3844 -0.1051
 5203SOL    HW227246   1.708   1.904   9.897 -0.6523  1.9838  0.5236
 5204SOL     OW27247   3.810   4.368  14.836  0.4164  0.1243 -0.3076
 5204SOL    HW127248   3.777   4.451  14.871  0.2859 -0.5162  1.0852
 5204SOL    HW227249   3.899   4.397  14.815  1.0899 -1.4731  0.3022
 5205SOL     OW27250   1.255   0.725   1.795 -0.1156 -0.2396 -0.3626
 5205SOL    HW127251   1.254   0.771   1.879 -0.4142  0.8665 -0.9720
 5205SOL    HW227252   1.242   0.791   1.728  0.1322 -0.7176 -0.8842
 5206SOL     OW27253   3.197   0.200   2.731 -0.1106 -0.5281 -0.6286
 5206SOL    HW127254   3.194   0.274   2.792  1.1246 -0.8159 -0.2118
 5206SOL    HW227255   3.208   0.120   2.783  2.1805  0.0834 -0.1690
 5207SOL     OW27256   1.671   4.545   4.840 -0.0192 -0.0386 -0.1156
 5207SOL    HW127257   1.715   4.511   4.918  1.2346 -2.0132 -1.6935
 5207SOL    HW227258   1.582   4.558   4.873 -0.3956  0.2832 -1.2289
 5208SOL     OW27259   2.607   1.197   3.261  0.0949  0.5801  0.4304
 5208SOL    HW127260   2.649   1.158   3.339 -0.6955 -0.8442  0.1382
 5208SOL    HW227261   2.674   1.262   3.240 -0.4074  0.1218 -2.5078
 5209SOL     OW27262   4.084   1.754   3.871 -0.2434  0.5530  0.1083
 5209SOL    HW127263   4.033   1.810   3.929 -2.8822  0.1665 -1.8520
 5209SOL    HW227264   4.094   1.801   3.788 -0.0165 -0.5630 -0.5136
 5210SOL     OW27265   1.073   2.560   4.982  0.6385  0.5603 -0.1332
 5210SOL    HW127266   1.102   2.649   4.965  1.1992  0.3004 -0.5202
 5210SOL    HW227267   1.047   2.536   4.894  1.3449 -0.4302 -0.0704
 5211SOL     OW27268   0.893   3.883  11.662  0.1711 -0.0771 -0.0923
 5211SOL    HW127269   0.801   3.902  11.643  0.1967  0.3602  0.2336
 5211SOL    HW227270   0.925   3.853  11.577  0.2946  1.0404 -0.4418
 5212SOL     OW27271   1.734   3.530   5.008 -0.6231 -0.4007 -0.3600
 5212SOL    HW127272   1.710   3.448   4.966 -1.0133 -0.1761 -0.5756
 5212SOL    HW227273   1.660   3.586   4.984 -2.4408 -1.7678  2.1149
 5213SOL     OW27274   0.014   1.874   6.354 -0.7958  0.5234 -0.4009
 5213SOL    HW127275   4.672   1.916   6.368 -0.3553  0.4019  2.5926
 5213SOL    HW227276   0.059   1.906   6.433  0.4010 -0.8214 -0.5360
 5214SOL     OW27277   0.010   4.053   8.695 -0.1333 -0.2253 -0.3134
 5214SOL    HW127278   0.058   3.982   8.652 -1.2214 -1.5393  0.6430
 5214SOL    HW227279   0.010   4.011   8.781 -1.5201  0.8143  0.1956
 5215SOL     OW27280   2.075   2.249  16.699 -0.3087 -0.2117 -0.5365
 5215SOL    HW127281   2.049   2.292  16.618  2.1500  0.5646 -0.9031
 5215SOL    HW227282   1.998   2.249  16.756  0.6614 -1.1539  0.7741
 5216SOL     OW27283   1.666   3.710   9.292 -0.2601 -0.2132  0.0914
 5216SOL    HW127284   1.718   3.790   9.303  2.4131 -2.1134  1.3646
 5216SOL    HW227285   1.595   3.739   9.236 -1.2677 -2.8759 -0.0216
 5217SOL     OW27286   1.345   3.814  14.492 -0.3497  0.2431  0.2198
 5217SOL    HW127287   1.419   3.853  14.538 -0.6927  1.9404 -0.6966
 5217SOL    HW227288   1.308   3.747  14.550 -0.1460  1.2177  1.4600
 5218SOL     OW27289   1.554   1.294  11.922 -0.4829  0.1909  0.0200
 5218SOL    HW127290   1.576   1.230  11.989  1.4422 -1.4933 -2.2032
 5218SOL    HW227291   1.471   1.321  11.962 -0.9571  0.5457 -1.2048
 5219SOL     OW27292   0.949   3.777   3.096  0.0905  0.1186  0.4501
 5219SOL    HW127293   1.011   3.705   3.104  0.1340  0.1611  0.4908
 5219SOL    HW227294   0.928   3.798   3.187  0.7125 -2.3263  1.1378
 5220SOL     OW27295   2.923   3.910   3.912  0.4182  0.1195  0.0520
 5220SOL    HW127296   2.889   3.870   3.992 -1.0818 -1.8519 -1.5554
 5220SOL    HW227297   2.931   3.831   3.859 -1.8081  1.4708 -2.2925
 5221SOL     OW27298   4.401   0.690   7.296 -0.5472  0.3317  0.2999
 5221SOL    HW127299   4.358   0.681   7.382 -0.6982  2.6789  0.4847
 5221SOL    HW227300   4.414   0.785   7.293  2.7329 -0.1670 -1.3326
 5222SOL     OW27301   2.629   2.844   4.384  0.4466 -0.1760 -0.5421
 5222SOL    HW127302   2.643   2.770   4.443  1.2692  1.9965  2.0331
 5222SOL    HW227303   2.669   2.915   4.436  0.2635 -0.5809  0.1487
 5223SOL     OW27304   3.092   0.558  17.023  0.7430  0.5240 -0.5786
 5223SOL    HW127305   3.134   0.544  16.938  1.8497 -1.3950  0.2776
 5223SOL    HW227306   3.013   0.512  16.996  0.2453  1.3888 -0.5673
 5224SOL     OW27307   2.521   1.696   3.443  0.1509 -0.2696  0.5998
 5224SOL    HW127308   2.444   1.659   3.401  0.2986  0.1830 -0.0731
 5224SOL    HW227309   2.532   1.622   3.502 -1.7996 -1.1478 -0.1499
 5225SOL     OW27310   0.782   4.348   1.842 -0.1320 -0.4923  0.1022
 5225SOL    HW127311   0.795   4.420   1.903 -1.4281 -1.4316  1.5040
 5225SOL    HW227312   0.697   4.376   1.808  0.2892 -1.9609 -2.1859
 5226SOL     OW27313   1.529   2.589  12.240  0.2390 -0.3115 -0.3162
 5226SOL    HW127314   1.456   2.599  12.178 -0.7890  0.0858  0.9581
 5226SOL    HW227315   1.505   2.646  12.314  0.7392 -0.1969 -0.2449
 5227SOL     OW27316   2.794   3.822   4.131  0.2456 -0.1823  0.1645
 5227SOL    HW127317   2.756   3.802   4.216 -0.6886 -1.3247 -0.5296
 5227SOL    HW227318   2.746   3.776   4.063 -1.3367 -0.0816  1.2168
 5228SOL     OW27319   2.923   2.003   8.566 -0.1487 -0.4074 -0.7096
 5228SOL    HW127320   2.978   2.046   8.632  1.9292 -2.9858 -0.7357
 5228SOL    HW227321   2.854   2.067   8.552 -1.9217 -2.7976 -2.8688
 5229SOL     OW27322   4.061   3.217   6.946 -0.6548 -0.0931  0.5318
 5229SOL    HW127323   4.003   3.266   6.887  0.4395  3.3779  2.3121
 5229SOL    HW227324   4.016   3.225   7.030  0.7276 -1.1318  1.3682
 5230SOL     OW27325   3.377   2.397   1.758 -0.5035 -0.3718 -0.5139
 5230SOL    HW127326   3.362   2.462   1.826 -1.7680 -1.3125  0.1093
 5230SOL    HW227327   3.471   2.405   1.743 -0.6344  1.3024 -0.3993
 5231SOL     OW27328   1.645   2.383  10.458  0.2008  0.2637  0.3199
 5231SOL    HW127329   1.588   2.307  10.459 -0.5895  0.8862  1.8342
 5231SOL    HW227330   1.677   2.379  10.367 -0.9130  0.5961 -0.0948
 5232SOL     OW27331   3.291   0.623   6.079  0.1683 -0.7635  0.1617
 5232SOL    HW127332   3.281   0.543   6.028  1.8777 -0.2772 -0.9254
 5232SOL    HW227333   3.384   0.629   6.059  0.6829 -4.7167  1.4412
 5233SOL     OW27334   3.250   2.184   4.360 -0.3638 -0.0406  0.6475
 5233SOL    HW127335   3.189   2.155   4.427 -2.3225  0.7736 -0.7866
 5233SOL    HW227336   3.319   2.124   4.387 -0.9422 -2.1787 -2.6570
 5234SOL     OW27337   2.598   3.680  11.791 -0.0149  0.0482 -0.0299
 5234SOL    HW127338   2.613   3.749  11.856  1.9172 -0.8139  0.4295
 5234SOL    HW227339   2.646   3.606  11.827 -0.3362 -0.1794 -0.0709
 5235SOL     OW27340   4.623   3.081  12.250 -0.3791  0.0736 -0.3109
 5235SOL    HW127341   4.569   3.097  12.327  1.6464 -1.8169  1.5086
 5235SOL    HW227342   4.663   2.994  12.263  0.8089  0.9962  2.1996
 5236SOL     OW27343   1.484   2.083   2.997 -0.2489 -0.0749  0.3937
 5236SOL    HW127344   1.563   2.116   3.039  0.4156  0.2338 -1.1060
 5236SOL    HW227345   1.503   1.991   2.977 -0.0185 -0.3936  2.0587
 5237SOL     OW27346   1.079   0.683   1.082 -0.1094 -0.3624  0.2049
 5237SOL    HW127347   1.166   0.654   1.055  0.4013  0.8444  0.5639
 5237SOL    HW227348   1.085   0.779   1.082  2.2633 -0.5171 -0.9134
 5238SOL     OW27349   3.048   0.598   6.269  0.7164 -0.1361 -0.3661
 5238SOL    HW127350   3.040   0.507   6.239 -1.8334  0.2671 -0.8690
 5238SOL    HW227351   3.130   0.621   6.224  0.5248 -1.1843 -1.2559
 5239SOL     OW27352   1.844   1.553  12.846 -0.3444  0.9008  0.8420
 5239SOL    HW127353   1.774   1.580  12.785  1.5369  1.7815 -0.9165
 5239SOL    HW227354   1.802   1.578  12.928  0.2139  0.2885  1.3065
 5240SOL     OW27355   1.443   1.573   3.629 -0.3241 -0.2222 -0.0527
 5240SOL    HW127356   1.446   1.513   3.704 -0.0855  1.1146  1.0090
 5240SOL    HW227357   1.348   1.570   3.616 -0.2887  0.2764 -0.3921
 5241SOL     OW27358   4.247   4.440   5.185  0.2603 -0.3439 -0.0393
 5241SOL    HW127359   4.192   4.518   5.193  1.3743  0.0943  2.9159
 5241SOL    HW227360   4.199   4.397   5.113  2.2724 -3.4565  0.5069
 5242SOL     OW27361   4.601   4.017   8.373 -0.1667 -0.0194 -0.5284
 5242SOL    HW127362   4.582   4.050   8.285 -0.9263 -0.8695 -0.6760
 5242SOL    HW227363   4.559   3.932   8.368  0.4090 -0.2813 -0.8793
 5243SOL     OW27364   4.528   3.766   1.958  0.0898 -0.5201  0.2714
 5243SOL    HW127365   4.532   3.711   1.880 -1.4718 -0.2805  0.0103
 5243SOL    HW227366   4.620   3.769   1.985  0.7035  0.3442 -1.9475
 5244SOL     OW27367   1.817   3.039   2.307  0.8375 -0.4410  0.0122
 5244SOL    HW127368   1.737   3.023   2.357  0.9995 -3.3720 -0.6842
 5244SOL    HW227369   1.863   2.955   2.308  2.0513  0.2186 -2.2864
 5245SOL     OW27370   0.680   0.250   6.465 -0.0671  0.5805  0.2954
 5245SOL    HW127371   0.687   0.155   6.475  3.5142  1.0309  2.1116
 5245SOL    HW227372   0.664   0.258   6.371 -1.4246  0.6767  0.5365
 5246SOL     OW27373   0.910   3.399   7.976  0.9571  0.3998  0.0991
 5246SOL    HW127374   0.928   3.479   8.025  0.6517  1.3999 -1.4209
 5246SOL    HW227375   0.912   3.433   7.886  1.9481 -3.4018 -1.3288
 5247SOL     OW27376   3.771   3.845   2.026 -0.5707 -0.1588  0.1653
 5247SOL    HW127377   3.802   3.851   2.117 -1.6530  0.4690  0.5036
 5247SOL    HW227378   3.764   3.936   1.997 -0.1998 -0.4851 -0.9315
 5248SOL     OW27379   2.565   4.254  12.002 -0.3792  0.3156  0.7272
 5248SOL    HW127380   2.482   4.270  12.047 -1.6199  2.7450 -2.4400
 5248SOL    HW227381   2.556   4.178  11.945 -1.8170  0.4996  0.7166
 5249SOL     OW27382   0.755   1.451   2.959 -0.1286  0.4482 -0.1778
 5249SOL    HW127383   0.699   1.415   3.028  0.5075 -1.5509 -0.7000
 5249SOL    HW227384   0.699   1.437   2.882 -0.7631  3.1635 -0.2215
 5250SOL     OW27385   1.091   2.149   9.191  0.5958 -0.4552 -0.7220
 5250SOL    HW127386   1.166   2.168   9.134  0.7287 -2.0196 -1.0682
 5250SOL    HW227387   1.106   2.057   9.209  1.5201 -0.5776 -2.1183
 5251SOL     OW27388   1.315   4.474  15.337  0.0532 -0.5989 -0.7104
 5251SOL    HW127389   1.340   4.539  15.271 -2.6682  0.2572 -0.8930
 5251SOL    HW227390   1.364   4.504  15.414  1.7307 -0.6952 -1.7337
 5252SOL     OW27391   0.663   0.003   4.733  0.3004 -0.3382 -0.3064
 5252SOL    HW127392   0.575   4.707   4.736 -0.1807  0.7896  0.4430
 5252SOL    HW227393   0.642   0.073   4.795 -5.3897 -0.8528 -1.6558
 5253SOL     OW27394   4.152   0.662   3.967 -0.3498  0.5465  0.2879
 5253SOL    HW127395   4.165   0.754   3.991 -1.9578  0.7798  0.2762
 5253SOL    HW227396   4.244   0.638   3.956 -0.9159 -1.0699 -0.9857
 5254SOL     OW27397   4.314   3.647   2.692 -0.0551  0.0295 -0.8513
 5254SOL    HW127398   4.359   3.639   2.607  1.7287 -4.5810  0.5218
 5254SOL    HW227399   4.357   3.720   2.735 -2.2613  0.4410  0.6218
 5255SOL     OW27400   3.189   0.205   7.375  0.5911 -0.3842  0.0639
 5255SOL    HW127401   3.161   0.248   7.294  1.9083  1.4492  0.5658
 5255SOL    HW227402   3.256   0.146   7.342 -0.3154 -0.3631 -1.7743
 5256SOL     OW27403   1.897   1.935   6.220  0.5092  0.1767  0.4021
 5256SOL    HW127404   1.822   1.972   6.173 -0.6635 -1.4482  0.9937
 5256SOL    HW227405   1.874   1.952   6.311  1.5203  0.5300  0.5922
 5257SOL     OW27406   3.908   3.520   5.873 -0.1809 -0.1183 -0.6093
 5257SOL    HW127407   3.954   3.536   5.955 -1.7117  0.0771  0.2126
 5257SOL    HW227408   3.974   3.469   5.826 -0.7053 -1.4751  0.1347
 5258SOL     OW27409   0.041   3.021  17.307  0.6279 -0.0964 -0.2521
 5258SOL    HW127410   4.742   2.937  17.287  0.6744  0.0558 -0.9731
 5258SOL    HW227411   4.711   3.055  17.360  0.6456  0.8421 -0.8298
 5259SOL     OW27412   4.038   4.168   4.858 -0.3566  0.0967  0.3162
 5259SOL    HW127413   3.966   4.143   4.916  1.6666  0.8989  3.1005
 5259SOL    HW227414   3.981   4.222   4.802  0.5909  1.0533  0.2949
 5260SOL     OW27415   2.894   2.689   2.806 -0.2864 -0.1134  0.5135
 5260SOL    HW127416   2.902   2.714   2.714  2.3736 -0.5839  0.6387
 5260SOL    HW227417   2.903   2.775   2.847  1.0475  0.3023 -0.6805
 5261SOL     OW27418   1.889   3.194  14.927 -0.0834  0.3077  0.1678
 5261SOL    HW127419   1.923   3.283  14.935 -2.0193  0.8948  1.7508
 5261SOL    HW227420   1.796   3.215  14.933 -0.0774  0.7856 -1.2848
 5262SOL     OW27421   0.418   2.601   4.038 -0.0290 -0.0501  0.2081
 5262SOL    HW127422   0.356   2.552   4.092  0.9917 -1.9014 -0.2687
 5262SOL    HW227423   0.357   2.668   4.008  1.1259  0.7694 -0.2923
 5263SOL     OW27424   3.869   3.906   7.102  0.0919 -0.0997 -0.3742
 5263SOL    HW127425   3.913   3.826   7.075 -1.1886 -1.2969  1.1768
 5263SOL    HW227426   3.879   3.902   7.197  0.8910  0.2083 -0.4416
 5264SOL     OW27427   0.745   1.475   1.096 -0.4434  0.4507 -0.4126
 5264SOL    HW127428   0.797   1.526   1.035 -0.1949  0.1626 -0.4398
 5264SOL    HW227429   0.686   1.543   1.130 -1.7266 -0.4464 -0.8236
 5265SOL     OW27430   0.731   4.370   8.246 -0.2877  0.0752 -0.5361
 5265SOL    HW127431   0.706   4.340   8.334  0.3462  0.7018 -0.1453
 5265SOL    HW227432   0.658   4.339   8.193 -0.5081  0.6714 -0.5800
 5266SOL     OW27433   4.680   3.377  16.273 -0.7246  0.3614  0.2180
 5266SOL    HW127434   4.673   3.470  16.251 -0.6081  0.4098  0.3854
 5266SOL    HW227435   4.719   3.335  16.197  1.0310  2.6971 -0.1710
 5267SOL     OW27436   0.311   4.348   1.594 -0.6609  0.4761 -0.0312
 5267SOL    HW127437   0.315   4.260   1.557 -2.5245  0.0706  0.7004
 5267SOL    HW227438   0.232   4.372   1.546 -1.7228 -1.7498  0.5956
 5268SOL     OW27439   4.730   3.973   1.476 -0.1183 -0.4890 -0.3359
 5268SOL    HW127440   4.678   4.052   1.464  1.3827  0.2759 -1.9218
 5268SOL    HW227441   4.720   3.957   1.570 -2.1066  1.2639 -0.2456
 5269SOL     OW27442   2.600   1.542   3.099 -0.2144  0.0435 -0.4080
 5269SOL    HW127443   2.678   1.503   3.138 -2.2519 -3.2950  0.3896
 5269SOL    HW227444   2.531   1.476   3.104  1.3349 -1.6523 -1.5984
 5270SOL     OW27445   1.947   0.085   1.491  0.0626  0.3720 -0.0803
 5270SOL    HW127446   1.901   0.169   1.496  1.5185  1.1501  0.3311
 5270SOL    HW227447   2.023   0.113   1.543 -1.0055  0.8334  1.2066
 5271SOL     OW27448   4.196   2.096  14.885  0.1645  0.1661  0.1033
 5271SOL    HW127449   4.198   2.020  14.944 -1.5553  1.2091  1.4997
 5271SOL    HW227450   4.286   2.096  14.852 -0.0573  2.1914 -0.5032
 5272SOL     OW27451   2.996   0.154   3.796  0.1696  0.7467 -0.2797
 5272SOL    HW127452   3.024   0.099   3.870 -1.3259  1.1287  0.5631
 5272SOL    HW227453   2.907   0.176   3.822  0.2271 -0.1451  0.6825
 5273SOL     OW27454   0.196   3.771  14.980  0.1681 -0.1438 -0.3103
 5273SOL    HW127455   0.161   3.813  14.902  0.8973 -1.2608 -1.2385
 5273SOL    HW227456   0.280   3.816  14.985 -1.1478  2.6389 -3.6042
 5274SOL     OW27457   3.582   1.788   9.748  0.2963  0.5402  0.4090
 5274SOL    HW127458   3.544   1.801   9.835  1.1700 -1.7583  1.1105
 5274SOL    HW227459   3.654   1.730   9.772  2.1124  2.2370 -0.9066
 5275SOL     OW27460   1.395   3.234   3.670 -0.0105 -0.4403 -0.3618
 5275SOL    HW127461   1.346   3.155   3.646  1.7656 -1.0905 -1.8167
 5275SOL    HW227462   1.433   3.263   3.588 -1.3253  2.2530 -0.0070
 5276SOL     OW27463   3.006   1.797   4.407 -0.9480  0.1836 -0.4369
 5276SOL    HW127464   2.965   1.848   4.476  1.5084  0.4519  0.8183
 5276SOL    HW227465   3.022   1.717   4.458  1.6042  1.5150  0.8070
 5277SOL     OW27466   2.916   3.393   3.754  0.3562  0.2101  0.1281
 5277SOL    HW127467   2.823   3.370   3.751  0.3432  0.8235 -5.0800
 5277SOL    HW227468   2.929   3.354   3.840  0.8432 -2.4765 -1.1782
 5278SOL     OW27469   0.990   3.340   4.482 -0.2466 -0.3338 -1.1601
 5278SOL    HW127470   0.969   3.247   4.478 -1.8281 -0.0059 -0.6791
 5278SOL    HW227471   0.985   3.357   4.388 -1.7623  0.7356 -0.8934
 5279SOL     OW27472   3.653   2.057  15.386  0.3155 -0.2726 -0.1435
 5279SOL    HW127473   3.690   1.970  15.374  2.7638  0.8239 -0.4505
 5279SOL    HW227474   3.730   2.114  15.389  0.6646 -0.6743 -1.3846
 5280SOL     OW27475   2.840   2.483   8.954 -0.4200  0.4263  0.3831
 5280SOL    HW127476   2.897   2.414   8.987 -0.8081  0.2895  0.7717
 5280SOL    HW227477   2.914   2.535   8.925 -1.0263 -0.2108 -2.3387
 5281SOL     OW27478   3.293   4.680   4.374 -0.3671  0.0415 -0.7029
 5281SOL    HW127479   3.316   4.693   4.282  1.0551  0.7029 -0.2567
 5281SOL    HW227480   3.289   4.585   4.389  1.5941  0.3882  2.0116
 5282SOL     OW27481   1.849   2.212  14.652  0.2273 -0.4859  0.2859
 5282SOL    HW127482   1.778   2.188  14.711  0.0657  3.1538  1.5484
 5282SOL    HW227483   1.804   2.259  14.582  0.4048  1.6721  1.6233
 5283SOL     OW27484   0.112   3.834   8.149 -0.0418  0.2040 -0.1753
 5283SOL    HW127485   0.036   3.782   8.173  0.8049 -1.8716 -2.0235
 5283SOL    HW227486   0.108   3.909   8.208  2.2811  0.8855 -0.8849
 5284SOL     OW27487   2.673   1.074  17.419  0.3419  0.1489  0.1731
 5284SOL    HW127488   2.710   1.120  17.344  0.9465  1.3342  1.1886
 5284SOL    HW227489   2.647   0.990  17.383  1.2945 -0.0748  0.0162
 5285SOL     OW27490   3.193   3.225   7.903 -0.0409  0.2668  0.5026
 5285SOL    HW127491   3.160   3.162   7.967 -1.8904  0.1332 -0.6075
 5285SOL    HW227492   3.266   3.176   7.865  0.3834  2.5723 -1.6351
 5286SOL     OW27493   1.415   3.037   1.591  1.1257 -0.6060 -0.3788
 5286SOL    HW127494   1.362   3.112   1.617  0.4605 -1.0855 -0.3546
 5286SOL    HW227495   1.376   2.967   1.642  1.8157 -1.7821 -1.4765
 5287SOL     OW27496   3.183   2.263   9.263  0.4111 -0.1771 -0.1933
 5287SOL    HW127497   3.227   2.178   9.270  2.4527  0.7418 -1.9062
 5287SOL    HW227498   3.258   2.318   9.242 -0.3614  0.8790 -0.2071
 5288SOL     OW27499   2.927   3.546   4.726  0.0250  0.0297  0.0740
 5288SOL    HW127500   2.998   3.599   4.761 -0.0147  0.8989 -1.1356
 5288SOL    HW227501   2.916   3.583   4.638 -0.5147  0.7433  0.4393
 5289SOL     OW27502   1.732   0.647   6.069  0.5889  0.1989 -0.9073
 5289SOL    HW127503   1.669   0.641   6.142  0.7915  0.6435 -0.6938
 5289SOL    HW227504   1.669   0.660   5.998  1.5092 -0.7095 -1.8927
 5290SOL     OW27505   0.026   1.855  15.537  0.2263 -1.0491  0.1383
 5290SOL    HW127506   0.074   1.929  15.502  1.3007 -2.5572 -1.5694
 5290SOL    HW227507   4.680   1.879  15.509 -0.6834 -0.7646  3.2813
 5291SOL     OW27508   2.296   3.091   8.060 -0.0182 -0.2503 -0.0105
 5291SOL    HW127509   2.259   3.020   8.007 -0.3671  0.3833 -0.6208
 5291SOL    HW227510   2.273   3.163   8.001  1.0305  0.7379  0.7944
 5292SOL     OW27511   1.435   4.702  16.011  0.3733 -0.0944  0.2304
 5292SOL    HW127512   1.420   0.015  16.087 -1.5229 -1.1444  0.6337
 5292SOL    HW227513   1.530   4.686  16.016  0.6660  1.7920  0.4909
 5293SOL     OW27514   2.299   2.672   7.020 -0.1625 -0.0292  0.4228
 5293SOL    HW127515   2.292   2.763   6.993  2.4131  0.7148  2.2054
 5293SOL    HW227516   2.307   2.680   7.115 -0.3438 -2.4264  0.6489
 5294SOL     OW27517   2.372   3.265   4.476  0.2292 -0.1430  0.1682
 5294SOL    HW127518   2.320   3.292   4.400 -0.9823 -0.8236  0.7550
 5294SOL    HW227519   2.291   3.270   4.526  0.0785 -2.0432  0.1347
 5295SOL     OW27520   0.184   3.263   4.138  0.0497  0.1953  0.2033
 5295SOL    HW127521   0.126   3.264   4.213 -0.6120  1.5850 -0.3169
 5295SOL    HW227522   0.245   3.195   4.165 -0.8269 -0.5001  0.4229
 5296SOL     OW27523   3.672   2.495  14.504  0.0519 -0.9924  0.2642
 5296SOL    HW127524   3.760   2.473  14.537  1.5325  2.3128 -1.5439
 5296SOL    HW227525   3.695   2.568  14.447  0.1810 -0.7250  0.6574
 5297SOL     OW27526   1.092   1.241   0.983 -0.0649  0.4519  0.2249
 5297SOL    HW127527   1.177   1.200   0.997 -0.1731 -0.6492 -2.4137
 5297SOL    HW227528   1.032   1.193   1.040 -1.9502  2.0952 -0.3801
 5298SOL     OW27529   0.754   2.465   3.189 -0.0200 -0.0283  0.1740
 5298SOL    HW127530   0.727   2.412   3.264  1.1858  0.9246  1.3059
 5298SOL    HW227531   0.845   2.442   3.169 -0.6918 -1.8249 -0.7432
 5299SOL     OW27532   2.762   2.962   8.372  0.1868  0.4416 -0.1796
 5299SOL    HW127533   2.789   3.008   8.452 -2.3076  0.6384  0.5666
 5299SOL    HW227534   2.754   2.876   8.413  1.0810 -0.9486 -2.9163
 5300SOL     OW27535   3.986   1.860   2.740 -0.1480 -0.5877 -0.0754
 5300SOL    HW127536   3.949   1.878   2.826 -3.1356 -1.4276 -1.1509
 5300SOL    HW227537   4.076   1.829   2.750  0.5280  1.3519 -0.1114
 5301SOL     OW27538   2.056   3.861  17.581 -0.3021 -0.4568  0.5204
 5301SOL    HW127539   1.990   3.792  17.586  0.4131 -1.1584  0.2285
 5301SOL    HW227540   2.084   3.848  17.490  0.9374 -1.5352  1.0655
 5302SOL     OW27541   3.907   0.556   1.810  0.0989  0.1368 -0.1850
 5302SOL    HW127542   3.836   0.616   1.833  1.5027  2.0883 -0.9217
 5302SOL    HW227543   3.852   0.500   1.755  0.2316  0.2071 -0.3881
 5303SOL     OW27544   0.725   1.903  14.236 -0.0334 -0.5595 -0.3400
 5303SOL    HW127545   0.738   1.869  14.147 -0.2218  1.4528 -1.1278
 5303SOL    HW227546   0.761   1.827  14.282 -1.0215  0.2585  1.7962
 5304SOL     OW27547   3.200   2.177   8.002 -0.4023 -0.1710 -0.4138
 5304SOL    HW127548   3.192   2.103   7.941  1.9706 -0.3801 -0.4857
 5304SOL    HW227549   3.239   2.240   7.941  0.4581 -1.4441 -1.1977
 5305SOL     OW27550   3.924   2.336   7.171 -0.0428  0.0870 -0.5856
 5305SOL    HW127551   3.911   2.243   7.152  2.1785 -0.5799  1.2796
 5305SOL    HW227552   3.930   2.371   7.082 -2.8232 -2.5888 -1.8178
 5306SOL     OW27553   2.096   2.409   8.166 -0.0300  0.0387  0.4650
 5306SOL    HW127554   2.029   2.444   8.107  1.6188 -1.3154 -2.2027
 5306SOL    HW227555   2.160   2.362   8.113  0.6960  0.8050  0.6545
 5307SOL     OW27556   3.176   0.144   4.561  0.3614 -0.4426  0.3480
 5307SOL    HW127557   3.255   0.198   4.554  1.5551 -2.2624 -0.1084
 5307SOL    HW227558   3.187   0.078   4.493  1.8080  0.6192 -0.4457
 5308SOL     OW27559   1.273   0.749  15.451  0.3821  0.1582  0.4959
 5308SOL    HW127560   1.290   0.722  15.361  1.2818 -0.8912  0.9861
 5308SOL    HW227561   1.325   0.829  15.461 -1.1642  1.1863  0.3023
 5309SOL     OW27562   0.896   3.994   8.811 -0.5230 -0.8494  0.5416
 5309SOL    HW127563   0.915   4.085   8.790  1.7370 -1.0095  1.9359
 5309SOL    HW227564   0.881   3.958   8.724 -0.2364 -0.4142  0.3140
 5310SOL     OW27565   3.123   3.307   1.873 -0.5802  0.2362  0.2496
 5310SOL    HW127566   3.095   3.230   1.923 -0.1974 -0.1184 -0.0726
 5310SOL    HW227567   3.178   3.265   1.806 -2.1379 -1.9238  0.3275
 5311SOL     OW27568   2.895   1.224  15.850  0.0423  0.0348  0.5740
 5311SOL    HW127569   2.848   1.301  15.819 -1.4183 -0.8128  0.7007
 5311SOL    HW227570   2.965   1.224  15.785 -1.5058 -3.2699 -1.1002
 5312SOL     OW27571   1.631   1.576  13.757  0.1706  0.0895 -0.2590
 5312SOL    HW127572   1.546   1.579  13.801  1.8065  3.3115  2.6948
 5312SOL    HW227573   1.688   1.587  13.834 -2.0780  0.1209  1.3855
 5313SOL     OW27574   3.720   4.200   0.602 -0.3809  0.2272  0.0875
 5313SOL    HW127575   3.627   4.199   0.624 -0.9154 -2.0910 -2.2746
 5313SOL    HW227576   3.733   4.130   0.539  1.6683  2.8669 -2.3886
 5314SOL     OW27577   0.486   4.569   4.484  0.3938 -0.0772 -0.6374
 5314SOL    HW127578   0.545   4.513   4.534 -2.8767 -2.1148  0.9535
 5314SOL    HW227579   0.536   4.568   4.403  1.7740  0.4700  0.2048
 5315SOL     OW27580   2.554   0.818   7.460 -0.2871 -0.0594  0.4383
 5315SOL    HW127581   2.486   0.777   7.514  0.1222 -1.2302  0.0684
 5315SOL    HW227582   2.515   0.795   7.376 -2.9252 -1.4783  2.0548
 5316SOL     OW27583   4.312   0.278   0.196 -0.2839  0.0985  0.2264
 5316SOL    HW127584   4.312   0.222   0.274  0.4769 -0.1844  0.0216
 5316SOL    HW227585   4.234   0.333   0.208  0.2792  1.3779 -1.9521
 5317SOL     OW27586   0.024   0.976   2.615 -0.1422  0.0861  0.3849
 5317SOL    HW127587   0.117   0.954   2.622 -0.3495 -1.0945 -0.7095
 5317SOL    HW227588   4.740   0.939   2.530 -1.4283  0.3550  0.6665
 5318SOL     OW27589   3.699   2.602  14.210 -0.1582  0.2359 -0.4541
 5318SOL    HW127590   3.769   2.642  14.261  0.2153 -2.1111  0.8707
 5318SOL    HW227591   3.757   2.548  14.158 -1.3299  0.2570 -1.7648
 5319SOL     OW27592   4.299   3.663   5.044  0.3867 -0.4996 -0.0902
 5319SOL    HW127593   4.339   3.634   4.962  0.6790 -0.8896  0.1963
 5319SOL    HW227594   4.262   3.579   5.069 -4.6939  1.6214 -0.4822
 5320SOL     OW27595   0.731   0.257   0.588 -0.2926  0.0983 -0.3742
 5320SOL    HW127596   0.644   0.250   0.547 -1.1654  1.5864  1.2410
 5320SOL    HW227597   0.709   0.298   0.671  0.8235  0.4113 -0.2357
 5321SOL     OW27598   4.310   0.663  11.602 -0.0989 -0.3171  0.1758
 5321SOL    HW127599   4.226   0.688  11.563  1.2841 -0.2904 -2.7635
 5321SOL    HW227600   4.298   0.719  11.679 -1.2956  0.8346 -0.8462
 5322SOL     OW27601   0.708   1.476   8.530 -0.7916  0.6760  0.1489
 5322SOL    HW127602   0.642   1.409   8.512 -0.1639  0.0407  0.2209
 5322SOL    HW227603   0.695   1.530   8.452  1.3196  0.3264 -0.4349
 5323SOL     OW27604   2.609   3.326   2.114 -0.1806  0.0040 -0.3227
 5323SOL    HW127605   2.524   3.370   2.108 -0.2683 -0.1110  0.0806
 5323SOL    HW227606   2.647   3.374   2.188 -0.0601 -0.4121 -0.1159
 5324SOL     OW27607   3.064   3.050   7.175 -0.6197 -0.1662 -0.0790
 5324SOL    HW127608   2.991   2.991   7.191 -0.2884 -0.1538  1.5177
 5324SOL    HW227609   3.028   3.139   7.178 -0.3870 -0.1557  2.1737
 5325SOL     OW27610   2.289   2.599   6.631 -0.5204  0.2023 -0.0662
 5325SOL    HW127611   2.360   2.560   6.580 -0.5185 -0.5473  0.5265
 5325SOL    HW227612   2.272   2.535   6.700  1.3519 -0.8235 -0.5558
 5326SOL     OW27613   2.245   2.290   9.772  0.3908  0.4087 -0.2501
 5326SOL    HW127614   2.183   2.217   9.764 -0.5831  1.1829  0.3118
 5326SOL    HW227615   2.271   2.307   9.682  1.3440  0.1258 -0.0300
 5327SOL     OW27616   3.639   3.376   3.880 -0.1668 -0.8140 -0.1493
 5327SOL    HW127617   3.678   3.336   3.802  1.3358 -0.4719  0.4274
 5327SOL    HW227618   3.717   3.385   3.935 -0.2975  0.8406 -0.2402
 5328SOL     OW27619   1.110   2.386   1.938 -0.2125  0.3569 -0.5002
 5328SOL    HW127620   1.054   2.463   1.939  1.5390  1.6353 -0.8642
 5328SOL    HW227621   1.178   2.423   1.882  0.3958 -1.1704 -0.7698
 5329SOL     OW27622   1.712   0.352   3.981 -0.1000  0.3366  0.1119
 5329SOL    HW127623   1.664   0.430   4.011 -1.0853  0.3649 -1.5210
 5329SOL    HW227624   1.729   0.376   3.890  0.7186  1.8393  0.6631
 5330SOL     OW27625   2.059   3.088  12.013 -0.3939  0.1292 -0.4537
 5330SOL    HW127626   1.988   3.086  12.078  0.0892  1.1425  0.1092
 5330SOL    HW227627   2.092   3.178  12.019 -0.6979  0.1431  1.0548
 5331SOL     OW27628   2.589   2.356  12.128  0.3692 -0.1980 -0.2496
 5331SOL    HW127629   2.645   2.423  12.167 -2.7923  1.1362  2.0040
 5331SOL    HW227630   2.636   2.318  12.053  0.5022 -1.1625  0.3164
 5332SOL     OW27631   0.157   3.264   9.732  0.1623  0.3412  0.1575
 5332SOL    HW127632   0.218   3.231   9.797 -1.6012 -1.2548  0.9940
 5332SOL    HW227633   0.206   3.336   9.691  0.4693  0.1999  0.2721
 5333SOL     OW27634   3.125   3.512   9.933 -0.0516  0.3048  0.4208
 5333SOL    HW127635   3.137   3.490   9.841  2.7111  1.0805  0.6099
 5333SOL    HW227636   3.199   3.466   9.972 -0.9722 -0.1877  1.5906
 5334SOL     OW27637   0.949   4.416   4.043 -0.0506 -0.0006  0.2193
 5334SOL    HW127638   0.860   4.385   4.023  0.0094  0.3522 -0.5622
 5334SOL    HW227639   0.916   4.486   4.100  0.7097 -0.3102  1.0343
 5335SOL     OW27640   3.428   2.272   3.258  0.4121  0.1249  0.1488
 5335SOL    HW127641   3.358   2.322   3.300  0.6599  0.4654  0.1493
 5335SOL    HW227642   3.458   2.213   3.327  2.1870 -0.7442 -1.3775
 5336SOL     OW27643   0.736   1.873   1.835 -0.0990  0.0699 -0.3465
 5336SOL    HW127644   0.682   1.928   1.892  0.3818 -0.3304  0.4994
 5336SOL    HW227645   0.773   1.944   1.782  0.2852 -0.2390 -0.4863
 5337SOL     OW27646   1.893   4.134   3.329 -0.2427 -0.2860 -0.7705
 5337SOL    HW127647   1.868   4.193   3.258 -1.0881 -0.0904 -0.3107
 5337SOL    HW227648   1.936   4.186   3.396 -0.5122 -2.5086  1.1187
 5338SOL     OW27649   3.704   1.986   6.781  0.2415  0.5208 -0.5012
 5338SOL    HW127650   3.784   2.020   6.821  0.2534  1.1932 -1.0922
 5338SOL    HW227651   3.746   1.917   6.730 -1.1764 -0.2292 -0.6521
 5339SOL     OW27652   1.518   0.374  15.277 -0.7156  0.2414 -0.4165
 5339SOL    HW127653   1.572   0.330  15.212  1.2439 -0.8751  1.9501
 5339SOL    HW227654   1.547   0.335  15.360 -0.8262 -2.5116 -1.6763
 5340SOL     OW27655   0.305   4.538   1.786  0.0425  0.1042 -0.1291
 5340SOL    HW127656   0.302   4.466   1.722  1.4504  1.4393 -1.6831
 5340SOL    HW227657   0.358   4.609   1.751 -0.4232  1.0096  1.0112
 5341SOL     OW27658   3.169   4.292   0.718  0.4561  0.0432  0.1630
 5341SOL    HW127659   3.134   4.283   0.629 -2.9771  0.6316  1.4565
 5341SOL    HW227660   3.218   4.210   0.723  1.2660  0.4385 -1.4544
 5342SOL     OW27661   1.512   3.329   5.164 -0.5619 -0.1323  0.1584
 5342SOL    HW127662   1.486   3.280   5.242 -0.6514 -1.8457 -0.9595
 5342SOL    HW227663   1.603   3.299   5.154 -0.2171  1.1812 -0.5675
 5343SOL     OW27664   3.755   0.032   2.333  0.7053 -0.1876 -0.3590
 5343SOL    HW127665   3.776   0.050   2.424 -2.1951 -0.0925  0.3038
 5343SOL    HW227666   3.686   0.098   2.320  0.2947 -0.7943 -1.2789
 5344SOL     OW27667   4.044   1.338  16.989  0.4094 -0.8376  0.6066
 5344SOL    HW127668   4.116   1.278  16.971 -0.5067 -2.3077  1.7388
 5344SOL    HW227669   4.047   1.408  16.924 -1.6779 -1.0473  0.2896
 5345SOL     OW27670   2.363   4.636   8.915 -0.2277 -0.3569 -0.3913
 5345SOL    HW127671   2.330   4.715   8.872 -2.1343  0.0052  1.7836
 5345SOL    HW227672   2.393   4.597   8.832 -1.3873  0.2220 -1.0751
 5346SOL     OW27673   1.905   1.286   8.790 -0.2361  0.0412 -0.2704
 5346SOL    HW127674   1.934   1.252   8.706 -0.1634 -1.9902  0.5738
 5346SOL    HW227675   1.823   1.239   8.799  0.4310 -0.5134  3.2307
 5347SOL     OW27676   0.758   0.905   1.971 -0.2304 -0.2692 -0.1278
 5347SOL    HW127677   0.725   0.938   2.054 -1.6810 -0.1060 -0.7771
 5347SOL    HW227678   0.682   0.885   1.917  0.2265 -0.3631 -0.7480
 5348SOL     OW27679   4.501   3.209  16.437 -0.2168  0.0214  0.4256
 5348SOL    HW127680   4.430   3.268  16.463 -1.0954 -1.2507  0.9169
 5348SOL    HW227681   4.550   3.274  16.387  0.5366 -2.1753 -1.6571
 5349SOL     OW27682   2.856   2.005   5.643  0.2402 -0.0053  0.1760
 5349SOL    HW127683   2.892   1.923   5.610  0.9208  0.5408 -0.4382
 5349SOL    HW227684   2.771   2.023   5.603 -0.3244 -1.4792  0.7118
 5350SOL     OW27685   4.125   4.044   5.617 -0.1018 -0.3852  0.0770
 5350SOL    HW127686   4.123   3.997   5.700  1.3415 -0.4239  0.0931
 5350SOL    HW227687   4.177   3.986   5.561 -0.1984 -0.4971  0.1038
 5351SOL     OW27688   4.650   2.105   3.081  0.3691 -0.5980 -0.4279
 5351SOL    HW127689   4.598   2.041   3.033 -0.2783  1.0976 -2.0119
 5351SOL    HW227690   4.727   2.111   3.025 -0.8789 -1.7306 -2.2949
 5352SOL     OW27691   0.805   1.317   4.304 -0.0489  0.0812  0.3083
 5352SOL    HW127692   0.709   1.325   4.301 -0.0438 -0.1222 -0.4582
 5352SOL    HW227693   0.832   1.405   4.280  2.1332 -1.2596 -2.0498
 5353SOL     OW27694   3.591   1.809   8.638  0.1137  0.2382  0.4647
 5353SOL    HW127695   3.649   1.778   8.708  2.1323  1.6834 -0.5602
 5353SOL    HW227696   3.650   1.803   8.562 -1.6916 -1.1005 -0.8159
 5354SOL     OW27697   2.794   0.391   9.321 -0.1620 -0.1779  0.0869
 5354SOL    HW127698   2.792   0.483   9.296  1.3483 -0.4425 -0.9881
 5354SOL    HW227699   2.874   0.390   9.373  0.2210  2.8819 -0.4353
 5355SOL     OW27700   0.724   4.238  13.517  0.2071 -0.5387 -0.0834
 5355SOL    HW127701   0.764   4.267  13.436 -0.4782  2.5991  0.7046
 5355SOL    HW227702   0.776   4.164  13.547  0.4201  0.1619  1.2876
 5356SOL     OW27703   4.427   0.139  13.970 -0.1040 -0.4038  0.6876
 5356SOL    HW127704   4.494   0.141  13.902  0.0220 -1.1462  0.7945
 5356SOL    HW227705   4.488   0.170  14.036  2.6617  0.1907 -2.1495
 5357SOL     OW27706   3.386   3.967   7.047 -1.3246  0.0046  0.2064
 5357SOL    HW127707   3.371   3.912   6.970  1.4235 -0.3788 -0.0429
 5357SOL    HW227708   3.479   3.988   7.048 -1.0526 -1.1492 -2.4776
 5358SOL     OW27709   4.098   1.408   3.129  0.5126 -0.1808  0.0450
 5358SOL    HW127710   4.164   1.469   3.094  0.1225  1.0943  1.5271
 5358SOL    HW227711   4.151   1.358   3.191  0.6916 -1.0768 -0.8370
 5359SOL     OW27712   3.783   4.306   4.063  0.5949  0.6749 -0.0649
 5359SOL    HW127713   3.866   4.333   4.103 -0.2341  2.5055  0.4221
 5359SOL    HW227714   3.800   4.218   4.029  0.3507 -0.2165  2.1314
 5360SOL     OW27715   3.858   0.074  12.925  0.6199 -0.3335 -0.0250
 5360SOL    HW127716   3.810   0.045  13.003  0.7737  4.1987  1.7774
 5360SOL    HW227717   3.861   0.000  12.865  0.6689 -1.2448  1.0892
 5361SOL     OW27718   1.314   0.482   4.871 -0.0710  0.7698 -0.1613
 5361SOL    HW127719   1.318   0.389   4.850  2.2226  0.5001  1.3916
 5361SOL    HW227720   1.405   0.507   4.852 -0.6355  3.6568  0.9440
 5362SOL     OW27721   4.627   2.699  10.872  0.2008 -0.2088  0.1654
 5362SOL    HW127722   4.563   2.739  10.814 -0.6460 -1.0547  0.5290
 5362SOL    HW227723   4.666   2.770  10.924  2.5140 -1.2862 -0.0971
 5363SOL     OW27724   2.260   2.598   7.622 -0.8029  0.5061  0.0367
 5363SOL    HW127725   2.303   2.546   7.554 -0.2764 -1.8828  2.1444
 5363SOL    HW227726   2.319   2.567   7.691 -0.5388 -3.5619 -1.9696
 5364SOL     OW27727   1.870   4.391   3.905 -0.2773 -0.2725 -0.2783
 5364SOL    HW127728   1.943   4.399   3.844  1.3983 -1.1184  1.6094
 5364SOL    HW227729   1.876   4.297   3.923  2.8960 -0.4010 -2.1126
 5365SOL     OW27730   1.189   3.015  11.661 -0.1223 -0.2281  0.4845
 5365SOL    HW127731   1.144   2.970  11.733 -2.3728 -0.4019 -1.0516
 5365SOL    HW227732   1.195   2.942  11.599 -1.8658  0.9186 -1.0298
 5366SOL     OW27733   0.231   0.234   6.560 -0.2667  0.2099 -0.1066
 5366SOL    HW127734   0.274   0.312   6.524  1.1971  0.0451  1.2868
 5366SOL    HW227735   0.306   0.176   6.547 -0.6724 -1.2610  3.9677
 5367SOL     OW27736   4.389   0.063   1.492  0.6186 -0.5725  0.1909
 5367SOL    HW127737   4.386   0.074   1.587  0.8400 -2.8083  0.4660
 5367SOL    HW227738   4.480   0.046   1.469  0.4261  1.8979 -2.4278
 5368SOL     OW27739   4.378   1.881  16.066 -0.0790 -0.4320  0.3418
 5368SOL    HW127740   4.458   1.841  16.030  0.5192  0.2045  0.9573
 5368SOL    HW227741   4.400   1.974  16.073 -0.0431 -0.4826  0.9519
 5369SOL     OW27742   1.441   1.960  10.574  0.1254  0.8044  0.2185
 5369SOL    HW127743   1.506   1.952  10.643 -0.2912 -3.4813  0.0846
 5369SOL    HW227744   1.480   2.036  10.530 -2.3039  1.0386 -1.5480
 5370SOL     OW27745   3.898   2.156   7.861 -0.5106  0.1261 -0.1565
 5370SOL    HW127746   3.818   2.205   7.845 -1.7486 -2.4819 -1.8628
 5370SOL    HW227747   3.885   2.146   7.955  2.0093 -2.8393 -0.1184
 5371SOL     OW27748   3.497   0.063   5.760  0.1447  0.3637  0.0260
 5371SOL    HW127749   3.402   0.058   5.756  0.2214 -2.1565  1.7585
 5371SOL    HW227750   3.530   4.741   5.698 -1.0402 -0.7500  0.5632
 5372SOL     OW27751   1.057   4.041   5.957  0.7079  0.0470 -0.4369
 5372SOL    HW127752   1.132   4.047   5.898  0.6383  0.0693 -0.5221
 5372SOL    HW227753   1.012   4.119   5.926  3.3620  1.0426 -1.7922
 5373SOL     OW27754   3.720   3.180   6.581 -0.1905  0.1894  0.0270
 5373SOL    HW127755   3.708   3.269   6.548 -2.9667  0.5361  1.9760
 5373SOL    HW227756   3.640   3.142   6.546  0.5447 -1.3415 -0.0009
 5374SOL     OW27757   2.566   3.109   8.084  0.1615  0.6185 -0.3841
 5374SOL    HW127758   2.609   3.169   8.144  0.4283 -0.4103  0.4544
 5374SOL    HW227759   2.479   3.106   8.123  1.2212  0.9373  1.9926
 5375SOL     OW27760   1.701   3.901   6.534  0.1734  0.4373 -0.1408
 5375SOL    HW127761   1.642   3.934   6.602 -0.4374  0.0643 -0.4865
 5375SOL    HW227762   1.667   3.953   6.460  1.6279  3.8752  1.6099
 5376SOL     OW27763   0.830   4.679  15.291  0.1351  0.4232 -0.5890
 5376SOL    HW127764   0.760   4.684  15.225  0.1215 -0.5256 -0.6489
 5376SOL    HW227765   0.877   4.603  15.259 -0.9046 -0.7989  0.8105
 5377SOL     OW27766   0.060   2.754   6.126  0.4677  0.4084  0.4260
 5377SOL    HW127767   0.003   2.826   6.099 -0.3438 -1.2310 -2.1838
 5377SOL    HW227768   0.125   2.747   6.055  1.9525 -2.2680  2.0444
 5378SOL     OW27769   0.959   0.016   1.474 -0.1548 -0.0013 -0.0030
 5378SOL    HW127770   1.034   0.051   1.426  0.5672 -0.7741  0.5527
 5378SOL    HW227771   0.994   0.015   1.563  1.6517 -1.5815 -0.7113
 5379SOL     OW27772   4.454   2.962   5.655  0.2606  0.4033  0.1509
 5379SOL    HW127773   4.437   2.876   5.693  0.1542  0.4809  0.2797
 5379SOL    HW227774   4.449   2.950   5.560 -2.8569 -1.7478  0.5768
 5380SOL     OW27775   3.929   1.988   7.088  0.0329  0.0217  0.4690
 5380SOL    HW127776   3.837   1.998   7.109 -0.4822 -1.0938 -1.1974
 5380SOL    HW227777   3.919   2.046   7.012  1.4545 -1.2884 -0.7346
 5381SOL     OW27778   0.278   0.707   3.447  0.3409  0.1647  0.2537
 5381SOL    HW127779   0.253   0.796   3.471  0.4581  0.2601  0.0235
 5381SOL    HW227780   0.261   0.719   3.354  1.8108 -0.7074 -0.1219
 5382SOL     OW27781   2.640   1.349   9.486  0.4973 -0.6516  0.0954
 5382SOL    HW127782   2.605   1.378   9.402  0.4905 -0.3874  0.1882
 5382SOL    HW227783   2.582   1.275   9.503  0.6560 -0.1881  2.6594
 5383SOL     OW27784   0.719   0.594   3.156 -0.1962 -0.4585 -0.2753
 5383SOL    HW127785   0.781   0.645   3.208  0.2823 -1.6852  0.3720
 5383SOL    HW227786   0.750   0.509   3.188  2.0451 -0.0786 -1.4339
 5384SOL     OW27787   3.568   3.456   6.944 -0.5785  0.3963  0.0037
 5384SOL    HW127788   3.559   3.542   6.984 -1.5145  0.9908 -1.4855
 5384SOL    HW227789   3.476   3.436   6.927 -0.0645 -2.3912  0.3859
 5385SOL     OW27790   3.170   0.607   6.726  0.5997 -0.2243 -0.4430
 5385SOL    HW127791   3.193   0.519   6.698  1.4488  0.0651 -0.6520
 5385SOL    HW227792   3.170   0.661   6.647 -2.0453  0.8473  0.2858
 5386SOL     OW27793   3.528   2.487   5.973 -0.5667  0.1772  0.0192
 5386SOL    HW127794   3.553   2.397   5.951 -0.0392  0.0051  1.2920
 5386SOL    HW227795   3.440   2.490   5.936 -0.7651  0.1734  0.4952
 5387SOL     OW27796   3.301   2.648   2.202 -0.0913 -0.0795 -0.3991
 5387SOL    HW127797   3.226   2.672   2.258  0.9542 -0.2710  1.0800
 5387SOL    HW227798   3.266   2.577   2.148  0.9914 -0.1570 -0.9859
 5388SOL     OW27799   2.296   2.021   7.740 -0.1609 -0.6374  0.2856
 5388SOL    HW127800   2.248   2.104   7.732 -0.4992 -0.8505  0.0808
 5388SOL    HW227801   2.306   2.014   7.835 -1.6222  1.7820  0.6386
 5389SOL     OW27802   0.707   4.351   7.882  0.4007 -0.0273 -0.2570
 5389SOL    HW127803   0.666   4.339   7.968 -1.8910  1.5923 -1.1405
 5389SOL    HW227804   0.691   4.443   7.863  2.6327 -0.0090 -2.0496
 5390SOL     OW27805   2.354   0.898   3.323  0.1260  0.2765  0.3455
 5390SOL    HW127806   2.417   0.829   3.343  0.5082  0.1304 -1.3774
 5390SOL    HW227807   2.390   0.929   3.239  0.3912  1.1234  0.7713
 5391SOL     OW27808   3.859   1.516   5.769 -0.3864 -0.6150  0.1176
 5391SOL    HW127809   3.863   1.514   5.865 -0.2406  0.8866  0.1382
 5391SOL    HW227810   3.770   1.549   5.755 -0.6334 -0.9050  0.9716
 5392SOL     OW27811   0.353   2.762   0.631 -0.1776 -0.1607 -0.2959
 5392SOL    HW127812   0.306   2.839   0.663  1.6221  0.2484  1.4286
 5392SOL    HW227813   0.279   2.716   0.593 -1.5975  1.6315  0.3114
 5393SOL     OW27814   2.550   1.115   0.033 -0.1839 -0.6010 -0.2886
 5393SOL    HW127815   2.632   1.069   0.015  0.2315  0.2485 -0.5570
 5393SOL    HW227816   2.552   1.194  17.746 -0.2126 -0.4618 -0.0874
 5394SOL     OW27817   2.825   3.089   6.307 -0.0446  0.5202 -0.3414
 5394SOL    HW127818   2.787   3.151   6.244 -1.0744 -0.2091 -0.4398
 5394SOL    HW227819   2.842   3.011   6.253 -2.7051 -0.0454 -0.3561
 5395SOL     OW27820   0.696   3.142   1.993  0.3417  0.0318  0.4166
 5395SOL    HW127821   0.735   3.076   2.050  0.2243 -0.8255 -0.4900
 5395SOL    HW227822   0.604   3.116   1.988  0.3482 -0.1751  1.4227
 5396SOL     OW27823   2.143   0.550   8.294 -0.2051 -0.4213  0.2047
 5396SOL    HW127824   2.134   0.589   8.207 -0.3757  0.0149  0.4216
 5396SOL    HW227825   2.096   0.467   8.289 -0.3731 -0.2761 -0.6230
 5397SOL     OW27826   1.507   1.956   1.625  0.1371 -0.1423 -0.4203
 5397SOL    HW127827   1.434   1.906   1.587 -0.0645 -0.2331  0.0954
 5397SOL    HW227828   1.464   2.014   1.687 -0.4892  0.5757 -1.5377
 5398SOL     OW27829   1.252   4.019   1.734  0.4451 -0.2763  0.0481
 5398SOL    HW127830   1.230   4.079   1.805 -0.0587 -1.5634  0.9831
 5398SOL    HW227831   1.166   4.009   1.694 -0.1468 -2.3311  1.8581
 5399SOL     OW27832   0.074   0.515  13.110 -0.3434 -0.2241  0.2756
 5399SOL    HW127833   0.084   0.598  13.062  0.7559 -0.3645  0.2459
 5399SOL    HW227834   0.168   0.498  13.108 -0.7434 -2.2398 -1.2277
 5400SOL     OW27835   0.437   0.404   3.787  0.3848 -0.1845  0.3706
 5400SOL    HW127836   0.413   0.403   3.880  0.4899 -0.0828  0.3983
 5400SOL    HW227837   0.382   0.329   3.764  0.5196  0.1398 -0.9976
 5401SOL     OW27838   1.254   4.238   6.286 -0.1096  0.3214 -0.0304
 5401SOL    HW127839   1.259   4.143   6.296  1.8947  0.4821  0.5331
 5401SOL    HW227840   1.302   4.240   6.203 -1.3008  0.6666 -0.7212
 5402SOL     OW27841   4.553   1.822   1.722  0.1925  0.4180 -0.0626
 5402SOL    HW127842   4.515   1.736   1.736 -1.5335  1.1860 -0.0060
 5402SOL    HW227843   4.511   1.846   1.639 -3.1496 -0.9859  1.2164
 5403SOL     OW27844   1.827   2.927  12.104  0.4746  0.3352 -0.2059
 5403SOL    HW127845   1.782   2.846  12.129 -1.9414  2.4617  2.4268
 5403SOL    HW227846   1.776   2.967  12.034  1.6043  1.0248 -0.6217
 5404SOL     OW27847   3.189   1.244   1.509 -0.7253  0.1702  0.8064
 5404SOL    HW127848   3.174   1.292   1.590  0.8706 -1.7016  2.2162
 5404SOL    HW227849   3.192   1.157   1.549 -1.9621  0.6123  1.8551
 5405SOL     OW27850   2.784   1.029  17.661  0.2546 -0.2351  0.1210
 5405SOL    HW127851   2.874   1.050  17.637 -0.2096  0.0741 -1.3748
 5405SOL    HW227852   2.741   1.042  17.576  0.0527 -1.7469 -0.0159
 5406SOL     OW27853   1.074   1.563   5.417  0.4751 -0.2672 -0.7861
 5406SOL    HW127854   1.024   1.534   5.494 -0.0689  3.8268  0.3796
 5406SOL    HW227855   1.162   1.560   5.456  0.8692  0.1363 -1.6629
 5407SOL     OW27856   4.001   2.693   5.650  0.5425 -0.0663  0.1294
 5407SOL    HW127857   3.929   2.711   5.590 -0.9386 -2.1764  1.2803
 5407SOL    HW227858   3.981   2.612   5.697 -2.0815 -0.3174 -1.4224
 5408SOL     OW27859   1.395   1.574   5.900 -0.3232  0.4891  0.5227
 5408SOL    HW127860   1.471   1.629   5.921  0.2720 -0.8209  1.7654
 5408SOL    HW227861   1.331   1.609   5.962 -1.4712  1.2693 -1.1199
 5409SOL     OW27862   2.692   3.363  12.519 -0.4923 -0.9231  0.5603
 5409SOL    HW127863   2.707   3.321  12.433 -1.8019  0.0155 -0.1295
 5409SOL    HW227864   2.782   3.390  12.536 -0.1054 -1.3462 -0.8131
 5410SOL     OW27865   1.983   3.628   0.498  0.0229  0.0578 -0.4711
 5410SOL    HW127866   2.016   3.594   0.415 -1.2178 -1.2499 -0.4411
 5410SOL    HW227867   1.923   3.699   0.476 -0.9826 -0.7600 -0.3597
 5411SOL     OW27868   0.322   0.358   7.981 -0.2685  1.0414 -0.4313
 5411SOL    HW127869   0.325   0.454   7.972 -0.2467  0.8671 -2.2934
 5411SOL    HW227870   0.356   0.341   8.069 -0.0907  0.5921 -0.5874
 5412SOL     OW27871   4.129   0.512   3.285  0.2494  0.1074 -0.3591
 5412SOL    HW127872   4.075   0.527   3.363  1.2785 -0.6260  0.4827
 5412SOL    HW227873   4.198   0.456   3.320  0.6046 -0.5891 -2.1978
 5413SOL     OW27874   2.059   0.507   6.921 -0.1584 -0.3092 -0.0872
 5413SOL    HW127875   2.110   0.466   6.851  3.5393  1.1559  1.7271
 5413SOL    HW227876   2.002   0.565   6.871  0.1222  0.7087  0.7765
 5414SOL     OW27877   0.383   4.502   6.673  0.0640  0.1420 -0.5018
 5414SOL    HW127878   0.350   4.525   6.760 -0.1296  0.2093 -0.5926
 5414SOL    HW227879   0.337   4.419   6.675  1.6444 -0.8014 -3.0054
 5415SOL     OW27880   3.601   1.930   2.620  0.0529  0.2143  0.2336
 5415SOL    HW127881   3.607   1.959   2.711 -2.2733  1.5080 -0.0201
 5415SOL    HW227882   3.540   1.856   2.624 -1.8315  1.6903 -1.9576
 5416SOL     OW27883   2.402   0.946  12.310  0.0191 -0.0417 -0.0050
 5416SOL    HW127884   2.306   0.955  12.311 -0.0458 -0.7060 -0.7002
 5416SOL    HW227885   2.423   0.926  12.219  2.6007  0.7978  0.4196
 5417SOL     OW27886   3.014   3.812   8.974  0.0102 -0.1612 -0.4224
 5417SOL    HW127887   3.079   3.882   8.972 -1.6354  1.3610 -0.0730
 5417SOL    HW227888   3.036   3.779   8.887 -1.5872 -0.8218 -0.5653
 5418SOL     OW27889   0.627   3.245  16.379  0.5351  0.1517  0.1747
 5418SOL    HW127890   0.648   3.233  16.471  0.0055 -0.3353  0.2287
 5418SOL    HW227891   0.606   3.338  16.376  3.7812  0.9133  1.1529
 5419SOL     OW27892   3.542   2.547   6.782  0.2622  0.6773  0.8231
 5419SOL    HW127893   3.479   2.534   6.710  1.6920 -1.5742 -0.0200
 5419SOL    HW227894   3.481   2.592   6.841  0.3483  2.0727 -0.1593
 5420SOL     OW27895   4.102   3.797  17.023  0.8097 -0.0345 -0.3283
 5420SOL    HW127896   4.008   3.816  17.018  0.8636  0.4826  0.7612
 5420SOL    HW227897   4.133   3.836  16.941  0.9728  1.8865  0.6589
 5421SOL     OW27898   0.126   3.385   4.703 -0.5553  0.1611  0.0896
 5421SOL    HW127899   0.070   3.358   4.630 -2.2857  0.9166  1.1503
 5421SOL    HW227900   0.059   3.438   4.747 -0.8934  0.4030 -0.7129
 5422SOL     OW27901   2.969   0.763   5.254  1.2302 -0.5831  0.1945
 5422SOL    HW127902   3.011   0.712   5.184  0.0248 -0.2668 -0.7682
 5422SOL    HW227903   3.043   0.777   5.313  0.0916  0.4928  1.3424
 5423SOL     OW27904   4.567   4.188   1.577  0.0661 -0.2613  0.1012
 5423SOL    HW127905   4.607   4.264   1.534  1.8741 -1.7124 -0.7533
 5423SOL    HW227906   4.609   4.192   1.663  1.4103  2.5661 -0.6843
 5424SOL     OW27907   0.370   1.071   5.329  0.3626  0.3624  0.3141
 5424SOL    HW127908   0.279   1.068   5.299 -0.1809  1.8538  1.8388
 5424SOL    HW227909   0.365   1.036   5.418 -0.4054 -1.3338 -0.3979
 5425SOL     OW27910   1.529   2.588   3.690  0.5644 -0.5912 -0.3620
 5425SOL    HW127911   1.449   2.543   3.662  0.4391  0.5314 -1.8156
 5425SOL    HW227912   1.590   2.515   3.694 -0.8625 -1.6662  1.5264
 5426SOL     OW27913   4.153   2.127   4.302  0.8685  0.9496  0.5122
 5426SOL    HW127914   4.156   2.219   4.326 -2.2811  1.3241 -0.4986
 5426SOL    HW227915   4.059   2.110   4.311  0.9520  0.3792  0.3066
 5427SOL     OW27916   2.660   3.913   3.481 -0.0705 -0.0381  0.4062
 5427SOL    HW127917   2.584   3.927   3.425  0.5440 -1.4773 -0.8181
 5427SOL    HW227918   2.693   3.826   3.458  1.6692  0.5517  0.6175
 5428SOL     OW27919   4.377   1.774   9.434 -0.4403  0.1489  0.2250
 5428SOL    HW127920   4.319   1.850   9.432  1.6321  1.7659  0.6708
 5428SOL    HW227921   4.448   1.819   9.480 -0.4309 -0.2218  0.5727
 5429SOL     OW27922   1.685   3.369   2.717 -0.0414 -0.7217 -0.4265
 5429SOL    HW127923   1.627   3.441   2.694 -1.3412 -1.1767  1.4223
 5429SOL    HW227924   1.733   3.411   2.789  2.0351 -0.6530 -1.8230
 5430SOL     OW27925   2.144   0.405   3.591 -0.4352  0.7693 -0.0388
 5430SOL    HW127926   2.138   0.491   3.550  1.0131  1.2103  0.7155
 5430SOL    HW227927   2.236   0.386   3.575 -0.3516 -0.1219  1.4963
 5431SOL     OW27928   3.345   1.941   0.770  0.1541  0.3462 -0.6855
 5431SOL    HW127929   3.251   1.927   0.757 -0.1216  1.3507  0.2865
 5431SOL    HW227930   3.342   1.979   0.857 -0.1567  0.1712 -0.6195
 5432SOL     OW27931   0.831   2.197  13.483 -0.9315 -0.0582 -0.1677
 5432SOL    HW127932   0.825   2.108  13.518  2.0861 -0.6327 -1.1350
 5432SOL    HW227933   0.822   2.252  13.560 -1.7533 -1.5455  0.8062
 5433SOL     OW27934   2.817   1.089  15.231 -0.5618 -0.2975  0.3864
 5433SOL    HW127935   2.729   1.081  15.266 -0.8056 -1.1252 -0.4071
 5433SOL    HW227936   2.867   1.106  15.311 -0.7008  1.5944  0.0668
 5434SOL     OW27937   1.643   0.157   0.670 -0.0539 -0.5815  0.0557
 5434SOL    HW127938   1.588   0.082   0.695 -1.2118  0.1128 -0.4421
 5434SOL    HW227939   1.594   0.238   0.674  0.1966 -0.4195 -0.1724
 5435SOL     OW27940   1.385   2.629   2.754  0.1775 -0.2569  0.0125
 5435SOL    HW127941   1.466   2.620   2.804  1.1642  1.6305 -1.2416
 5435SOL    HW227942   1.403   2.586   2.670 -1.5630  0.8791 -0.9700
 5436SOL     OW27943   3.805   2.770   8.919  0.8374 -0.4280  0.1078
 5436SOL    HW127944   3.806   2.706   8.848  1.5145  2.1561 -2.2203
 5436SOL    HW227945   3.753   2.724   8.985 -0.4477  2.4536  1.1483
 5437SOL     OW27946   3.289   1.697   9.802  0.0795  0.2767  0.4887
 5437SOL    HW127947   3.216   1.682   9.741 -1.7031  1.1713  2.4023
 5437SOL    HW227948   3.339   1.758   9.748  1.9052  0.9989  3.0253
 5438SOL     OW27949   4.223   4.632  13.187 -0.1799  0.1932  0.2348
 5438SOL    HW127950   4.290   4.645  13.254  0.2660  2.7978 -0.7331
 5438SOL    HW227951   4.145   4.601  13.233  1.0246 -0.4984  1.7924
 5439SOL     OW27952   0.204   2.670   1.507 -0.0631  0.5235  0.1763
 5439SOL    HW127953   0.184   2.742   1.446 -2.6927 -0.8219 -0.5861
 5439SOL    HW227954   0.266   2.622   1.452  2.3983  0.4593  3.0211
 5440SOL     OW27955   1.563   1.235   7.120  0.5522  0.3041 -0.2014
 5440SOL    HW127956   1.490   1.295   7.132  1.1898  1.6472 -2.9706
 5440SOL    HW227957   1.569   1.241   7.024  2.5879  3.5993  0.1551
 5441SOL     OW27958   1.090   0.869   5.941  0.0900  0.2176  0.1340
 5441SOL    HW127959   1.075   0.796   5.882 -3.0183 -0.1028  1.3306
 5441SOL    HW227960   1.145   0.835   6.013 -2.1189 -1.4107  1.0505
 5442SOL     OW27961   1.285   2.750   7.848 -0.6161  0.8238 -0.2465
 5442SOL    HW127962   1.345   2.825   7.840  0.3623  0.1654  0.9616
 5442SOL    HW227963   1.301   2.711   7.762 -1.7157 -0.6930  0.2342
 5443SOL     OW27964   1.673   2.222  12.845 -0.0841  0.5567  0.0981
 5443SOL    HW127965   1.703   2.270  12.922 -0.4432  0.7282  0.1282
 5443SOL    HW227966   1.655   2.294  12.785 -3.2265 -1.6306 -1.5531
 5444SOL     OW27967   1.316   1.375  15.140 -0.3364 -0.2687 -0.3994
 5444SOL    HW127968   1.360   1.325  15.071 -0.3039 -0.0310 -0.5527
 5444SOL    HW227969   1.236   1.324  15.151 -0.7047  0.4133  0.0351
 5445SOL     OW27970   0.586   4.721   0.585  0.5854 -0.9462 -0.5187
 5445SOL    HW127971   0.676   0.004   0.609  0.8637 -1.6888 -0.7701
 5445SOL    HW227972   0.578   0.020   0.499 -2.4686 -0.7177 -0.0982
 5446SOL     OW27973   2.953   0.309   1.968  0.2472  0.5982 -0.1272
 5446SOL    HW127974   2.921   0.360   2.042 -4.4514 -0.1999 -1.6093
 5446SOL    HW227975   2.955   0.222   2.008 -0.6762  1.4328  1.7328
 5447SOL     OW27976   0.376   3.593   1.735  0.3925 -0.4212 -0.2703
 5447SOL    HW127977   0.326   3.617   1.813  0.4524  1.5014 -0.8114
 5447SOL    HW227978   0.323   3.651   1.680  1.0980 -1.7987 -2.3822
 5448SOL     OW27979   0.809   1.795   6.346  0.3357 -0.3822  0.1294
 5448SOL    HW127980   0.802   1.854   6.421  1.8567  1.1583 -0.9385
 5448SOL    HW227981   0.905   1.788   6.347  0.5640  2.4161 -2.8119
 5449SOL     OW27982   3.875   0.938  17.540 -0.3211 -0.0854 -0.2097
 5449SOL    HW127983   3.867   0.937  17.444 -3.2648 -2.0830  0.0828
 5449SOL    HW227984   3.953   0.989  17.564 -0.6175  0.9492 -1.4121
 5450SOL     OW27985   0.915   4.355  11.764 -0.2041 -0.0621  0.0279
 5450SOL    HW127986   0.924   4.271  11.808 -0.3411  1.9171  3.7897
 5450SOL    HW227987   1.003   4.391  11.754 -0.4182  1.2291  3.0797
 5451SOL     OW27988   3.912   3.337  13.971  0.3545 -0.0188 -0.2624
 5451SOL    HW127989   3.891   3.374  14.056  1.5025  0.0916 -0.0238
 5451SOL    HW227990   3.842   3.379  13.921 -2.1958 -2.6277  1.0904
 5452SOL     OW27991   1.098   1.055   3.721  0.1593 -0.0181  0.1291
 5452SOL    HW127992   1.172   1.011   3.762  1.5989  0.3170 -2.1159
 5452SOL    HW227993   1.030   0.996   3.752  1.0155 -1.0580  0.0340
 5453SOL     OW27994   2.521   0.497   6.913  0.5732 -0.3705 -0.4042
 5453SOL    HW127995   2.555   0.582   6.886  1.1399 -0.6661 -0.6334
 5453SOL    HW227996   2.464   0.535   6.980  0.6041 -1.3625  0.1840
 5454SOL     OW27997   2.085   2.642   5.415  0.0272 -0.4150  0.2453
 5454SOL    HW127998   2.128   2.623   5.332  1.5080 -2.5743  1.5061
 5454SOL    HW227999   2.144   2.713   5.440 -0.8375  0.7162 -0.9441
 5455SOL     OW28000   2.252   2.318   5.058  0.1749 -0.0158  0.3058
 5455SOL    HW128001   2.297   2.304   4.974 -2.9334 -1.1469 -1.1645
 5455SOL    HW228002   2.237   2.234   5.100 -1.0353 -0.8914 -1.8602
 5456SOL     OW28003   1.759   0.846   5.280 -0.2529  0.4229  0.3068
 5456SOL    HW128004   1.804   0.778   5.229  0.4829  1.0126  0.1723
 5456SOL    HW228005   1.670   0.823   5.251  0.2319 -2.5480  1.1594
 5457SOL     OW28006   1.564   4.509   7.399  0.0135 -0.1523  0.9359
 5457SOL    HW128007   1.529   4.568   7.333 -1.0768 -1.0853  0.6803
 5457SOL    HW228008   1.520   4.536   7.480 -1.0276  0.1681  0.2541
 5458SOL     OW28009   0.616   0.023   5.104 -0.1117  0.3597  0.1127
 5458SOL    HW128010   0.664   4.699   5.055 -1.3579 -0.2409 -0.3038
 5458SOL    HW228011   0.530   4.723   5.108  0.4954 -0.7357  1.6745
 5459SOL     OW28012   2.939   4.645   2.535 -0.2313  0.3747 -0.1797
 5459SOL    HW128013   3.006   4.704   2.501 -0.5227  0.9940  0.3344
 5459SOL    HW228014   2.969   4.569   2.484 -1.8508  1.0320 -2.1204
 5460SOL     OW28015   4.147   3.434   9.164  0.9882  0.3662 -0.5418
 5460SOL    HW128016   4.059   3.465   9.184  0.4744 -0.2926 -1.7942
 5460SOL    HW228017   4.148   3.435   9.069  0.4317 -0.4435 -0.5537
 5461SOL     OW28018   1.949   4.153   4.346 -0.2971 -0.3360 -0.0071
 5461SOL    HW128019   2.042   4.148   4.324 -0.9514 -3.6450 -1.9810
 5461SOL    HW228020   1.921   4.218   4.281  1.8644 -0.7314 -1.3157
 5462SOL     OW28021   1.257   4.189  15.368  0.1446 -0.3415  0.3561
 5462SOL    HW128022   1.264   4.282  15.349  3.2093 -0.6198  0.1203
 5462SOL    HW228023   1.327   4.158  15.312  1.1576 -1.3370  2.1523
 5463SOL     OW28024   1.538   1.125   8.439  0.1078  0.3857 -0.2316
 5463SOL    HW128025   1.478   1.061   8.476 -0.0990 -0.7595 -2.5072
 5463SOL    HW228026   1.477   1.197   8.425  0.2404  1.0557  2.7650
 5464SOL     OW28027   3.485   4.198  12.667 -0.2463  0.3258 -0.2446
 5464SOL    HW128028   3.427   4.191  12.591 -2.3595  0.6639  1.3453
 5464SOL    HW228029   3.557   4.251  12.632  0.7581 -0.2252  1.0059
 5465SOL     OW28030   0.367   2.292   1.022 -0.5185 -0.4883  0.2636
 5465SOL    HW128031   0.437   2.226   1.018  0.9899  0.9943  1.9696
 5465SOL    HW228032   0.404   2.360   1.079  0.9704  0.0999 -1.4001
 5466SOL     OW28033   0.052   3.849   5.171 -0.7466 -0.4970 -0.3295
 5466SOL    HW128034   0.069   3.762   5.134 -1.2191 -1.7974  2.5135
 5466SOL    HW228035   4.740   3.829   5.247 -0.5687  0.4666  0.0534
 5467SOL     OW28036   3.026   2.190   6.874 -0.3673 -0.4328 -0.3287
 5467SOL    HW128037   3.052   2.128   6.806 -0.8854 -1.0174 -0.0004
 5467SOL    HW228038   3.105   2.244   6.879 -0.0323 -0.9214 -0.3852
 5468SOL     OW28039   3.828   4.514  13.773  0.0930  0.1318 -0.2235
 5468SOL    HW128040   3.747   4.546  13.813  0.6937  0.7722  0.4767
 5468SOL    HW228041   3.879   4.590  13.747 -0.7575  0.4171 -1.0592
 5469SOL     OW28042   3.358   1.981  17.489 -0.2633 -0.2382  0.0868
 5469SOL    HW128043   3.323   1.963  17.576  3.2696 -1.3361  1.2994
 5469SOL    HW228044   3.449   1.952  17.502 -0.6549 -1.7749 -0.5408
 5470SOL     OW28045   4.318   3.739   3.108 -0.0006 -0.2667 -0.3020
 5470SOL    HW128046   4.392   3.732   3.048  0.5261 -0.9599  0.4367
 5470SOL    HW228047   4.276   3.818   3.073 -0.9258 -0.6220  0.0142
 5471SOL     OW28048   1.335   1.585  15.981 -0.1409 -0.3253  0.3535
 5471SOL    HW128049   1.250   1.607  15.943 -0.1868  0.2300  0.7644
 5471SOL    HW228050   1.387   1.631  15.916 -0.7646 -2.1107 -1.4104
 5472SOL     OW28051   0.565   1.831   5.054  0.0374  0.3426 -0.2399
 5472SOL    HW128052   0.612   1.807   4.975  0.1799  2.6036 -0.8468
 5472SOL    HW228053   0.605   1.767   5.114  0.9540 -0.2462 -1.4980
 5473SOL     OW28054   4.269   0.150   4.663 -0.5752 -0.0994  0.1302
 5473SOL    HW128055   4.356   0.182   4.686 -0.6416  0.5678 -0.5769
 5473SOL    HW228056   4.220   0.229   4.685 -1.2227 -1.1681  2.5758
 5474SOL     OW28057   0.696   4.583   9.878  0.1907  0.0621  0.2175
 5474SOL    HW128058   0.669   4.668   9.842 -1.7886 -0.6513  0.0076
 5474SOL    HW228059   0.762   4.596   9.946 -0.3696  0.5423  0.6689
 5475SOL     OW28060   3.942   0.036   9.320  0.0961 -0.3844 -0.4915
 5475SOL    HW128061   4.022   0.084   9.340  0.1077 -0.7573  0.3767
 5475SOL    HW228062   3.877   0.105   9.335 -1.2232 -1.7727  0.1747
 5476SOL     OW28063   1.950   2.381   0.144  0.3275 -0.2725  0.2115
 5476SOL    HW128064   1.999   2.459   0.118 -1.5821  1.3998  1.5285
 5476SOL    HW228065   1.989   2.311   0.093 -1.6798  0.4438 -2.3102
 5477SOL     OW28066   0.391   1.697  16.723  0.4617 -0.1982 -0.1570
 5477SOL    HW128067   0.454   1.644  16.772  0.4405 -0.6034 -0.5641
 5477SOL    HW228068   0.404   1.784  16.760 -0.2360  0.2029 -0.8374
 5478SOL     OW28069   2.144   3.584   7.377  0.1322  0.1803  0.5561
 5478SOL    HW128070   2.103   3.650   7.322 -0.5999 -0.6128  0.1496
 5478SOL    HW228071   2.190   3.533   7.311 -0.0118 -0.0962  0.6682
 5479SOL     OW28072   1.014   2.731   2.931 -0.2700 -0.1395  0.2249
 5479SOL    HW128073   1.054   2.806   2.975 -1.8021  0.2464  0.9524
 5479SOL    HW228074   1.042   2.752   2.842 -0.0476  0.3166  0.4011
 5480SOL     OW28075   0.408   4.229  10.620  0.1874  0.3960 -0.2823
 5480SOL    HW128076   0.420   4.307  10.566  0.5963  0.6667  0.2010
 5480SOL    HW228077   0.494   4.233  10.662  0.8792 -1.8258 -1.5003
 5481SOL     OW28078   1.217   2.786   3.775  0.4253  0.0167  0.6169
 5481SOL    HW128079   1.133   2.824   3.750  0.3965 -0.1372  0.4742
 5481SOL    HW228080   1.235   2.851   3.842  0.1822  1.5719 -0.8494
 5482SOL     OW28081   1.729   2.334   7.132 -0.2866 -0.3660 -0.6412
 5482SOL    HW128082   1.803   2.392   7.112 -1.9405  2.0170  0.2339
 5482SOL    HW228083   1.700   2.367   7.217  3.2721  1.1578 -0.0152
 5483SOL     OW28084   2.631   2.878  10.334  1.1377  0.1969  0.2532
 5483SOL    HW128085   2.615   2.793  10.294  0.8255  0.6958 -0.6898
 5483SOL    HW228086   2.724   2.877  10.356  1.0295 -1.2804  0.6475
 5484SOL     OW28087   1.650   1.929   4.148  0.6278 -0.1068 -0.2373
 5484SOL    HW128088   1.627   1.979   4.227 -0.9448 -1.9780  0.4764
 5484SOL    HW228089   1.744   1.944   4.138  0.5042  2.4482  2.2586
 5485SOL     OW28090   2.344   3.633   9.051  0.1531 -0.1296 -0.5114
 5485SOL    HW128091   2.412   3.588   9.000  1.1757  0.5134  0.2888
 5485SOL    HW228092   2.269   3.638   8.991  0.1481  0.1990 -0.4738
 5486SOL     OW28093   4.066   2.288   3.401 -0.6293 -0.6320  0.5343
 5486SOL    HW128094   4.062   2.372   3.355  1.6094  0.4070  2.2139
 5486SOL    HW228095   3.986   2.252   3.363 -0.2410 -0.4592 -0.4380
 5487SOL     OW28096   0.485   1.703   9.638  0.6050  0.3209  0.1661
 5487SOL    HW128097   0.533   1.679   9.559 -0.1403  1.5989 -0.6736
 5487SOL    HW228098   0.511   1.634   9.699 -0.3567 -0.9069 -0.8022
 5488SOL     OW28099   1.994   0.977   1.380 -0.2868  0.0705 -0.7719
 5488SOL    HW128100   2.008   1.068   1.407  2.9750 -0.8154  0.5237
 5488SOL    HW228101   2.082   0.940   1.377  0.2888  1.3417  0.1117
 5489SOL     OW28102   2.979   3.202  10.726 -0.5434  0.5033 -0.0911
 5489SOL    HW128103   2.988   3.293  10.756 -0.6213  0.3403  0.4098
 5489SOL    HW228104   3.058   3.155  10.753  0.4675  2.2598  0.0287
 5490SOL     OW28105   2.457   4.044   8.703 -0.3572 -0.6312 -0.2674
 5490SOL    HW128106   2.413   4.001   8.777  1.1457 -2.1122 -0.2502
 5490SOL    HW228107   2.424   3.995   8.628 -1.1699 -2.0308  1.0059
 5491SOL     OW28108   0.109   4.309   8.635 -0.0249  0.0980  0.4618
 5491SOL    HW128109   0.167   4.323   8.711 -0.6927 -0.5585  1.0967
 5491SOL    HW228110   0.073   4.222   8.651  1.8277 -0.5268  1.3016
 5492SOL     OW28111   3.812   3.798   6.013  0.4627  0.6035  0.0917
 5492SOL    HW128112   3.755   3.722   6.003  2.3518 -0.5778 -1.7105
 5492SOL    HW228113   3.817   3.842   5.928 -0.2403 -1.3087 -0.9275
 5493SOL     OW28114   2.635   3.632   3.980 -0.1508 -0.3623  0.3329
 5493SOL    HW128115   2.720   3.589   3.979  0.9265  1.8012 -0.7731
 5493SOL    HW228116   2.627   3.673   3.894 -0.0959  2.1699  1.5166
 5494SOL     OW28117   0.046   0.136  16.720 -0.2567  0.5215 -0.5528
 5494SOL    HW128118   0.023   0.044  16.734 -1.2636  0.7461 -0.7687
 5494SOL    HW228119   0.107   0.152  16.792 -0.3126 -0.8901 -0.1857
 5495SOL     OW28120   1.742   0.217  16.809  0.3564  0.4820  0.1895
 5495SOL    HW128121   1.801   0.160  16.759 -1.0618  0.8276 -1.9037
 5495SOL    HW228122   1.800   0.235  16.883  0.2763  1.0182  0.1217
 5496SOL     OW28123   3.781   0.313   8.316 -0.1443  0.4474  0.2774
 5496SOL    HW128124   3.833   0.283   8.241  1.6337  0.4851  1.5056
 5496SOL    HW228125   3.802   0.406   8.312 -0.3632  0.6284  3.2222
 5497SOL     OW28126   0.041   4.011   2.409  0.0315  0.5950 -0.4236
 5497SOL    HW128127   0.098   3.940   2.382  1.0710  1.3622 -0.2684
 5497SOL    HW228128   0.033   4.065   2.330 -0.0881  0.5504 -0.4411
 5498SOL     OW28129   3.611   3.872   9.407  0.5151  0.1277 -0.0703
 5498SOL    HW128130   3.551   3.800   9.387  0.6238  0.0811 -0.2340
 5498SOL    HW228131   3.546   3.928   9.448  1.6121  0.6556  0.9696
 5499SOL     OW28132   4.036   0.690   4.450 -0.2061 -0.0691 -0.3445
 5499SOL    HW128133   4.106   0.719   4.391  1.3436 -1.1476  0.9719
 5499SOL    HW228134   3.959   0.727   4.407 -0.1490 -1.1482 -1.3760
 5500SOL     OW28135   2.858   0.845   3.987 -0.0291 -0.3313  0.0388
 5500SOL    HW128136   2.844   0.765   4.038  0.0693 -0.9845 -0.9572
 5500SOL    HW228137   2.775   0.890   4.000  0.0497 -0.0248 -0.5335
 5501SOL     OW28138   3.700   2.573   8.261  0.1186 -0.0452  0.5720
 5501SOL    HW128139   3.672   2.488   8.228  2.4792 -0.8370  0.6273
 5501SOL    HW228140   3.792   2.570   8.236 -0.0898 -4.4141  0.2416
 5502SOL     OW28141   1.029   0.114   7.387  0.2565 -0.2020  0.7378
 5502SOL    HW128142   0.953   0.109   7.329  1.2065 -0.3487 -0.5013
 5502SOL    HW228143   1.062   0.025   7.375  2.2677  0.5704  0.5728
 5503SOL     OW28144   4.018   2.016  15.323 -0.6957 -0.0568  0.2332
 5503SOL    HW128145   3.975   2.092  15.362  0.5730  1.7210 -1.7956
 5503SOL    HW228146   3.946   1.956  15.304 -0.5316 -0.3024  0.3895
 5504SOL     OW28147   0.139   3.519   1.932  0.2936  0.1737  0.1577
 5504SOL    HW128148   0.096   3.446   1.888  1.5308 -1.6542  2.0396
 5504SOL    HW228149   0.196   3.484   2.000 -0.7169 -1.4060  0.2061
 5505SOL     OW28150   0.704   1.502   1.555  0.1351  0.1150 -0.2465
 5505SOL    HW128151   0.727   1.591   1.529  2.6285 -1.3068 -2.8488
 5505SOL    HW228152   0.739   1.450   1.483  2.8237  0.5638  0.7344
 5506SOL     OW28153   4.376   2.704   3.788 -0.3451  0.1395  0.5262
 5506SOL    HW128154   4.426   2.626   3.813 -0.7646 -0.4704 -0.5368
 5506SOL    HW228155   4.439   2.775   3.802 -0.9329  0.6815  0.4311
 5507SOL     OW28156   0.365   4.095   1.844  0.2644  0.1628 -0.1222
 5507SOL    HW128157   0.332   4.119   1.758 -0.0710  0.6803  0.1505
 5507SOL    HW228158   0.352   4.177   1.891  1.9485  1.3763 -1.7858
 5508SOL     OW28159   4.120   3.377  12.254 -0.3618  0.0535  0.3161
 5508SOL    HW128160   4.180   3.396  12.182 -0.6907  2.4206  0.6598
 5508SOL    HW228161   4.163   3.317  12.316  1.1222  0.4080 -0.3571
 5509SOL     OW28162   2.525   1.466   9.988  0.2223  0.0637  0.0889
 5509SOL    HW128163   2.557   1.378  10.008  0.9705  0.1243 -0.8394
 5509SOL    HW228164   2.601   1.479   9.931 -0.9922  1.4892 -1.2116
 5510SOL     OW28165   3.655   1.450  16.930  0.8528  0.3596 -0.5240
 5510SOL    HW128166   3.675   1.456  16.836 -0.7840 -0.8715 -0.9474
 5510SOL    HW228167   3.671   1.540  16.960  1.5731 -0.2637  0.9218
 5511SOL     OW28168   2.561   2.382  17.489 -0.2750 -0.0879 -0.1975
 5511SOL    HW128169   2.606   2.306  17.451  2.8251  1.8752 -0.5044
 5511SOL    HW228170   2.587   2.371  17.580 -0.4964 -0.1077 -0.1375
 5512SOL     OW28171   3.224   4.182   7.731 -0.2321 -1.1575 -0.5416
 5512SOL    HW128172   3.262   4.219   7.810 -2.4277 -2.7410  1.2472
 5512SOL    HW228173   3.297   4.125   7.707 -0.1917 -0.6923 -1.5570
 5513SOL     OW28174   4.667   2.143   1.286 -0.4039 -0.5242  0.5657
 5513SOL    HW128175   4.646   2.070   1.227  1.6478 -1.1704  0.6481
 5513SOL    HW228176   4.584   2.192   1.284 -0.2132 -0.2972 -2.2049
 5514SOL     OW28177   0.266   2.163   3.290  0.0188 -0.4058  0.1452
 5514SOL    HW128178   0.223   2.080   3.313  0.6191 -0.9131 -0.5593
 5514SOL    HW228179   0.323   2.120   3.227 -0.3519 -0.5281 -0.1096
 5515SOL     OW28180   0.146   2.692  14.976 -0.1035 -0.3561 -0.0809
 5515SOL    HW128181   0.142   2.739  14.892 -0.6377 -0.1764  0.0429
 5515SOL    HW228182   0.229   2.722  15.012 -0.9641  1.2615  0.5640
 5516SOL     OW28183   1.113   2.524   6.611 -0.1086 -0.5928 -0.5431
 5516SOL    HW128184   1.137   2.433   6.591  2.3744 -0.0957  0.1615
 5516SOL    HW228185   1.074   2.499   6.695  0.9325 -1.3309 -0.2802
 5517SOL     OW28186   4.370   0.803   1.540 -0.0946 -0.9788  0.4246
 5517SOL    HW128187   4.461   0.828   1.525 -0.7919  1.6990  0.6852
 5517SOL    HW228188   4.336   0.891   1.558  1.6192  0.2964 -2.5030
 5518SOL     OW28189   3.104   2.316   3.608 -0.4047  0.2328 -0.6982
 5518SOL    HW128190   3.014   2.290   3.630 -0.8653  0.5418 -2.2125
 5518SOL    HW228191   3.164   2.251   3.645 -1.8705 -0.4364  0.5184
 5519SOL     OW28192   3.844   3.829  10.286  0.4241 -0.5206  0.2419
 5519SOL    HW128193   3.858   3.797  10.197 -1.2125 -1.6911  0.3976
 5519SOL    HW228194   3.925   3.792  10.321  0.8569  0.5493  0.3902
 5520SOL     OW28195   0.469   0.487   4.158  0.3368 -0.2299 -0.0373
 5520SOL    HW128196   0.557   0.525   4.162 -0.2982  1.3316 -0.6738
 5520SOL    HW228197   0.483   0.411   4.214 -0.6346  0.1345  0.7051
 5521SOL     OW28198   4.678   3.656  10.505 -0.3533  0.1879 -0.4125
 5521SOL    HW128199   4.657   3.745  10.477  0.5032  0.3740 -0.4566
 5521SOL    HW228200   4.636   3.590  10.449 -1.2413 -0.8694  1.4956
 5522SOL     OW28201   3.709   0.449   1.620 -0.2446 -0.1609 -0.3614
 5522SOL    HW128202   3.772   0.390   1.578 -0.2418 -0.1384 -0.3884
 5522SOL    HW228203   3.697   0.519   1.556  1.4027 -1.4988 -2.1188
 5523SOL     OW28204   0.577   2.398  11.793 -0.2627  0.4613 -0.3786
 5523SOL    HW128205   0.619   2.414  11.708  1.9134  2.1729  1.0435
 5523SOL    HW228206   0.488   2.387  11.757 -0.7695  0.3609  0.9030
 5524SOL     OW28207   0.582   3.698   2.085 -0.4289  0.1818  0.5767
 5524SOL    HW128208   0.638   3.766   2.123 -0.3947 -0.4953  1.7216
 5524SOL    HW228209   0.555   3.748   2.008  0.7363 -0.4795 -0.2591
 5525SOL     OW28210   4.165   2.462   6.671  0.5108 -0.4407  0.1912
 5525SOL    HW128211   4.083   2.513   6.667  1.6610  1.6009  2.8117
 5525SOL    HW228212   4.220   2.502   6.604 -0.6519  0.5390 -0.1792
 5526SOL     OW28213   3.135   3.399   3.595 -0.0423  0.4969  0.2101
 5526SOL    HW128214   3.046   3.396   3.629  0.3796  1.3869  1.4449
 5526SOL    HW228215   3.178   3.441   3.670 -0.0411  0.3537  0.2892
 5527SOL     OW28216   1.430   4.194  13.670 -0.2152 -0.1921  0.5679
 5527SOL    HW128217   1.417   4.177  13.577  0.1535 -0.2581  0.5267
 5527SOL    HW228218   1.344   4.223  13.699 -0.2726 -0.1548  0.3565
 5528SOL     OW28219   1.568   2.752   5.006  0.5043 -0.1828 -0.6309
 5528SOL    HW128220   1.645   2.792   4.966  0.0314  1.3966  0.0425
 5528SOL    HW228221   1.501   2.793   4.952  0.4540 -0.9757 -1.1739
 5529SOL     OW28222   2.712   3.751  12.472  0.1786  0.0384  0.3158
 5529SOL    HW128223   2.762   3.670  12.484 -1.1252 -0.5149  2.1403
 5529SOL    HW228224   2.665   3.761  12.555  1.7759 -1.1064  1.3570
 5530SOL     OW28225   3.255   4.626  11.685 -0.1045  0.5127 -0.0496
 5530SOL    HW128226   3.342   4.629  11.723 -0.6891  1.4812  1.2068
 5530SOL    HW228227   3.279   4.667  11.602 -0.8300 -0.4812 -0.7540
 5531SOL     OW28228   2.748   0.828   3.701  0.0332 -0.1552 -0.4169
 5531SOL    HW128229   2.738   0.899   3.765  0.2744  0.5851 -1.1934
 5531SOL    HW228230   2.686   0.765   3.736  0.5560  0.1529  1.0671
 5532SOL     OW28231   3.737   3.756   4.099  0.5122 -0.2451 -0.2841
 5532SOL    HW128232   3.749   3.731   4.007 -2.7871 -2.3236 -0.1679
 5532SOL    HW228233   3.728   3.668   4.136  0.7288 -0.8462 -1.6370
 5533SOL     OW28234   1.104   2.917  15.484  0.9361 -0.4994  0.0794
 5533SOL    HW128235   1.108   2.970  15.405  0.2863 -1.2754 -0.4711
 5533SOL    HW228236   1.103   2.983  15.554 -1.8677 -0.4607  0.0038
 5534SOL     OW28237   1.820   3.770   2.578 -0.0497 -0.6028 -0.1914
 5534SOL    HW128238   1.805   3.863   2.562  0.7062 -0.0096  2.5648
 5534SOL    HW228239   1.834   3.760   2.672  1.9046 -1.9094 -0.6085
 5535SOL     OW28240   3.540   2.581  13.513 -0.4946 -0.1996 -0.0946
 5535SOL    HW128241   3.628   2.553  13.488 -0.0519  0.0456  1.1925
 5535SOL    HW228242   3.482   2.523  13.463  0.7166 -2.6933  1.4032
 5536SOL     OW28243   3.281   3.983   0.589  0.4407 -0.1950  0.7492
 5536SOL    HW128244   3.282   3.965   0.495 -1.4791  0.1737  0.6523
 5536SOL    HW228245   3.189   4.009   0.587  0.2144 -0.9739  0.9687
 5537SOL     OW28246   3.900   3.378   3.183  0.2519  0.1595 -0.0990
 5537SOL    HW128247   3.956   3.302   3.196  1.4996  1.3592  1.6332
 5537SOL    HW228248   3.912   3.401   3.091  1.7683  0.0768  0.0769
 5538SOL     OW28249   4.237   2.564  14.664 -0.2121 -0.5383 -0.8217
 5538SOL    HW128250   4.198   2.590  14.581 -0.6679 -3.4422 -1.5002
 5538SOL    HW228251   4.314   2.620  14.675 -0.1120 -1.2187  1.9741
 5539SOL     OW28252   2.221   4.645   3.020  0.3159  0.0826  0.1462
 5539SOL    HW128253   2.292   4.699   2.984  2.3078 -2.9267 -0.4120
 5539SOL    HW228254   2.277   4.574   3.051 -0.2040 -0.3999 -0.0131
 5540SOL     OW28255   4.133   0.033   6.059  0.4079  0.2562  0.0008
 5540SOL    HW128256   4.191   4.728   6.119  0.0956 -1.8918 -1.4148
 5540SOL    HW228257   4.203   0.053   5.996  0.5133  0.1202  0.0764
 5541SOL     OW28258   2.171   4.389  14.414 -0.1693  0.0792 -0.3724
 5541SOL    HW128259   2.105   4.327  14.382  0.9770  0.0154 -2.6069
 5541SOL    HW228260   2.118   4.455  14.457 -0.2380  0.1417 -0.5512
 5542SOL     OW28261   3.702   2.732   8.475  0.3445  0.2923  0.1629
 5542SOL    HW128262   3.697   2.659   8.414  0.2680  0.5500 -0.1427
 5542SOL    HW228263   3.757   2.702   8.548  0.5592 -0.5597 -0.3502
 5543SOL     OW28264   0.974   4.587   5.855  0.3932 -0.2626  0.5404
 5543SOL    HW128265   0.936   4.517   5.801  0.6606  0.5239 -0.6749
 5543SOL    HW228266   0.959   4.661   5.796 -1.4930 -1.3703 -0.3780
 5544SOL     OW28267   2.643   3.988   1.272 -0.4878 -0.5798 -0.0186
 5544SOL    HW128268   2.713   3.923   1.260  1.0493  0.8046  1.3957
 5544SOL    HW228269   2.573   3.944   1.223 -0.8120  0.3051 -0.3427
 5545SOL     OW28270   1.200   3.038   4.872 -0.2202  0.4321  0.3262
 5545SOL    HW128271   1.166   3.089   4.798 -0.7618  1.9172  1.5842
 5545SOL    HW228272   1.264   3.096   4.913 -1.5170  0.1731  2.6965
 5546SOL     OW28273   4.683   1.073   5.327 -0.0816  0.0531  0.0470
 5546SOL    HW128274   4.599   1.035   5.352 -0.0104  1.1113  1.9013
 5546SOL    HW228275   4.705   1.118   5.409  0.3661  0.1497 -0.1231
 5547SOL     OW28276   1.746   4.679   3.165  0.0414 -0.4493 -0.2927
 5547SOL    HW128277   1.729   4.619   3.093  3.1762  1.3056 -2.5183
 5547SOL    HW228278   1.839   4.659   3.175 -0.2209 -1.8744 -0.7164
 5548SOL     OW28279   0.632   0.901   4.316 -0.6344 -0.5938  0.3882
 5548SOL    HW128280   0.652   0.885   4.224  2.0933  0.7873  0.7615
 5548SOL    HW228281   0.719   0.929   4.343  0.4101 -1.4090 -2.0786
 5549SOL     OW28282   4.358   2.957  17.071 -0.3946 -0.0117  0.6122
 5549SOL    HW128283   4.424   3.022  17.096 -0.1538 -0.2572  0.6181
 5549SOL    HW228284   4.332   2.989  16.985 -0.9229 -1.9259  0.0644
 5550SOL     OW28285   4.615   0.184  14.160  0.3416  0.6879  0.5680
 5550SOL    HW128286   4.694   0.172  14.213 -0.1992 -0.6535  1.0871
 5550SOL    HW228287   4.590   0.262  14.209 -1.4280  1.6166 -1.7955
 5551SOL     OW28288   3.666   3.485   2.812  0.3356  0.0744 -0.0565
 5551SOL    HW128289   3.594   3.548   2.813  1.8593  1.8089 -1.4186
 5551SOL    HW228290   3.678   3.471   2.906 -1.6634 -0.1939  0.1677
 5552SOL     OW28291   2.075   3.431   3.911  0.2628  0.0130 -0.3996
 5552SOL    HW128292   2.084   3.354   3.855  1.1242  1.0047 -1.6140
 5552SOL    HW228293   2.042   3.385   3.988  1.9277 -1.4540 -0.5783
 5553SOL     OW28294   1.814   0.491   8.161 -0.9299  0.1498  0.4192
 5553SOL    HW128295   1.803   0.396   8.158  4.1089 -0.4066  0.1345
 5553SOL    HW228296   1.725   0.514   8.135 -1.6630 -0.3256  2.5484
 5554SOL     OW28297   0.211   3.560   5.788 -0.4922  0.0331 -0.0288
 5554SOL    HW128298   0.245   3.603   5.710  1.7292 -1.3476  0.1751
 5554SOL    HW228299   0.182   3.623   5.854 -0.4442  0.2188 -0.1843
 5555SOL     OW28300   2.236   3.021   3.833  0.7298 -0.1601 -0.2056
 5555SOL    HW128301   2.233   2.982   3.745  0.3919 -1.1640  0.2410
 5555SOL    HW228302   2.249   3.115   3.822 -1.4430  0.3766  1.8306
 5556SOL     OW28303   3.700   0.007   6.541 -0.1764 -0.0290  0.0633
 5556SOL    HW128304   3.614   0.002   6.581 -0.4438 -0.4868 -0.5800
 5556SOL    HW228305   3.731   4.659   6.541 -1.7387 -0.5490  0.7660
 5557SOL     OW28306   2.356   0.325   9.703  0.8796 -0.4824 -0.7388
 5557SOL    HW128307   2.297   0.288   9.636  2.0873  0.0969 -2.1304
 5557SOL    HW228308   2.367   0.254   9.765 -1.6822  0.1675  0.4666
 5558SOL     OW28309   1.582   2.755   8.411 -0.3639  0.2540  0.2924
 5558SOL    HW128310   1.511   2.773   8.473  0.5298  0.1716  1.3336
 5558SOL    HW228311   1.652   2.813   8.442 -0.5323  1.0861 -0.8986
 5559SOL     OW28312   4.339   3.950   4.298 -0.2766  0.3230 -0.4297
 5559SOL    HW128313   4.318   4.019   4.361  0.4851  0.1177  0.0580
 5559SOL    HW228314   4.412   3.995   4.255 -2.7337  2.4392 -2.3858
 5560SOL     OW28315   1.748   1.578   6.523  0.5333 -0.8436  0.0395
 5560SOL    HW128316   1.789   1.596   6.607 -0.5194  1.8739 -0.0247
 5560SOL    HW228317   1.828   1.550   6.479  1.3513  1.0119  0.3724
 5561SOL     OW28318   0.608   2.024  10.465  0.3232 -0.3284  0.2590
 5561SOL    HW128319   0.580   2.005  10.376  0.2141 -1.9112  0.6356
 5561SOL    HW228320   0.613   2.119  10.453  1.6991 -0.8118 -2.8943
 5562SOL     OW28321   0.238   1.114   1.290  0.0051  0.6072  0.3379
 5562SOL    HW128322   0.182   1.094   1.365 -0.0462 -0.2007  0.0881
 5562SOL    HW228323   0.194   1.189   1.249 -3.0455 -1.1280  0.4443
 5563SOL     OW28324   0.184   1.669   0.818 -0.0701 -0.0764  0.0194
 5563SOL    HW128325   0.180   1.734   0.889 -0.6278 -2.1900  1.9271
 5563SOL    HW228326   0.240   1.720   0.759  0.5478  0.5384  1.1347
 5564SOL     OW28327   2.662   0.458  11.941 -0.1170  0.6423  0.7194
 5564SOL    HW128328   2.711   0.539  11.955  0.6958  0.5693 -1.7318
 5564SOL    HW228329   2.714   0.397  11.993  3.9403  2.4555 -1.2216
 5565SOL     OW28330   4.580   4.571   2.771  0.4947 -0.2751 -0.2905
 5565SOL    HW128331   4.547   4.485   2.794  0.0617  0.8516  3.2641
 5565SOL    HW228332   4.669   4.541   2.752  0.0333 -1.2811 -0.8697
 5566SOL     OW28333   0.719   1.310   9.501 -0.1184  1.0139 -0.6297
 5566SOL    HW128334   0.727   1.217   9.521  1.1840  1.3528  0.4348
 5566SOL    HW228335   0.704   1.337   9.592 -0.0307 -1.0929  0.0028
 5567SOL     OW28336   1.836   4.191   4.609  0.0796 -1.0827  0.0828
 5567SOL    HW128337   1.904   4.190   4.542  0.2190 -1.1682  0.2240
 5567SOL    HW228338   1.788   4.268   4.578 -0.7767 -0.5079  2.8240
 5568SOL     OW28339   2.686   1.456  16.528  0.0303 -0.5752  0.2307
 5568SOL    HW128340   2.732   1.540  16.521 -3.0377  1.1698  1.3253
 5568SOL    HW228341   2.643   1.460  16.443 -2.3858  1.6672  1.5951
 5569SOL     OW28342   3.535   2.619   4.951  0.6346 -0.1634  0.2393
 5569SOL    HW128343   3.487   2.594   5.030 -0.1302  0.9468  0.1226
 5569SOL    HW228344   3.532   2.714   4.951  2.6305 -0.0991 -3.2199
 5570SOL     OW28345   0.574   4.462   6.491 -0.2181  0.1021 -0.6351
 5570SOL    HW128346   0.542   4.414   6.415 -0.5729 -0.6964  0.0108
 5570SOL    HW228347   0.503   4.471   6.555  0.6421  2.1301  0.0548
 5571SOL     OW28348   1.234   0.200   7.134  0.1561 -0.5482 -0.2856
 5571SOL    HW128349   1.293   0.252   7.189  0.5427 -1.9792  0.6247
 5571SOL    HW228350   1.234   0.111   7.169  0.3578 -0.4977 -0.1586
 5572SOL     OW28351   4.509   4.548   6.025 -0.6488  0.2178  0.2698
 5572SOL    HW128352   4.597   4.512   6.011 -0.3026  0.3914  1.9990
 5572SOL    HW228353   4.507   4.629   5.975  0.5334 -2.4720 -4.1572
 5573SOL     OW28354   0.007   0.745   6.327 -0.4908  0.2017 -0.0918
 5573SOL    HW128355   4.707   0.822   6.288 -0.7727  0.1042  0.0208
 5573SOL    HW228356   0.076   0.795   6.371 -2.0841  0.7879  1.7730
 5574SOL     OW28357   3.681   0.429   3.013  0.0024 -0.2338  0.5549
 5574SOL    HW128358   3.725   0.473   2.940 -2.2861  1.3338  0.1287
 5574SOL    HW228359   3.743   0.464   3.076 -1.5520  0.6852  1.5737
 5575SOL     OW28360   3.625   2.935   3.903 -0.3962  0.2974 -0.0090
 5575SOL    HW128361   3.556   3.001   3.914 -0.6703 -0.3832  2.3544
 5575SOL    HW228362   3.684   2.969   3.835  0.2015  2.4536  1.5818
 5576SOL     OW28363   4.504   2.911   5.381 -0.0317 -0.3881  0.7477
 5576SOL    HW128364   4.420   2.879   5.348  0.3916  0.7921 -1.4349
 5576SOL    HW228365   4.555   2.939   5.305 -0.9860 -0.4570  0.0919
 5577SOL     OW28366   3.131   0.271  12.292 -0.0480 -0.5037 -0.2640
 5577SOL    HW128367   3.202   0.244  12.351 -0.3307  0.1452  0.3754
 5577SOL    HW228368   3.180   0.318  12.225  1.2149 -0.7155  0.5028
 5578SOL     OW28369   1.002   2.397   6.862  0.1247  0.1837  0.1017
 5578SOL    HW128370   0.918   2.439   6.881 -0.1435  0.7717 -2.3091
 5578SOL    HW228371   0.973   2.311   6.830  0.9650 -0.0890  0.0842
 5579SOL     OW28372   4.049   3.462  15.623  0.1208  0.1489  0.3079
 5579SOL    HW128373   3.961   3.434  15.597  0.3590 -2.5160  2.2943
 5579SOL    HW228374   4.091   3.446  15.538 -0.7631 -0.1249 -0.0723
 5580SOL     OW28375   3.065   4.364   7.640  0.1335 -0.0968  0.8571
 5580SOL    HW128376   3.062   4.430   7.709 -3.7560  0.7700 -0.1445
 5580SOL    HW228377   3.124   4.301   7.683  1.5271 -0.2846 -1.3234
 5581SOL     OW28378   0.523   3.379   6.351  0.7716  0.0067 -0.1021
 5581SOL    HW128379   0.548   3.390   6.442 -0.6464 -0.0006  0.2951
 5581SOL    HW228380   0.466   3.454   6.336  2.7387  1.4311 -0.3485
 5582SOL     OW28381   1.771   3.597   6.709 -0.6125  0.3179  0.6799
 5582SOL    HW128382   1.699   3.604   6.645  0.5294  0.6258 -0.5856
 5582SOL    HW228383   1.750   3.674   6.761  1.7499  0.8936  0.8006
 5583SOL     OW28384   4.242   2.119  12.496  0.3427  0.2901 -0.3098
 5583SOL    HW128385   4.293   2.106  12.577  1.1415  0.8163 -0.7181
 5583SOL    HW228386   4.163   2.148  12.541  0.1116 -0.4368 -0.2587
 5584SOL     OW28387   0.594   1.698   1.959  0.4971  0.3873  0.2673
 5584SOL    HW128388   0.511   1.701   1.911  0.3815 -0.8877  0.3845
 5584SOL    HW228389   0.649   1.749   1.899  1.4952  0.9722  1.6636
 5585SOL     OW28390   2.752   1.539  13.799 -0.0586  0.0645  0.3123
 5585SOL    HW128391   2.662   1.514  13.816 -0.7956  1.2601 -1.8583
 5585SOL    HW228392   2.769   1.598  13.873  1.9391 -1.0385  0.7346
 5586SOL     OW28393   2.297   1.286  13.407  0.3771 -0.0350 -0.5299
 5586SOL    HW128394   2.238   1.342  13.458  0.1418 -0.3371 -0.4733
 5586SOL    HW228395   2.244   1.218  13.367  1.1658  0.2936 -2.1511
 5587SOL     OW28396   3.240   4.273   9.605 -0.1999 -0.7496  0.7733
 5587SOL    HW128397   3.262   4.364   9.586 -0.4190 -0.5964  1.2632
 5587SOL    HW228398   3.147   4.269   9.581  0.7456 -1.4589 -2.8031
 5588SOL     OW28399   4.101   4.101   5.242 -0.5436 -0.5046 -0.1667
 5588SOL    HW128400   4.193   4.077   5.230  0.6505  2.7046  2.3272
 5588SOL    HW228401   4.111   4.171   5.307 -1.2579  0.6213 -1.2766
 5589SOL     OW28402   2.936   2.739   5.529  0.4052  0.7798  0.0893
 5589SOL    HW128403   2.968   2.750   5.439  1.9649 -0.9206  0.4342
 5589SOL    HW228404   2.891   2.657   5.507  4.5428 -1.1038 -1.3218
 5590SOL     OW28405   0.786   4.179  15.835 -0.1817  0.5019  0.5020
 5590SOL    HW128406   0.798   4.211  15.924 -3.7791 -1.0954  1.5373
 5590SOL    HW228407   0.744   4.255  15.794  0.3037 -0.1597 -1.2118
 5591SOL     OW28408   2.958   1.461   8.449  0.9574  0.3260  0.1710
 5591SOL    HW128409   2.975   1.550   8.480  3.0628  0.4834 -1.4943
 5591SOL    HW228410   2.891   1.482   8.383 -0.3217 -1.3360  0.9377
 5592SOL     OW28411   3.850   2.161   3.690  1.0810 -0.3815  0.3201
 5592SOL    HW128412   3.837   2.175   3.596  0.4971  0.3455  0.5095
 5592SOL    HW228413   3.915   2.231   3.699  2.6425 -1.5699 -1.6132
 5593SOL     OW28414   3.447   0.729   4.419  0.4647  0.6417 -0.4189
 5593SOL    HW128415   3.434   0.634   4.427 -1.6111  0.7989 -1.7318
 5593SOL    HW228416   3.484   0.732   4.331  0.7135  2.8004 -0.2507
 5594SOL     OW28417   1.826   0.219   8.081 -0.0879  0.1276  0.0861
 5594SOL    HW128418   1.880   0.145   8.055  2.0178  1.4607  0.7187
 5594SOL    HW228419   1.772   0.174   8.146  1.1339 -0.8855  0.3974
 5595SOL     OW28420   0.802   0.314   3.724 -0.1439  1.0823  0.7067
 5595SOL    HW128421   0.819   0.403   3.754 -1.5338  1.9727 -1.1415
 5595SOL    HW228422   0.841   0.320   3.637 -1.0803 -1.9859  0.0673
 5596SOL     OW28423   2.882   2.372   0.684  0.1807 -0.5542  0.0387
 5596SOL    HW128424   2.825   2.306   0.643  1.2369 -0.5939 -1.3560
 5596SOL    HW228425   2.922   2.307   0.743  0.1473 -0.6405 -0.0334
 5597SOL     OW28426   1.058   1.185   3.454  0.3655  0.1041 -0.1809
 5597SOL    HW128427   1.050   1.117   3.521  1.2554  0.6980  0.5175
 5597SOL    HW228428   0.967   1.199   3.428  1.3097 -1.0407 -4.1496
 5598SOL     OW28429   3.716   4.658   7.459 -0.2021  0.2735 -0.1285
 5598SOL    HW128430   3.769   4.611   7.524  1.4458  2.6632  0.2858
 5598SOL    HW228431   3.701   4.741   7.505  1.3825  1.2236 -1.3057
 5599SOL     OW28432   4.088   3.578   8.670 -0.1680 -0.0166  0.1541
 5599SOL    HW128433   4.052   3.560   8.757 -1.6156 -2.3737 -0.9365
 5599SOL    HW228434   4.145   3.652   8.689 -1.9302  1.7520 -1.4545
 5600SOL     OW28435   1.700   3.360   8.459  0.3039 -0.7387  0.1049
 5600SOL    HW128436   1.665   3.275   8.431  0.4176 -0.9225  0.5190
 5600SOL    HW228437   1.638   3.390   8.525  1.6464  0.2266  0.9304
 5601SOL     OW28438   1.692   1.362  16.044  0.4254 -0.1353  0.1126
 5601SOL    HW128439   1.746   1.318  16.109 -2.6208  0.0905  2.7827
 5601SOL    HW228440   1.617   1.306  16.023 -0.8740  0.8408  2.2278
 5602SOL     OW28441   0.474   0.903   3.353  0.6913  0.2209  0.1497
 5602SOL    HW128442   0.518   0.983   3.326 -0.0371  0.7977  0.6768
 5602SOL    HW228443   0.395   0.930   3.399  0.6357 -2.3343  1.5347
 5603SOL     OW28444   4.339   1.072  11.671 -0.4658  0.0760 -0.3457
 5603SOL    HW128445   4.306   1.112  11.751 -0.4029 -2.4822  0.9479
 5603SOL    HW228446   4.412   1.024  11.709 -1.2689 -0.7107  0.1912
 5604SOL     OW28447   2.536   4.656   5.564  0.1734 -0.0846  0.1046
 5604SOL    HW128448   2.579   4.741   5.570  0.6530 -0.3315  0.1996
 5604SOL    HW228449   2.463   4.681   5.508  1.6627  0.9218 -1.3925
 5605SOL     OW28450   0.116   4.486   5.654  0.2457  0.6307  0.4813
 5605SOL    HW128451   0.143   4.465   5.565  1.0697  2.3441  0.3281
 5605SOL    HW228452   0.182   4.547   5.686  0.2612  1.1756 -0.5855
 5606SOL     OW28453   4.600   2.734   6.605  0.1879  0.8599 -0.3216
 5606SOL    HW128454   4.532   2.795   6.575 -0.2114  1.3162  1.5246
 5606SOL    HW228455   4.581   2.730   6.698  4.1135 -0.9875  0.3828
 5607SOL     OW28456   4.190   1.840   1.051  0.1327 -0.3216 -0.2461
 5607SOL    HW128457   4.185   1.788   0.971 -1.8665  2.1571 -1.7423
 5607SOL    HW228458   4.271   1.892   1.050  0.3686 -0.7036 -0.9006
 5608SOL     OW28459   1.241   4.171  10.824  0.1336  0.3463  0.2019
 5608SOL    HW128460   1.281   4.215  10.749  1.4449 -2.0901 -0.5231
 5608SOL    HW228461   1.294   4.204  10.897  0.5667 -2.2041  1.0286
 5609SOL     OW28462   0.016   3.197   5.158  0.3758  0.1027 -0.1154
 5609SOL    HW128463   4.721   3.111   5.140 -0.3498  0.6471 -1.1606
 5609SOL    HW228464   4.711   3.246   5.091 -1.5752 -2.2514 -0.4338
 5610SOL     OW28465   1.009   0.920  10.327 -0.5092  0.1352 -0.2355
 5610SOL    HW128466   0.925   0.963  10.342 -0.4166  1.0707 -2.5049
 5610SOL    HW228467   1.055   0.977  10.266 -0.4595 -1.1407 -1.4120
 5611SOL     OW28468   0.346   2.298   3.965 -0.2098  0.6472 -0.6188
 5611SOL    HW128469   0.388   2.214   3.948 -1.4310 -0.0388 -0.2570
 5611SOL    HW228470   0.390   2.322   4.046 -1.9014  0.2731  0.4138
 5612SOL     OW28471   1.621   1.530  11.485 -0.0335 -0.4376  0.3088
 5612SOL    HW128472   1.654   1.541  11.574  3.0394  0.9520 -1.0098
 5612SOL    HW228473   1.590   1.439  11.480 -2.9085  0.6591 -2.1076
 5613SOL     OW28474   4.220   4.309   2.988 -0.0553  0.0833 -0.2102
 5613SOL    HW128475   4.144   4.306   2.930  1.2048 -2.0058 -1.7627
 5613SOL    HW228476   4.192   4.372   3.054 -1.8409  0.4878 -1.3665
 5614SOL     OW28477   1.781   1.075   7.172 -0.1411 -0.6058  0.1494
 5614SOL    HW128478   1.705   1.124   7.142  0.4709  1.4390  1.9609
 5614SOL    HW228479   1.830   1.155   7.191 -0.0904  0.0445 -2.6590
 5615SOL     OW28480   2.324   1.252   2.840 -0.1437  0.0450  0.3680
 5615SOL    HW128481   2.355   1.238   2.930 -4.0082 -1.4837  1.4710
 5615SOL    HW228482   2.358   1.174   2.796  0.0270  0.3670 -0.0706
 5616SOL     OW28483   3.296   3.297   5.445 -0.3668 -0.3881  0.3909
 5616SOL    HW128484   3.220   3.347   5.414 -0.3714 -0.3459  0.4711
 5616SOL    HW228485   3.276   3.268   5.534  1.1849  0.5518  1.0342
 5617SOL     OW28486   3.351   2.512   2.605 -0.1384 -0.0621 -0.0869
 5617SOL    HW128487   3.424   2.574   2.603 -1.0263  0.8105 -4.5943
 5617SOL    HW228488   3.359   2.461   2.524  0.9921 -1.9437  1.1910
 5618SOL     OW28489   4.634   1.914  10.170 -0.3210  0.1405  0.4394
 5618SOL    HW128490   4.676   1.948  10.090 -0.8884 -0.5983 -0.1636
 5618SOL    HW228491   4.702   1.848  10.185 -0.4621 -0.9357 -3.6512
 5619SOL     OW28492   1.797   1.078   8.423 -0.1299 -0.7324 -0.2403
 5619SOL    HW128493   1.824   1.111   8.337  0.0325 -0.5060 -0.1024
 5619SOL    HW228494   1.702   1.090   8.418 -0.1204 -1.2083 -1.4904
 5620SOL     OW28495   1.529   3.726   1.550 -0.0987 -0.0070  0.5066
 5620SOL    HW128496   1.437   3.702   1.543 -0.2368 -0.2619  3.4915
 5620SOL    HW228497   1.531   3.816   1.517  1.3254  0.4707  1.9231
 5621SOL     OW28498   0.950   2.163   1.873  0.9080 -0.4725 -0.5648
 5621SOL    HW128499   1.013   2.207   1.930 -2.3139  0.9091  1.9617
 5621SOL    HW228500   0.868   2.209   1.890  1.2471  0.0766 -0.4187
 5622SOL     OW28501   0.412   3.990   7.031 -0.2195  0.3889 -0.0020
 5622SOL    HW128502   0.324   3.951   7.032 -0.3367  0.7283  1.5758
 5622SOL    HW228503   0.466   3.923   6.989 -0.7711  0.2507 -0.4934
 5623SOL     OW28504   0.476   1.455  16.898  0.2562  0.0017  0.4654
 5623SOL    HW128505   0.443   1.534  16.941  0.3343 -0.0175  0.5606
 5623SOL    HW228506   0.428   1.387  16.946 -2.1633  1.7017  0.4511
 5624SOL     OW28507   3.575   2.777   7.131 -0.1266 -0.1255  0.3498
 5624SOL    HW128508   3.488   2.752   7.161 -0.2146 -0.5010 -0.2409
 5624SOL    HW228509   3.561   2.774   7.037  1.5776 -0.3180  0.1030
 5625SOL     OW28510   2.147   3.167  14.970  0.3191 -0.1999 -0.4399
 5625SOL    HW128511   2.055   3.142  14.967 -0.1955  1.6092  0.1842
 5625SOL    HW228512   2.159   3.192  14.879  0.7939  0.4637 -0.1939
 5626SOL     OW28513   2.952   4.409   3.246  0.1215  0.2718  0.8034
 5626SOL    HW128514   3.003   4.453   3.315  1.5843  2.6056 -1.7507
 5626SOL    HW228515   2.910   4.492   3.225  0.9396  0.4040 -0.3215
 5627SOL     OW28516   0.992   3.790   2.017  0.2275  0.7676  0.0546
 5627SOL    HW128517   0.959   3.847   1.947  0.1304  0.5556 -0.0699
 5627SOL    HW228518   1.084   3.775   1.996 -0.3132 -0.7995 -1.1451
 5628SOL     OW28519   2.836   1.792  15.120  0.0485 -0.1539 -0.8508
 5628SOL    HW128520   2.773   1.827  15.058  0.5648 -0.1669 -1.3856
 5628SOL    HW228521   2.813   1.842  15.198 -0.5750 -1.5506 -0.1313
 5629SOL     OW28522   3.284   2.628   3.070 -0.3313  0.1228 -0.2098
 5629SOL    HW128523   3.261   2.644   2.978  2.1913  0.3113 -0.8039
 5629SOL    HW228524   3.211   2.677   3.109  0.1268 -0.0856  0.8930
 5630SOL     OW28525   1.274   3.490   3.591 -0.4871 -0.5380  0.0287
 5630SOL    HW128526   1.341   3.423   3.575 -0.0702 -0.0540 -0.2559
 5630SOL    HW228527   1.197   3.445   3.556 -0.3148  1.3220 -2.7402
 5631SOL     OW28528   0.263   1.357   9.633 -0.2083 -0.0726 -0.1792
 5631SOL    HW128529   0.180   1.402   9.619  0.0387  0.1635 -0.8673
 5631SOL    HW228530   0.242   1.320   9.719  0.1970  0.0714 -0.0145
 5632SOL     OW28531   0.343   0.083   7.617 -0.0951  0.3358  0.6175
 5632SOL    HW128532   0.401   0.152   7.650 -2.3494  2.1070  0.8461
 5632SOL    HW228533   0.276   0.133   7.571  0.7814  2.8837  2.1148
 5633SOL     OW28534   0.626   0.949   8.637 -0.0512  0.0772 -0.1556
 5633SOL    HW128535   0.595   0.862   8.660  0.8543  0.0865  1.1027
 5633SOL    HW228536   0.707   0.955   8.687 -0.4057 -0.7974  0.5159
 5634SOL     OW28537   1.549   3.597   6.546  0.3123 -0.1408 -0.0740
 5634SOL    HW128538   1.475   3.658   6.547  1.2446  0.9899  1.3479
 5634SOL    HW228539   1.500   3.515   6.542  3.5301 -2.2921  5.2001
 5635SOL     OW28540   2.345   3.117   0.060 -0.2647  0.2765 -0.5834
 5635SOL    HW128541   2.265   3.113   0.112 -0.6474  2.0468 -1.0559
 5635SOL    HW228542   2.413   3.137   0.125 -1.8037 -0.5128  1.2911
 5636SOL     OW28543   4.371   2.055   4.146  0.0123 -0.3139  0.0418
 5636SOL    HW128544   4.353   2.017   4.060  0.9583 -0.0543 -0.2705
 5636SOL    HW228545   4.287   2.080   4.186  1.8357  2.4750  2.1407
 5637SOL     OW28546   1.298   1.995   9.889  0.9149  0.1674  0.0356
 5637SOL    HW128547   1.344   1.911   9.898 -0.0688 -0.6652 -2.7955
 5637SOL    HW228548   1.360   2.059   9.924  0.4662  1.5433 -1.6853
 5638SOL     OW28549   3.762   0.291  14.144 -0.4183  0.0369  0.2471
 5638SOL    HW128550   3.687   0.326  14.193 -0.2716 -0.8596  1.1169
 5638SOL    HW228551   3.794   0.226  14.207 -0.6630  2.6321  3.0333
 5639SOL     OW28552   2.134   0.732   5.861  0.1762  0.2770 -0.3125
 5639SOL    HW128553   2.047   0.738   5.899  0.5720 -0.8878  0.7672
 5639SOL    HW228554   2.180   0.794   5.917 -1.9117  1.3206  0.2421
 5640SOL     OW28555   4.661   3.154   9.641  0.0275  0.0424  0.2179
 5640SOL    HW128556   4.614   3.221   9.592  1.6295  2.4904  2.0460
 5640SOL    HW228557   4.738   3.196   9.678  0.5891 -0.6203 -0.2024
 5641SOL     OW28558   3.834   1.065   8.559  0.5130  0.1640  0.0121
 5641SOL    HW128559   3.762   1.073   8.497 -0.4375  3.2757  1.5111
 5641SOL    HW228560   3.890   1.131   8.519  1.3423 -0.6950 -0.2613
 5642SOL     OW28561   3.909   1.004   7.486 -0.3840  0.4736 -0.1468
 5642SOL    HW128562   3.825   1.007   7.439  0.2253  0.1342 -1.2711
 5642SOL    HW228563   3.897   0.961   7.571 -1.7302 -2.4298 -1.7847
 5643SOL     OW28564   1.283   1.264   1.317  0.6690 -0.1145 -0.2287
 5643SOL    HW128565   1.243   1.325   1.254  1.3584  0.2733 -0.2855
 5643SOL    HW228566   1.376   1.285   1.311  0.4499  0.9554  0.1675
 5644SOL     OW28567   1.401   3.295  13.738  0.8212 -0.2425 -0.1884
 5644SOL    HW128568   1.416   3.254  13.823  1.5124 -1.5981 -0.9561
 5644SOL    HW228569   1.468   3.254  13.683  0.3092 -1.3003 -0.0207
 5645SOL     OW28570   2.204   4.632  14.756  0.0698 -0.2560 -0.4344
 5645SOL    HW128571   2.284   4.586  14.729 -0.7620 -1.8687 -0.1752
 5645SOL    HW228572   2.142   4.633  14.683  2.1580 -0.2776 -2.2172
 5646SOL     OW28573   4.564   3.891   7.622  0.3700 -0.3071  0.6241
 5646SOL    HW128574   4.626   3.944   7.672 -0.9717  0.4338  1.4993
 5646SOL    HW228575   4.617   3.811   7.621 -1.4032 -1.5061  2.6245
 5647SOL     OW28576   0.046   2.094   0.602 -0.2776  0.2124  0.5634
 5647SOL    HW128577   0.025   2.167   0.544 -3.8233 -1.2332  0.0223
 5647SOL    HW228578   0.135   2.108   0.635 -0.3883  0.1867  0.8759
 5648SOL     OW28579   2.211   0.617  14.273  0.0567  0.2149  0.0906
 5648SOL    HW128580   2.172   0.612  14.361 -1.4913  0.2697 -0.5995
 5648SOL    HW228581   2.300   0.594  14.301 -0.3614 -0.5242  0.8179
 5649SOL     OW28582   1.147   0.919   6.665  0.1627  0.3150  0.0768
 5649SOL    HW128583   1.109   0.843   6.709  0.8137 -0.9334 -1.5073
 5649SOL    HW228584   1.075   0.979   6.651  0.1274 -0.4517 -3.0674
 5650SOL     OW28585   3.673   3.891   2.992 -0.6792 -0.2409 -0.1020
 5650SOL    HW128586   3.629   3.811   3.020  1.5682 -1.5419 -0.2517
 5650SOL    HW228587   3.761   3.855   2.983 -1.2045 -2.3131  3.2104
 5651SOL     OW28588   1.262   3.177  14.672  0.0313 -0.1122 -0.2648
 5651SOL    HW128589   1.213   3.244  14.624 -0.4763 -0.8007 -0.6985
 5651SOL    HW228590   1.211   3.099  14.649  0.5386 -0.6535  0.4661
 5652SOL     OW28591   0.446   1.474   1.642  0.3089  0.1543 -0.0203
 5652SOL    HW128592   0.418   1.501   1.554 -2.3972  1.1899  1.1559
 5652SOL    HW228593   0.537   1.455   1.617 -0.2466  0.0524 -1.9899
 5653SOL     OW28594   2.110   1.491   3.124  0.0696  0.3190 -0.1751
 5653SOL    HW128595   2.119   1.543   3.044 -2.3757 -0.2895 -0.8264
 5653SOL    HW228596   2.050   1.546   3.175  0.9311  0.6042  0.5284
 5654SOL     OW28597   3.710   3.898  16.241 -0.2390 -0.1830 -0.7333
 5654SOL    HW128598   3.700   3.920  16.333  0.2253 -1.0854 -0.4654
 5654SOL    HW228599   3.701   3.803  16.245 -2.7381  0.1207  0.3040
 5655SOL     OW28600   1.070   4.115   5.008 -0.5042  0.0661 -0.4637
 5655SOL    HW128601   1.148   4.116   4.954 -0.0602 -1.8297  0.1489
 5655SOL    HW228602   1.097   4.178   5.075  1.5497  0.0265 -1.2710
 5656SOL     OW28603   4.436   0.555   9.052  0.4499 -0.0805  0.2845
 5656SOL    HW128604   4.356   0.597   9.019  1.2504  0.0661 -1.4744
 5656SOL    HW228605   4.462   0.503   8.976  0.1634 -1.3359  1.0442
 5657SOL     OW28606   4.459   3.843   5.716 -0.4733 -0.0881 -0.7319
 5657SOL    HW128607   4.418   3.874   5.635 -1.4301 -0.0696 -0.2377
 5657SOL    HW228608   4.455   3.748   5.723 -0.6745  0.1460  2.2812
 5658SOL     OW28609   2.789   1.304   5.612  0.0059 -0.3710 -0.2450
 5658SOL    HW128610   2.718   1.314   5.549 -1.4229  0.7804  1.5749
 5658SOL    HW228611   2.794   1.209   5.624  2.3461 -0.1064  0.9362
 5659SOL     OW28612   0.952   3.067   4.536 -0.2170 -0.6833  0.5526
 5659SOL    HW128613   1.039   3.057   4.575  0.0110 -1.9500 -0.2751
 5659SOL    HW228614   0.910   3.112   4.608 -0.0186  1.1539 -0.4816
 5660SOL     OW28615   2.544   4.008   4.067  0.3796 -0.4070 -0.1381
 5660SOL    HW128616   2.471   3.948   4.050 -0.5316  0.1382  1.8039
 5660SOL    HW228617   2.554   3.994   4.161  0.7411  0.1770 -0.0903
 5661SOL     OW28618   4.716   3.791   9.570 -0.0340 -0.4510 -0.2291
 5661SOL    HW128619   0.029   3.867   9.587 -0.1510 -0.4035 -0.0587
 5661SOL    HW228620   4.631   3.832   9.553  0.5967  1.3313  0.9378
 5662SOL     OW28621   3.909   3.292   4.803 -0.0673  0.5186  0.5707
 5662SOL    HW128622   3.867   3.378   4.793  1.9562  1.4534  0.1552
 5662SOL    HW228623   3.914   3.273   4.709 -2.2055 -0.9960  0.7689
 5663SOL     OW28624   0.406   1.715   6.316 -0.3749 -0.5808  0.0409
 5663SOL    HW128625   0.422   1.740   6.407  3.5284 -2.0965 -0.1916
 5663SOL    HW228626   0.473   1.761   6.265  1.0396 -3.1092 -0.4097
 5664SOL     OW28627   4.664   1.329   5.516 -0.6482 -0.1846 -0.0168
 5664SOL    HW128628   4.667   1.411   5.467 -2.1269 -0.6695 -0.8924
 5664SOL    HW228629   4.589   1.334   5.576  0.3658 -1.0655  1.3518
 5665SOL     OW28630   3.508   3.988   5.900  0.1153  0.2712  0.1590
 5665SOL    HW128631   3.541   4.031   5.821 -2.3622 -0.0352 -1.0605
 5665SOL    HW228632   3.542   3.901   5.879 -0.0346  0.1172  0.5510
 5666SOL     OW28633   3.256   1.650   4.987 -0.1287  0.0809 -0.3594
 5666SOL    HW128634   3.257   1.596   5.066  2.2177  1.3228  0.4779
 5666SOL    HW228635   3.231   1.736   5.020  1.8691  0.4823  0.1380
 5667SOL     OW28636   3.053   3.886   2.526 -0.0029 -0.2367 -0.4601
 5667SOL    HW128637   3.113   3.940   2.577  0.9988 -0.5182 -1.3379
 5667SOL    HW228638   2.969   3.898   2.569  1.7305  2.2362  2.2523
 5668SOL     OW28639   0.734   0.981   6.356 -0.0480  0.4851  0.0351
 5668SOL    HW128640   0.740   1.076   6.345 -0.3602  0.5595  0.5196
 5668SOL    HW228641   0.811   0.952   6.307 -0.3787  0.1572 -0.2879
 5669SOL     OW28642   3.727   3.700   7.784  0.1612 -0.1957 -0.4313
 5669SOL    HW128643   3.788   3.639   7.744 -0.9672 -1.8653  0.4227
 5669SOL    HW228644   3.754   3.695   7.876  0.0487  0.0790 -0.3827
 5670SOL     OW28645   2.307   1.448   8.279 -0.7043  0.1904  0.2649
 5670SOL    HW128646   2.302   1.472   8.187 -2.7550  0.3183  0.4083
 5670SOL    HW228647   2.249   1.372   8.276  1.0432 -1.1540 -0.2211
 5671SOL     OW28648   0.922   2.012  12.373  0.3799  0.1925  0.5112
 5671SOL    HW128649   0.917   2.075  12.445  1.3105  1.5503 -0.6144
 5671SOL    HW228650   0.832   2.032  12.345  1.0945  1.4234 -0.8681
 5672SOL     OW28651   0.945   4.029  17.604  0.0174 -0.1925  0.1478
 5672SOL    HW128652   0.995   4.103  17.570 -1.0473 -0.4690 -2.0801
 5672SOL    HW228653   0.886   4.015  17.530  1.6827 -0.8553 -1.0485
 5673SOL     OW28654   4.251   4.203   7.022 -0.1091 -0.1064  0.6178
 5673SOL    HW128655   4.176   4.236   6.972  0.2042  0.8462  0.7719
 5673SOL    HW228656   4.279   4.278   7.075 -0.7563  1.0941 -0.7153
 5674SOL     OW28657   4.175   0.572   9.334 -0.3002 -0.2625 -0.2687
 5674SOL    HW128658   4.099   0.514   9.342 -0.2441  0.1008  2.7278
 5674SOL    HW228659   4.232   0.496   9.326  0.8955  0.6449 -0.4631
 5675SOL     OW28660   3.680   3.216   5.542 -0.6116  0.5382 -0.5530
 5675SOL    HW128661   3.750   3.159   5.573 -2.0718  1.2700  4.2150
 5675SOL    HW228662   3.610   3.181   5.598  0.1271 -1.8394 -1.1163
 5676SOL     OW28663   2.442   2.341  14.527 -0.5446  0.6434  0.0610
 5676SOL    HW128664   2.524   2.387  14.508 -0.8457  0.5685 -1.4031
 5676SOL    HW228665   2.457   2.349  14.621  0.4257 -2.1995  0.1435
 5677SOL     OW28666   2.825   4.205   8.387 -0.2426 -0.3187  0.2170
 5677SOL    HW128667   2.797   4.296   8.372 -0.1029 -0.0992  1.2299
 5677SOL    HW228668   2.915   4.204   8.355 -0.5578  1.3143 -0.7489
 5678SOL     OW28669   2.428   2.253  12.330  0.2539 -0.1392  0.0468
 5678SOL    HW128670   2.463   2.291  12.410 -1.0289 -0.7689  0.9247
 5678SOL    HW228671   2.495   2.264  12.263 -1.6912  2.1126 -1.5671
 5679SOL     OW28672   1.359   0.189  13.422  0.3374 -0.3824  0.1090
 5679SOL    HW128673   1.449   0.220  13.432 -0.0692  1.1025 -0.9718
 5679SOL    HW228674   1.332   0.219  13.508 -0.9978 -0.1770 -0.3858
 5680SOL     OW28675   0.985   2.098   5.800 -0.3893  0.3302 -0.1562
 5680SOL    HW128676   0.963   2.191   5.801 -2.6163 -0.1973 -0.2467
 5680SOL    HW228677   0.974   2.071   5.708 -2.5928  0.3191  0.1261
 5681SOL     OW28678   2.496   4.612   7.992  0.2374  0.3888 -0.0036
 5681SOL    HW128679   2.495   4.536   8.052 -0.5243  0.7866  0.4908
 5681SOL    HW228680   2.452   4.576   7.915  0.4882  0.9417 -0.4023
 5682SOL     OW28681   3.841   0.500   5.688  0.1394 -0.2784 -0.1790
 5682SOL    HW128682   3.894   0.579   5.674 -0.2079  0.0824  0.5372
 5682SOL    HW228683   3.868   0.471   5.775 -2.0133 -0.7208  0.3483
 5683SOL     OW28684   3.726   3.088   2.860  0.1278 -0.0414 -0.3725
 5683SOL    HW128685   3.647   3.120   2.905  0.3250 -0.8786  0.5748
 5683SOL    HW228686   3.768   3.037   2.929  1.5070 -1.1320 -2.0565
 5684SOL     OW28687   4.129   2.110   5.454 -0.1094  0.0201 -0.1434
 5684SOL    HW128688   4.127   2.038   5.517 -1.1858 -0.1165 -0.3361
 5684SOL    HW228689   4.189   2.075   5.389 -0.3197  1.3983 -1.0658
 5685SOL     OW28690   4.528   0.246   9.970 -0.0893 -0.1882 -0.1949
 5685SOL    HW128691   4.454   0.239   9.910  0.3085 -0.7973 -0.6106
 5685SOL    HW228692   4.539   0.153   9.990 -0.3112 -0.4622 -1.3835
 5686SOL     OW28693   0.908   4.050  15.408  0.0884 -0.1155 -0.0141
 5686SOL    HW128694   0.860   4.132  15.396  0.3930 -0.3162 -2.7260
 5686SOL    HW228695   0.922   4.053  15.502  0.5451 -1.4662 -0.0478
 5687SOL     OW28696   1.207   2.047  16.227 -0.4753  0.4602 -0.0889
 5687SOL    HW128697   1.167   2.130  16.202 -0.6582  1.5324  3.7779
 5687SOL    HW228698   1.229   2.066  16.318  0.2366  0.3899 -0.2486
 5688SOL     OW28699   3.301   2.471   6.619 -0.3343 -0.3604 -0.3708
 5688SOL    HW128700   3.281   2.439   6.531  0.4278 -0.2466 -0.5812
 5688SOL    HW228701   3.283   2.564   6.614  0.6653 -0.0534  1.7748
 5689SOL     OW28702   1.897   2.354   3.584  0.2276  0.0093 -0.0140
 5689SOL    HW128703   1.862   2.385   3.668 -1.7469  1.5423 -1.3963
 5689SOL    HW228704   1.914   2.261   3.599  0.0911  0.1335  0.9099
 5690SOL     OW28705   4.207   1.518   3.418  0.0763 -0.3023  0.5562
 5690SOL    HW128706   4.112   1.525   3.424  0.0502  0.6072 -1.1240
 5690SOL    HW228707   4.232   1.610   3.425 -1.5563  0.1333  0.5886
 5691SOL     OW28708   1.796   3.826   3.833  0.7214  0.5863 -0.0440
 5691SOL    HW128709   1.886   3.844   3.861  0.6772  0.9769 -0.1672
 5691SOL    HW228710   1.752   3.910   3.839  2.6182  1.6170 -0.4730
 5692SOL     OW28711   3.031   1.916   7.134  0.4271 -0.2463 -0.0553
 5692SOL    HW128712   2.948   1.943   7.093  1.0953  0.1733 -1.1580
 5692SOL    HW228713   3.058   1.989   7.190 -0.6110  1.4109 -1.7151
 5693SOL     OW28714   3.563   4.082  12.129 -0.0728  0.3663 -0.1337
 5693SOL    HW128715   3.477   4.106  12.164 -0.8550 -2.3941 -0.1608
 5693SOL    HW228716   3.625   4.116  12.193  1.7098 -1.2996 -0.9556
 5694SOL     OW28717   2.512   0.636   3.450  0.1865 -0.0030  0.1718
 5694SOL    HW128718   2.419   0.635   3.431 -0.2119 -0.5685  2.1786
 5694SOL    HW228719   2.505   0.605   3.541 -1.6900 -0.5695 -0.1762
 5695SOL     OW28720   1.045   3.078  10.121  0.4001  0.6899  0.3356
 5695SOL    HW128721   1.032   3.005  10.182  0.0245  0.7413  0.3163
 5695SOL    HW228722   1.043   3.153  10.180 -3.1751  0.3634  0.6613
 5696SOL     OW28723   0.181   3.051   5.887  0.3845 -0.0952  0.2375
 5696SOL    HW128724   0.101   2.998   5.890  0.2189  0.0428 -1.8843
 5696SOL    HW228725   0.141   3.137   5.898 -2.7598 -1.4995 -0.1742
 5697SOL     OW28726   4.280   0.108   7.148 -0.5308  0.6742 -0.3000
 5697SOL    HW128727   4.211   0.156   7.103 -2.3348  1.3449  3.1386
 5697SOL    HW228728   4.236   0.088   7.231  0.2049  2.1539  0.4542
 5698SOL     OW28729   2.763   1.754   3.301 -0.0618 -0.0915 -0.3998
 5698SOL    HW128730   2.688   1.744   3.360  0.4609 -0.5226  0.1982
 5698SOL    HW228731   2.830   1.701   3.344  0.5384  0.3626 -0.7664
 5699SOL     OW28732   3.700   3.913   2.620  0.0406  0.2946  0.2215
 5699SOL    HW128733   3.790   3.913   2.589 -0.0346  1.4897 -0.0018
 5699SOL    HW228734   3.688   3.821   2.646 -0.1994  0.3342  0.2526
 5700SOL     OW28735   3.789   0.087   4.547 -0.1095  0.6388 -0.1418
 5700SOL    HW128736   3.861   0.150   4.544 -2.0469  2.9197  1.3295
 5700SOL    HW228737   3.727   0.126   4.609  1.6051 -0.0263  1.9988
 5701SOL     OW28738   1.301   0.321   6.863  0.4531  0.4219  0.7291
 5701SOL    HW128739   1.305   0.293   6.955 -1.3072  0.3071  0.7682
 5701SOL    HW228740   1.392   0.306   6.836  0.1040 -1.7655  0.7803
 5702SOL     OW28741   3.520   1.584   7.728 -0.7523  0.0299 -0.0548
 5702SOL    HW128742   3.606   1.571   7.766 -0.6005  2.5397  0.4892
 5702SOL    HW228743   3.465   1.568   7.805 -1.1630  0.8590 -0.1690
 5703SOL     OW28744   0.619   3.894   2.606 -0.3559  0.3898  0.1254
 5703SOL    HW128745   0.529   3.920   2.583  0.1573  1.6092 -0.4954
 5703SOL    HW228746   0.649   3.850   2.527 -0.5046 -1.7442  1.2574
 5704SOL     OW28747   0.150   0.126  12.576 -0.2026 -0.3189 -0.3970
 5704SOL    HW128748   0.141   0.134  12.671 -1.2295 -0.5207 -0.4816
 5704SOL    HW228749   0.243   0.114  12.558 -0.8696 -0.9037 -3.3787
 5705SOL     OW28750   4.130   3.386  15.384  0.9029  0.0671  0.1051
 5705SOL    HW128751   4.216   3.364  15.419  0.0541 -0.2295  1.9811
 5705SOL    HW228752   4.145   3.377  15.290  0.1877 -3.0348  0.3038
 5706SOL     OW28753   4.444   0.385   7.291  0.8958  0.3392 -0.1359
 5706SOL    HW128754   4.350   0.377   7.305  1.2721  1.3062  2.9068
 5706SOL    HW228755   4.446   0.481   7.288  2.8244  0.3406  0.9247
 5707SOL     OW28756   3.685   2.301   7.779 -0.8118  0.0666  0.4760
 5707SOL    HW128757   3.655   2.249   7.854 -1.5613 -0.8029 -0.4196
 5707SOL    HW228758   3.631   2.266   7.708 -0.2806  0.2263 -0.0040
 5708SOL     OW28759   2.063   4.340   7.956  0.4765 -0.2089 -0.2304
 5708SOL    HW128760   2.013   4.281   8.012  2.0436 -2.5134 -1.2590
 5708SOL    HW228761   2.106   4.278   7.898  2.6001  1.3416 -0.2985
 5709SOL     OW28762   0.549   0.022   4.067  0.2647  0.9913 -0.7252
 5709SOL    HW128763   0.488   0.000   3.997  0.7988 -0.8486 -0.6202
 5709SOL    HW228764   0.615   0.078   4.027  0.4164  0.6977 -0.8850
 5710SOL     OW28765   3.166   4.311   0.440  0.3088  0.0327  0.0587
 5710SOL    HW128766   3.214   4.329   0.360  0.1612 -3.2204 -0.7484
 5710SOL    HW228767   3.087   4.362   0.424 -0.6691 -1.5501 -0.1628
 5711SOL     OW28768   0.965   3.251   5.196 -0.3202  0.0874 -0.8258
 5711SOL    HW128769   1.030   3.278   5.131  0.7642  3.9382  1.8304
 5711SOL    HW228770   0.924   3.173   5.158  0.8811  0.0666 -2.0636
 5712SOL     OW28771   0.987   2.544   4.716  0.7074 -0.0413 -0.2867
 5712SOL    HW128772   0.906   2.493   4.721  0.3852  0.4500 -0.5940
 5712SOL    HW228773   0.965   2.615   4.656  2.2940 -0.6982 -1.6595
 5713SOL     OW28774   0.283   4.487  16.153 -0.4504 -0.3687 -0.0903
 5713SOL    HW128775   0.351   4.545  16.119  0.0470 -0.2058  1.1523
 5713SOL    HW228776   0.278   4.422  16.083 -0.6864  0.8152 -1.1728
 5714SOL     OW28777   0.638   1.788   6.140 -0.4700 -0.1011 -0.0613
 5714SOL    HW128778   0.673   1.728   6.074 -0.1610  1.3339 -1.1935
 5714SOL    HW228779   0.709   1.786   6.205 -0.3414 -2.6331 -0.2648
 5715SOL     OW28780   1.225   2.369   8.183  0.5258  0.0632  0.6670
 5715SOL    HW128781   1.208   2.463   8.188 -3.2558 -0.5245 -1.1010
 5715SOL    HW228782   1.173   2.350   8.104 -1.6396  1.0776  1.8342
 5716SOL     OW28783   4.093   2.562   5.432  0.0940  0.3411  0.4298
 5716SOL    HW128784   4.098   2.604   5.518 -1.6531 -0.8116  1.1070
 5716SOL    HW228785   4.007   2.523   5.450  0.4949 -0.5214  0.4735
 5717SOL     OW28786   4.093   1.673  11.475 -0.2562 -0.0648  0.3608
 5717SOL    HW128787   4.052   1.756  11.454  0.3794 -0.0224 -0.7283
 5717SOL    HW228788   4.144   1.706  11.549  0.3060  1.2476 -0.6145
 5718SOL     OW28789   0.613   2.692   7.169 -0.5473  0.0064 -0.6801
 5718SOL    HW128790   0.526   2.696   7.130 -1.5122 -1.3275  1.3945
 5718SOL    HW228791   0.637   2.784   7.183 -2.4445  0.2482  0.7938
 5719SOL     OW28792   2.154   3.453   7.649 -0.2338 -0.0762 -0.1369
 5719SOL    HW128793   2.172   3.489   7.562 -0.1820 -0.5622 -0.3283
 5719SOL    HW228794   2.244   3.455   7.681  0.3197  1.0738 -1.7275
 5720SOL     OW28795   2.604   4.457   4.537  0.2594 -0.0327 -0.1327
 5720SOL    HW128796   2.634   4.538   4.498  2.0570 -1.6722 -2.1456
 5720SOL    HW228797   2.677   4.426   4.590 -0.1075  0.2832  0.5613
 5721SOL     OW28798   2.591   1.317  13.540  0.1001 -0.6270  0.5679
 5721SOL    HW128799   2.521   1.364  13.495  0.0732 -0.6842  0.5498
 5721SOL    HW228800   2.664   1.379  13.545  0.8511 -1.3655 -1.0024
 5722SOL     OW28801   3.087   2.744   7.853  0.5791  0.7381  0.1970
 5722SOL    HW128802   3.023   2.699   7.908 -0.9532  1.5779 -0.9143
 5722SOL    HW228803   3.127   2.796   7.923 -1.5813  0.2966  1.7720
 5723SOL     OW28804   2.612   4.193  15.252  0.3221  0.2268 -0.1784
 5723SOL    HW128805   2.671   4.120  15.233  0.9619  0.9006 -0.7787
 5723SOL    HW228806   2.606   4.242  15.170 -2.1030  1.4524  0.7107
 5724SOL     OW28807   2.779   2.344   3.061 -0.7221  0.2253  0.4087
 5724SOL    HW128808   2.716   2.272   3.067 -0.5138 -0.0273 -0.5168
 5724SOL    HW228809   2.858   2.296   3.084 -2.1057 -0.8561  2.9054
 5725SOL     OW28810   3.293   4.478   6.586  0.6079 -0.0062 -0.4805
 5725SOL    HW128811   3.318   4.567   6.561  0.9425 -0.3602 -1.4136
 5725SOL    HW228812   3.201   4.492   6.609  0.5554 -0.4911 -0.3956
 5726SOL     OW28813   3.220   0.354   6.644  0.4363 -0.0241 -0.0986
 5726SOL    HW128814   3.211   0.296   6.568  2.2561 -0.6091  0.1287
 5726SOL    HW228815   3.314   0.353   6.661  0.3790  1.0589  0.2702
 5727SOL     OW28816   4.466   0.206   4.244  0.1911 -0.3348  0.6827
 5727SOL    HW128817   4.458   0.265   4.319 -1.3451 -2.9479  2.5732
 5727SOL    HW228818   4.561   0.198   4.231  0.4194  0.9600  1.5175
 5728SOL     OW28819   1.041   3.227   3.986  0.1762 -0.0217  0.7971
 5728SOL    HW128820   1.110   3.292   3.973  0.6404 -0.8003 -0.6347
 5728SOL    HW228821   1.077   3.186   4.064  0.1938 -0.6722  0.4495
 5729SOL     OW28822   3.945   1.020   3.055 -0.0744 -0.3079 -0.4115
 5729SOL    HW128823   3.885   1.030   3.129  1.1418 -1.4923  0.7278
 5729SOL    HW228824   3.901   1.060   2.980  0.8095  3.2639  0.9422
 5730SOL     OW28825   1.049   0.585   5.841  0.4330  0.0577 -0.3252
 5730SOL    HW128826   0.968   0.564   5.795  1.0680 -2.5208 -0.2487
 5730SOL    HW228827   1.115   0.569   5.774  1.5757  1.3219  0.4936
 5731SOL     OW28828   2.413   4.473   2.234  0.4015 -0.8916  0.2843
 5731SOL    HW128829   2.330   4.455   2.279 -0.8024  1.9733 -0.8365
 5731SOL    HW228830   2.382   4.465   2.144  1.1663  0.3824 -0.0780
 5732SOL     OW28831   2.379   3.421   4.778  0.0645  0.6079  0.4785
 5732SOL    HW128832   2.456   3.410   4.722 -0.4875 -0.6185 -0.0483
 5732SOL    HW228833   2.321   3.467   4.718  0.5111  3.5027  2.2591
 5733SOL     OW28834   3.843   4.688   6.839  0.4764 -0.5557  0.0848
 5733SOL    HW128835   3.897   4.637   6.778  0.5404 -0.4025  0.0139
 5733SOL    HW228836   3.848   4.646   6.925 -1.1240  1.6670  1.2452
 5734SOL     OW28837   3.916   1.502   5.393 -0.0712  0.0159 -0.2869
 5734SOL    HW128838   3.943   1.421   5.437 -0.4747 -0.0172 -0.0982
 5734SOL    HW228839   3.962   1.504   5.309  0.5644 -0.3121  0.0519
 5735SOL     OW28840   1.400   3.832   2.635 -0.4862  0.1485  0.1878
 5735SOL    HW128841   1.441   3.829   2.549  1.4893  5.8951  0.9855
 5735SOL    HW228842   1.315   3.872   2.616 -0.1071  0.2469 -1.2430
 5736SOL     OW28843   1.456   0.177   5.415 -0.5726 -0.1503 -0.0715
 5736SOL    HW128844   1.489   0.129   5.339  0.8322 -2.3572  1.9213
 5736SOL    HW228845   1.541   0.208   5.447 -0.5776 -0.5553  0.3378
 5737SOL     OW28846   0.885   1.298  10.218 -0.0665 -0.3029 -0.4007
 5737SOL    HW128847   0.797   1.330  10.234 -0.6382 -0.8780 -2.3797
 5737SOL    HW228848   0.886   1.294  10.122  0.0550 -1.3624 -0.3566
 5738SOL     OW28849   2.902   2.957   7.767  0.4088  0.1303 -0.1800
 5738SOL    HW128850   2.963   2.884   7.778 -0.6174 -0.6147  0.5032
 5738SOL    HW228851   2.852   2.931   7.690 -1.0882 -1.6083  1.3954
 5739SOL     OW28852   0.815   0.580   1.655 -0.3610  0.2285  0.3227
 5739SOL    HW128853   0.855   0.618   1.734  1.8923 -3.5001  0.9587
 5739SOL    HW228854   0.900   0.548   1.626 -0.4406  1.1904 -0.9695
 5740SOL     OW28855   4.233   1.980  12.275 -0.7217 -0.0897  0.0774
 5740SOL    HW128856   4.235   2.002  12.368 -1.3047 -0.7795  0.2478
 5740SOL    HW228857   4.283   2.054  12.240 -3.0869  1.1940 -0.5358
 5741SOL     OW28858   4.067   3.177   3.589  0.3753 -0.2229  0.1957
 5741SOL    HW128859   4.138   3.235   3.616 -0.4336  0.3653  1.0690
 5741SOL    HW228860   4.115   3.096   3.574 -0.7522 -0.9763  0.5846
 5742SOL     OW28861   1.231   0.133  16.702  0.3388 -0.1553 -0.3528
 5742SOL    HW128862   1.285   0.058  16.677 -1.5169 -1.4522 -0.5042
 5742SOL    HW228863   1.196   0.139  16.613 -1.8441  0.7832  0.5710
 5743SOL     OW28864   3.503   1.176  12.135  0.6917 -0.1776 -0.4716
 5743SOL    HW128865   3.521   1.098  12.084  0.5547 -0.2114 -0.4656
 5743SOL    HW228866   3.588   1.184  12.179 -0.6781 -1.8950  2.5097
 5744SOL     OW28867   0.217   4.036  11.661 -0.3319  0.1561  0.2227
 5744SOL    HW128868   0.195   3.998  11.746  0.0659 -0.3531  0.0964
 5744SOL    HW228869   0.217   3.959  11.605 -1.1122  0.3976 -0.1011
 5745SOL     OW28870   3.440   1.726   2.700  0.3154 -0.3616 -0.2668
 5745SOL    HW128871   3.348   1.728   2.675  0.1411  0.8225  0.4488
 5745SOL    HW228872   3.432   1.758   2.790 -0.4629 -1.0812 -0.0938
 5746SOL     OW28873   1.991   2.431  10.310 -0.2324  0.2258  0.0022
 5746SOL    HW128874   1.960   2.344  10.286  0.1293  0.0941  0.0059
 5746SOL    HW228875   2.050   2.408  10.382  0.5203 -0.2953 -0.7822
 5747SOL     OW28876   2.031   2.166   8.303 -0.4324 -0.2946  0.6445
 5747SOL    HW128877   1.953   2.220   8.308 -0.9364 -0.9565 -0.1219
 5747SOL    HW228878   2.080   2.235   8.258  1.3280 -1.6540  0.4700
 5748SOL     OW28879   0.093   4.527  15.058  0.5140 -0.3278  1.0015
 5748SOL    HW128880   0.056   4.477  15.131  1.0831 -1.0458  0.7917
 5748SOL    HW228881   0.153   4.589  15.101  2.9611 -0.1843 -2.6420
 5749SOL     OW28882   2.737   2.320   9.565 -0.7066  0.0096 -0.4123
 5749SOL    HW128883   2.673   2.379   9.525  1.0298  1.1071 -1.5936
 5749SOL    HW228884   2.823   2.361   9.551 -0.5468  0.0353  0.6795
 5750SOL     OW28885   4.315   4.330  13.080  0.3163  0.3348 -0.2355
 5750SOL    HW128886   4.336   4.239  13.100  0.4653  0.1715 -1.1469
 5750SOL    HW228887   4.318   4.356  13.172  2.1028  2.4002 -0.8620
 5751SOL     OW28888   0.663   0.567   2.460  0.0862  0.3087  0.7758
 5751SOL    HW128889   0.737   0.610   2.504  0.1367  1.8866 -0.8599
 5751SOL    HW228890   0.609   0.548   2.537 -0.5617  1.0360  0.5025
 5752SOL     OW28891   3.016   4.451   4.781 -0.0879  0.2099 -0.8092
 5752SOL    HW128892   2.991   4.470   4.872  2.6326 -0.5477  0.0753
 5752SOL    HW228893   3.098   4.499   4.771  0.1006  0.7158  2.9821
 5753SOL     OW28894   1.991   3.393   5.098 -0.2717 -0.2874  0.0073
 5753SOL    HW128895   2.021   3.405   5.008 -0.4587 -1.5716 -0.2357
 5753SOL    HW228896   1.910   3.444   5.098 -1.0175 -1.4490  1.5720
 5754SOL     OW28897   0.619   1.090   0.645  0.1453  0.6670  0.3816
 5754SOL    HW128898   0.711   1.114   0.638 -0.0723  1.7131  0.9837
 5754SOL    HW228899   0.603   1.020   0.582  0.6125  0.1076  0.8861
 5755SOL     OW28900   4.309   3.154   9.533  0.0115 -0.4706  0.2065
 5755SOL    HW128901   4.331   3.230   9.479  0.6810 -1.0897 -0.3974
 5755SOL    HW228902   4.346   3.174   9.619  0.4555 -0.7985  0.0900
 5756SOL     OW28903   0.217   2.341  15.706  0.6354 -0.7597 -0.1246
 5756SOL    HW128904   0.169   2.319  15.627  0.5681 -0.2455 -0.2290
 5756SOL    HW228905   0.221   2.436  15.717 -1.4528 -0.3492 -3.0800
 5757SOL     OW28906   1.460   0.495   1.744 -0.5505  0.3042  0.2563
 5757SOL    HW128907   1.544   0.538   1.735 -0.9903  1.2000  0.4921
 5757SOL    HW228908   1.404   0.560   1.787 -1.9810 -0.1589 -0.8903
 5758SOL     OW28909   0.711   3.321   0.872 -0.3086  0.0563 -0.9074
 5758SOL    HW128910   0.756   3.276   0.944  0.2454  1.1207 -0.5844
 5758SOL    HW228911   0.658   3.379   0.925 -0.6805 -2.9809  2.0781
 5759SOL     OW28912   3.943   2.330  10.155 -0.4795 -0.2866 -0.9341
 5759SOL    HW128913   4.014   2.393  10.167  0.0124 -1.0849  0.3038
 5759SOL    HW228914   3.991   2.247  10.155 -2.1367 -1.2311  1.0390
 5760SOL     OW28915   0.237   2.886   2.258 -0.1115  0.4235  0.3278
 5760SOL    HW128916   0.232   2.839   2.175 -0.8889  1.6530 -0.3211
 5760SOL    HW228917   0.330   2.907   2.265 -0.1130  0.8196 -0.9060
 5761SOL     OW28918   1.307   4.207   3.265 -0.3007 -0.0834  0.5618
 5761SOL    HW128919   1.321   4.301   3.279 -0.3055 -0.0147  0.0775
 5761SOL    HW228920   1.380   4.183   3.208 -0.8157 -0.8730  0.2426
 5762SOL     OW28921   2.041   2.454   4.271  0.0541  0.1970  0.2310
 5762SOL    HW128922   2.100   2.528   4.258 -0.7334  1.2517  2.5212
 5762SOL    HW228923   2.004   2.485   4.354  0.0751  1.1566 -0.1232
 5763SOL     OW28924   2.359   0.393   4.617  0.2763  0.3698 -0.0650
 5763SOL    HW128925   2.295   0.346   4.670  1.5289 -3.1369 -1.7122
 5763SOL    HW228926   2.328   0.483   4.605  0.9925  0.8367  1.5590
 5764SOL     OW28927   1.239   1.230   2.769 -0.4806  0.3022 -0.0054
 5764SOL    HW128928   1.243   1.272   2.854  0.3086 -0.0351  0.1271
 5764SOL    HW228929   1.309   1.165   2.774 -0.2416  0.6447  0.9977
 5765SOL     OW28930   0.248   2.458   6.094  0.4120  0.2607  0.1619
 5765SOL    HW128931   0.249   2.433   6.002 -0.7414 -2.2778  0.8335
 5765SOL    HW228932   0.303   2.393   6.137  2.3036  1.9736  0.3106
 5766SOL     OW28933   0.015   4.466   4.816  0.7797 -0.3592  0.0235
 5766SOL    HW128934   4.720   4.428   4.895  1.6437  0.3277  0.7678
 5766SOL    HW228935   4.709   4.426   4.745 -0.7501  1.6871 -0.0701
 5767SOL     OW28936   1.024   4.136   7.950 -0.0359  0.1456  0.1452
 5767SOL    HW128937   1.099   4.179   7.909 -1.3793  2.6420  0.2538
 5767SOL    HW228938   1.007   4.190   8.027 -1.0416 -0.4847  0.3658
 5768SOL     OW28939   2.059   4.258   3.531  0.0048 -0.1206 -0.2063
 5768SOL    HW128940   2.066   4.340   3.581  0.7451 -0.8278  0.8400
 5768SOL    HW228941   2.150   4.242   3.506  0.1525  0.5519 -0.1047
 5769SOL     OW28942   2.479   3.566   2.092 -0.4812  0.3080 -0.3022
 5769SOL    HW128943   2.519   3.638   2.043  0.8786  1.0009  1.8211
 5769SOL    HW228944   2.402   3.558   2.036 -1.0426  0.7470  0.4120
 5770SOL     OW28945   2.983   1.571   3.407  0.4648  0.0669 -0.0643
 5770SOL    HW128946   3.052   1.596   3.345 -0.5394  1.6838 -0.5225
 5770SOL    HW228947   3.006   1.479   3.417  0.0736  0.1546  1.5233
 5771SOL     OW28948   4.151   0.687   2.363 -0.0526 -0.5703 -0.0325
 5771SOL    HW128949   4.242   0.712   2.349  1.2857 -3.6031  2.9709
 5771SOL    HW228950   4.151   0.650   2.452  0.3927 -1.0170 -0.2194
 5772SOL     OW28951   2.951   0.063   5.762  0.1142  0.2084 -0.2997
 5772SOL    HW128952   2.928   4.724   5.807 -1.2728  0.0006 -1.4050
 5772SOL    HW228953   2.917   0.056   5.672  1.1471  0.5976 -0.7180
 5773SOL     OW28954   2.921   4.524   8.629 -0.4237  0.2362 -0.4191
 5773SOL    HW128955   2.996   4.529   8.570 -0.9460 -0.1972 -1.1209
 5773SOL    HW228956   2.853   4.551   8.567 -1.3084 -0.7340  0.1263
 5774SOL     OW28957   0.926   1.706   2.353  0.4664  0.3059  0.1224
 5774SOL    HW128958   0.996   1.640   2.350  2.4791  2.4804 -0.3981
 5774SOL    HW228959   0.858   1.641   2.367  0.1203  0.2104 -2.0273
 5775SOL     OW28960   1.015   0.662   2.303  0.3997 -0.3776 -0.0032
 5775SOL    HW128961   1.054   0.745   2.278  1.3131 -0.1722  2.0645
 5775SOL    HW228962   0.926   0.658   2.268  0.7367 -1.1147 -0.7616
 5776SOL     OW28963   0.520   0.916   6.802 -1.4753 -0.1991 -0.6278
 5776SOL    HW128964   0.586   0.860   6.761 -0.8824 -1.0199  1.4702
 5776SOL    HW228965   0.450   0.850   6.799 -1.9660  0.2453  0.8922
 5777SOL     OW28966   2.656   2.814   8.140 -0.2126  0.5055  0.2651
 5777SOL    HW128967   2.670   2.882   8.206  4.4113 -0.0085 -0.1491
 5777SOL    HW228968   2.571   2.837   8.103 -0.2448 -0.0813 -0.0233
 5778SOL     OW28969   2.653   1.843  14.924 -0.5535 -0.6824 -0.4144
 5778SOL    HW128970   2.616   1.930  14.940 -1.1119 -0.9904 -0.0017
 5778SOL    HW228971   2.577   1.786  14.915 -1.2653 -0.0688  1.6177
 5779SOL     OW28972   2.656   2.209   4.619  0.0362 -0.8062  0.2619
 5779SOL    HW128973   2.732   2.224   4.675 -0.0700 -1.7415  0.6660
 5779SOL    HW228974   2.582   2.230   4.676  1.7581  1.0403  1.8022
 5780SOL     OW28975   2.000   4.727   5.987 -0.5735 -0.0805 -0.4718
 5780SOL    HW128976   1.979   4.658   5.924 -0.0014 -1.6637  1.0697
 5780SOL    HW228977   2.025   4.671   6.060 -0.9220 -0.5682 -0.7221
 5781SOL     OW28978   1.158   1.512   3.759  0.3345  0.2218 -0.2923
 5781SOL    HW128979   1.221   1.529   3.829 -1.1282  0.8909  0.8525
 5781SOL    HW228980   1.172   1.418   3.744  2.3125  0.1951  1.6870
 5782SOL     OW28981   0.258   4.239   5.852 -0.2110 -0.6841 -0.0592
 5782SOL    HW128982   0.184   4.282   5.809 -0.5682 -0.5745  0.6668
 5782SOL    HW228983   0.233   4.247   5.944  1.3403  2.0728  0.1342
 5783SOL     OW28984   1.730   2.493  10.211  0.3191  0.1036  0.1349
 5783SOL    HW128985   1.719   2.493  10.116  0.0702  0.0410  0.1637
 5783SOL    HW228986   1.825   2.499  10.215  0.1218  2.3145  1.7468
 5784SOL     OW28987   2.925   2.468   7.702 -0.0597 -0.1992 -0.0878
 5784SOL    HW128988   2.878   2.438   7.624 -0.0048 -1.0832  0.2105
 5784SOL    HW228989   3.008   2.503   7.669 -0.1111 -1.7458 -1.8772
 5785SOL     OW28990   1.101   1.240  15.784 -0.1743  0.0809  0.2121
 5785SOL    HW128991   1.030   1.303  15.799  1.0219  1.8103 -1.4574
 5785SOL    HW228992   1.126   1.210  15.872 -0.1554  1.0270  0.5218
 5786SOL     OW28993   1.766   1.129   8.154 -0.2099 -0.5288 -0.8882
 5786SOL    HW128994   1.713   1.049   8.161  1.7202 -1.5460  2.0975
 5786SOL    HW228995   1.709   1.190   8.107 -0.3916 -1.4206 -1.8090
 5787SOL     OW28996   1.349   0.087   5.037  0.4526  0.2520  0.6223
 5787SOL    HW128997   1.316   0.130   4.958 -1.5445  1.8725  2.3325
 5787SOL    HW228998   1.306   0.137   5.106  0.0438 -0.6748  1.0395
 5788SOL     OW28999   0.904   0.105   2.557 -0.4529 -0.3113  0.4055
 5788SOL    HW129000   0.890   0.184   2.609 -0.9881  1.1194 -1.8956
 5788SOL    HW229001   0.874   0.035   2.615 -1.5847  0.1151  0.3276
 5789SOL     OW29002   2.454   4.568   6.059  0.1547  0.3568 -0.0536
 5789SOL    HW129003   2.449   4.655   6.020 -1.9258  0.3636  0.2230
 5789SOL    HW229004   2.459   4.518   5.978 -1.1520 -3.1860  2.0404
 5790SOL     OW29005   2.802   3.161  13.240  1.0132 -0.1056  0.2884
 5790SOL    HW129006   2.847   3.234  13.197  1.5616 -0.0670  0.9295
 5790SOL    HW229007   2.860   3.085  13.230 -0.4665 -0.8911 -2.2363
 5791SOL     OW29008   0.683   2.276   8.224  0.8955  0.0523 -0.0594
 5791SOL    HW129009   0.751   2.339   8.248 -1.6047  1.2551  3.9090
 5791SOL    HW229010   0.613   2.318   8.274  2.3372  0.1825  1.8400
 5792SOL     OW29011   4.506   4.126   8.141  0.0457  0.3203 -0.2227
 5792SOL    HW129012   4.461   4.093   8.064 -0.4624  1.1318 -0.2785
 5792SOL    HW229013   4.597   4.124   8.111  0.0780  1.9870 -0.2377
 5793SOL     OW29014   0.716   2.170   7.744 -0.2224 -0.1293  0.0821
 5793SOL    HW129015   0.639   2.192   7.691  0.4396 -0.8982 -1.1915
 5793SOL    HW229016   0.766   2.252   7.748 -0.0016 -0.2777  0.3376
 5794SOL     OW29017   3.682   0.602   7.565  0.0998 -0.0522 -0.1003
 5794SOL    HW129018   3.697   0.520   7.612 -1.3314 -0.5642 -0.5080
 5794SOL    HW229019   3.590   0.599   7.539  0.1869 -2.4345 -0.0694
 5795SOL     OW29020   4.347   2.098  11.116 -0.4237 -0.0048 -0.1752
 5795SOL    HW129021   4.324   2.006  11.133  1.1864 -0.0282  1.9416
 5795SOL    HW229022   4.275   2.148  11.156 -0.8239 -0.0825 -0.7995
 5796SOL     OW29023   2.110   1.574   4.142  0.0234 -0.0879 -0.5889
 5796SOL    HW129024   2.125   1.506   4.075 -1.0312  0.5648 -1.4896
 5796SOL    HW229025   2.186   1.624   4.114 -0.5679  2.9704  3.3232
 5797SOL     OW29026   2.247   3.725  15.581 -0.8567 -0.0006  0.0718
 5797SOL    HW129027   2.315   3.658  15.588 -1.1519 -0.1906  1.1642
 5797SOL    HW229028   2.174   3.666  15.601  0.0763 -0.6318  1.6208
 5798SOL     OW29029   0.464   1.724   6.597  0.0159 -0.1527 -0.3429
 5798SOL    HW129030   0.476   1.719   6.692 -1.7590  0.6988 -0.0876
 5798SOL    HW229031   0.546   1.683   6.568 -0.3320 -1.1617  0.0860
 5799SOL     OW29032   3.657   2.745   5.885 -0.0315  0.4539  0.0722
 5799SOL    HW129033   3.610   2.668   5.916 -1.1997  1.6652  1.3553
 5799SOL    HW229034   3.742   2.708   5.862 -0.7209 -0.1357 -1.4894
 5800SOL     OW29035   0.536   4.002   5.361 -0.3814  0.0125 -0.5162
 5800SOL    HW129036   0.460   3.970   5.312 -0.7535 -1.3579  0.9438
 5800SOL    HW229037   0.551   3.917   5.402 -2.9542 -0.3092 -0.2502
 5801SOL     OW29038   1.332   2.953   2.832  0.2261 -0.4163  0.2932
 5801SOL    HW129039   1.267   2.952   2.903 -0.5023  1.6296 -0.3413
 5801SOL    HW229040   1.288   2.892   2.772  1.7519  0.2404 -1.4948
 5802SOL     OW29041   4.209   0.711   8.910  0.5861 -0.0787  0.1560
 5802SOL    HW129042   4.177   0.801   8.913 -2.8016 -1.3166  0.6546
 5802SOL    HW229043   4.176   0.699   8.821  0.1656 -1.7941  0.5376
 5803SOL     OW29044   0.525   4.120   7.268 -0.1468 -0.4762 -0.0499
 5803SOL    HW129045   0.513   4.102   7.175  0.3016 -0.7231 -0.0591
 5803SOL    HW229046   0.436   4.124   7.301 -0.0503 -2.9553  0.4951
 5804SOL     OW29047   3.044   4.199   6.869 -0.2224 -0.4481  0.2407
 5804SOL    HW129048   3.137   4.206   6.890  0.2031  1.6690 -2.4519
 5804SOL    HW229049   3.021   4.151   6.948  2.8497 -1.3337  0.6000
 5805SOL     OW29050   1.613   3.110   1.768 -0.2190 -0.3425  0.5261
 5805SOL    HW129051   1.542   3.087   1.709  2.8583 -3.1310 -2.0806
 5805SOL    HW229052   1.600   3.043   1.835 -0.8488 -0.8129 -0.0752
 5806SOL     OW29053   2.620   2.103  14.982  0.0420  0.2120 -0.1340
 5806SOL    HW129054   2.568   2.159  15.039 -0.0532  2.2001 -2.1580
 5806SOL    HW229055   2.708   2.138  14.996  0.0295 -0.0836  0.6350
 5807SOL     OW29056   0.013   1.585   1.157 -0.0544 -0.1397  0.2185
 5807SOL    HW129057   4.705   1.562   1.080 -1.8506  3.0091  0.4226
 5807SOL    HW229058   4.695   1.625   1.220 -1.3554  0.7583 -1.6131
 5808SOL     OW29059   1.159   0.471   9.142 -0.3080  0.3117 -0.8759
 5808SOL    HW129060   1.207   0.524   9.079 -1.8901  1.7625 -0.8621
 5808SOL    HW229061   1.212   0.394   9.160 -1.7090 -1.1091 -2.7891
 5809SOL     OW29062   1.761   1.397   3.317 -0.2001 -0.2130  0.2300
 5809SOL    HW129063   1.705   1.378   3.392  1.3350 -2.2238  0.8743
 5809SOL    HW229064   1.696   1.377   3.250  0.4114 -3.9005  0.7508
 5810SOL     OW29065   2.565   0.859   4.031 -0.9049  0.0180  0.4400
 5810SOL    HW129066   2.482   0.889   3.994 -1.2681  0.3258  1.4868
 5810SOL    HW229067   2.536   0.770   4.052 -1.7489  0.2715  0.3802
 5811SOL     OW29068   3.715   0.066  13.166  0.6428 -0.3691 -0.5331
 5811SOL    HW129069   3.727   0.137  13.229  1.1921 -1.4330  0.5494
 5811SOL    HW229070   3.620   0.073  13.155  0.4338  1.1175  2.1817
 5812SOL     OW29071   3.675   2.686   3.492  0.5090 -0.3018  0.1864
 5812SOL    HW129072   3.665   2.640   3.575 -0.4898  0.2907  0.4058
 5812SOL    HW229073   3.613   2.638   3.437  0.9398  0.4884 -1.0051
 5813SOL     OW29074   2.941   2.536   4.733  1.0127 -0.2625 -0.4278
 5813SOL    HW129075   2.988   2.582   4.663  2.0902 -1.9262 -0.8046
 5813SOL    HW229076   2.925   2.599   4.803 -0.8202  0.0633 -1.1348
 5814SOL     OW29077   2.765   2.280   2.036 -0.6458  0.2673  0.3211
 5814SOL    HW129078   2.777   2.331   1.956  1.3287  0.8616  1.0041
 5814SOL    HW229079   2.852   2.243   2.045 -0.9887 -1.1047 -2.0085
 5815SOL     OW29080   1.048   4.245   2.163  0.0214  0.3205  0.0381
 5815SOL    HW129081   1.143   4.249   2.176  0.2720 -0.7967 -1.3987
 5815SOL    HW229082   1.031   4.262   2.070 -1.6391 -0.2462  0.2536
 5816SOL     OW29083   3.841   2.023  12.188 -0.4226  0.4846  0.4683
 5816SOL    HW129084   3.822   2.085  12.258  2.5319 -1.0194  2.5935
 5816SOL    HW229085   3.839   2.079  12.111  0.4304  1.0784  0.8736
 5817SOL     OW29086   1.054   1.652   7.634 -0.0176  0.4867  0.4248
 5817SOL    HW129087   1.090   1.589   7.572 -0.5597  1.1116 -0.5171
 5817SOL    HW229088   1.135   1.679   7.676  0.0639  0.6640  0.1497
 5818SOL     OW29089   3.972   1.952   0.428  0.6329  0.0562 -0.5104
 5818SOL    HW129090   3.886   1.988   0.406  0.3864 -0.6200 -0.6448
 5818SOL    HW229091   4.002   1.943   0.338 -1.3911 -0.0403 -1.1772
 5819SOL     OW29092   2.561   1.831  17.545  0.2551 -0.2194 -0.5648
 5819SOL    HW129093   2.522   1.747  17.519  1.0333 -1.3931  2.0871
 5819SOL    HW229094   2.620   1.800  17.613 -0.6607 -2.3120 -0.6880
 5820SOL     OW29095   0.882   2.939  15.748  0.1024  0.8165 -0.0786
 5820SOL    HW129096   0.830   2.934  15.668  1.4146 -2.0469 -0.7548
 5820SOL    HW229097   0.945   3.007  15.723 -0.3033  0.2387 -2.6842
 5821SOL     OW29098   1.597   2.795  15.661 -0.0097  0.3672 -0.3036
 5821SOL    HW129099   1.672   2.848  15.688 -0.7541  1.7363 -0.9325
 5821SOL    HW229100   1.616   2.781  15.569  0.3988 -0.3709 -0.1047
 5822SOL     OW29101   2.179   3.310   2.454 -0.4768 -0.7121 -0.1936
 5822SOL    HW129102   2.266   3.348   2.442 -1.3080  1.0809 -0.6444
 5822SOL    HW229103   2.188   3.266   2.538  1.1626  0.8615  0.4555
 5823SOL     OW29104   1.594   0.195  17.639 -0.1470 -0.1173  0.1801
 5823SOL    HW129105   1.527   0.128  17.624 -1.4787  1.1024  0.6439
 5823SOL    HW229106   1.544   0.275  17.620  2.4652  1.4007 -0.4138
 5824SOL     OW29107   2.698   4.024   5.704 -0.2632 -0.0675  0.6916
 5824SOL    HW129108   2.644   4.102   5.717 -2.4531 -1.0628 -2.4359
 5824SOL    HW229109   2.633   3.953   5.698  0.3415 -0.5889  0.3656
 5825SOL     OW29110   3.241   4.421   2.777 -0.0061 -0.1422  0.0139
 5825SOL    HW129111   3.255   4.360   2.849  0.0951  0.1452  0.2353
 5825SOL    HW229112   3.179   4.374   2.721  0.0054  0.6570 -0.6645
 5826SOL     OW29113   4.667   2.067   5.101  0.0195  0.1757  0.0870
 5826SOL    HW129114   4.581   2.043   5.068 -0.4304 -0.0289  1.4455
 5826SOL    HW229115   4.685   2.145   5.048 -1.8175  0.2247 -0.4460
 5827SOL     OW29116   1.464   0.069  17.051 -0.5608 -0.1967 -0.2918
 5827SOL    HW129117   1.371   0.068  17.072 -0.2744 -2.9959  0.7782
 5827SOL    HW229118   1.471   0.163  17.067 -0.2030 -0.3306  0.3066
 5828SOL     OW29119   3.847   1.418   6.782 -0.3427  0.0276 -0.2021
 5828SOL    HW129120   3.817   1.354   6.846 -0.8291  0.6282  0.1702
 5828SOL    HW229121   3.921   1.460   6.826  0.4360 -0.8922 -0.6165
 5829SOL     OW29122   1.224   0.580   9.933 -0.1466  0.1519 -0.1306
 5829SOL    HW129123   1.229   0.486   9.915  2.0381  0.2710 -0.1656
 5829SOL    HW229124   1.176   0.584  10.016 -0.0849  0.8806 -0.1324
 5830SOL     OW29125   2.930   1.092   1.923  0.4330 -0.2375  0.4001
 5830SOL    HW129126   2.849   1.047   1.900 -1.1144  2.6920  0.0451
 5830SOL    HW229127   2.906   1.183   1.941  3.1566  0.3373  1.1820
 5831SOL     OW29128   0.768   2.665   7.844  0.3944 -0.3668  0.0317
 5831SOL    HW129129   0.774   2.660   7.940  0.5833 -0.3759  0.0182
 5831SOL    HW229130   0.841   2.724   7.827  1.1864 -0.3026  3.5898
 5832SOL     OW29131   2.768   3.155   7.867  0.2877  0.0335  0.4222
 5832SOL    HW129132   2.699   3.093   7.890 -0.8808  1.6563  1.3274
 5832SOL    HW229133   2.839   3.097   7.840 -0.5374 -0.5933 -0.3637
 5833SOL     OW29134   0.798   4.143   4.441  0.6363  0.4453  0.4993
 5833SOL    HW129135   0.828   4.232   4.427 -0.6065  0.4651 -2.0622
 5833SOL    HW229136   0.844   4.094   4.373  0.2857 -2.7875  2.5515
 5834SOL     OW29137   0.345   2.039   4.522  0.2798 -0.2003  0.2458
 5834SOL    HW129138   0.354   2.047   4.617 -0.0161  0.1067  0.2451
 5834SOL    HW229139   0.384   1.953   4.502 -1.2814 -0.8118 -0.1732
 5835SOL     OW29140   3.267   0.915   4.151  0.2773 -0.3238 -0.5293
 5835SOL    HW129141   3.357   0.939   4.172  0.2243 -1.2103  0.7125
 5835SOL    HW229142   3.214   0.924   4.230  0.3400  2.9444 -0.8595
 5836SOL     OW29143   4.254   0.513   5.820 -0.1935  0.6289  0.3602
 5836SOL    HW129144   4.186   0.504   5.886  0.6385 -3.9119  0.5749
 5836SOL    HW229145   4.277   0.425   5.792  3.1326  1.2499  1.0929
 5837SOL     OW29146   0.184   1.478   5.555  0.2558  0.7388  0.7656
 5837SOL    HW129147   0.107   1.429   5.529  1.8035 -0.2296 -2.0095
 5837SOL    HW229148   0.250   1.455   5.489  0.1781 -0.9345  1.2882
 5838SOL     OW29149   2.472   0.292   7.127  0.4583  0.1914  0.0258
 5838SOL    HW129150   2.565   0.297   7.102  0.3907  1.0936 -0.0562
 5838SOL    HW229151   2.480   0.353   7.200 -1.1430 -0.0017  0.3464
 5839SOL     OW29152   3.542   1.505  14.342  0.4497 -0.0791  0.6390
 5839SOL    HW129153   3.491   1.537  14.268  1.6147 -0.9687 -0.5380
 5839SOL    HW229154   3.626   1.550  14.330  0.6005 -1.0007 -1.6229
 5840SOL     OW29155   4.589   2.760  17.173  0.1064  0.0833 -0.2677
 5840SOL    HW129156   4.615   2.755  17.081  3.1772  0.7421  0.5493
 5840SOL    HW229157   4.519   2.825  17.176 -0.0960 -0.0895 -1.1626
 5841SOL     OW29158   1.750   4.481   8.956 -0.3527 -0.0310  0.0302
 5841SOL    HW129159   1.673   4.534   8.976 -0.9551 -1.6232  1.8731
 5841SOL    HW229160   1.722   4.394   8.983 -0.1206  0.3977  1.6080
 5842SOL     OW29161   1.213   4.368   7.913  0.2366 -0.1098 -0.0802
 5842SOL    HW129162   1.302   4.346   7.943  1.2118  0.5259 -2.5052
 5842SOL    HW229163   1.226   4.362   7.818 -0.5672  0.3888 -0.2200
 5843SOL     OW29164   3.360   3.517   7.696  0.4631 -0.7711 -0.3411
 5843SOL    HW129165   3.276   3.517   7.650  0.5225  0.3484 -0.4560
 5843SOL    HW229166   3.424   3.503   7.626 -1.6457 -0.9535 -2.2220
 5844SOL     OW29167   0.655   1.044   2.182 -0.2180  0.2554  0.1971
 5844SOL    HW129168   0.655   1.139   2.175  0.8815  0.1118 -1.8042
 5844SOL    HW229169   0.567   1.027   2.216  0.2853  1.0418  1.8866
 5845SOL     OW29170   4.147   2.721  12.147 -0.0019  0.1318 -0.3636
 5845SOL    HW129171   4.223   2.743  12.093 -0.5974 -0.7240 -1.5605
 5845SOL    HW229172   4.083   2.714  12.076 -0.8590 -4.1450  0.8417
 5846SOL     OW29173   0.263   4.058   7.312  0.6145 -0.5617 -0.2232
 5846SOL    HW129174   0.231   3.998   7.245  0.3023  3.0664 -3.3197
 5846SOL    HW229175   0.238   4.142   7.272  1.2910 -0.5350 -0.5983
 5847SOL     OW29176   2.781   2.636   3.987  0.0672  0.0478 -0.3441
 5847SOL    HW129177   2.743   2.714   4.027 -2.0916 -0.9400 -0.4768
 5847SOL    HW229178   2.710   2.574   4.002  2.0872 -1.4614  2.8425
 5848SOL     OW29179   1.997   1.716   1.024 -0.0700 -0.0193  0.2720
 5848SOL    HW129180   1.978   1.734   0.932  1.9893 -2.7877 -0.6679
 5848SOL    HW229181   1.993   1.802   1.066  1.8164  0.2080 -0.0155
 5849SOL     OW29182   2.493   4.006   7.301  0.3712 -0.3962 -0.0015
 5849SOL    HW129183   2.465   4.027   7.390  2.2743  0.1680  0.4724
 5849SOL    HW229184   2.559   4.075   7.287 -0.9206  0.6269 -1.0276
 5850SOL     OW29185   0.444   3.749  15.373  0.2265 -0.2053 -0.1116
 5850SOL    HW129186   0.354   3.776  15.357 -0.1715  0.0585  2.6722
 5850SOL    HW229187   0.463   3.801  15.451 -1.7717  1.7269 -0.9170
 5851SOL     OW29188   0.650   0.062  14.217  0.7897 -0.4773 -0.2847
 5851SOL    HW129189   0.624   0.144  14.176  4.2844  0.8358  0.1305
 5851SOL    HW229190   0.740   0.086  14.241  0.5319  0.6331 -0.4493
 5852SOL     OW29191   0.615   2.671   2.015 -0.0913 -0.4145  0.3019
 5852SOL    HW129192   0.681   2.609   1.983  0.0119 -0.3060  0.3060
 5852SOL    HW229193   0.534   2.620   2.026 -1.1213  1.9848  3.7552
 5853SOL     OW29194   2.270   3.033   4.218  0.0324  0.5829 -0.1331
 5853SOL    HW129195   2.361   3.024   4.246 -0.3002  1.1680  1.1391
 5853SOL    HW229196   2.260   3.127   4.207  0.4928  0.4341 -1.8506
 5854SOL     OW29197   3.904   2.462  15.896  0.8724  0.8371  0.5325
 5854SOL    HW129198   3.860   2.437  15.977 -1.0513  0.3656 -0.6615
 5854SOL    HW229199   3.889   2.556  15.907  0.5215  0.9140 -0.5543
 5855SOL     OW29200   0.599   0.648   1.999 -0.0668  0.1979 -0.2561
 5855SOL    HW129201   0.536   0.601   2.055  2.4240 -2.7708  0.0620
 5855SOL    HW229202   0.535   0.709   1.964 -2.2029 -1.2826  1.0555
 5856SOL     OW29203   1.265   3.122   0.580  0.1718  0.5652 -0.2772
 5856SOL    HW129204   1.224   3.208   0.572  0.7002  0.7322 -1.1810
 5856SOL    HW229205   1.197   3.064   0.545  0.3667 -0.3455  0.8464
 5857SOL     OW29206   0.132   3.444   8.692 -0.0838 -0.3164 -0.2871
 5857SOL    HW129207   0.152   3.421   8.782  1.5407 -1.6140 -0.9672
 5857SOL    HW229208   0.135   3.356   8.654 -1.6761  0.5415 -2.4103
 5858SOL     OW29209   4.372   2.423   0.695  0.3766 -0.0065 -0.3133
 5858SOL    HW129210   4.446   2.383   0.741  0.6476  4.3835  3.0378
 5858SOL    HW229211   4.342   2.483   0.763 -0.5734 -0.9904  0.1530
 5859SOL     OW29212   4.179   3.435   2.771  0.2220  0.1873 -0.0435
 5859SOL    HW129213   4.224   3.517   2.749  0.8541 -0.5086 -1.3975
 5859SOL    HW229214   4.215   3.374   2.706  1.0043  0.9295 -0.3156
 5860SOL     OW29215   3.236   3.172   4.087 -0.1120 -0.6397  0.5748
 5860SOL    HW129216   3.314   3.163   4.032 -0.5216  0.1359 -0.1513
 5860SOL    HW229217   3.269   3.144   4.172 -0.7576 -2.4297  0.2299
 5861SOL     OW29218   3.460   2.831  14.743  0.4822 -0.5636 -0.2100
 5861SOL    HW129219   3.485   2.910  14.791  0.2662  0.2574 -1.4481
 5861SOL    HW229220   3.405   2.782  14.804 -0.2641  0.9562  0.3419
 5862SOL     OW29221   4.487   0.884   1.872 -0.0313 -0.4667  0.2024
 5862SOL    HW129222   4.529   0.823   1.813 -0.9557 -1.4541  0.5647
 5862SOL    HW229223   4.475   0.833   1.952 -0.7980 -1.1824 -0.3689
 5863SOL     OW29224   2.774   1.723   2.934 -0.1320 -0.0495  0.2031
 5863SOL    HW129225   2.728   1.687   3.010 -0.4653 -1.5938 -0.7475
 5863SOL    HW229226   2.809   1.805   2.971 -0.9737 -1.1498  3.4676
 5864SOL     OW29227   2.808   0.738  17.584 -0.2995  0.1597  0.5206
 5864SOL    HW129228   2.841   0.827  17.598 -1.2782  0.7184 -0.6298
 5864SOL    HW229229   2.823   0.698  17.669 -1.6673  1.3185  1.3148
 5865SOL     OW29230   3.102   0.517   7.444  0.0894  0.7208  0.1720
 5865SOL    HW129231   3.058   0.451   7.499 -1.3816  0.1785 -1.6697
 5865SOL    HW229232   3.085   0.597   7.495 -0.3922  1.4542 -1.1517
 5866SOL     OW29233   0.577   1.380   0.894  0.1542 -0.8284  0.3534
 5866SOL    HW129234   0.586   1.285   0.896  0.2238 -0.8277  0.0329
 5866SOL    HW229235   0.620   1.406   0.975  0.9365  1.4011 -0.7758
 5867SOL     OW29236   0.164   4.262   7.172  0.4072  0.0446  0.5497
 5867SOL    HW129237   0.102   4.233   7.105  0.0933 -1.0012  1.2968
 5867SOL    HW229238   0.117   4.328   7.223 -0.7177 -0.6156  0.3709
 5868SOL     OW29239   0.607   4.302   4.879  0.3104  0.0541 -0.1816
 5868SOL    HW129240   0.620   4.237   4.948 -3.0215  0.6431  1.0382
 5868SOL    HW229241   0.696   4.337   4.875  0.1027  0.4669 -1.2445
 5869SOL     OW29242   1.462   1.812   7.860  0.1825 -0.3498 -0.2400
 5869SOL    HW129243   1.422   1.853   7.784 -1.5032 -0.8835  0.3542
 5869SOL    HW229244   1.388   1.762   7.895 -0.3465  0.5451 -0.0817
 5870SOL     OW29245   3.711   2.950   6.097  0.3139  0.0262  0.0257
 5870SOL    HW129246   3.690   2.901   6.018  0.9990 -0.7079  0.3005
 5870SOL    HW229247   3.712   3.042   6.070 -1.9096  0.0465 -0.0206
 5871SOL     OW29248   3.589   3.992  14.192 -0.4835  0.3007  0.1629
 5871SOL    HW129249   3.595   4.073  14.242  0.1555 -0.1172  0.7499
 5871SOL    HW229250   3.682   3.975  14.178 -0.2396  1.4356  0.3688
 5872SOL     OW29251   4.321   2.045   5.935  0.6906  0.1099 -0.3633
 5872SOL    HW129252   4.358   2.131   5.916 -0.9710  1.2791  1.6586
 5872SOL    HW229253   4.383   2.005   5.996  1.6014 -0.0644 -1.4052
 5873SOL     OW29254   0.157   1.752  16.605  0.3228 -0.4806  0.2286
 5873SOL    HW129255   0.240   1.717  16.639 -0.3553 -1.7285  0.5752
 5873SOL    HW229256   0.131   1.667  16.569  0.1245  0.3069 -1.5012
 5874SOL     OW29257   1.850   0.517   2.847  0.1043  0.8789  0.1602
 5874SOL    HW129258   1.929   0.469   2.872 -0.7152 -0.6044 -0.1140
 5874SOL    HW229259   1.873   0.535   2.756 -1.1100  0.2590 -0.2584
 5875SOL     OW29260   0.656   4.284   3.603  0.3395 -0.2531  0.8205
 5875SOL    HW129261   0.636   4.340   3.528  0.9632 -1.6593 -0.3921
 5875SOL    HW229262   0.719   4.347   3.636 -0.0237  1.8321 -2.4548
 5876SOL     OW29263   0.050   0.916  13.550  0.5458  0.0224  0.2010
 5876SOL    HW129264   4.710   0.940  13.509  1.2823  0.6880 -0.8890
 5876SOL    HW229265   0.045   0.966  13.631 -0.8506 -2.4672  1.6569
 5877SOL     OW29266   2.765   0.295  14.271 -0.2300 -0.4916  0.1131
 5877SOL    HW129267   2.710   0.217  14.260 -1.4784  0.3790  0.2164
 5877SOL    HW229268   2.836   0.266  14.214  1.9386  0.2259  2.4029
 5878SOL     OW29269   2.404   0.801   2.760  0.5600 -0.2513  0.5496
 5878SOL    HW129270   2.490   0.760   2.765  0.9972  0.3344 -1.7386
 5878SOL    HW229271   2.349   0.727   2.733  1.1754 -0.2050 -0.8411
 5879SOL     OW29272   2.164   2.280   3.716  0.9132 -0.1882  0.1991
 5879SOL    HW129273   2.112   2.206   3.684 -0.5329 -0.3397  2.8620
 5879SOL    HW229274   2.114   2.302   3.795  1.0103  0.5423  0.0592
 5880SOL     OW29275   0.295   2.441   5.206 -0.4223 -0.0483  0.0064
 5880SOL    HW129276   0.284   2.525   5.160 -0.8785  0.2771  0.7022
 5880SOL    HW229277   0.202   2.423   5.223 -0.0581 -3.2495 -1.4323
 5881SOL     OW29278   1.551   0.398  12.145 -0.0020 -0.1519  0.3263
 5881SOL    HW129279   1.581   0.370  12.232  1.2340  0.1365 -0.0122
 5881SOL    HW229280   1.459   0.414  12.167  0.9344  1.7160  2.9814
 5882SOL     OW29281   2.519   4.700  12.072  0.4897  0.3703  0.0726
 5882SOL    HW129282   2.443   4.697  12.013  0.6437  0.2770 -0.1238
 5882SOL    HW229283   2.506   0.029  12.134 -3.0273 -0.6550  0.5198
 5883SOL     OW29284   0.664   1.161  15.417 -0.3230 -0.4262 -0.5303
 5883SOL    HW129285   0.696   1.084  15.464  0.2909 -0.2621 -0.6679
 5883SOL    HW229286   0.615   1.125  15.343 -1.1738 -0.6009  0.1147
 5884SOL     OW29287   2.637   2.032   2.332 -0.2573  0.5067  0.1294
 5884SOL    HW129288   2.545   2.048   2.355 -0.4150  0.9760 -0.8200
 5884SOL    HW229289   2.677   2.034   2.419 -1.1056 -1.2578  0.5614
 5885SOL     OW29290   1.399   3.168   4.973  1.0871 -0.0699 -0.3844
 5885SOL    HW129291   1.467   3.101   4.965 -2.2157 -3.5375  0.5909
 5885SOL    HW229292   1.446   3.234   5.024 -1.1754  0.1126  1.4660
 5886SOL     OW29293   1.396   3.726  13.609  0.0778 -0.7796  0.2222
 5886SOL    HW129294   1.448   3.664  13.661 -2.8475 -0.3780  3.6765
 5886SOL    HW229295   1.386   3.789  13.681 -0.2104 -0.0184 -0.4810
 5887SOL     OW29296   2.935   0.048   2.096 -0.2087 -0.1023  0.3130
 5887SOL    HW129297   2.956   4.736   2.172 -0.7085  1.7904  1.8204
 5887SOL    HW229298   2.958   4.732   2.024  0.2369  2.6726 -1.7879
 5888SOL     OW29299   2.301   0.513   5.746 -0.4607  1.0422 -0.1184
 5888SOL    HW129300   2.211   0.484   5.730  0.4309 -1.6064 -0.3400
 5888SOL    HW229301   2.284   0.580   5.812 -0.1951  0.8526  0.1440
 5889SOL     OW29302   3.652   1.110   5.841 -0.5411 -0.5755 -0.4917
 5889SOL    HW129303   3.746   1.093   5.847 -0.3015 -0.0383 -2.4480
 5889SOL    HW229304   3.628   1.158   5.920  0.0033 -3.0878  1.1972
 5890SOL     OW29305   3.687   4.093   8.725 -0.0581  0.7538 -0.7313
 5890SOL    HW129306   3.725   4.174   8.757  0.8229  0.8267 -1.9251
 5890SOL    HW229307   3.767   4.044   8.704 -0.1769 -0.2635  1.2758
 5891SOL     OW29308   1.251   3.060   3.524  0.0022  0.5164 -0.0824
 5891SOL    HW129309   1.206   3.054   3.440 -0.4747  2.8790  0.0224
 5891SOL    HW229310   1.277   2.970   3.546 -1.4568  0.4126  1.1968
 5892SOL     OW29311   3.043   1.552  10.585 -0.6595  0.0174 -0.0934
 5892SOL    HW129312   3.103   1.505  10.527  0.1573  0.1112  0.6720
 5892SOL    HW229313   3.083   1.639  10.575  3.2502 -1.8462 -0.8667
 5893SOL     OW29314   1.312   0.473   8.723  0.2019  0.0131  0.5224
 5893SOL    HW129315   1.259   0.430   8.655 -0.3377 -0.9172  1.5286
 5893SOL    HW229316   1.359   0.404   8.770  0.3010 -0.7804 -0.7242
 5894SOL     OW29317   2.097   4.724  17.765  0.1526  0.4853 -0.1902
 5894SOL    HW129318   2.052   4.687  17.689 -2.4188 -0.6696  1.8629
 5894SOL    HW229319   2.098   0.073  17.738  0.1637  0.9010  1.2424
 5895SOL     OW29320   0.468   2.026  17.175 -0.0390 -0.4871 -0.6782
 5895SOL    HW129321   0.555   2.008  17.211  0.1508  1.0700 -0.3545
 5895SOL    HW229322   0.489   2.084  17.102  0.3124  0.2507 -0.0054
 5896SOL     OW29323   3.021   2.631   6.912 -0.2054  0.0504  0.4708
 5896SOL    HW129324   2.926   2.627   6.915 -0.2683 -0.8628 -2.7093
 5896SOL    HW229325   3.024   2.727   6.911  0.0760  0.0382 -0.0513
 5897SOL     OW29326   0.034   4.727   3.309 -0.1524 -0.3861  0.7093
 5897SOL    HW129327   0.034   0.079   3.325 -1.2597 -0.5789  1.9094
 5897SOL    HW229328   0.082   4.691   3.384  1.6407  2.2063  0.8080
 5898SOL     OW29329   4.692   0.261   6.704  0.5356 -0.1535 -0.3977
 5898SOL    HW129330   4.684   0.165   6.703 -0.1869 -0.0960  0.0485
 5898SOL    HW229331   0.035   0.259   6.661  0.1522 -1.3317 -1.1021
 5899SOL     OW29332   3.979   0.304   2.265 -0.0088 -0.2974  0.1580
 5899SOL    HW129333   3.977   0.377   2.203 -0.0963  0.0497  0.5710
 5899SOL    HW229334   3.903   0.324   2.320 -1.7427 -1.7673 -1.7037
 5900SOL     OW29335   0.566   1.016  16.137  0.0030 -0.3380  0.4654
 5900SOL    HW129336   0.566   1.089  16.199  2.2718 -0.6118  0.7663
 5900SOL    HW229337   0.563   0.940  16.195 -0.8168 -0.0237  0.8318
 5901SOL     OW29338   0.406   4.367   4.713  0.2357 -0.1808  0.2703
 5901SOL    HW129339   0.331   4.329   4.758  0.7991 -0.1993  1.1752
 5901SOL    HW229340   0.472   4.340   4.776  2.3896  3.7040 -0.2888
 5902SOL     OW29341   3.826   0.793   4.328 -0.5455  0.1224 -0.5512
 5902SOL    HW129342   3.866   0.831   4.250  1.2264 -0.3968  0.1152
 5902SOL    HW229343   3.746   0.755   4.290 -1.6120  2.3235 -0.5300
 5903SOL     OW29344   0.410   1.699  15.492 -0.0133 -0.7366  0.1933
 5903SOL    HW129345   0.382   1.790  15.487  0.8963 -0.3305  2.4576
 5903SOL    HW229346   0.479   1.702  15.559  0.3230  0.1192 -0.1927
 5904SOL     OW29347   2.541   3.886   9.166  0.4023  0.2176 -0.2682
 5904SOL    HW129348   2.557   3.972   9.129 -1.0262  0.8401  0.5477
 5904SOL    HW229349   2.610   3.841   9.118  0.8127 -2.0811  2.5255
 5905SOL     OW29350   1.170   1.764   1.363  0.2605  0.4075  0.4006
 5905SOL    HW129351   1.173   1.841   1.420  0.7870 -0.3893  1.4352
 5905SOL    HW229352   1.228   1.796   1.293  3.1714 -0.2197  2.4967
 5906SOL     OW29353   1.907   0.920  11.133 -0.1040  0.3664  0.4006
 5906SOL    HW129354   1.981   0.968  11.097 -0.9445  0.0290 -1.7745
 5906SOL    HW229355   1.888   0.860  11.061 -0.2643  0.8546  0.0349
 5907SOL     OW29356   4.741   1.421   0.309  0.4728 -0.1174 -0.0270
 5907SOL    HW129357   0.072   1.368   0.341 -0.4455 -1.4924 -0.2030
 5907SOL    HW229358   4.673   1.396   0.371 -0.5942  3.7540  0.3460
 5908SOL     OW29359   3.786   1.874   5.229 -0.2448 -0.4430 -0.0958
 5908SOL    HW129360   3.712   1.818   5.252 -0.5195  0.2361  0.6698
 5908SOL    HW229361   3.856   1.810   5.240  1.7367  1.7349  0.1176
 5909SOL     OW29362   3.744   2.387   6.877 -0.0344  0.5399 -0.3956
 5909SOL    HW129363   3.659   2.425   6.854  2.1845  4.4362 -2.2031
 5909SOL    HW229364   3.721   2.382   6.969 -0.2511 -0.5559 -0.5162
 5910SOL     OW29365   0.319   4.276   0.774  0.0405  0.5655  0.0142
 5910SOL    HW129366   0.293   4.325   0.852 -0.3726  0.5081 -0.0857
 5910SOL    HW229367   0.414   4.270   0.772 -0.1021 -2.0429  2.3145
 5911SOL     OW29368   1.815   3.253   8.741 -0.7790  0.5353 -0.0471
 5911SOL    HW129369   1.909   3.240   8.731 -0.9590  0.1426 -1.2170
 5911SOL    HW229370   1.780   3.305   8.668 -0.7258  1.5933  0.6671
 5912SOL     OW29371   3.620   1.107   8.406 -0.4228  0.6205 -0.1133
 5912SOL    HW129372   3.553   1.168   8.436 -1.7448 -1.9322  2.1016
 5912SOL    HW229373   3.621   1.124   8.312 -1.6907  0.1201 -0.2252
 5913SOL     OW29374   0.394   3.133   4.244 -0.3059  0.6582  0.2901
 5913SOL    HW129375   0.426   3.049   4.210 -1.1856  1.3055 -2.1729
 5913SOL    HW229376   0.467   3.175   4.288  0.2094  0.8490 -0.7533
 5914SOL     OW29377   1.044   0.873   1.388 -0.6468 -0.0204 -0.4027
 5914SOL    HW129378   1.115   0.897   1.328 -0.2365 -0.6508 -0.1652
 5914SOL    HW229379   1.097   0.874   1.468  0.6144  1.5021 -1.2469
 5915SOL     OW29380   3.211   2.975   0.068  0.2078  0.7979 -0.5973
 5915SOL    HW129381   3.261   3.003  17.759  1.7362  0.7933  0.3954
 5915SOL    HW229382   3.222   2.881   0.058 -0.3068  0.7960 -1.1407
 5916SOL     OW29383   3.733   1.242   2.388  0.1677  0.2865  0.3566
 5916SOL    HW129384   3.781   1.324   2.383 -0.6553  0.8270  1.3553
 5916SOL    HW229385   3.798   1.171   2.388 -0.5758 -0.4007 -0.7268
 5917SOL     OW29386   1.044   2.851   4.987 -0.0531  0.4280 -0.0915
 5917SOL    HW129387   1.124   2.814   5.024 -0.5017 -0.6924 -0.2392
 5917SOL    HW229388   1.075   2.896   4.909  0.7049 -0.4101 -0.2722
 5918SOL     OW29389   4.475   1.191   7.516 -0.7128  0.3387  0.4844
 5918SOL    HW129390   4.562   1.177   7.554 -0.4026 -0.8467 -0.6765
 5918SOL    HW229391   4.491   1.268   7.462 -2.1772 -1.4299 -2.4703
 5919SOL     OW29392   2.106   2.520  16.185  0.4392 -0.1562  0.1504
 5919SOL    HW129393   2.052   2.477  16.251  0.9823  1.8563  1.9352
 5919SOL    HW229394   2.112   2.608  16.223  0.5665  0.1381 -0.5633
 5920SOL     OW29395   2.801   2.784   9.417  0.2936  0.1205  0.6160
 5920SOL    HW129396   2.748   2.754   9.343  0.2599 -0.2908  0.8105
 5920SOL    HW229397   2.742   2.761   9.488 -1.5517  0.6803 -0.7389
 5921SOL     OW29398   0.049   3.429   6.578  0.2522 -0.2319  0.2524
 5921SOL    HW129399   4.699   3.435   6.558  0.0829  2.7231  1.9585
 5921SOL    HW229400   0.047   3.359   6.642 -1.2816  0.6830  1.1985
 5922SOL     OW29401   0.548   0.430   5.235 -0.1788 -0.1301  0.2102
 5922SOL    HW129402   0.465   0.476   5.244 -0.2171  0.0202 -0.9735
 5922SOL    HW229403   0.551   0.398   5.145 -3.8217 -1.5600  0.5975
 5923SOL     OW29404   4.001   2.779   8.395 -0.7394  0.6218 -0.2229
 5923SOL    HW129405   4.032   2.715   8.460 -1.5470  0.7682  0.3014
 5923SOL    HW229406   3.974   2.715   8.329 -0.9612 -0.0762  0.5396
 5924SOL     OW29407   3.704   1.363   8.276  0.1602 -0.5136 -0.2570
 5924SOL    HW129408   3.630   1.312   8.243  0.5461  0.3673 -2.4541
 5924SOL    HW229409   3.663   1.441   8.313  1.5037 -0.3830  0.9635
 5925SOL     OW29410   2.881   3.188   4.512 -0.5351  0.0600  0.0838
 5925SOL    HW129411   2.788   3.169   4.528 -0.0501 -1.7813  0.7221
 5925SOL    HW229412   2.878   3.176   4.417  0.4632  1.2915 -0.1031
 5926SOL     OW29413   3.022   3.516  15.674 -0.2684  0.0232 -0.0040
 5926SOL    HW129414   3.007   3.481  15.762 -0.7958 -4.4532 -1.9248
 5926SOL    HW229415   2.976   3.456  15.616 -0.3302 -1.2661  1.3728
 5927SOL     OW29416   2.166   3.650   5.270  0.7507 -0.1472 -0.5638
 5927SOL    HW129417   2.204   3.586   5.210  1.0456  0.7529 -1.3160
 5927SOL    HW229418   2.244   3.697   5.297  0.0673  1.0621 -0.7130
 5928SOL     OW29419   0.394   4.433  16.441  0.0988  0.2760 -0.1548
 5928SOL    HW129420   0.360   4.499  16.500 -1.9127  0.1795 -1.2198
 5928SOL    HW229421   0.314   4.386  16.417 -0.4282  1.3085 -0.3941
 5929SOL     OW29422   0.466   4.023   3.378  0.4173  0.4101 -0.2455
 5929SOL    HW129423   0.391   3.989   3.330  1.8754 -0.4718 -1.8657
 5929SOL    HW229424   0.440   4.112   3.401  0.2694 -0.3510  2.5002
 5930SOL     OW29425   4.712   0.334   0.930 -0.0207  0.1543  0.5709
 5930SOL    HW129426   4.622   0.345   0.960 -1.3766  0.9821 -3.8740
 5930SOL    HW229427   4.736   0.424   0.910 -2.0700  0.5317 -0.1340
 5931SOL     OW29428   2.990   0.244   1.703  0.0389 -0.5054  0.1928
 5931SOL    HW129429   3.072   0.291   1.716  1.7342 -3.3912 -0.1172
 5931SOL    HW229430   2.958   0.258   1.792 -0.6414 -0.8616  0.0036
 5932SOL     OW29431   3.929   4.699   3.029 -0.2390 -0.5555 -0.1963
 5932SOL    HW129432   3.970   0.029   3.077 -3.2428  2.2856 -1.9222
 5932SOL    HW229433   3.836   4.721   3.029 -0.5342 -1.8566 -0.8818
 5933SOL     OW29434   4.038   4.092   7.449  0.0639 -0.3133 -0.4433
 5933SOL    HW129435   4.128   4.122   7.439  0.1136 -0.2078  0.2725
 5933SOL    HW229436   4.013   4.098   7.357 -1.0727  1.1293 -0.0401
 5934SOL     OW29437   3.984   3.460   6.551 -0.0598 -0.0759  0.3982
 5934SOL    HW129438   3.963   3.408   6.628 -1.4519 -0.2072 -0.0707
 5934SOL    HW229439   4.013   3.543   6.589  0.8638 -0.3187  0.2422
 5935SOL     OW29440   2.504   2.506   1.122 -0.4276 -0.0833  0.0044
 5935SOL    HW129441   2.470   2.421   1.096 -2.5351  0.5471  0.7031
 5935SOL    HW229442   2.589   2.503   1.077  0.2256  1.7925  1.1204
 5936SOL     OW29443   1.887   2.318  12.253 -0.8019  0.2398  0.1803
 5936SOL    HW129444   1.912   2.351  12.166 -2.0288  0.9425  0.0972
 5936SOL    HW229445   1.975   2.305  12.290 -1.0720 -0.5708  0.5206
 5937SOL     OW29446   0.742   2.885   2.106 -0.4938  0.4875 -0.0904
 5937SOL    HW129447   0.676   2.818   2.086  1.5078 -1.3453 -0.5909
 5937SOL    HW229448   0.825   2.837   2.109 -0.2854  0.9320  1.0622
 5938SOL     OW29449   1.623   1.628   5.223 -0.5092  0.1426 -0.2407
 5938SOL    HW129450   1.717   1.617   5.239 -0.7438 -2.2949 -0.4467
 5938SOL    HW229451   1.586   1.546   5.256  2.8753 -1.1763  0.3527
 5939SOL     OW29452   4.299   3.283   5.381 -0.7693 -0.1850 -0.3381
 5939SOL    HW129453   4.375   3.339   5.400 -0.8778 -0.1949  0.1220
 5939SOL    HW229454   4.320   3.241   5.297  0.1161  0.8695 -0.6574
 5940SOL     OW29455   3.755   4.208   7.501 -0.4747 -0.6544 -0.9819
 5940SOL    HW129456   3.803   4.150   7.559  0.4752 -0.1636 -1.2743
 5940SOL    HW229457   3.678   4.157   7.476 -0.9193  0.0727 -1.1094
 5941SOL     OW29458   1.012   1.811   8.300  0.4309 -0.0124 -0.3880
 5941SOL    HW129459   0.949   1.882   8.288 -1.1745 -1.5122 -0.8454
 5941SOL    HW229460   1.019   1.795   8.394 -1.3169 -3.5871 -0.8859
 5942SOL     OW29461   1.935   0.477   5.922  0.3744 -0.3846  0.2533
 5942SOL    HW129462   1.950   0.431   6.004 -2.2860 -0.7645  0.5240
 5942SOL    HW229463   1.852   0.515   5.951 -0.0721 -1.6634  0.6159
 5943SOL     OW29464   0.582   0.124   8.472  0.7398 -0.2032  0.6773
 5943SOL    HW129465   0.587   0.054   8.408 -0.9697 -0.1762  0.5059
 5943SOL    HW229466   0.494   0.158   8.452  0.7151 -0.6571 -0.0056
 5944SOL     OW29467   0.571   4.002   4.539 -0.2566  0.3471  0.0761
 5944SOL    HW129468   0.661   4.021   4.512 -0.0758 -3.4214 -1.8576
 5944SOL    HW229469   0.524   4.039   4.464  0.9506  0.9064 -0.4096
 5945SOL     OW29470   2.776   0.713   6.701  0.3512 -0.6517 -0.6868
 5945SOL    HW129471   2.758   0.802   6.730 -1.0007 -1.1895  0.1267
 5945SOL    HW229472   2.783   0.723   6.606 -0.4981  0.9995 -0.5880
 5946SOL     OW29473   3.408   4.224   3.196  0.0308 -0.9653 -0.5387
 5946SOL    HW129474   3.322   4.258   3.172 -0.8073 -2.8776 -0.2865
 5946SOL    HW229475   3.447   4.241   3.110 -0.7696 -0.4509 -0.7914
 5947SOL     OW29476   1.569   1.943   5.554  0.0929 -0.0805 -0.6488
 5947SOL    HW129477   1.615   2.019   5.588 -3.2695  1.7213 -0.1650
 5947SOL    HW229478   1.538   1.971   5.469 -1.2921 -0.5967 -0.3169
 5948SOL     OW29479   3.844   2.424   1.029  0.1454  0.9566 -0.1102
 5948SOL    HW129480   3.856   2.360   1.099 -2.5898  0.0215 -0.5017
 5948SOL    HW229481   3.777   2.485   1.059 -1.3827  0.0431 -1.6724
 5949SOL     OW29482   0.434   1.120   7.182 -0.5717 -0.0997 -0.3067
 5949SOL    HW129483   0.437   1.207   7.221  1.9744 -0.6806  0.7703
 5949SOL    HW229484   0.354   1.115   7.130 -2.0890  0.0501  1.9913
 5950SOL     OW29485   2.131   2.828   1.565  0.4589  0.0246 -0.8231
 5950SOL    HW129486   2.120   2.741   1.525 -2.7974  0.1882 -0.2920
 5950SOL    HW229487   2.175   2.796   1.644 -1.8663 -0.1513  0.3986
 5951SOL     OW29488   2.643   1.588  17.197  1.0605 -0.2324  0.1832
 5951SOL    HW129489   2.735   1.594  17.172  0.6041 -0.8102 -1.6300
 5951SOL    HW229490   2.611   1.504  17.166 -1.4213 -0.1476  2.5613
 5952SOL     OW29491   1.773   3.747   7.979  0.0022 -0.1054 -0.3646
 5952SOL    HW129492   1.788   3.689   7.905  1.7040  1.2964 -1.1279
 5952SOL    HW229493   1.767   3.832   7.936 -1.0030  1.2949  2.5496
 5953SOL     OW29494   0.146   1.476  16.860  0.5934  0.4767  0.2278
 5953SOL    HW129495   0.098   1.410  16.910 -0.4676  1.0144 -0.0674
 5953SOL    HW229496   0.161   1.427  16.778  0.7872  2.7335 -1.0814
 5954SOL     OW29497   0.464   2.882   7.975  0.3458  0.2682  0.3263
 5954SOL    HW129498   0.408   2.946   8.018  1.5298  2.5393 -1.5376
 5954SOL    HW229499   0.508   2.850   8.054 -2.1508 -3.3558  0.2813
 5955SOL     OW29500   0.634   1.226   4.740 -0.4542 -0.2719 -0.0922
 5955SOL    HW129501   0.595   1.228   4.652  1.7151  0.9776 -1.0315
 5955SOL    HW229502   0.699   1.157   4.727 -1.7664 -1.5176 -0.0400
 5956SOL     OW29503   3.593   2.852   9.905 -0.3229  0.1810 -0.0006
 5956SOL    HW129504   3.668   2.911   9.913 -0.5925  0.4803  0.3240
 5956SOL    HW229505   3.529   2.893   9.846 -1.0761  0.6122  1.1148
 5957SOL     OW29506   1.493   4.125   2.156  0.6291  0.3156  0.2750
 5957SOL    HW129507   1.434   4.200   2.146 -0.3973 -0.4630  0.4708
 5957SOL    HW229508   1.488   4.120   2.252 -1.3785 -0.3481  0.1315
 5958SOL     OW29509   2.600   3.583   6.087 -0.1454 -0.0425  0.5720
 5958SOL    HW129510   2.545   3.657   6.114  1.2997  1.0597  0.5027
 5958SOL    HW229511   2.553   3.521   6.142 -0.7572  2.3609  2.7229
 5959SOL     OW29512   4.701   1.456   9.055 -0.1427 -0.1101 -0.0626
 5959SOL    HW129513   0.026   1.523   9.066 -0.7526  0.7795 -1.7160
 5959SOL    HW229514   4.712   1.446   8.961  2.2429  0.4456  0.1541
 5960SOL     OW29515   0.967   1.341   1.543 -0.4255 -0.9677 -0.6759
 5960SOL    HW129516   0.964   1.357   1.449  1.0310  0.2291 -0.5140
 5960SOL    HW229517   0.962   1.429   1.580  1.8877 -0.4043 -1.7417
 5961SOL     OW29518   1.156   4.690   3.076  0.4758  0.1159  0.1904
 5961SOL    HW129519   1.149   4.676   2.981 -3.6853  1.8871  0.2432
 5961SOL    HW229520   1.225   0.014   3.080  0.5665 -0.0578  1.3043
 5962SOL     OW29521   1.575   4.599  15.280 -0.4077 -0.9028  0.0151
 5962SOL    HW129522   1.588   4.555  15.364  0.5475 -1.7559 -0.5854
 5962SOL    HW229523   1.609   4.533  15.221  0.7916 -0.7530  0.5406
 5963SOL     OW29524   3.614   3.857   6.569  0.4024  0.4682 -0.3288
 5963SOL    HW129525   3.586   3.771   6.540  0.3397  1.5555 -3.5616
 5963SOL    HW229526   3.707   3.851   6.592  0.3534  1.7456  0.1949
 5964SOL     OW29527   2.987   0.661   8.971  0.8935 -0.1058  0.4492
 5964SOL    HW129528   2.924   0.709   8.917  2.1091 -0.0319 -0.8893
 5964SOL    HW229529   2.994   0.575   8.930  1.6428  0.0440  0.2637
 5965SOL     OW29530   0.631   4.603   8.627  0.2518  0.4203  0.4195
 5965SOL    HW129531   0.715   4.563   8.603 -0.4075  0.0129 -1.1755
 5965SOL    HW229532   0.593   4.589   8.541 -0.2011  1.8444  0.4029
 5966SOL     OW29533   1.518   3.164  10.160 -0.0651  0.2115  0.0113
 5966SOL    HW129534   1.604   3.190  10.128  0.4376 -0.9032  0.4393
 5966SOL    HW229535   1.501   3.212  10.241 -2.9831  1.0997 -1.1106
 5967SOL     OW29536   3.777   2.191   3.438  0.1384 -0.1676  0.6377
 5967SOL    HW129537   3.736   2.268   3.397 -1.1091 -2.4739 -2.4552
 5967SOL    HW229538   3.736   2.118   3.392 -1.2381  0.0993  1.4321
 5968SOL     OW29539   4.688   1.619   5.388  0.3996 -0.3917 -0.6902
 5968SOL    HW129540   4.682   1.673   5.467 -1.2403 -2.6790  0.7449
 5968SOL    HW229541   0.030   1.652   5.358  0.6024 -1.4138 -1.2362
 5969SOL     OW29542   0.698   1.502  15.516  0.0159  0.1851 -0.7315
 5969SOL    HW129543   0.713   1.564  15.588 -0.6714 -1.5233  0.8834
 5969SOL    HW229544   0.666   1.560  15.447 -0.0729  0.5937 -0.3525
 5970SOL     OW29545   1.344   4.605   3.499 -0.0668  0.0261  0.3394
 5970SOL    HW129546   1.430   4.641   3.479 -0.5575  0.0753 -1.6897
 5970SOL    HW229547   1.366   4.557   3.579 -1.0311 -3.0744 -1.2301
 5971SOL     OW29548   2.180   1.859   9.932  0.8014 -0.4798 -0.1747
 5971SOL    HW129549   2.271   1.836   9.915  0.4401 -0.3086 -2.3810
 5971SOL    HW229550   2.153   1.794   9.998  1.1802  0.7997  1.2224
 5972SOL     OW29551   3.890   4.012   3.260  0.1729 -0.4929  0.3721
 5972SOL    HW129552   3.814   4.062   3.289 -0.0637 -0.7591  0.2039
 5972SOL    HW229553   3.866   3.995   3.169 -0.7909 -0.0334  0.5478
 5973SOL     OW29554   3.104   3.251   8.983  0.0937  0.5869 -0.0444
 5973SOL    HW129555   3.082   3.344   8.987 -0.7477  0.5164 -3.0784
 5973SOL    HW229556   3.024   3.220   9.026  1.2843 -3.2086 -0.5823
 5974SOL     OW29557   0.391   3.046   5.451 -0.2004  0.1744 -0.1421
 5974SOL    HW129558   0.320   3.097   5.491 -1.5592 -2.7438  1.1221
 5974SOL    HW229559   0.348   3.040   5.366 -1.6438 -0.4938  0.6459
 5975SOL     OW29560   0.208   1.851   2.704  0.1831 -0.3475 -0.1370
 5975SOL    HW129561   0.154   1.918   2.748  2.0849  0.2490  1.2998
 5975SOL    HW229562   0.154   1.773   2.710 -0.0631 -0.1600  0.0672
 5976SOL     OW29563   4.538   1.668   8.107  0.6610 -0.4894  0.5718
 5976SOL    HW129564   4.487   1.613   8.048  1.8210 -0.0627 -0.8432
 5976SOL    HW229565   4.522   1.612   8.182  0.6582  0.6569  1.4254
 5977SOL     OW29566   1.059   1.250  10.432 -0.2116 -0.1194  0.3126
 5977SOL    HW129567   1.010   1.277  10.354 -1.4980  0.4577  1.3256
 5977SOL    HW229568   1.148   1.275  10.410 -0.4883  1.0539  0.5375
 5978SOL     OW29569   2.449   4.253   4.862 -0.0186 -0.2636  0.1626
 5978SOL    HW129570   2.386   4.322   4.844 -1.0276 -1.5925 -1.3821
 5978SOL    HW229571   2.403   4.185   4.912  3.0659 -1.5605  1.2310
 5979SOL     OW29572   3.703   2.371   3.266 -0.0807  0.3953  0.1546
 5979SOL    HW129573   3.700   2.444   3.205 -0.7610 -0.3470 -0.7007
 5979SOL    HW229574   3.630   2.315   3.240  0.5970 -0.6326  0.4586
 5980SOL     OW29575   2.687   4.706   4.449 -0.2326  0.4282 -0.5477
 5980SOL    HW129576   2.682   0.048   4.494  0.3699  0.8143 -1.2031
 5980SOL    HW229577   2.772   4.709   4.405 -0.4707 -0.1515 -1.0562
 5981SOL     OW29578   2.436   0.874   4.915 -0.4717 -0.2701 -0.2424
 5981SOL    HW129579   2.460   0.944   4.855 -0.0631 -0.5854 -0.4510
 5981SOL    HW229580   2.448   0.926   4.995  1.4413  0.4392 -0.9914
 5982SOL     OW29581   2.333   3.929   4.910 -0.4595 -0.0516 -0.5457
 5982SOL    HW129582   2.360   3.857   4.967 -1.9900 -1.4635 -1.6180
 5982SOL    HW229583   2.289   3.986   4.972  0.6543  0.9798 -0.6941
 5983SOL     OW29584   1.220   4.427   6.821  0.0835  0.0731 -0.7794
 5983SOL    HW129585   1.229   4.360   6.889  2.1839 -0.0062 -1.1283
 5983SOL    HW229586   1.147   4.381   6.781  1.2423 -0.2781 -2.5016
 5984SOL     OW29587   3.666   1.963   4.974  0.1404 -0.0339  0.2316
 5984SOL    HW129588   3.706   1.959   5.061 -0.8360 -1.5899  0.6051
 5984SOL    HW229589   3.632   1.874   4.961 -0.3163  0.2170 -0.3030
 5985SOL     OW29590   3.293   4.656  11.039  0.6810  0.0872  0.1941
 5985SOL    HW129591   3.236   4.594  11.086  2.0204  0.2854  2.0572
 5985SOL    HW229592   3.377   4.611  11.045  0.7923  0.5784  2.2352
 5986SOL     OW29593   1.193   4.731   2.815 -0.3080  0.2491 -0.0943
 5986SOL    HW129594   1.277   4.731   2.859  0.9006 -0.5520 -2.3841
 5986SOL    HW229595   1.187   0.072   2.769 -2.7397  0.6456  0.9077
 5987SOL     OW29596   4.017   2.572   9.380  0.6408  0.0102 -0.9139
 5987SOL    HW129597   3.926   2.579   9.410  0.6073  0.5490 -1.1431
 5987SOL    HW229598   4.033   2.483   9.410  1.4754  0.9876  1.5155
 5988SOL     OW29599   1.637   2.014   4.424  0.6145  0.1091  0.4807
 5988SOL    HW129600   1.553   1.971   4.438  0.9812 -0.9692 -0.6891
 5988SOL    HW229601   1.700   1.964   4.476  1.1778 -2.3844 -2.6105
 5989SOL     OW29602   2.797   2.567   3.282  0.0108  0.0148 -0.1186
 5989SOL    HW129603   2.773   2.627   3.211  0.0643 -0.9449 -0.9500
 5989SOL    HW229604   2.717   2.549   3.332  0.2713 -2.3060 -0.5401
 5990SOL     OW29605   4.577   0.539   2.879  0.3063 -0.9589 -0.3127
 5990SOL    HW129606   4.484   0.515   2.886  0.1425 -0.1880  0.2529
 5990SOL    HW229607   4.594   0.546   2.973  0.4232  0.2740 -0.4305
 5991SOL     OW29608   1.186   3.111   3.233  0.0317  0.6457 -0.2015
 5991SOL    HW129609   1.281   3.126   3.239 -0.2146  1.5368  1.4446
 5991SOL    HW229610   1.146   3.185   3.277 -1.2443 -0.9549  1.3226
 5992SOL     OW29611   3.485   0.439   1.772  0.1033  0.4020 -0.1957
 5992SOL    HW129612   3.565   0.455   1.723  0.5316 -0.7239  0.1406
 5992SOL    HW229613   3.505   0.360   1.821  0.7677 -0.2904 -1.6081
 5993SOL     OW29614   4.714   0.062  15.102  0.0011  0.4631  0.0960
 5993SOL    HW129615   0.063   0.050  15.125 -0.2832 -2.0105 -0.0721
 5993SOL    HW229616   4.707   0.029  15.013  0.6783 -1.1711  0.6607
 5994SOL     OW29617   2.590   0.873  10.134  0.2606  0.7270 -0.6651
 5994SOL    HW129618   2.495   0.881  10.123  0.2542  1.3686 -0.0910
 5994SOL    HW229619   2.593   0.865  10.229  3.1044 -1.1024 -0.8801
 5995SOL     OW29620   0.658   1.489   7.507  0.2529  0.1861  0.1910
 5995SOL    HW129621   0.638   1.583   7.505 -0.3133  0.0352 -0.8314
 5995SOL    HW229622   0.645   1.472   7.601  0.8438 -0.7445  0.0945
 5996SOL     OW29623   4.031   2.541   7.923  0.1219  0.6951  0.1085
 5996SOL    HW129624   4.068   2.473   7.867 -0.3725  0.6221 -0.1294
 5996SOL    HW229625   3.938   2.531   7.904  0.2005  0.3939 -0.1229
 5997SOL     OW29626   3.402   1.597   4.751  0.2622  0.2143  0.1138
 5997SOL    HW129627   3.334   1.611   4.817 -1.9126  0.4047 -2.1594
 5997SOL    HW229628   3.435   1.509   4.766 -1.6812 -0.9527 -2.2991
 5998SOL     OW29629   4.041   2.099  17.097  0.3362  1.0202  0.3630
 5998SOL    HW129630   4.077   2.157  17.030 -0.2499  3.0398  1.8002
 5998SOL    HW229631   4.124   2.067  17.130  1.1575  1.8731 -0.8759
 5999SOL     OW29632   2.450   4.282   2.786  0.2778 -0.5311  0.2806
 5999SOL    HW129633   2.448   4.187   2.778  1.6920 -0.5925  0.6982
 5999SOL    HW229634   2.537   4.300   2.822  0.3124 -2.4463  1.1588
 6000SOL     OW29635   2.996   3.337   7.170  0.1704  0.3210 -0.3580
 6000SOL    HW129636   2.910   3.378   7.180 -0.0235  0.0428 -0.9424
 6000SOL    HW229637   3.063   3.405   7.180  0.4760  0.2474 -1.8809
 6001SOL     OW29638   0.517   4.033   4.812  0.5441  0.1336  0.4001
 6001SOL    HW129639   0.453   4.104   4.812  1.0751  0.6216 -0.4142
 6001SOL    HW229640   0.544   4.033   4.720 -1.4563  0.8478 -0.1871
 6002SOL     OW29641   3.105   4.417  15.899  0.4699 -0.3279 -0.2423
 6002SOL    HW129642   3.009   4.416  15.897  0.4820 -0.0356 -0.8813
 6002SOL    HW229643   3.131   4.503  15.865  1.8267 -0.8823 -0.6023
 6003SOL     OW29644   0.395   2.823   9.432  0.1932  0.2217  0.8859
 6003SOL    HW129645   0.316   2.876   9.428  0.6946  0.8966  0.0384
 6003SOL    HW229646   0.441   2.855   9.510 -1.3400  0.3937  1.7244
 6004SOL     OW29647   3.668   4.366  13.612 -0.0801 -0.2481 -0.3877
 6004SOL    HW129648   3.707   4.309  13.679  0.6679  0.9435  0.1840
 6004SOL    HW229649   3.729   4.439  13.606  1.1810 -1.1377  1.3916
 6005SOL     OW29650   1.750   3.654   1.732  0.2152  0.2025 -0.3240
 6005SOL    HW129651   1.755   3.746   1.759  0.6932  0.4114 -1.1130
 6005SOL    HW229652   1.670   3.659   1.680  1.1794  2.1511 -1.6186
 6006SOL     OW29653   3.356   4.393   8.390 -0.1465  0.2746  0.1586
 6006SOL    HW129654   3.274   4.430   8.358 -1.0414 -0.1681  1.9663
 6006SOL    HW229655   3.342   4.299   8.381  1.0948 -0.0645  1.8557
 6007SOL     OW29656   4.701   0.127   0.740  0.1716 -0.6579 -0.0648
 6007SOL    HW129657   0.035   0.072   0.759  1.1378  0.0387 -1.9033
 6007SOL    HW229658   4.699   0.191   0.811 -0.0777 -1.0885  0.3151
 6008SOL     OW29659   0.847   2.767   4.156  0.4102  0.2494  0.1823
 6008SOL    HW129660   0.830   2.800   4.068  0.6938  1.2717  0.5111
 6008SOL    HW229661   0.818   2.837   4.215 -0.5011  0.1115 -0.1006
 6009SOL     OW29662   2.719   4.251   0.415  0.0247 -0.1923  0.3651
 6009SOL    HW129663   2.654   4.291   0.472  1.1647  2.2993 -0.1180
 6009SOL    HW229664   2.669   4.241   0.334 -0.5190 -1.2823  0.8238
 6010SOL     OW29665   3.892   2.553   6.643  0.1539  0.4265 -0.2448
 6010SOL    HW129666   3.834   2.499   6.696  0.5509  1.5514  1.3254
 6010SOL    HW229667   3.841   2.633   6.632 -2.4917 -0.9795  1.7355
 6011SOL     OW29668   2.317   1.685   6.542  0.3610  0.3747  0.1341
 6011SOL    HW129669   2.378   1.713   6.611 -1.1741  0.3457  1.5053
 6011SOL    HW229670   2.385   1.683   6.475 -0.4440 -0.8989 -0.6231
 6012SOL     OW29671   1.938   2.623  15.946 -0.0688  0.0815 -0.0327
 6012SOL    HW129672   1.987   2.584  16.019 -0.5636  1.1609  0.8799
 6012SOL    HW229673   1.856   2.644  15.990 -0.8551 -1.0956 -0.9532
 6013SOL     OW29674   2.540   3.360   2.957  0.3079  0.4884 -0.5894
 6013SOL    HW129675   2.484   3.438   2.961 -1.1415 -0.6833  1.5810
 6013SOL    HW229676   2.604   3.390   2.893  1.4192  0.7036  0.6319
 6014SOL     OW29677   0.925   2.713  15.484  0.3270 -0.4888  0.4572
 6014SOL    HW129678   0.866   2.786  15.469  0.4763 -0.9860 -2.6973
 6014SOL    HW229679   1.006   2.763  15.496  0.8991 -0.7607 -2.1432
 6015SOL     OW29680   1.047   2.400   1.349 -0.2892 -0.0071 -0.1300
 6015SOL    HW129681   1.053   2.494   1.335 -1.8090  0.5040  2.5755
 6015SOL    HW229682   1.139   2.378   1.361  0.2095  1.7331 -0.8663
 6016SOL     OW29683   3.335   1.261   1.966  0.6821 -0.6071 -0.0208
 6016SOL    HW129684   3.340   1.230   2.056  0.7244  0.5105  0.3568
 6016SOL    HW229685   3.275   1.201   1.922  0.7543  0.5298 -1.6818
 6017SOL     OW29686   3.927   2.312   4.305  0.0924 -0.0097  0.4514
 6017SOL    HW129687   3.853   2.343   4.356  0.4674 -1.2112  1.7109
 6017SOL    HW229688   4.005   2.349   4.347  0.7845  0.3437 -1.1574
 6018SOL     OW29689   1.933   0.487   5.436 -0.2152  0.3364 -0.5908
 6018SOL    HW129690   1.964   0.456   5.521 -1.4686 -0.0495 -0.2755
 6018SOL    HW229691   2.010   0.526   5.394  2.0577 -1.6965  1.7735
 6019SOL     OW29692   0.868   0.088   3.490 -0.4609 -0.2142 -0.2559
 6019SOL    HW129693   0.926   0.015   3.510 -0.0716  0.1491 -0.0466
 6019SOL    HW229694   0.890   0.091   3.397  1.6087  1.6720  0.2876
 6020SOL     OW29695   3.526   3.565   6.531 -0.0060  0.1147  0.3791
 6020SOL    HW129696   3.471   3.593   6.458 -1.3413 -1.4647  0.7764
 6020SOL    HW229697   3.587   3.500   6.496  1.1256  1.6441 -0.4889
 6021SOL     OW29698   1.519   2.557   7.989 -0.4424  0.5904  0.0256
 6021SOL    HW129699   1.533   2.615   7.915 -0.9753 -0.5385 -0.9672
 6021SOL    HW229700   1.423   2.552   7.987 -0.3543 -0.7109 -1.1587
 6022SOL     OW29701   1.140   3.031  10.600 -0.2919  0.2069  0.4406
 6022SOL    HW129702   1.205   2.997  10.662 -1.9104  1.2345  2.6932
 6022SOL    HW229703   1.200   3.074  10.539 -0.2492  3.3902  2.7232
 6023SOL     OW29704   3.511   1.729  16.526 -0.7341  0.6144 -0.4506
 6023SOL    HW129705   3.511   1.824  16.534  0.6946  0.5418  0.3760
 6023SOL    HW229706   3.535   1.713  16.617 -0.9982  0.8468 -0.3391
 6024SOL     OW29707   1.782   4.510   2.553  0.4518  0.0524  0.2965
 6024SOL    HW129708   1.715   4.578   2.550 -1.9223 -2.1897  2.4786
 6024SOL    HW229709   1.767   4.465   2.470  0.1867 -0.4992  0.6428
 6025SOL     OW29710   3.340   0.281   0.953 -0.1100  0.0952  0.4782
 6025SOL    HW129711   3.386   0.309   1.032  0.2644 -1.9752  0.9834
 6025SOL    HW229712   3.274   0.226   0.994 -0.7314 -0.3701 -1.1284
 6026SOL     OW29713   4.477   4.350   2.869  0.5015 -0.0111 -0.4459
 6026SOL    HW129714   4.396   4.314   2.906 -0.5172  0.2810 -2.4095
 6026SOL    HW229715   4.519   4.376   2.951  0.8732 -0.9885 -0.3241
 6027SOL     OW29716   2.066   3.096  17.733  0.0751 -0.2010  0.1516
 6027SOL    HW129717   2.136   3.152  17.701  1.3335 -1.5346  0.5220
 6027SOL    HW229718   1.985   3.145  17.720  0.3909  0.1862 -0.3399
 6028SOL     OW29719   2.256   3.750   0.993  0.2520 -0.6043 -0.0973
 6028SOL    HW129720   2.183   3.769   1.052  0.0118 -2.3939  0.1780
 6028SOL    HW229721   2.230   3.664   0.960 -1.2746 -0.0812 -0.2463
 6029SOL     OW29722   1.318   3.294  17.324  0.3141 -0.2936  0.8258
 6029SOL    HW129723   1.320   3.366  17.387 -1.8570 -1.0709  1.7759
 6029SOL    HW229724   1.304   3.346  17.246  2.1680 -0.7174  0.2011
 6030SOL     OW29725   1.729   2.163   8.180  0.1434 -0.1727  0.0520
 6030SOL    HW129726   1.758   2.247   8.215 -1.1735  1.0881 -1.8278
 6030SOL    HW229727   1.638   2.183   8.157  0.4279  2.7254  1.4546
 6031SOL     OW29728   2.064   0.356   5.001 -0.3104  0.2467 -0.5781
 6031SOL    HW129729   2.049   0.349   5.096 -0.1557 -0.8943 -0.6350
 6031SOL    HW229730   2.005   0.288   4.969 -1.9553  1.6023 -0.3915
 6032SOL     OW29731   1.702   0.116   7.275 -0.0940 -0.2258 -0.5940
 6032SOL    HW129732   1.760   0.098   7.349 -1.3941  0.6152  0.6235
 6032SOL    HW229733   1.730   0.203   7.247  0.6011 -1.0656 -2.5117
 6033SOL     OW29734   4.256   2.732   8.935 -0.0736  0.0872  0.6538
 6033SOL    HW129735   4.200   2.754   9.010  0.1505  0.0702  0.8244
 6033SOL    HW229736   4.343   2.739   8.974  0.0408 -1.3939  0.6811
 6034SOL     OW29737   4.308   3.630  15.347  0.2296 -0.2172  0.1469
 6034SOL    HW129738   4.263   3.604  15.266 -0.6733 -0.6760  0.7992
 6034SOL    HW229739   4.316   3.548  15.394  0.3342  0.6075  1.5672
 6035SOL     OW29740   0.729   3.276  16.651  0.4290  0.2528 -0.0430
 6035SOL    HW129741   0.798   3.342  16.660 -1.0383  1.6121  1.1638
 6035SOL    HW229742   0.777   3.194  16.666  0.0846  0.0196 -0.1926
 6036SOL     OW29743   0.100   1.783   7.048 -0.1928 -0.1543 -0.1210
 6036SOL    HW129744   0.130   1.697   7.019  0.6951  0.2506 -0.4313
 6036SOL    HW229745   0.027   1.795   6.988  0.2282  1.4632 -0.3038
 6037SOL     OW29746   0.750   0.610   4.945  0.6681 -0.0544 -0.7771
 6037SOL    HW129747   0.681   0.621   4.880 -1.3911 -1.4920  1.2074
 6037SOL    HW229748   0.824   0.583   4.891  1.8214 -0.6223  1.1015
 6038SOL     OW29749   4.478   3.429  11.853 -0.2741  0.3891 -0.0695
 6038SOL    HW129750   4.504   3.337  11.847  0.0995  0.5060 -0.2684
 6038SOL    HW229751   4.556   3.473  11.819 -1.1190  1.5498 -0.5169
 6039SOL     OW29752   1.825   4.620   0.510 -0.0053 -0.0287 -0.4052
 6039SOL    HW129753   1.832   4.567   0.430  2.4200  1.2189 -1.0334
 6039SOL    HW229754   1.738   4.660   0.510 -0.0530 -0.1325 -0.5656
 6040SOL     OW29755   1.164   2.917   3.046  0.1053  0.6404 -0.1866
 6040SOL    HW129756   1.167   2.953   3.135  4.3560  1.4743 -0.6688
 6040SOL    HW229757   1.210   2.834   3.060  1.6053  1.7300  1.2802
 6041SOL     OW29758   2.470   1.808  17.140 -0.3514 -0.2618 -0.2343
 6041SOL    HW129759   2.520   1.874  17.093 -0.4924 -0.1221 -0.1874
 6041SOL    HW229760   2.542   1.755  17.174 -0.5762 -0.3803  0.0569
 6042SOL     OW29761   3.616   2.715  12.719 -0.6232 -0.0551  0.1310
 6042SOL    HW129762   3.654   2.656  12.653  1.5256 -0.9121  2.1530
 6042SOL    HW229763   3.685   2.781  12.726 -0.1619 -0.6520  1.1487
 6043SOL     OW29764   3.445   1.684   9.008 -0.2033  0.2748  0.5810
 6043SOL    HW129765   3.460   1.641   8.924  1.0184  2.0805 -0.1376
 6043SOL    HW229766   3.372   1.632   9.043 -1.5975  2.6616  1.2429
 6044SOL     OW29767   3.954   3.281   7.487 -0.3178 -0.7762  0.3268
 6044SOL    HW129768   3.894   3.207   7.480 -0.6492 -0.5422  0.7019
 6044SOL    HW229769   3.911   3.316   7.565  1.3178  0.1165  0.8157
 6045SOL     OW29770   0.333   0.721   9.834 -0.3886  0.1721  0.1318
 6045SOL    HW129771   0.426   0.745   9.840 -0.6837  1.1083  0.9848
 6045SOL    HW229772   0.300   0.799   9.878 -3.0980 -0.0847 -1.4501
 6046SOL     OW29773   4.298   2.403   5.374  0.3479 -0.2699 -0.1103
 6046SOL    HW129774   4.234   2.332   5.366 -0.8461  0.8424 -0.2349
 6046SOL    HW229775   4.246   2.478   5.400  0.3844  0.6772 -2.8024
 6047SOL     OW29776   2.429   1.716  14.908  0.4500  0.1430 -0.1244
 6047SOL    HW129777   2.353   1.703  14.851 -0.0272  0.7975  0.3658
 6047SOL    HW229778   2.393   1.716  14.997 -0.4628 -1.7556 -0.4850
 6048SOL     OW29779   2.937   2.271   9.786 -0.0698 -0.0644 -0.1960
 6048SOL    HW129780   2.972   2.356   9.759 -0.3259  0.1619  0.1896
 6048SOL    HW229781   2.859   2.262   9.732  1.5746 -0.2285 -2.5358
 6049SOL     OW29782   1.104   1.133  12.125  0.0102  0.1027  0.0457
 6049SOL    HW129783   1.036   1.080  12.084 -0.2890  0.0874  0.5777
 6049SOL    HW229784   1.117   1.077  12.201  1.3114 -0.4062 -0.5391
 6050SOL     OW29785   4.456   2.954   2.699 -0.6254 -0.0931  0.3641
 6050SOL    HW129786   4.543   2.932   2.664 -0.7198 -0.6026  0.4425
 6050SOL    HW229787   4.438   2.867   2.736  1.5749 -0.3764  0.8130
 6051SOL     OW29788   3.447   3.242   7.493 -0.1478  0.0309 -0.2442
 6051SOL    HW129789   3.393   3.185   7.548 -1.8164  2.0334  0.1965
 6051SOL    HW229790   3.483   3.173   7.438 -0.8123 -0.6309  0.1453
 6052SOL     OW29791   2.875   3.066   8.828  0.1219  0.0880 -0.3198
 6052SOL    HW129792   2.931   3.072   8.751 -2.5918 -2.0059 -2.4140
 6052SOL    HW229793   2.928   3.012   8.888 -0.8764  0.7829  1.2030
 6053SOL     OW29794   1.524   4.566   5.544 -0.2671 -0.2284  0.6561
 6053SOL    HW129795   1.453   4.608   5.495 -0.4363 -1.6633 -0.3464
 6053SOL    HW229796   1.502   4.604   5.628  0.0596  1.8693 -0.2051
 6054SOL     OW29797   3.848   3.767   9.323 -0.5646  0.1697  0.1857
 6054SOL    HW129798   3.882   3.845   9.279  2.1832 -1.0407  0.1990
 6054SOL    HW229799   3.763   3.799   9.353 -1.0761 -0.6889 -0.3782
 6055SOL     OW29800   4.189   4.317  13.710 -0.0725 -0.5339 -0.2865
 6055SOL    HW129801   4.271   4.297  13.665 -0.7071 -1.0893 -1.1946
 6055SOL    HW229802   4.167   4.235  13.755 -1.2769  1.6480  3.0974
 6056SOL     OW29803   2.669   4.654   3.264  0.6068  0.3768  0.2041
 6056SOL    HW129804   2.750   4.678   3.218  1.5306  0.3096  1.7965
 6056SOL    HW229805   2.701   4.614   3.345  1.7190 -0.1979 -0.5156
 6057SOL     OW29806   1.099   2.060   1.147 -0.5116  0.4273 -0.0960
 6057SOL    HW129807   1.053   2.003   1.086 -0.1309 -0.7340  0.6980
 6057SOL    HW229808   1.188   2.069   1.111  0.6776  1.6874  3.1474
 6058SOL     OW29809   0.097   3.985   9.152  0.2894 -0.1739 -0.2330
 6058SOL    HW129810   0.170   3.995   9.090  0.8254  3.7646  1.0578
 6058SOL    HW229811   0.134   3.932   9.223 -0.3866 -0.1218  0.1572
 6059SOL     OW29812   2.547   2.493   9.487 -0.0500 -0.2876 -0.2439
 6059SOL    HW129813   2.482   2.499   9.417  0.2751 -0.9053 -0.5945
 6059SOL    HW229814   2.592   2.578   9.486 -0.1613 -0.2451 -1.1862
 6060SOL     OW29815   4.548   0.730   2.684 -0.0206 -0.7992  0.2017
 6060SOL    HW129816   4.598   0.729   2.602 -1.1811 -1.3785 -0.4992
 6060SOL    HW229817   4.593   0.670   2.744 -1.2161 -3.6662 -1.7805
 6061SOL     OW29818   4.076   0.832   9.283 -0.3137  0.5238  0.0242
 6061SOL    HW129819   4.076   0.741   9.313  2.1916  0.7049  0.5351
 6061SOL    HW229820   3.989   0.851   9.247  0.2509  0.9241 -1.1566
 6062SOL     OW29821   0.392   3.377   3.704  0.0022 -0.2954  0.0836
 6062SOL    HW129822   0.368   3.460   3.744  1.9905  0.0487  0.5617
 6062SOL    HW229823   0.366   3.315   3.772  0.4681  0.7386  1.2017
 6063SOL     OW29824   2.392   3.523   9.296 -0.4433 -0.0850  0.5615
 6063SOL    HW129825   2.399   3.594   9.359 -0.0595  2.0630 -1.9351
 6063SOL    HW229826   2.388   3.562   9.209  0.3487 -0.2219  0.4672
 6064SOL     OW29827   0.556   0.602   7.330  0.2175 -0.4636 -0.5155
 6064SOL    HW129828   0.609   0.576   7.406 -1.6498  1.9511  1.6177
 6064SOL    HW229829   0.565   0.697   7.325 -0.4180 -0.3236  1.0767
 6065SOL     OW29830   0.081   2.551   6.304 -0.5601  0.0654  0.3404
 6065SOL    HW129831   0.149   2.520   6.245 -0.5067 -3.1488  2.1291
 6065SOL    HW229832   0.046   2.618   6.244 -0.2015  0.3578  0.4544
 6066SOL     OW29833   1.567   3.706   8.948  0.1611  0.1239  0.0407
 6066SOL    HW129834   1.600   3.774   9.006  2.3702  2.0837 -3.4786
 6066SOL    HW229835   1.491   3.745   8.905  0.9586  1.3962 -0.2031
 6067SOL     OW29836   3.247   3.695   0.547  0.1153 -0.2796  0.0648
 6067SOL    HW129837   3.161   3.673   0.512 -0.5316  2.0778  0.1489
 6067SOL    HW229838   3.231   3.769   0.605  1.2389 -0.2643  0.3711
 6068SOL     OW29839   1.972   2.045   5.676  0.1801 -0.3551 -0.3660
 6068SOL    HW129840   2.036   2.116   5.684 -0.4949  0.2181 -0.1063
 6068SOL    HW229841   1.891   2.081   5.640  0.2447  0.1633  0.0194
 6069SOL     OW29842   1.563   3.135   1.342  0.0455  0.2314 -0.3527
 6069SOL    HW129843   1.519   3.123   1.427  0.4611  0.6490 -0.0784
 6069SOL    HW229844   1.652   3.115   1.371  0.0911  1.0417  0.0646
 6070SOL     OW29845   2.934   1.793   8.995  0.6667 -0.1219 -0.1993
 6070SOL    HW129846   2.918   1.792   9.089 -0.0388 -1.3482 -0.3401
 6070SOL    HW229847   2.914   1.702   8.974 -0.8018  0.0216  0.6124
 6071SOL     OW29848   4.556   2.006   7.381 -0.0471  0.1042  0.1687
 6071SOL    HW129849   4.522   1.946   7.315 -0.0611  0.7056 -0.3653
 6071SOL    HW229850   4.497   2.081   7.379 -0.6792 -0.4483 -1.8460
 6072SOL     OW29851   1.926   4.110  17.477  0.1822  0.1976  0.0095
 6072SOL    HW129852   1.942   4.059  17.557 -0.1483  1.2823  0.7749
 6072SOL    HW229853   1.860   4.058  17.432  1.4831 -1.7419  0.3445
 6073SOL     OW29854   4.258   3.956  16.814 -0.4552  0.5520  0.3250
 6073SOL    HW129855   4.179   3.943  16.761 -1.1970  3.3692  0.7729
 6073SOL    HW229856   4.325   3.920  16.755  2.4667  3.0396  2.1661
 6074SOL     OW29857   4.127   3.768  11.182  0.2959 -0.1248  0.3271
 6074SOL    HW129858   4.148   3.736  11.094 -0.8541 -0.7474  0.2787
 6074SOL    HW229859   4.217   3.774  11.214 -0.0466 -2.6241  1.8132
 6075SOL     OW29860   1.613   1.263   3.117  0.9801  0.1787 -0.1375
 6075SOL    HW129861   1.570   1.177   3.112  2.1855 -0.5035  0.9780
 6075SOL    HW229862   1.609   1.287   3.025  0.2896  2.3240  0.4503
 6076SOL     OW29863   1.232   0.182  11.205  0.0971  0.1322  0.0750
 6076SOL    HW129864   1.223   0.087  11.210  1.1620  0.0983  1.3254
 6076SOL    HW229865   1.187   0.209  11.285  0.8369  1.2192  0.1287
 6077SOL     OW29866   0.054   1.530   7.709  0.7582 -0.0191 -0.3181
 6077SOL    HW129867   0.046   1.625   7.708  2.8578  0.1835  1.4321
 6077SOL    HW229868   0.131   1.532   7.766 -0.1863 -0.0215  0.9747
 6078SOL     OW29869   1.354   0.289   9.092 -0.0110 -0.0776 -0.2216
 6078SOL    HW129870   1.350   0.200   9.057 -1.4416  0.3295 -1.1159
 6078SOL    HW229871   1.429   0.321   9.042 -0.6868 -1.2177 -1.9705
 6079SOL     OW29872   1.270   1.647   7.971  0.0113  0.1302 -0.2135
 6079SOL    HW129873   1.277   1.571   8.029 -1.1877  0.9675  1.0507
 6079SOL    HW229874   1.253   1.724   8.026  1.0414 -0.8549  1.4803
 6080SOL     OW29875   3.059   2.121   5.379 -0.5464 -0.3449  0.0603
 6080SOL    HW129876   3.089   2.063   5.448 -0.8927 -2.0932 -1.2650
 6080SOL    HW229877   2.991   2.165   5.430 -1.0039 -2.4171  1.1953
 6081SOL     OW29878   3.363   1.593   6.255 -0.5238  0.1923  0.7366
 6081SOL    HW129879   3.291   1.539   6.288 -0.6977  0.4196  0.7223
 6081SOL    HW229880   3.441   1.554   6.294 -0.0398 -0.2854 -0.7062
 6082SOL     OW29881   3.391   3.453   8.600  0.4329 -0.1210  0.0209
 6082SOL    HW129882   3.479   3.480   8.572  1.1446 -0.2246  2.1696
 6082SOL    HW229883   3.400   3.358   8.599 -0.3282 -0.1945  0.5175
 6083SOL     OW29884   3.379   1.314  12.315 -0.7553  0.5492 -0.4753
 6083SOL    HW129885   3.425   1.264  12.247  0.4182 -0.2736  0.9120
 6083SOL    HW229886   3.310   1.250  12.334 -1.3481  0.5439 -2.6447
 6084SOL     OW29887   3.411   2.248   4.625 -0.3856 -0.5648 -0.5104
 6084SOL    HW129888   3.435   2.259   4.533 -0.4323  1.1397 -0.3248
 6084SOL    HW229889   3.319   2.231   4.606 -0.6131 -0.0005  0.0947
 6085SOL     OW29890   3.556   2.718   2.253  0.3264  0.2770  0.2967
 6085SOL    HW129891   3.469   2.695   2.221  0.3217  0.5759  0.0930
 6085SOL    HW229892   3.605   2.659   2.196  0.9142 -0.7320  1.8729
 6086SOL     OW29893   2.072   4.102   7.591 -0.0977  0.4684 -0.4651
 6086SOL    HW129894   2.053   4.150   7.511  0.2772 -1.4534 -1.7093
 6086SOL    HW229895   2.162   4.125   7.617 -0.5672  2.3413 -0.5322
 6087SOL     OW29896   1.041   2.578   3.513 -0.7946  0.4275  0.2299
 6087SOL    HW129897   0.965   2.617   3.557 -1.0796 -1.2705  1.2563
 6087SOL    HW229898   1.071   2.656   3.466 -0.0794 -0.5562 -0.9470
 6088SOL     OW29899   2.613   1.685   7.951  0.0296 -0.6426 -0.2399
 6088SOL    HW129900   2.545   1.722   8.006 -0.6394 -0.6606 -1.0597
 6088SOL    HW229901   2.596   1.591   7.960 -2.1133 -0.2531 -0.3974
 6089SOL     OW29902   0.861   3.603  15.209  0.5917  0.0057  0.9278
 6089SOL    HW129903   0.881   3.695  15.196 -1.7366  0.1360 -1.6964
 6089SOL    HW229904   0.800   3.607  15.282  0.8303  1.2594  1.0460
 6090SOL     OW29905   2.465   3.164  11.177  0.0443  0.3385 -0.2494
 6090SOL    HW129906   2.440   3.169  11.269  1.7191 -0.0804  0.2261
 6090SOL    HW229907   2.522   3.087  11.177  0.6278  0.7707  0.3117
 6091SOL     OW29908   2.448   4.728   4.320 -0.0990 -0.6448 -0.9086
 6091SOL    HW129909   2.535   4.740   4.360 -1.5914 -0.1355  2.1315
 6091SOL    HW229910   2.382   0.011   4.384 -0.1348 -0.5172 -0.9955
 6092SOL     OW29911   1.206   2.613   2.481 -0.3625  0.2028  0.1922
 6092SOL    HW129912   1.133   2.574   2.433 -1.0590  2.2507 -0.4544
 6092SOL    HW229913   1.226   2.537   2.535  2.1132 -0.2713 -1.4040
 6093SOL     OW29914   0.390   4.645   3.037 -0.7546 -0.3050  0.3589
 6093SOL    HW129915   0.312   4.628   2.984  0.0185 -1.4543 -0.4135
 6093SOL    HW229916   0.423   4.556   3.051  1.2657  0.4304  0.2370
 6094SOL     OW29917   1.408   3.763   2.122 -0.7868 -0.3549  0.1018
 6094SOL    HW129918   1.344   3.705   2.079 -0.9306  1.2494 -1.8398
 6094SOL    HW229919   1.437   3.816   2.049  1.3630 -0.0551  1.1950
 6095SOL     OW29920   1.909   2.049  15.289  0.9041 -0.7220 -1.2414
 6095SOL    HW129921   1.963   1.992  15.233  2.9250 -0.6529  0.6771
 6095SOL    HW229922   1.919   2.132  15.243 -0.2369  0.5918  0.9049
 6096SOL     OW29923   3.919   0.957   5.549 -0.0953  0.4106 -0.2682
 6096SOL    HW129924   3.975   1.031   5.524 -1.7407  1.5248 -0.6346
 6096SOL    HW229925   3.953   0.924   5.633  0.2281  1.3857 -0.0228
 6097SOL     OW29926   0.788   2.780   5.055 -0.4836 -0.3933  0.1043
 6097SOL    HW129927   0.881   2.797   5.046 -0.5754 -0.1384 -0.3619
 6097SOL    HW229928   0.781   2.694   5.013 -2.0270 -1.1930  1.9644
 6098SOL     OW29929   3.449   0.908   7.574 -0.0727  0.2171  0.1220
 6098SOL    HW129930   3.405   0.842   7.520  2.3082  0.3135 -1.9776
 6098SOL    HW229931   3.447   0.984   7.515 -2.3872 -0.7036 -0.9838
 6099SOL     OW29932   0.583   2.432   2.825  0.8717  0.0776 -0.1498
 6099SOL    HW129933   0.576   2.339   2.847 -0.1972  0.0166 -0.7541
 6099SOL    HW229934   0.490   2.453   2.818  0.4993 -0.9185  2.1388
 6100SOL     OW29935   4.205   1.400   9.964  0.4088 -0.3271  0.6863
 6100SOL    HW129936   4.193   1.315  10.006 -1.2922 -1.1720 -1.5025
 6100SOL    HW229937   4.197   1.460  10.039  0.7642 -0.0067  0.4680
 6101SOL     OW29938   1.210   2.897   1.356 -0.1711  0.3447 -0.5989
 6101SOL    HW129939   1.148   2.968   1.369 -2.3674 -1.7372  0.2910
 6101SOL    HW229940   1.165   2.880   1.273  1.4784 -0.9093 -1.2489
 6102SOL     OW29941   3.811   1.098   6.686 -0.1447  0.4338  0.1966
 6102SOL    HW129942   3.859   1.085   6.768 -0.2907 -0.5224  0.1327
 6102SOL    HW229943   3.720   1.070   6.692 -0.5183  1.6933  0.4581
 6103SOL     OW29944   0.605   2.167   1.116  0.0094  0.4495  1.0439
 6103SOL    HW129945   0.697   2.175   1.093 -0.5015  0.9534 -0.8219
 6103SOL    HW229946   0.614   2.142   1.208  0.1060 -0.9352  0.6506
 6104SOL     OW29947   0.887   4.583  10.086 -0.1924 -0.7523  0.3167
 6104SOL    HW129948   0.937   4.663  10.099 -3.2773  1.7287 -3.0586
 6104SOL    HW229949   0.928   4.545  10.008 -0.1631  1.3822 -0.7050
 6105SOL     OW29950   2.139   0.028  16.981 -0.2357  0.1463 -0.2595
 6105SOL    HW129951   2.113   0.107  17.028 -1.1878 -1.2090  1.4826
 6105SOL    HW229952   2.099   0.040  16.895 -1.1992 -0.3734  0.1238
 6106SOL     OW29953   3.922   0.441   6.752  0.1524  0.1953 -0.0708
 6106SOL    HW129954   3.947   0.483   6.834 -1.7080  3.2813 -1.0841
 6106SOL    HW229955   3.841   0.397   6.777  0.7999 -2.0344 -1.8855
 6107SOL     OW29956   2.404   2.452   4.401 -0.1787 -0.2230  0.2265
 6107SOL    HW129957   2.345   2.382   4.427 -1.4903  1.2721  1.2948
 6107SOL    HW229958   2.342   2.525   4.409 -0.4900 -0.3428 -0.9867
 6108SOL     OW29959   2.196   4.500   7.321 -0.3763  0.0590  0.1621
 6108SOL    HW129960   2.274   4.521   7.269 -0.6247 -0.2320 -0.3256
 6108SOL    HW229961   2.168   4.589   7.346  0.4825  0.5058 -0.4763
 6109SOL     OW29962   4.348   4.172   6.360  0.0312 -0.6235  0.6686
 6109SOL    HW129963   4.441   4.187   6.347 -0.4973  2.6708  0.6397
 6109SOL    HW229964   4.326   4.117   6.285  1.3732 -1.5158  0.9374
 6110SOL     OW29965   3.054   3.028   5.715 -0.0689  0.1971  0.3024
 6110SOL    HW129966   3.069   2.974   5.792  0.4574 -0.8609 -0.5371
 6110SOL    HW229967   2.960   3.024   5.702  0.0420 -0.3390 -0.3345
 6111SOL     OW29968   0.972   2.327   7.976  0.7387 -0.8841  0.2060
 6111SOL    HW129969   0.960   2.348   8.069 -2.2855 -1.6574 -0.0027
 6111SOL    HW229970   0.951   2.234   7.974  2.1002 -1.1921  0.3321
 6112SOL     OW29971   3.092   1.054   5.698  0.1916 -0.5195 -0.2315
 6112SOL    HW129972   3.078   1.064   5.793 -0.0620 -1.6084 -0.1629
 6112SOL    HW229973   3.043   0.972   5.696 -0.8488  0.0926  0.1601
 6113SOL     OW29974   0.705   3.448  13.246  0.3344  0.1753  0.2061
 6113SOL    HW129975   0.706   3.494  13.330  1.4715  2.6304 -1.1604
 6113SOL    HW229976   0.738   3.520  13.192 -0.7598  0.8897  0.4735
 6114SOL     OW29977   3.795   4.141   2.018  0.6105 -0.2723 -0.0330
 6114SOL    HW129978   3.742   4.206   1.972  0.5825 -1.2023 -1.3104
 6114SOL    HW229979   3.834   4.201   2.081  1.3246 -1.3231  0.5321
 6115SOL     OW29980   4.132   4.122   4.163  0.7126  0.1479  0.1433
 6115SOL    HW129981   4.182   4.188   4.210  0.8698  0.8580 -1.0066
 6115SOL    HW229982   4.186   4.111   4.085 -0.5005 -0.1901 -0.6484
 6116SOL     OW29983   1.227   1.254   5.380 -0.0385 -0.5303 -0.1262
 6116SOL    HW129984   1.265   1.341   5.371  0.6640 -0.6642  1.4920
 6116SOL    HW229985   1.292   1.206   5.432  2.8663  0.7460 -2.5576
 6117SOL     OW29986   1.700   3.096   0.978 -0.3419  0.0180 -0.0515
 6117SOL    HW129987   1.655   3.139   0.905 -0.0406 -1.6880 -1.2435
 6117SOL    HW229988   1.732   3.024   0.923  0.2364  1.7186 -1.9429
 6118SOL     OW29989   2.156   1.082   7.812 -0.7510  0.2978 -0.5809
 6118SOL    HW129990   2.158   1.038   7.727  1.0321  1.5011 -1.1590
 6118SOL    HW229991   2.140   1.174   7.788  0.6085  0.7429  0.2092
 6119SOL     OW29992   1.394   2.034  12.200  0.3475  0.0467 -0.4302
 6119SOL    HW129993   1.362   1.945  12.183  1.2932 -0.8446  2.4181
 6119SOL    HW229994   1.315   2.083  12.183  1.7512  2.0004 -1.2744
 6120SOL     OW29995   1.583   2.578   9.024  0.6249 -0.2124  0.2914
 6120SOL    HW129996   1.674   2.547   9.022  1.4997  2.1936  2.8308
 6120SOL    HW229997   1.584   2.631   9.104 -0.9808 -0.9242  0.7841
 6121SOL     OW29998   1.594   3.481   3.024  0.3706 -0.2200  0.0093
 6121SOL    HW129999   1.685   3.473   2.994 -0.3132  0.3739 -2.2381
 6121SOL    HW230000   1.575   3.387   3.030 -0.8193  0.0343  0.2984
 6122SOL     OW30001   3.453   4.036   8.962 -0.0567  0.3606 -0.1739
 6122SOL    HW130002   3.413   4.045   9.049 -2.1596 -1.4774 -0.9762
 6122SOL    HW230003   3.536   3.994   8.988 -0.7312 -1.4570 -0.9883
 6123SOL     OW30004   4.155   4.651   7.402 -0.3370 -0.1417  0.3115
 6123SOL    HW130005   4.231   4.603   7.370 -0.4347  0.5652 -1.0059
 6123SOL    HW230006   4.088   4.643   7.333  0.3457 -2.1934 -0.0950
 6124SOL     OW30007   2.860   2.541   5.159  0.0781  0.1353  0.3071
 6124SOL    HW130008   2.896   2.594   5.088  0.9976  0.1583  0.7876
 6124SOL    HW230009   2.790   2.497   5.112  1.6504 -0.2250 -1.7073
 6125SOL     OW30010   1.770   3.620   3.606 -1.0034  0.0811  0.4181
 6125SOL    HW130011   1.848   3.663   3.570 -1.3370 -0.4421 -0.9498
 6125SOL    HW230012   1.783   3.641   3.698 -2.9786 -0.9333  0.9315
 6126SOL     OW30013   0.803   3.936   6.137  0.5713  0.2045 -0.3612
 6126SOL    HW130014   0.735   3.999   6.114 -0.2682  0.4500  2.7392
 6126SOL    HW230015   0.878   3.966   6.086  1.1976  0.7483  0.8993
 6127SOL     OW30016   1.494   2.445   9.717  0.0067 -0.0190 -0.1329
 6127SOL    HW130017   1.411   2.424   9.760  0.3561  3.1313  2.0645
 6127SOL    HW230018   1.463   2.431   9.627  0.2913  2.6251 -0.6343
 6128SOL     OW30019   3.047   1.645   4.800  0.3150 -0.8051  0.1459
 6128SOL    HW130020   2.986   1.639   4.874 -0.0849 -1.2767 -0.2253
 6128SOL    HW230021   3.128   1.633   4.849  0.9138  0.6321 -0.4980
 6129SOL     OW30022   1.586   2.988   9.429 -0.7490  0.5016 -0.3368
 6129SOL    HW130023   1.619   3.039   9.503 -0.5983  0.4031 -0.3365
 6129SOL    HW230024   1.670   2.977   9.384  0.4969  2.9140  1.3717
 6130SOL     OW30025   0.710   2.134  16.276 -0.2368 -0.1781 -0.3525
 6130SOL    HW130026   0.707   2.217  16.227 -1.0498 -0.6647 -1.1201
 6130SOL    HW230027   0.652   2.147  16.350 -1.4908 -2.0355 -1.0183
 6131SOL     OW30028   0.920   2.381  11.965 -0.7188 -0.0434 -0.4492
 6131SOL    HW130029   0.892   2.298  12.003  0.0250 -0.2808 -0.4115
 6131SOL    HW230030   1.015   2.371  11.964 -0.7133 -0.0229  0.1421
 6132SOL     OW30031   1.439   1.177   0.715 -0.4620  0.2995 -0.0781
 6132SOL    HW130032   1.520   1.225   0.734 -0.0901 -0.7963  1.1175
 6132SOL    HW230033   1.473   1.105   0.662  1.7156  0.6792  0.7752
 6133SOL     OW30034   0.639   3.467  11.986 -0.1856  0.4144  0.5238
 6133SOL    HW130035   0.593   3.497  12.065  1.9521 -2.9038  3.0384
 6133SOL    HW230036   0.606   3.533  11.925  2.6568 -0.3811 -1.8636
 6134SOL     OW30037   0.630   1.220   0.139  0.1710 -0.4500  0.0374
 6134SOL    HW130038   0.596   1.134   0.114  1.8668 -1.2143  0.3526
 6134SOL    HW230039   0.556   1.278   0.121 -1.5770 -2.9359 -0.7641
 6135SOL     OW30040   3.900   1.239   9.383  0.3518  0.2945  0.2997
 6135SOL    HW130041   3.880   1.283   9.465  0.6100  2.4584 -0.7969
 6135SOL    HW230042   3.916   1.151   9.417 -1.6547 -0.9975 -2.0787
 6136SOL     OW30043   0.672   2.882   4.419 -0.1490 -0.3589  0.0117
 6136SOL    HW130044   0.587   2.842   4.403  0.6293 -1.5897 -1.0363
 6136SOL    HW230045   0.662   2.928   4.502  0.3546 -2.2116  1.0889
 6137SOL     OW30046   0.408   4.591   6.290  0.4474  0.6808 -0.2647
 6137SOL    HW130047   0.357   4.542   6.226 -0.2843  0.1685  0.7059
 6137SOL    HW230048   0.358   4.672   6.289  0.1788  0.5012 -1.0613
 6138SOL     OW30049   0.932   4.235   4.675 -0.7052  0.2205 -0.5834
 6138SOL    HW130050   0.901   4.184   4.601 -1.2207 -1.7508  1.0087
 6138SOL    HW230051   1.020   4.257   4.643 -0.4767 -1.3143 -1.0124
 6139SOL     OW30052   2.071   1.881   3.127 -0.0414  0.1926 -1.2361
 6139SOL    HW130053   2.157   1.889   3.170 -0.5118 -1.1443 -0.0621
 6139SOL    HW230054   2.095   1.807   3.072 -1.2634  0.6787 -2.4109
 6140SOL     OW30055   4.186   4.108  12.322 -0.1278  0.3382 -0.2128
 6140SOL    HW130056   4.199   4.188  12.271 -0.2932  0.9331  0.6792
 6140SOL    HW230057   4.258   4.051  12.296  0.2199  0.5304  0.3492
 6141SOL     OW30058   3.232   1.767   6.999  0.8650 -0.3293 -0.1881
 6141SOL    HW130059   3.258   1.807   6.916 -1.6429  2.8307  0.5626
 6141SOL    HW230060   3.156   1.818   7.026  0.7345 -0.7885  0.3118
 6142SOL     OW30061   4.046   0.188   3.175 -0.0440 -0.0244 -0.4426
 6142SOL    HW130062   3.961   0.166   3.214  0.1028  1.3799  0.6736
 6142SOL    HW230063   4.028   0.272   3.132 -3.3849 -0.6925 -0.3992
 6143SOL     OW30064   1.177   0.051   7.920 -0.3010  0.2110  0.1927
 6143SOL    HW130065   1.108   0.024   7.858 -1.1394 -0.9562  1.6189
 6143SOL    HW230066   1.130   0.092   7.992 -1.0341 -2.5231  1.2855
 6144SOL     OW30067   1.558   4.402   1.155  0.2474  0.8333  0.4456
 6144SOL    HW130068   1.527   4.376   1.068  1.9270 -1.4506  0.5317
 6144SOL    HW230069   1.586   4.493   1.139  1.1887  0.6437  1.0449
 6145SOL     OW30070   0.905   4.322   7.247  0.0056  0.3750  0.7096
 6145SOL    HW130071   0.908   4.322   7.151  0.6081 -1.6506  0.7342
 6145SOL    HW230072   0.811   4.335   7.261 -0.4913  2.1409 -3.9162
 6146SOL     OW30073   0.232   0.558   7.455  0.3326 -0.1971 -0.0405
 6146SOL    HW130074   0.273   0.487   7.405 -0.5997  0.5432 -1.8604
 6146SOL    HW230075   0.301   0.567   7.520 -0.5283 -0.9851  0.9777
 6147SOL     OW30076   3.661   3.994   3.719  0.3405 -0.1010 -0.1647
 6147SOL    HW130077   3.622   4.033   3.641 -0.6576  0.4625  0.6210
 6147SOL    HW230078   3.688   4.070   3.771  1.9604 -1.1790  0.5714
 6148SOL     OW30079   3.038   2.532   3.893 -0.2120 -0.2437 -0.3909
 6148SOL    HW130080   2.962   2.580   3.928  1.6525  2.4751 -0.1128
 6148SOL    HW230081   3.054   2.567   3.806  0.3509  0.8198  0.1345
 6149SOL     OW30082   3.103   1.344   2.802 -0.5434  0.4451  0.7136
 6149SOL    HW130083   3.068   1.402   2.869 -1.0867 -1.1827  1.8072
 6149SOL    HW230084   3.025   1.298   2.773 -0.7496  0.1220  1.8020
 6150SOL     OW30085   4.461   1.500  17.424 -0.5174  0.1189  0.2044
 6150SOL    HW130086   4.490   1.410  17.435 -0.0490  0.2701  0.1802
 6150SOL    HW230087   4.385   1.483  17.368  0.3222  2.2720 -1.5839
 6151SOL     OW30088   1.746   2.839   7.104 -0.0793  0.7493  0.5497
 6151SOL    HW130089   1.753   2.827   7.009 -0.5251  1.4101  0.4299
 6151SOL    HW230090   1.814   2.903   7.124  0.2016  1.2081 -1.8425
 6152SOL     OW30091   1.147   4.532   2.399  0.3330 -0.1518 -0.0801
 6152SOL    HW130092   1.192   4.614   2.419 -1.9920  1.1765 -0.2015
 6152SOL    HW230093   1.133   4.496   2.487  1.7360 -0.1433  0.1396
 6153SOL     OW30094   3.440   2.623   3.347 -0.5262 -0.5332  0.0451
 6153SOL    HW130095   3.366   2.563   3.358 -2.0517  1.0637 -1.4114
 6153SOL    HW230096   3.430   2.649   3.256  0.6415 -0.0684  0.0470
 6154SOL     OW30097   1.625   3.488  14.199  0.5832  0.3622 -0.4576
 6154SOL    HW130098   1.591   3.449  14.119  3.4062 -0.1047 -1.4464
 6154SOL    HW230099   1.540   3.517  14.232  0.6708 -2.2267  2.0858
 6155SOL     OW30100   0.116   3.499   7.405  0.2829  0.5678  0.4684
 6155SOL    HW130101   0.186   3.491   7.339  1.1475  2.0729  1.2021
 6155SOL    HW230102   0.153   3.450   7.478 -2.8858 -1.3873  0.7517
 6156SOL     OW30103   2.953   1.441   4.266 -0.3119 -0.4641  0.5473
 6156SOL    HW130104   2.894   1.485   4.327 -0.8189 -2.6330  1.6099
 6156SOL    HW230105   2.999   1.367   4.307  0.9133  0.3517  0.6524
 6157SOL     OW30106   1.629   0.884   8.161  0.0660 -0.2373 -0.0211
 6157SOL    HW130107   1.551   0.907   8.211  0.8171 -0.5854  1.3046
 6157SOL    HW230108   1.591   0.862   8.076 -0.4776  2.5185 -0.4837
 6158SOL     OW30109   3.337   2.889   4.647  0.6880 -0.0258  0.1712
 6158SOL    HW130110   3.297   2.897   4.560  0.7239 -1.5079  0.0237
 6158SOL    HW230111   3.431   2.886   4.628  1.1145  1.2105  2.0861
 6159SOL     OW30112   4.383   2.303   2.252  0.6375 -0.2627  0.4530
 6159SOL    HW130113   4.336   2.238   2.304  2.6979 -0.5451  1.9973
 6159SOL    HW230114   4.381   2.262   2.166 -0.8346  0.0838  0.3269
 6160SOL     OW30115   1.087   0.123   3.690 -0.5961  0.5023 -0.0301
 6160SOL    HW130116   1.029   0.163   3.625 -1.4451  0.1015  0.4849
 6160SOL    HW230117   1.089   0.033   3.657 -0.8977  0.7314 -0.6660
 6161SOL     OW30118   2.703   2.452   6.171 -0.5787 -0.5437  0.7114
 6161SOL    HW130119   2.648   2.376   6.151  0.8922 -1.1410 -1.0206
 6161SOL    HW230120   2.760   2.409   6.235  1.8761  1.9764  0.1882
 6162SOL     OW30121   3.439   1.243   4.510  0.2511 -0.1121  0.0227
 6162SOL    HW130122   3.487   1.241   4.593 -0.5854 -1.9705  0.4721
 6162SOL    HW230123   3.451   1.151   4.485 -1.0656 -0.0773 -0.7769
 6163SOL     OW30124   4.666   0.984   7.003  0.4787 -0.1696  0.4269
 6163SOL    HW130125   4.716   0.908   6.975  1.1506  1.2831 -2.3111
 6163SOL    HW230126   4.644   1.015   6.915 -0.1219  0.9154  0.9654
 6164SOL     OW30127   0.295   4.348   3.233 -0.1147  0.0514  0.2648
 6164SOL    HW130128   0.203   4.323   3.243 -0.0305  0.2399  1.5110
 6164SOL    HW230129   0.319   4.285   3.165  0.7492  0.1492  0.4804
 6165SOL     OW30130   3.442   3.758   7.794  0.1424 -0.0586 -0.2440
 6165SOL    HW130131   3.406   3.683   7.747  0.1525  0.6352 -1.3587
 6165SOL    HW230132   3.531   3.726   7.810 -0.0549  0.8783  2.6248
 6166SOL     OW30133   1.476   2.307  15.840  0.0272 -0.1566 -0.3700
 6166SOL    HW130134   1.427   2.279  15.763  0.5034 -2.5599  0.2216
 6166SOL    HW230135   1.470   2.403  15.836 -4.1530 -0.4298 -0.3146
 6167SOL     OW30136   2.454   4.249   1.891 -0.0216 -0.4499 -0.4290
 6167SOL    HW130137   2.446   4.190   1.816 -0.9524  0.6143 -1.1522
 6167SOL    HW230138   2.548   4.265   1.887 -0.6911  2.4626 -3.6385
 6168SOL     OW30139   1.298   2.946   9.452  0.2780  0.0775  0.4432
 6168SOL    HW130140   1.339   2.871   9.494  2.1521 -0.1930 -1.8979
 6168SOL    HW230141   1.375   3.002   9.460 -1.2243  2.4182 -1.5058
 6169SOL     OW30142   4.596   0.931   7.960 -0.0516 -0.0421 -0.0264
 6169SOL    HW130143   4.651   0.877   8.016  0.7775  0.3013 -0.5090
 6169SOL    HW230144   4.548   0.864   7.912 -0.7967  1.3310 -1.2000
 6170SOL     OW30145   3.407   1.217  16.705  0.0996  0.8556 -0.4927
 6170SOL    HW130146   3.471   1.258  16.764  2.0393 -1.9255 -0.6123
 6170SOL    HW230147   3.423   1.262  16.622 -0.6218 -0.7291 -1.4961
 6171SOL     OW30148   0.712   3.694  13.834 -0.2526 -0.6322  0.4909
 6171SOL    HW130149   0.790   3.684  13.780 -0.6529  1.9952 -0.6006
 6171SOL    HW230150   0.665   3.616  13.804  0.3539 -0.9224  0.2857
 6172SOL     OW30151   2.314   2.471   8.523  0.8736 -0.4900 -0.0578
 6172SOL    HW130152   2.266   2.477   8.606 -0.4194  1.1064 -0.9069
 6172SOL    HW230153   2.262   2.524   8.462  0.4996 -1.0313 -0.2071
 6173SOL     OW30154   3.913   1.856   4.643 -0.2057  0.4166  0.0468
 6173SOL    HW130155   4.007   1.874   4.654  0.4636 -3.6252  0.8327
 6173SOL    HW230156   3.903   1.818   4.730  0.0019 -1.2978 -0.6753
 6174SOL     OW30157   4.385   3.793   0.981 -0.0359 -0.3282  0.1240
 6174SOL    HW130158   4.476   3.821   0.987 -1.6050  4.8179 -0.0635
 6174SOL    HW230159   4.396   3.725   0.914  2.2320  0.8946 -0.7484
 6175SOL     OW30160   3.923   1.075   6.943 -0.2093 -0.1413 -0.3340
 6175SOL    HW130161   4.017   1.070   6.955  0.2203 -0.1267 -3.6992
 6175SOL    HW230162   3.896   1.148   6.999  1.7242  0.5491 -0.3244
 6176SOL     OW30163   0.685   0.686   7.637  0.3362 -0.4021 -0.3953
 6176SOL    HW130164   0.767   0.715   7.597  0.8316  1.3081  1.8396
 6176SOL    HW230165   0.712   0.607   7.685 -0.6399  0.2700  1.2718
 6177SOL     OW30166   4.292   0.941   4.744 -0.1491 -0.2432 -0.0312
 6177SOL    HW130167   4.385   0.916   4.743  0.1256  0.8032 -1.7861
 6177SOL    HW230168   4.266   0.915   4.832 -1.8871  2.5227  0.2712
 6178SOL     OW30169   0.319   0.918   5.557 -0.3318  0.1296  0.4543
 6178SOL    HW130170   0.324   0.859   5.632 -2.7228  0.8692  1.1987
 6178SOL    HW230171   0.228   0.945   5.568 -0.0752 -0.0456  2.8987
 6179SOL     OW30172   3.081   1.928   0.782  0.1975  0.0477  0.1469
 6179SOL    HW130173   3.030   2.008   0.789 -0.5065 -0.4915  1.0878
 6179SOL    HW230174   3.014   1.872   0.820  0.2572 -0.7941 -0.9944
 6180SOL     OW30175   2.623   4.484   1.198  0.2758 -0.2745  0.1510
 6180SOL    HW130176   2.615   4.435   1.280 -0.4486 -0.4298 -0.0072
 6180SOL    HW230177   2.641   4.407   1.143  0.7139  0.3922 -0.6364
 6181SOL     OW30178   2.408   2.697  11.644 -0.2739  0.1141  0.2156
 6181SOL    HW130179   2.377   2.683  11.733 -1.9008 -2.6352 -0.7793
 6181SOL    HW230180   2.337   2.660  11.591 -0.7383  1.1744  0.0992
 6182SOL     OW30181   2.602   1.592   5.402 -0.4629  0.0895 -0.3545
 6182SOL    HW130182   2.556   1.672   5.377  2.5405  1.1693 -2.3966
 6182SOL    HW230183   2.653   1.585   5.321  0.0708 -0.4653  0.0223
 6183SOL     OW30184   3.168   3.587   3.805 -0.7625  0.1231  0.4588
 6183SOL    HW130185   3.188   3.584   3.898 -1.1388  1.3475  0.5725
 6183SOL    HW230186   3.242   3.632   3.764 -0.5683  1.7123  2.5991
 6184SOL     OW30187   0.922   2.481   9.306 -0.0366 -0.5307 -0.6290
 6184SOL    HW130188   0.997   2.509   9.358 -0.2328  2.4130 -1.9128
 6184SOL    HW230189   0.849   2.518   9.356 -0.0421  0.7409 -1.5696
 6185SOL     OW30190   0.647   0.605   4.524 -0.4274  0.0163  0.5569
 6185SOL    HW130191   0.712   0.671   4.543  0.8937 -0.9436 -0.6489
 6185SOL    HW230192   0.590   0.611   4.601 -0.9290  0.7459  0.1317
 6186SOL     OW30193   2.448   2.728   4.192  0.0977  0.0182  0.4160
 6186SOL    HW130194   2.486   2.769   4.270 -0.5430 -0.9848  1.2527
 6186SOL    HW230195   2.506   2.762   4.123  0.8895 -2.8666 -0.3539
 6187SOL     OW30196   3.918   2.659  14.388 -0.3674  0.2076  0.3760
 6187SOL    HW130197   4.013   2.650  14.393 -0.3401  0.2398 -0.0975
 6187SOL    HW230198   3.894   2.719  14.459  0.7074  0.1756  0.7737
 6188SOL     OW30199   0.579   2.986   9.844 -0.2899 -0.2217  0.2881
 6188SOL    HW130200   0.578   2.907   9.790 -1.5359  0.8438 -1.2498
 6188SOL    HW230201   0.635   2.959   9.917 -0.1384 -3.0089 -0.8748
 6189SOL     OW30202   2.925   1.451  10.209 -0.1054  0.0376 -0.1248
 6189SOL    HW130203   2.950   1.541  10.189 -0.3972  0.4156  1.1867
 6189SOL    HW230204   2.868   1.477  10.282 -1.4605  1.6232 -1.7390
 6190SOL     OW30205   0.680   1.138  17.517 -0.3495  0.1664 -0.2750
 6190SOL    HW130206   0.636   1.125  17.601  2.3368 -1.0057  0.9520
 6190SOL    HW230207   0.743   1.066  17.511 -0.3548  0.3199 -2.2699
 6191SOL     OW30208   4.626   2.447   1.868 -0.2824 -0.1912 -0.1848
 6191SOL    HW130209   4.619   2.433   1.962 -1.0464  0.3126 -0.1687
 6191SOL    HW230210   4.538   2.481   1.850 -0.2818 -0.4054 -0.5959
 6192SOL     OW30211   0.409   3.310   8.565  0.2813 -0.0755  0.0938
 6192SOL    HW130212   0.421   3.405   8.576 -0.8408  0.1658 -0.7688
 6192SOL    HW230213   0.316   3.291   8.573  0.6007 -0.8410  2.0372
 6193SOL     OW30214   3.950   3.343   5.565 -0.1633  0.3727 -0.0433
 6193SOL    HW130215   3.980   3.397   5.492  0.8204 -1.4122 -0.9649
 6193SOL    HW230216   3.866   3.383   5.587 -1.5979 -2.6544  0.0076
 6194SOL     OW30217   2.660   2.966   2.455 -0.5357 -0.3559  0.3604
 6194SOL    HW130218   2.649   3.006   2.368 -1.2632 -0.5063  0.3802
 6194SOL    HW230219   2.660   2.874   2.428  1.6539 -0.9099  2.3161
 6195SOL     OW30220   1.202   0.479  15.466 -0.1501  0.3249  0.1074
 6195SOL    HW130221   1.228   0.569  15.485  2.1044 -0.0335 -1.1580
 6195SOL    HW230222   1.135   0.463  15.532  1.2221  0.3664  1.5122
 6196SOL     OW30223   1.362   1.584   0.884  0.0187  0.0527  0.0687
 6196SOL    HW130224   1.337   1.570   0.793 -0.1099  0.4278  0.0460
 6196SOL    HW230225   1.377   1.678   0.893  1.6424 -0.2588  0.4925
 6197SOL     OW30226   0.949   0.645   8.670  0.3932 -0.2617 -0.6618
 6197SOL    HW130227   0.923   0.659   8.761 -1.3956 -2.5252 -0.8252
 6197SOL    HW230228   0.933   0.551   8.680  2.1568 -0.6461 -1.4147
 6198SOL     OW30229   1.002   4.407   1.626 -0.0202  0.0675 -0.0678
 6198SOL    HW130230   1.094   4.411   1.652  0.2007 -1.6807 -0.5300
 6198SOL    HW230231   0.974   4.493   1.596  0.5375  0.1496 -0.3372
 6199SOL     OW30232   1.133   1.057   8.391 -0.2311 -0.2203 -0.2274
 6199SOL    HW130233   1.176   1.143   8.387 -1.7609  0.5932  1.1295
 6199SOL    HW230234   1.053   1.070   8.341  0.8184  1.5399 -1.4716
 6200SOL     OW30235   2.136   2.412  11.982 -0.5235 -0.1202  0.3087
 6200SOL    HW130236   2.109   2.321  11.997  0.9249 -0.9141 -1.9051
 6200SOL    HW230237   2.057   2.445  11.940  0.4002 -0.3365 -1.6056
 6201SOL     OW30238   2.951   4.312  12.770 -0.0797 -0.2741  0.2402
 6201SOL    HW130239   3.027   4.310  12.829 -0.0267  0.6438  0.1930
 6201SOL    HW230240   2.934   4.406  12.765  0.9772 -0.1369 -0.8018
 6202SOL     OW30241   4.277   4.630  11.955 -0.1054  0.4323  0.2264
 6202SOL    HW130242   4.334   4.649  12.029 -0.5635  1.6111  0.2661
 6202SOL    HW230243   4.338   4.642  11.882  0.0023  0.8059  0.3799
 6203SOL     OW30244   4.482   0.219   3.039 -0.1657  0.5569  0.1933
 6203SOL    HW130245   4.424   0.224   3.115 -1.3254 -2.1646 -0.5043
 6203SOL    HW230246   4.432   0.242   2.961 -0.8611  0.1053  0.5033
 6204SOL     OW30247   1.390   4.673   7.533 -0.0896  0.9427 -0.0732
 6204SOL    HW130248   1.409   4.681   7.626 -0.0726  0.9189 -0.0746
 6204SOL    HW230249   1.301   4.639   7.539  0.2192 -0.0978 -1.2737
 6205SOL     OW30250   1.398   4.525   9.485 -0.2756  0.6308 -0.1852
 6205SOL    HW130251   1.351   4.598   9.444 -0.4244  0.2847 -0.6317
 6205SOL    HW230252   1.474   4.577   9.510 -0.4221 -0.8856  3.4024
 6206SOL     OW30253   0.508   3.072   0.976 -0.5958 -0.2803 -0.2216
 6206SOL    HW130254   0.430   3.124   0.960 -1.4472 -0.6886  2.6278
 6206SOL    HW230255   0.468   2.984   0.973 -2.0906  0.3716  0.7832
 6207SOL     OW30256   2.023   3.292   9.699 -0.3252  0.0120  0.0036
 6207SOL    HW130257   2.073   3.222   9.658  0.1515  1.2773 -1.5657
 6207SOL    HW230258   2.058   3.369   9.654  1.1644  0.1223  1.3838
 6208SOL     OW30259   4.084   2.275  17.358  0.8240 -0.0923 -0.0095
 6208SOL    HW130260   4.132   2.263  17.276 -1.4320 -1.0127 -1.1983
 6208SOL    HW230261   4.159   2.270  17.416  0.2464 -0.4568  0.7033
 6209SOL     OW30262   1.170   1.649   9.143  0.1306 -0.7133  0.3642
 6209SOL    HW130263   1.237   1.596   9.100 -0.8304  0.0592 -2.1073
 6209SOL    HW230264   1.093   1.601   9.111 -0.1027 -0.5090  0.6231
 6210SOL     OW30265   1.807   0.461  17.397 -0.2900 -0.2999  0.4192
 6210SOL    HW130266   1.861   0.414  17.334  1.0425  2.3113 -0.3412
 6210SOL    HW230267   1.841   0.550  17.402  0.6056 -0.5161 -1.7960
 6211SOL     OW30268   1.580   2.152   5.374  0.1097  0.6698  0.1920
 6211SOL    HW130269   1.619   2.239   5.375 -0.0423  0.7589 -1.0267
 6211SOL    HW230270   1.489   2.180   5.369 -0.0084  0.3528  0.5323
 6212SOL     OW30271   2.602   0.230   8.279 -0.2259  0.2091 -0.4945
 6212SOL    HW130272   2.647   0.269   8.355 -0.9163 -1.3588  0.7204
 6212SOL    HW230273   2.525   0.287   8.273 -1.0623 -0.7223  1.2338
 6213SOL     OW30274   1.661   1.357   8.308  0.9793 -0.2333 -0.0796
 6213SOL    HW130275   1.717   1.279   8.309  0.6886 -0.4934 -3.2257
 6213SOL    HW230276   1.645   1.371   8.215 -1.3757 -0.6408  0.2490
 6214SOL     OW30277   1.391   3.208   2.277  0.1961 -0.2670 -0.5286
 6214SOL    HW130278   1.452   3.210   2.203  0.0312 -2.5030 -0.7381
 6214SOL    HW230279   1.425   3.280   2.330  1.3470 -1.2804  0.0998
 6215SOL     OW30280   3.220   4.574   6.248 -0.3943  0.2283  0.9248
 6215SOL    HW130281   3.292   4.531   6.293  0.1928 -1.4249 -1.5859
 6215SOL    HW230282   3.155   4.574   6.318 -2.2433  0.6757 -0.7939
 6216SOL     OW30283   0.315   1.449  16.645  0.2404 -0.3617  0.7619
 6216SOL    HW130284   0.392   1.410  16.686  0.6898 -1.7937 -1.4422
 6216SOL    HW230285   0.341   1.540  16.659  1.5951 -0.4079 -1.3583
 6217SOL     OW30286   4.459   1.852   7.200 -0.2765  0.3532  0.2446
 6217SOL    HW130287   4.365   1.868   7.189 -0.3708  0.3618  1.0691
 6217SOL    HW230288   4.495   1.845   7.111 -2.0727 -0.5847 -0.4167
 6218SOL     OW30289   0.682   3.206   9.710  0.2064  0.2232  0.5794
 6218SOL    HW130290   0.662   3.117   9.739  2.4587 -0.3927  0.2260
 6218SOL    HW230291   0.713   3.235   9.796  0.0511  2.2301 -0.0326
 6219SOL     OW30292   3.476   1.979  13.563  0.0375  0.3886 -0.4084
 6219SOL    HW130293   3.420   1.951  13.491  0.0140  0.2786 -0.3471
 6219SOL    HW230294   3.523   1.901  13.592 -0.5419  0.8041  1.6835
 6220SOL     OW30295   1.973   2.616   7.319 -0.1517  0.4491  0.4245
 6220SOL    HW130296   1.915   2.595   7.246 -0.9804  2.2730  0.5528
 6220SOL    HW230297   1.997   2.704   7.291  0.1567  1.1760  2.9558
 6221SOL     OW30298   3.621   1.268  17.174 -0.3795  0.5390  0.1441
 6221SOL    HW130299   3.701   1.220  17.191 -0.8636  0.2123  1.5271
 6221SOL    HW230300   3.641   1.304  17.088  0.8085 -5.1359 -1.9432
 6222SOL     OW30301   0.439   0.353   4.978 -0.1452  0.3556  0.0639
 6222SOL    HW130302   0.408   0.266   5.002 -0.8876  0.0378 -2.0885
 6222SOL    HW230303   0.364   0.412   4.982  2.2449  3.4781 -0.7268
 6223SOL     OW30304   2.653   0.203  12.647  0.3494 -0.0760  0.1436
 6223SOL    HW130305   2.579   0.223  12.705 -1.0549  2.4737 -2.5909
 6223SOL    HW230306   2.613   0.209  12.561  1.2645  1.5193 -0.1735
 6224SOL     OW30307   3.454   0.191   2.601  0.1498  0.2345  0.3278
 6224SOL    HW130308   3.505   0.152   2.673  0.2480 -0.2294  0.0043
 6224SOL    HW230309   3.375   0.223   2.644  2.1083  0.4146  3.8602
 6225SOL     OW30310   3.539   1.210   9.305 -0.1035  0.3839 -0.6780
 6225SOL    HW130311   3.487   1.177   9.379  4.3131  0.2957  2.4047
 6225SOL    HW230312   3.468   1.247   9.253 -0.7908 -1.6004 -1.1537
 6226SOL     OW30313   1.029   3.708   6.275 -0.1667 -0.2092 -0.3419
 6226SOL    HW130314   1.029   3.704   6.180  2.6687 -0.1167 -0.3513
 6226SOL    HW230315   1.017   3.614   6.290  0.6822 -0.5981 -2.0693
 6227SOL     OW30316   2.111   2.059   9.769 -0.0183 -0.5398 -0.2967
 6227SOL    HW130317   2.048   2.024   9.707  0.4604  0.0255 -1.1022
 6227SOL    HW230318   2.109   1.992   9.838  0.9290  0.0247  0.2895
 6228SOL     OW30319   0.158   3.472   1.436  0.0487 -0.4928 -0.1533
 6228SOL    HW130320   0.200   3.415   1.371 -0.5182 -0.2552 -0.7217
 6228SOL    HW230321   0.070   3.436   1.449 -0.4087  0.1591 -1.4467
 6229SOL     OW30322   3.123   2.976   1.904  0.1385 -0.1052 -0.3437
 6229SOL    HW130323   3.156   3.008   1.820  1.3404 -0.0870  0.1299
 6229SOL    HW230324   3.202   2.959   1.956 -1.0681 -0.3397  1.4029
 6230SOL     OW30325   0.317   0.240   8.484  0.3771 -0.0575 -0.8104
 6230SOL    HW130326   0.266   0.309   8.527 -0.0438 -2.4103  2.5056
 6230SOL    HW230327   0.268   0.159   8.502  0.4221 -0.2386 -1.5106
 6231SOL     OW30328   3.465   0.311   1.189 -0.2781  0.4055  0.0353
 6231SOL    HW130329   3.474   0.293   1.282 -2.2967  0.4077  0.2223
 6231SOL    HW230330   3.560   0.318   1.184 -0.3282 -0.4816 -2.3014
 6232SOL     OW30331   1.213   2.430   5.836 -0.2985 -0.1791 -0.4608
 6232SOL    HW130332   1.137   2.427   5.894  1.9992 -0.5337  2.4961
 6232SOL    HW230333   1.280   2.483   5.879  0.4720 -0.8572 -0.8266
 6233SOL     OW30334   1.300   1.129   3.963 -0.0073 -0.1254  0.7975
 6233SOL    HW130335   1.292   1.103   3.871 -0.0561  1.0347  0.4658
 6233SOL    HW230336   1.394   1.146   3.968 -0.4582  2.2407  1.3531
 6234SOL     OW30337   2.980   2.267   1.510  0.2172 -0.1600 -0.6467
 6234SOL    HW130338   3.070   2.242   1.489  0.3216 -0.4840  0.1762
 6234SOL    HW230339   2.953   2.201   1.574  1.0998 -0.3167 -0.4412
 6235SOL     OW30340   2.659   1.582  10.206  0.5329 -0.2652  0.3410
 6235SOL    HW130341   2.627   1.549  10.289 -0.2001 -0.7243 -0.1216
 6235SOL    HW230342   2.610   1.531  10.141 -0.7923  1.4094 -0.0097
 6236SOL     OW30343   0.085   0.922   9.314 -0.0357 -0.4415  0.0716
 6236SOL    HW130344   4.735   0.904   9.301  0.0710 -0.5815 -0.5252
 6236SOL    HW230345   0.091   1.016   9.299 -2.3089 -0.2587  0.4019
 6237SOL     OW30346   1.793   0.667   4.800 -0.3918 -0.1644 -0.6195
 6237SOL    HW130347   1.855   0.732   4.831 -1.8497  0.7729  0.3306
 6237SOL    HW230348   1.801   0.671   4.705  0.9256  0.6765 -0.4707
 6238SOL     OW30349   4.180   0.237   1.399 -0.9358  0.6173  0.1557
 6238SOL    HW130350   4.193   0.252   1.306  2.3228 -0.1617  0.5089
 6238SOL    HW230351   4.255   0.182   1.419 -2.3233 -2.0087 -1.8652
 6239SOL     OW30352   0.156   1.159   3.994 -0.6961 -0.0681 -0.3257
 6239SOL    HW130353   0.143   1.240   4.042 -1.8629 -0.9531  0.8537
 6239SOL    HW230354   0.243   1.137   4.025 -0.1858  1.6291 -0.5754
 6240SOL     OW30355   1.272   3.652   3.840  0.0569 -0.1392 -0.1579
 6240SOL    HW130356   1.364   3.670   3.858 -0.2371 -2.0714  3.2667
 6240SOL    HW230357   1.277   3.664   3.745 -1.3130  0.0100 -0.2178
 6241SOL     OW30358   0.581   0.104   5.645  0.0178  0.2610 -0.6626
 6241SOL    HW130359   0.610   0.182   5.692 -0.1274 -0.2081  0.2278
 6241SOL    HW230360   0.594   0.038   5.713  0.2006  1.1918  0.2131
 6242SOL     OW30361   3.624   0.997   5.233 -0.2441 -0.6101 -0.3189
 6242SOL    HW130362   3.578   0.966   5.311  0.3904 -1.7541 -0.3989
 6242SOL    HW230363   3.697   1.048   5.269 -0.3003 -0.5484 -0.2933
 6243SOL     OW30364   0.083   4.429   4.344 -0.2954 -0.2676 -0.2517
 6243SOL    HW130365   0.118   4.514   4.373 -2.1862  1.1082 -2.0421
 6243SOL    HW230366   4.741   4.460   4.314  0.2283 -0.9326 -2.4294
 6244SOL     OW30367   0.031   3.610   7.884 -0.8088 -0.3593 -0.1495
 6244SOL    HW130368   0.023   3.517   7.861  1.1258 -0.2337 -1.4138
 6244SOL    HW230369   0.034   3.641   7.793  0.9764 -0.1954 -0.0445
 6245SOL     OW30370   3.824   3.520  15.924 -0.0918 -0.2340  0.4220
 6245SOL    HW130371   3.739   3.500  15.886 -0.5998 -0.1206  1.4901
 6245SOL    HW230372   3.814   3.613  15.905  3.2961  0.1907  0.6601
 6246SOL     OW30373   4.136   2.927   4.318  0.3679 -0.9283  0.4562
 6246SOL    HW130374   4.146   3.004   4.263  1.4701 -0.6407  1.0694
 6246SOL    HW230375   4.163   2.859   4.256 -2.6345  0.3827 -2.2851
 6247SOL     OW30376   0.147   4.084   8.322  0.2936  0.1895 -0.7470
 6247SOL    HW130377   0.054   4.062   8.314  0.1838 -1.0259  3.7526
 6247SOL    HW230378   0.158   4.106   8.415 -2.4616 -1.3429 -0.0348
 6248SOL     OW30379   0.499   3.347   7.499 -0.7198  0.1200 -0.1707
 6248SOL    HW130380   0.506   3.258   7.465 -0.0227  0.0998  0.0340
 6248SOL    HW230381   0.558   3.394   7.440 -0.9423 -1.0798 -1.3403
 6249SOL     OW30382   0.324   0.498  10.681 -0.3779 -0.1523 -0.1868
 6249SOL    HW130383   0.409   0.520  10.718 -0.8662  1.3670  0.0075
 6249SOL    HW230384   0.282   0.581  10.660  2.9712  1.6649  0.3108
 6250SOL     OW30385   4.276   2.320  17.567  0.5988  0.9018 -0.2914
 6250SOL    HW130386   4.264   2.289  17.657  2.0699  0.4646 -0.2358
 6250SOL    HW230387   4.346   2.265  17.530 -0.3207 -1.9992  2.2648
 6251SOL     OW30388   4.366   2.163   9.303 -0.0986 -0.6039 -0.0374
 6251SOL    HW130389   4.441   2.107   9.284  1.1026  1.7133 -2.1638
 6251SOL    HW230390   4.394   2.250   9.276 -1.9751 -0.0576 -0.2504
 6252SOL     OW30391   3.825   0.525   2.470  0.2267 -0.3326 -0.1539
 6252SOL    HW130392   3.850   0.595   2.411 -1.9357  0.9659  0.4464
 6252SOL    HW230393   3.733   0.552   2.467  1.2266  3.2314  1.4308
 6253SOL     OW30394   1.667   4.204  13.808 -0.6259 -0.0256 -0.2855
 6253SOL    HW130395   1.733   4.240  13.749 -3.9612  1.1774 -3.2791
 6253SOL    HW230396   1.586   4.209  13.758 -0.1523  0.3806 -1.0134
 6254SOL     OW30397   2.987   0.202  14.576  0.2412 -0.2176  0.1472
 6254SOL    HW130398   3.040   0.215  14.498  1.4171 -2.0697  0.6464
 6254SOL    HW230399   2.965   0.109  14.568  0.8165 -0.2570 -0.8840
 6255SOL     OW30400   0.841   2.870   2.493 -0.1605 -0.0131 -0.5656
 6255SOL    HW130401   0.756   2.899   2.459 -0.4683  0.0971  0.2825
 6255SOL    HW230402   0.845   2.905   2.582 -0.8709  1.0744 -0.9712
 6256SOL     OW30403   1.648   3.348  13.967 -0.3946 -0.5276  0.3182
 6256SOL    HW130404   1.628   3.313  13.880  1.1409  0.6738 -0.5076
 6256SOL    HW230405   1.743   3.342  13.963 -0.5075 -2.1209 -0.2172
 6257SOL     OW30406   1.778   4.578   6.631 -0.0425 -0.3303  0.0373
 6257SOL    HW130407   1.757   4.496   6.676 -0.0422 -0.1458  0.3737
 6257SOL    HW230408   1.696   4.627   6.640  0.7159  0.6708  1.6476
 6258SOL     OW30409   3.003   3.865   1.902  0.4324 -0.3317  0.2548
 6258SOL    HW130410   3.005   3.817   1.819 -2.2251 -3.4989  2.0286
 6258SOL    HW230411   3.087   3.828   1.929 -0.6072 -3.2394 -0.5436
 6259SOL     OW30412   3.960   4.033  16.266 -0.1686  0.1935  0.3318
 6259SOL    HW130413   3.899   4.001  16.199  2.0069  1.5916 -2.3223
 6259SOL    HW230414   4.029   3.971  16.243  0.7963  1.4184 -0.1139
 6260SOL     OW30415   0.331   0.827   4.346  0.5882  0.1168 -0.2630
 6260SOL    HW130416   0.392   0.866   4.284 -0.4376  1.6943 -0.2939
 6260SOL    HW230417   0.319   0.734   4.324  0.5243  0.7110 -2.7320
 6261SOL     OW30418   0.545   0.140   4.498 -0.3995  0.2395 -0.0904
 6261SOL    HW130419   0.467   0.187   4.529  1.6638  1.9046  2.5132
 6261SOL    HW230420   0.529   0.056   4.541 -0.0897  0.7561  1.0368
 6262SOL     OW30421   3.868   4.190   0.827 -0.1149 -0.2401  0.4197
 6262SOL    HW130422   3.813   4.177   0.750 -0.4982  1.0030  0.4804
 6262SOL    HW230423   3.922   4.262   0.794 -2.2624  0.6209 -1.2188
 6263SOL     OW30424   4.311   1.667   6.986  0.2829 -0.0277 -0.1445
 6263SOL    HW130425   4.324   1.693   6.894  0.3350  1.4366  0.2732
 6263SOL    HW230426   4.288   1.753   7.023 -3.3728 -1.4145  0.7989
 6264SOL     OW30427   3.479   2.402   8.925  0.2318 -0.3110  0.3049
 6264SOL    HW130428   3.421   2.467   8.885  0.6701 -0.1153 -0.0049
 6264SOL    HW230429   3.514   2.360   8.846  3.8999  1.0346  1.2399
 6265SOL     OW30430   2.982   2.494   9.624  0.4847 -0.8642 -0.6464
 6265SOL    HW130431   2.991   2.500   9.529  2.0348  2.2177 -0.2866
 6265SOL    HW230432   3.073   2.491   9.654  0.3902  3.4127  0.0905
 6266SOL     OW30433   4.527   3.350   4.592 -0.2323  0.5610 -0.0037
 6266SOL    HW130434   4.462   3.306   4.537 -0.1492 -0.6352  0.8708
 6266SOL    HW230435   4.474   3.422   4.627  2.0042  1.8136  0.8169
 6267SOL     OW30436   0.183   3.690   1.571 -0.7381  0.4654 -0.5043
 6267SOL    HW130437   0.095   3.725   1.561 -0.6107  1.2812  1.3677
 6267SOL    HW230438   0.181   3.603   1.530 -0.2126 -0.6417  1.8095
 6268SOL     OW30439   4.639   1.015  12.039  0.0911  0.1320 -0.0078
 6268SOL    HW130440   4.734   1.027  12.029  0.2837  1.1872  2.8628
 6268SOL    HW230441   4.628   1.034  12.132  2.0355  0.1035  0.2285
 6269SOL     OW30442   4.406   3.842  16.142 -0.0555  0.5922  0.3103
 6269SOL    HW130443   4.455   3.920  16.115 -0.6507  1.2045  0.9880
 6269SOL    HW230444   4.474   3.795  16.191  0.4745  1.4702  0.4210
 6270SOL     OW30445   3.041   1.918   9.453 -0.5263 -0.4815  0.5096
 6270SOL    HW130446   2.955   1.948   9.482 -0.5123  1.0570 -1.0996
 6270SOL    HW230447   3.086   1.934   9.536  1.0975  0.2919 -0.5009
 6271SOL     OW30448   2.908   1.801  14.241  0.2124 -0.0561  0.4532
 6271SOL    HW130449   2.913   1.776  14.334  0.6645 -1.7936 -0.0328
 6271SOL    HW230450   2.933   1.893  14.243 -0.4708  0.1455 -0.9391
 6272SOL     OW30451   4.392   0.093   8.828  0.4287 -1.1373 -0.4099
 6272SOL    HW130452   4.310   0.044   8.829 -1.7182  2.4758 -1.6977
 6272SOL    HW230453   4.451   0.047   8.768  1.2377  0.5501 -0.9105
 6273SOL     OW30454   4.193   0.231   4.255 -0.4549  0.0222  0.3306
 6273SOL    HW130455   4.285   0.208   4.241 -0.5194  0.4341 -0.7797
 6273SOL    HW230456   4.211   0.295   4.324 -2.1879  1.0929 -0.2012
 6274SOL     OW30457   3.887   2.178   4.070  0.2807 -0.1916 -0.1750
 6274SOL    HW130458   3.897   2.208   4.160 -0.5446  0.4346 -0.2893
 6274SOL    HW230459   3.864   2.261   4.027  2.2167  0.4995  0.1086
 6275SOL     OW30460   1.547   1.885   8.152  0.5238 -0.0180 -0.3181
 6275SOL    HW130461   1.514   1.889   8.062  1.0239  0.9885 -0.4544
 6275SOL    HW230462   1.597   1.805   8.144 -2.1435 -1.6122 -1.2210
 6276SOL     OW30463   3.374   1.844   4.036 -0.1824  0.0235  0.0533
 6276SOL    HW130464   3.376   1.755   4.001 -0.6602  0.2291 -0.5043
 6276SOL    HW230465   3.320   1.832   4.114  1.4297 -0.1427  1.1503
 6277SOL     OW30466   0.908   0.307   6.951  0.3263 -0.5329 -0.2097
 6277SOL    HW130467   0.844   0.367   6.988  0.0541 -2.3561  2.3186
 6277SOL    HW230468   0.916   0.332   6.859  0.4780  1.0013  0.2307
 6278SOL     OW30469   1.998   3.439  10.995  0.1914  0.3896  0.1229
 6278SOL    HW130470   2.069   3.498  10.971  1.0060 -1.1107 -1.1156
 6278SOL    HW230471   2.037   3.352  10.991 -0.5661  0.1017 -0.9688
 6279SOL     OW30472   1.868   1.370  16.504  0.5313  0.3073 -0.8241
 6279SOL    HW130473   1.947   1.391  16.555 -0.6772 -1.8679  1.9423
 6279SOL    HW230474   1.838   1.288  16.542  0.6225  0.3826 -0.5886
 6280SOL     OW30475   2.611   4.719  17.727 -0.9884  0.4875  0.3238
 6280SOL    HW130476   2.574   4.658  17.664 -2.4623  1.8046 -0.1234
 6280SOL    HW230477   2.530   0.024  17.750 -1.5031  0.9482 -2.5006
 6281SOL     OW30478   2.969   4.337  16.213  0.3929  0.2341  0.4702
 6281SOL    HW130479   2.911   4.381  16.275 -0.4041 -0.3781  0.1612
 6281SOL    HW230480   2.958   4.386  16.131  1.0813  0.3491  0.4492
 6282SOL     OW30481   2.335   4.569   4.530  0.2869  0.4228  0.5961
 6282SOL    HW130482   2.398   4.508   4.568 -1.9035 -0.2699  3.1163
 6282SOL    HW230483   2.303   4.515   4.457 -2.9920  2.0335  0.8366
 6283SOL     OW30484   3.372   0.264   6.274 -0.0619  0.3101 -0.1997
 6283SOL    HW130485   3.294   0.253   6.328 -0.5140  2.8910 -0.3382
 6283SOL    HW230486   3.339   0.222   6.194 -1.8172  1.8176 -0.2643
 6284SOL     OW30487   1.357   1.213  11.724  0.5523  0.3350 -0.0474
 6284SOL    HW130488   1.382   1.245  11.811 -0.0754  0.1436  0.2022
 6284SOL    HW230489   1.281   1.270  11.712 -1.0763 -1.7184  0.5130
 6285SOL     OW30490   0.071   0.002   4.006  0.2130 -0.2635 -0.5408
 6285SOL    HW130491   0.166   0.001   4.014  0.0538 -1.3858  1.3177
 6285SOL    HW230492   0.046   0.085   3.967  0.3742 -0.3756 -0.8773
 6286SOL     OW30493   2.083   3.479   6.211  0.3680  0.3209 -0.1704
 6286SOL    HW130494   2.012   3.449   6.269  1.4235 -1.8838  0.0022
 6286SOL    HW230495   2.033   3.548   6.168 -0.1353 -0.3815 -0.7306
 6287SOL     OW30496   0.125   4.650   6.459 -0.2387  0.0590 -0.3639
 6287SOL    HW130497   0.184   4.724   6.476  1.5041 -2.0093  2.4876
 6287SOL    HW230498   0.168   4.623   6.378 -0.1140  0.8220 -0.5539
 6288SOL     OW30499   3.994   2.944   9.297 -0.2847  0.3961 -0.0691
 6288SOL    HW130500   4.045   3.010   9.251 -1.5249  0.5891 -1.1719
 6288SOL    HW230501   4.034   2.935   9.384  0.2270 -0.7812 -0.4233
 6289SOL     OW30502   0.452   3.789   6.582 -0.2525  0.4094  0.3193
 6289SOL    HW130503   0.501   3.871   6.585  0.8123 -0.1891 -0.4635
 6289SOL    HW230504   0.401   3.805   6.661  1.9941  2.3161  1.3665
 6290SOL     OW30505   3.471   1.513   8.796 -0.4512  0.3669 -0.4784
 6290SOL    HW130506   3.417   1.435   8.808 -0.3192  0.4140  0.4194
 6290SOL    HW230507   3.543   1.484   8.741  0.1373  2.0365 -0.5733
 6291SOL     OW30508   3.786   3.095  13.958  0.1747 -0.1701  0.0529
 6291SOL    HW130509   3.843   3.168  13.933  0.2223 -0.8047 -1.6884
 6291SOL    HW230510   3.722   3.099  13.887  0.0143 -0.3077  0.1864
 6292SOL     OW30511   3.247   2.874   4.019 -0.3180  0.7400  0.4276
 6292SOL    HW130512   3.272   2.782   4.008 -0.5226  0.9089 -1.5583
 6292SOL    HW230513   3.207   2.864   4.106 -0.3379  1.3875  0.4917
 6293SOL     OW30514   1.669   2.428  12.427 -0.1695  0.0712  0.0733
 6293SOL    HW130515   1.753   2.417  12.382  0.5398 -1.2093  1.7157
 6293SOL    HW230516   1.604   2.460  12.365  0.6831 -2.4957 -2.1645
 6294SOL     OW30517   2.370   1.896   6.850 -0.6011  0.0382  0.3066
 6294SOL    HW130518   2.421   1.826   6.891  1.3860  1.4872  0.2663
 6294SOL    HW230519   2.279   1.878   6.876 -1.2438  1.0149 -1.2416
 6295SOL     OW30520   3.439   3.306   8.969  0.0020  0.5733 -0.3005
 6295SOL    HW130521   3.407   3.395   8.959  2.9655  1.6839 -0.1254
 6295SOL    HW230522   3.508   3.305   8.902  0.7862  1.4185  0.4972
 6296SOL     OW30523   4.669   4.143  11.685  0.1803  0.0244  0.0074
 6296SOL    HW130524   4.717   4.078  11.736 -3.2185 -2.8950 -0.5596
 6296SOL    HW230525   0.003   4.194  11.660  0.2213  0.8282  1.7852
 6297SOL     OW30526   0.848   0.657   3.548 -0.1060 -0.4898  0.3960
 6297SOL    HW130527   0.758   0.687   3.542  0.5898  1.7078  1.0367
 6297SOL    HW230528   0.873   0.685   3.460 -2.2246  0.6446  0.1802
 6298SOL     OW30529   1.968   1.639   7.788 -0.1965 -0.2330 -0.8261
 6298SOL    HW130530   1.913   1.717   7.779  0.7889  0.9081  3.1189
 6298SOL    HW230531   2.028   1.673   7.854 -0.7694  1.0994 -0.9892
 6299SOL     OW30532   4.583   2.859   3.833  0.1307  0.0971  0.6743
 6299SOL    HW130533   4.624   2.933   3.788 -0.6984 -0.3908 -0.8851
 6299SOL    HW230534   4.661   2.811   3.860 -0.6289  0.2771  3.1865
 6300SOL     OW30535   3.563   1.951  14.013 -0.4254  0.3612  0.6378
 6300SOL    HW130536   3.581   2.024  14.072  1.3998 -1.0768  1.8776
 6300SOL    HW230537   3.469   1.963  14.002  0.2776  2.6000 -2.7181
 6301SOL     OW30538   3.520   1.907   9.440  0.6416 -0.1736  0.4517
 6301SOL    HW130539   3.568   1.829   9.411  1.2012  0.6714 -0.9427
 6301SOL    HW230540   3.545   1.909   9.532  0.0418 -2.8384  0.6741
 6302SOL     OW30541   4.498   3.513   4.153 -0.4099 -0.1984 -0.1259
 6302SOL    HW130542   4.576   3.521   4.099 -1.7838 -0.7880 -2.2205
 6302SOL    HW230543   4.450   3.596   4.145 -1.3725 -0.6747  0.7556
 6303SOL     OW30544   0.273   3.212   3.870 -0.5438 -0.6002  0.4164
 6303SOL    HW130545   0.187   3.171   3.879 -1.1092 -0.0716 -2.6361
 6303SOL    HW230546   0.274   3.266   3.949 -0.8052  0.1932 -0.1248
 6304SOL     OW30547   1.108   3.281  10.757 -0.2379 -0.5147 -0.3699
 6304SOL    HW130548   1.052   3.300  10.681  0.4754 -0.2866 -0.8412
 6304SOL    HW230549   1.139   3.192  10.738  0.3642 -0.0154 -1.7589
 6305SOL     OW30550   0.171   2.799   3.236  0.4020  0.7741 -0.5275
 6305SOL    HW130551   0.146   2.782   3.327  1.9297  0.6474 -0.1329
 6305SOL    HW230552   0.159   2.711   3.200  2.0034  0.2220  0.2958
 6306SOL     OW30553   1.613   0.364   5.776 -0.2172  0.0042 -0.6035
 6306SOL    HW130554   1.539   0.303   5.775 -0.8780  0.7777  1.7405
 6306SOL    HW230555   1.693   0.313   5.764  0.0596  0.1363  0.7560
 6307SOL     OW30556   3.099   3.119   3.654  0.1383 -0.4628 -0.0614
 6307SOL    HW130557   3.190   3.121   3.682  0.0767 -0.2060  0.1202
 6307SOL    HW230558   3.090   3.214   3.643  0.0502 -0.6860 -1.8940
 6308SOL     OW30559   2.284   3.941   0.046 -0.1787 -0.6022  0.1388
 6308SOL    HW130560   2.281   4.036   0.036 -0.0280 -0.8248 -1.9033
 6308SOL    HW230561   2.234   3.904  17.741  1.6618 -0.4963 -1.1837
 6309SOL     OW30562   0.624   3.489   3.579  0.3981  0.8190  0.0630
 6309SOL    HW130563   0.534   3.459   3.589 -0.0095  1.9734 -0.1956
 6309SOL    HW230564   0.615   3.578   3.544  2.9319  0.9993 -0.1222
 6310SOL     OW30565   3.567   1.480   6.391 -0.0388 -0.2026 -0.3620
 6310SOL    HW130566   3.553   1.491   6.486  0.6967  2.1971 -0.5299
 6310SOL    HW230567   3.632   1.410   6.400  1.5066  1.3253  0.6482
 6311SOL     OW30568   0.451   2.138   7.518 -0.2381  0.2638 -0.3379
 6311SOL    HW130569   0.508   2.213   7.538 -1.5248  1.7128 -2.1037
 6311SOL    HW230570   0.471   2.129   7.424  0.0647 -0.6711 -0.1822
 6312SOL     OW30571   4.681   4.543  11.382 -0.3951  0.3367  0.3285
 6312SOL    HW130572   4.672   4.553  11.287 -0.3963  0.2843  0.3231
 6312SOL    HW230573   0.033   4.547  11.394 -0.4986  0.1430  1.1997
 6313SOL     OW30574   1.524   4.707   6.654  0.8666 -0.2126 -0.0604
 6313SOL    HW130575   1.454   4.712   6.589  1.1080 -1.0031 -0.3808
 6313SOL    HW230576   1.501   4.624   6.695 -0.3915  0.7769  1.2127
 6314SOL     OW30577   2.218   2.155   2.515  0.2900  0.1600 -0.2410
 6314SOL    HW130578   2.261   2.237   2.490  0.2590  0.6953  1.4770
 6314SOL    HW230579   2.266   2.088   2.467 -3.2862 -1.1019 -2.1309
 6315SOL     OW30580   0.634   3.015   4.650  0.4241 -0.1709  0.7201
 6315SOL    HW130581   0.680   3.060   4.721 -0.5097  0.4703  0.9240
 6315SOL    HW230582   0.562   3.076   4.634  0.5400 -0.5666 -1.3542
 6316SOL     OW30583   4.454   2.454   3.871 -0.3032  0.0433  0.4274
 6316SOL    HW130584   4.540   2.417   3.890 -0.5618 -1.6100 -1.5717
 6316SOL    HW230585   4.459   2.451   3.776  2.9382 -2.8590  0.6839
 6317SOL     OW30586   0.522   1.995   6.691  0.1923 -0.1049  0.1280
 6317SOL    HW130587   0.494   1.924   6.633 -0.6112  0.5357 -0.2687
 6317SOL    HW230588   0.448   2.009   6.750 -0.6645 -1.1367 -0.7033
 6318SOL     OW30589   4.374   0.677   7.610 -0.1324  0.2501  0.1559
 6318SOL    HW130590   4.443   0.728   7.569 -0.3898  0.8296  0.4427
 6318SOL    HW230591   4.316   0.748   7.638 -3.1159 -2.3522  0.6347
 6319SOL     OW30592   1.923   3.587  10.773  0.4395 -0.5478 -0.6497
 6319SOL    HW130593   1.894   3.523  10.838  1.3664 -0.0086  0.2808
 6319SOL    HW230594   1.987   3.643  10.817 -1.5877  1.1443  0.1297
 6320SOL     OW30595   3.786   2.727   5.438  0.1065  0.6511  0.1749
 6320SOL    HW130596   3.792   2.731   5.343 -2.5782 -3.1051 -0.1736
 6320SOL    HW230597   3.716   2.661   5.447 -0.3690  1.0209 -0.8333
 6321SOL     OW30598   0.955   2.560  12.671  0.2032  0.3196  0.4908
 6321SOL    HW130599   1.013   2.587  12.599 -1.9279  1.8896 -0.6366
 6321SOL    HW230600   1.009   2.492  12.711 -1.4545 -0.7288  0.9159
 6322SOL     OW30601   0.576   0.675   3.475  0.2331 -0.1340 -0.1948
 6322SOL    HW130602   0.487   0.652   3.500 -0.3446  2.0887 -0.2110
 6322SOL    HW230603   0.562   0.746   3.412  1.9816 -0.4314 -0.9110
 6323SOL     OW30604   1.321   3.731  17.154  0.7098 -0.1510  0.4510
 6323SOL    HW130605   1.336   3.795  17.224 -0.8551 -0.7948  1.3764
 6323SOL    HW230606   1.292   3.792  17.086  0.0498 -0.6036  0.3274
 6324SOL     OW30607   2.463   3.718   7.889  0.3843 -0.3150 -0.3192
 6324SOL    HW130608   2.500   3.760   7.966  1.0520 -2.3300  0.4640
 6324SOL    HW230609   2.372   3.726   7.917 -0.3313 -3.1453 -1.8594
 6325SOL     OW30610   0.684   3.342   2.868 -0.4084 -0.5590  0.2133
 6325SOL    HW130611   0.720   3.255   2.884  2.2862  0.3754 -0.6957
 6325SOL    HW230612   0.740   3.356   2.791  0.0353  4.0282  1.3504
 6326SOL     OW30613   1.974   0.013   3.611 -0.1893  0.1983 -0.1800
 6326SOL    HW130614   1.943   0.036   3.523  0.7154  0.7156 -0.3636
 6326SOL    HW230615   1.951   0.087   3.668  0.4737  0.8656 -0.7745
 6327SOL     OW30616   1.879   3.819   8.249 -0.0447 -0.0539 -0.1463
 6327SOL    HW130617   1.868   3.855   8.161  0.6267  2.2757  0.7197
 6327SOL    HW230618   1.921   3.736   8.229 -2.6668 -1.0033 -1.6998
 6328SOL     OW30619   0.424   3.729   5.688  0.3633  0.0061  0.0133
 6328SOL    HW130620   0.382   3.815   5.692  0.5651  0.0646  0.8040
 6328SOL    HW230621   0.471   3.711   5.769  2.7894  3.1425 -0.7269
 6329SOL     OW30622   2.580   2.739   5.851 -0.4554  0.1048  0.4716
 6329SOL    HW130623   2.665   2.758   5.891  0.9444 -2.5074 -1.2597
 6329SOL    HW230624   2.523   2.716   5.924 -1.4395  0.5417 -0.1618
 6330SOL     OW30625   3.723   1.236  12.456 -0.1145  0.3927 -0.5375
 6330SOL    HW130626   3.705   1.152  12.413  0.2123 -0.3599  0.7965
 6330SOL    HW230627   3.748   1.290  12.381  2.5926  1.5202  1.2183
 6331SOL     OW30628   4.631   0.936   1.200  0.0534 -0.2001  0.4268
 6331SOL    HW130629   4.589   0.898   1.122  0.3413 -1.8361  1.0770
 6331SOL    HW230630   4.686   1.001   1.158  0.2748 -0.8803 -0.3412
 6332SOL     OW30631   2.575   3.085   6.077 -0.3588 -0.7889  0.0090
 6332SOL    HW130632   2.563   3.022   6.148 -2.9434  1.2521  1.3776
 6332SOL    HW230633   2.482   3.088   6.054 -0.2041  0.8959 -0.4248
 6333SOL     OW30634   4.424   0.219   7.568 -0.1377  0.1419 -0.1097
 6333SOL    HW130635   4.373   0.229   7.488  0.9659 -0.2706 -0.8711
 6333SOL    HW230636   4.506   0.183   7.535 -0.2154 -0.2807  0.1577
 6334SOL     OW30637   3.724   3.202   6.025  0.0703 -0.1217 -0.4389
 6334SOL    HW130638   3.711   3.283   6.074  2.5853 -0.3148  0.5461
 6334SOL    HW230639   3.807   3.223   5.981  0.2525 -1.1004 -0.5619
 6335SOL     OW30640   0.821   1.929  14.899 -0.5234  0.2106 -0.0696
 6335SOL    HW130641   0.824   1.992  14.971  0.7464 -0.2528  0.2952
 6335SOL    HW230642   0.752   1.965  14.843  0.0301  2.9172  0.9802
 6336SOL     OW30643   2.535   0.553  16.604 -0.2777  0.3316 -0.0487
 6336SOL    HW130644   2.553   0.617  16.534  0.1542 -0.2595 -0.4734
 6336SOL    HW230645   2.512   0.613  16.675  0.7575  2.7646 -1.7678
 6337SOL     OW30646   3.759   1.784   7.863  0.2007  0.4084  0.5663
 6337SOL    HW130647   3.796   1.699   7.838  0.4114  0.0710  1.9996
 6337SOL    HW230648   3.818   1.845   7.820 -1.4926  0.4065 -1.7582
 6338SOL     OW30649   1.420   0.365   9.830 -0.1673 -0.0994  0.5127
 6338SOL    HW130650   1.405   0.448   9.783 -1.9748 -0.0104  1.2723
 6338SOL    HW230651   1.485   0.404   9.889  0.1145  0.6283 -0.2564
 6339SOL     OW30652   1.125   1.083  10.133 -0.0150 -0.2066  0.0776
 6339SOL    HW130653   1.061   1.141  10.091  1.1658  1.7239  0.9606
 6339SOL    HW230654   1.182   1.147  10.176  0.0244 -0.5894  0.5970
 6340SOL     OW30655   1.895   1.666   3.587 -0.2543  0.3546  0.7571
 6340SOL    HW130656   1.855   1.579   3.580 -0.6447  0.6565 -0.6762
 6340SOL    HW230657   1.831   1.706   3.645  0.5988  2.0430  0.5321
 6341SOL     OW30658   4.400   2.783  10.688 -0.0605 -0.4417 -0.6324
 6341SOL    HW130659   4.349   2.784  10.607 -2.5484  1.1354  0.9636
 6341SOL    HW230660   4.347   2.721  10.738 -1.0437  1.9507  1.3067
 6342SOL     OW30661   4.299   1.714   8.947 -0.0536 -0.5851  0.7080
 6342SOL    HW130662   4.318   1.621   8.935  0.3819 -0.0197 -2.8582
 6342SOL    HW230663   4.229   1.716   9.012 -0.2737  0.9967  0.4139
 6343SOL     OW30664   2.063   4.507   3.710  1.0445 -0.6296  0.6720
 6343SOL    HW130665   2.131   4.554   3.758  0.0844 -0.0990  1.5111
 6343SOL    HW230666   2.011   4.577   3.671 -0.4476 -2.6160 -0.9238
 6344SOL     OW30667   4.449   3.635   7.833 -0.3643 -0.4016  0.6412
 6344SOL    HW130668   4.540   3.658   7.849 -0.5703 -0.5846  2.0943
 6344SOL    HW230669   4.451   3.585   7.751 -1.0063  1.1158 -0.2945
 6345SOL     OW30670   4.174   1.120   3.920  0.3880  0.0091  0.4969
 6345SOL    HW130671   4.203   1.205   3.954 -3.3496  1.5566 -0.1171
 6345SOL    HW230672   4.099   1.141   3.864  0.2685  1.2183  1.0977
 6346SOL     OW30673   0.564   3.454  16.740 -0.8059 -0.1943  0.6358
 6346SOL    HW130674   0.480   3.440  16.697 -0.6391 -0.3232  0.3441
 6346SOL    HW230675   0.616   3.380  16.706 -0.1422  0.7322 -0.3877
 6347SOL     OW30676   3.939   3.440   2.011 -0.2167  0.1888  0.1625
 6347SOL    HW130677   3.869   3.493   1.972  0.0377  2.2408  2.4534
 6347SOL    HW230678   3.911   3.441   2.103  0.0961 -0.2210  0.2627
 6348SOL     OW30679   1.880   4.739   2.228  0.0027  0.5795 -0.0279
 6348SOL    HW130680   1.852   4.648   2.232  1.6189  0.0120 -1.9613
 6348SOL    HW230681   1.962   4.731   2.179  1.6590 -1.5073  3.0103
 6349SOL     OW30682   3.949   1.663  15.196 -0.2541 -0.8317  0.4729
 6349SOL    HW130683   4.034   1.686  15.158  1.0104 -2.6930  2.1466
 6349SOL    HW230684   3.936   1.583  15.145  1.2085  0.6756 -2.2477
 6350SOL     OW30685   2.393   4.158   5.375  0.2139  0.2796  0.5113
 6350SOL    HW130686   2.449   4.097   5.326 -0.4218  0.7950 -0.8636
 6350SOL    HW230687   2.446   4.235   5.395  0.1913 -0.3459  2.9937
 6351SOL     OW30688   2.283   2.570   8.861 -0.2075  0.0686  0.2481
 6351SOL    HW130689   2.376   2.585   8.877 -0.2938  0.6918  0.1696
 6351SOL    HW230690   2.247   2.658   8.853  1.0172  0.4511 -0.9807
 6352SOL     OW30691   4.459   1.226   3.230  0.7358  0.0081 -0.4641
 6352SOL    HW130692   4.407   1.225   3.150 -0.6541  1.6548  0.4381
 6352SOL    HW230693   4.414   1.158   3.280  0.5209  1.4446  1.2714
 6353SOL     OW30694   2.785   2.916   7.534 -0.5834 -0.0625  0.5118
 6353SOL    HW130695   2.857   2.870   7.492 -1.5261 -0.4370 -0.6944
 6353SOL    HW230696   2.799   2.993   7.478 -1.9556 -0.2555 -0.0915
 6354SOL     OW30697   3.233   1.011   5.284  0.3586 -0.5013  0.4119
 6354SOL    HW130698   3.190   0.991   5.368  1.8489  2.2137  1.8150
 6354SOL    HW230699   3.251   1.104   5.295  1.7881 -0.7568  0.1454
 6355SOL     OW30700   3.936   4.074   7.730  0.4819  0.7332  0.0939
 6355SOL    HW130701   3.974   4.139   7.789  1.1512  0.1284  0.3267
 6355SOL    HW230702   4.010   4.032   7.684  0.5107  0.0635  0.7631
 6356SOL     OW30703   1.003   3.905   9.783 -0.1946  0.7263 -0.6957
 6356SOL    HW130704   1.039   3.982   9.737  3.4336  0.2769  1.4227
 6356SOL    HW230705   0.949   3.872   9.711 -3.4292 -0.1294  2.1834
 6357SOL     OW30706   2.085   4.570   7.813  0.0280 -0.5774 -0.0098
 6357SOL    HW130707   2.096   4.484   7.855  1.0378 -1.0055 -1.1318
 6357SOL    HW230708   1.996   4.568   7.779  0.2668  0.5677 -0.7126
 6358SOL     OW30709   2.629   4.078   9.605 -0.1767  0.0084 -0.1938
 6358SOL    HW130710   2.597   4.135   9.535  1.0146 -0.6441 -1.2745
 6358SOL    HW230711   2.673   4.013   9.551  0.1121 -1.3499  1.6906
 6359SOL     OW30712   0.218   3.707   8.383 -0.0360  0.1875 -0.4307
 6359SOL    HW130713   0.168   3.631   8.355 -0.0907  0.0086  0.1560
 6359SOL    HW230714   0.242   3.668   8.467  0.1154 -0.1547 -0.6324
 6360SOL     OW30715   0.607   3.518   5.009 -0.2746 -0.2689  0.9190
 6360SOL    HW130716   0.687   3.570   5.003 -0.2532 -0.6422 -1.9273
 6360SOL    HW230717   0.587   3.499   4.918  0.2559 -0.6455  0.8800
 6361SOL     OW30718   3.929   1.879  11.411 -0.2300 -0.4249  0.6089
 6361SOL    HW130719   3.950   1.848  11.324  0.2959  0.6726  0.3396
 6361SOL    HW230720   3.833   1.882  11.408 -0.2991  0.5034  3.4758
 6362SOL     OW30721   4.256   0.006   3.001  0.4553  0.5521  0.0495
 6362SOL    HW130722   4.174   4.704   2.978  0.4906 -1.4438  3.7322
 6362SOL    HW230723   4.282   0.057   2.924  1.1134 -3.2150 -2.1930
 6363SOL     OW30724   2.125   2.429   2.301  0.0021 -0.2981 -0.5323
 6363SOL    HW130725   2.121   2.514   2.257  0.6683  0.8801  1.6764
 6363SOL    HW230726   2.157   2.371   2.231  0.3455  0.3945 -0.9436
 6364SOL     OW30727   3.163   1.052   6.350  0.2082 -0.6493 -0.3383
 6364SOL    HW130728   3.157   0.977   6.291 -1.4339 -0.5681 -0.2844
 6364SOL    HW230729   3.070   1.062   6.371  0.4967  1.3916  0.0384
 6365SOL     OW30730   0.944   4.650  17.659  0.0179 -0.6364 -0.3580
 6365SOL    HW130731   0.953   4.701  17.740  0.7350 -1.6719  0.2291
 6365SOL    HW230732   0.856   4.678  17.637  0.7187  1.6001 -0.2903
 6366SOL     OW30733   0.166   0.062   2.614 -0.4158  0.2538 -0.3286
 6366SOL    HW130734   0.257   0.090   2.615 -0.0984 -0.8731  1.3675
 6366SOL    HW230735   0.166   4.730   2.673 -0.1379  0.8391  0.4086
 6367SOL     OW30736   4.046   2.165   6.275  0.3680  0.6229 -0.1892
 6367SOL    HW130737   4.015   2.187   6.362  2.2247  3.7054 -0.2822
 6367SOL    HW230738   4.126   2.217   6.266  0.2129  0.5163 -2.2743
 6368SOL     OW30739   1.649   2.063  12.315 -0.1900 -0.2849  0.1080
 6368SOL    HW130740   1.654   2.153  12.284  2.1879 -0.8184 -1.0309
 6368SOL    HW230741   1.561   2.041  12.285  0.0445 -0.2512 -0.5887
 6369SOL     OW30742   1.470   4.533  17.016  0.2455  0.2552  0.0296
 6369SOL    HW130743   1.411   4.533  16.941 -0.2865 -0.1862  0.4425
 6369SOL    HW230744   1.467   4.626  17.038  1.5391 -0.1899  2.0914
 6370SOL     OW30745   0.046   2.673   8.074  0.4712  0.8580 -0.2018
 6370SOL    HW130746   0.033   2.592   8.122  0.2642  1.6393  1.0537
 6370SOL    HW230747   0.051   2.632   7.988 -2.3081  0.9896 -0.4198
 6371SOL     OW30748   2.371   1.823  10.542 -0.0156 -0.1375 -0.1276
 6371SOL    HW130749   2.309   1.860  10.606 -2.2217  1.6807 -3.3514
 6371SOL    HW230750   2.451   1.827  10.595  0.6697 -0.5432 -1.1480
 6372SOL     OW30751   4.301   2.880   4.581  0.5881  0.0356 -0.4930
 6372SOL    HW130752   4.252   2.904   4.503 -0.1727 -0.5443 -0.2002
 6372SOL    HW230753   4.321   2.966   4.617 -0.1778  0.5364 -1.2762
 6373SOL     OW30754   4.211   1.763  11.721  0.5941 -0.2565  0.3441
 6373SOL    HW130755   4.246   1.828  11.782  0.4543  1.7938 -1.7148
 6373SOL    HW230756   4.127   1.747  11.763  0.3908  1.2754  0.5253
 6374SOL     OW30757   0.585   4.223  11.951 -0.2671 -0.3871  0.2482
 6374SOL    HW130758   0.624   4.141  11.983  0.5110  0.1480  0.6688
 6374SOL    HW230759   0.600   4.226  11.856 -0.4626  0.7089  0.2504
 6375SOL     OW30760   2.707   4.254   1.527 -0.0924  0.3998 -0.0470
 6375SOL    HW130761   2.628   4.294   1.563  0.7052  0.4498  1.6554
 6375SOL    HW230762   2.731   4.191   1.595  1.4974  1.8376  0.7096
 6376SOL     OW30763   3.701   1.769   4.165 -0.1472  0.6978  0.2593
 6376SOL    HW130764   3.664   1.857   4.176 -1.4539  0.2376 -0.5617
 6376SOL    HW230765   3.653   1.734   4.090 -0.0852 -1.2686  1.1329
 6377SOL     OW30766   0.266   3.136  17.381  0.3221  0.6412 -0.0042
 6377SOL    HW130767   0.195   3.081  17.348 -0.3397 -0.6313  3.5600
 6377SOL    HW230768   0.262   3.117  17.475  0.2648  2.9640  0.4730
 6378SOL     OW30769   2.119   2.391   7.285  0.1526 -0.1522 -0.0088
 6378SOL    HW130770   2.067   2.471   7.275 -1.1035 -1.1842 -1.8392
 6378SOL    HW230771   2.061   2.350   7.350 -0.2213 -2.1770 -1.6350
 6379SOL     OW30772   0.558   0.061   3.174 -0.0197 -0.2304 -0.5015
 6379SOL    HW130773   0.500   0.019   3.110 -0.6452 -1.8781  1.1714
 6379SOL    HW230774   0.576   4.736   3.239  0.7944 -0.4657 -0.9640
 6380SOL     OW30775   2.485   3.944   4.654  0.0257  0.0873 -0.1089
 6380SOL    HW130776   2.524   3.872   4.703  0.9430 -0.0306 -1.0108
 6380SOL    HW230777   2.444   3.985   4.730 -0.3565 -0.9861  0.2681
 6381SOL     OW30778   1.201   1.566   2.803  0.3643  0.4280 -0.4089
 6381SOL    HW130779   1.291   1.533   2.814  0.3678  0.1921 -1.1444
 6381SOL    HW230780   1.217   1.659   2.818 -0.8502  0.3850  1.1397
 6382SOL     OW30781   3.398   1.404  17.230  0.3859  0.1505 -0.6411
 6382SOL    HW130782   3.482   1.365  17.206  0.3345  0.1505 -0.8250
 6382SOL    HW230783   3.337   1.337  17.201  1.0225 -0.0900 -1.4366
 6383SOL     OW30784   3.887   3.819  17.435  0.2653  0.1597 -0.2589
 6383SOL    HW130785   3.978   3.849  17.434  0.7504 -1.2700  0.4720
 6383SOL    HW230786   3.894   3.724  17.431 -2.8816 -0.1303  1.0088
 6384SOL     OW30787   4.222   4.439   3.355  0.0359  0.0517  0.0666
 6384SOL    HW130788   4.164   4.411   3.425 -0.3354 -2.3706 -1.2105
 6384SOL    HW230789   4.194   4.526   3.328 -1.2582 -0.3900 -0.0254
 6385SOL     OW30790   1.843   3.556   5.356 -0.7670 -0.2276  0.9603
 6385SOL    HW130791   1.781   3.494   5.318 -0.6687 -0.2477  0.8309
 6385SOL    HW230792   1.874   3.598   5.276 -0.8357 -0.4513  0.8169
 6386SOL     OW30793   3.613   4.230   2.570 -0.1586  0.0254  0.3743
 6386SOL    HW130794   3.642   4.179   2.494  0.1643  0.9848 -0.1541
 6386SOL    HW230795   3.526   4.263   2.546 -1.2839 -1.9104  1.8607
 6387SOL     OW30796   3.284   2.719  14.914 -0.1778  0.3261 -0.0867
 6387SOL    HW130797   3.195   2.736  14.946  1.7839  2.0317  4.4446
 6387SOL    HW230798   3.253   2.667  14.840  3.0043  1.2916 -2.0940
 6388SOL     OW30799   1.883   3.928   5.733 -0.2512  0.2744 -0.4484
 6388SOL    HW130800   1.875   3.926   5.637 -0.7011 -2.9399 -0.3272
 6388SOL    HW230801   1.924   3.844   5.752  0.6518  0.4853 -1.4285
 6389SOL     OW30802   3.686   3.267  11.382  0.0480  0.0771 -0.0073
 6389SOL    HW130803   3.695   3.353  11.340  0.2139 -0.4236 -0.9809
 6389SOL    HW230804   3.759   3.260  11.444  0.1124 -2.8318 -0.4443
 6390SOL     OW30805   1.107   0.678   4.117 -0.5471  0.4914  0.0304
 6390SOL    HW130806   1.108   0.684   4.212 -2.3222 -0.2158  0.1130
 6390SOL    HW230807   1.153   0.761   4.107 -0.8786  0.7179  0.3638
 6391SOL     OW30808   4.192   4.144  13.302  0.1815  0.2521  0.8042
 6391SOL    HW130809   4.104   4.162  13.269 -0.3153 -1.5875  1.1417
 6391SOL    HW230810   4.208   4.050  13.296 -0.9911  0.0485  0.9886
 6392SOL     OW30811   3.111   3.639   2.414 -0.2155 -0.3172  0.3563
 6392SOL    HW130812   3.074   3.555   2.441  0.4207 -0.5380  0.5428
 6392SOL    HW230813   3.040   3.699   2.436 -1.3816 -1.4723 -0.2824
 6393SOL     OW30814   4.183   2.953   7.092  0.1570 -0.3122 -0.4645
 6393SOL    HW130815   4.143   2.971   7.007  1.5537  0.8066 -0.8877
 6393SOL    HW230816   4.252   3.020   7.095 -0.3869  0.1924  0.7429
 6394SOL     OW30817   3.764   4.278   7.234  0.5494 -0.3226  0.2641
 6394SOL    HW130818   3.766   4.275   7.330  3.2357 -0.2940  0.2044
 6394SOL    HW230819   3.825   4.207   7.217 -2.2964 -1.9398 -3.2972
 6395SOL     OW30820   3.201   2.460  11.891  0.3029 -0.6259  0.4298
 6395SOL    HW130821   3.207   2.379  11.942 -0.6517  0.4991  2.3290
 6395SOL    HW230822   3.283   2.453  11.842  0.7973  2.1042  0.9072
 6396SOL     OW30823   3.270   1.132   2.296 -0.8834  0.8433 -0.1082
 6396SOL    HW130824   3.209   1.075   2.250  2.5557 -3.5232  0.7266
 6396SOL    HW230825   3.239   1.136   2.386  0.6565 -0.2187  0.4829
 6397SOL     OW30826   2.765   1.554   1.880 -0.2040  0.3430 -0.2601
 6397SOL    HW130827   2.708   1.617   1.924  3.2280  2.4096  1.1413
 6397SOL    HW230828   2.713   1.535   1.802  1.5208 -0.3438 -1.2322
 6398SOL     OW30829   3.534   3.871   8.097 -0.1543 -0.1223  0.0290
 6398SOL    HW130830   3.458   3.851   8.042  0.6191 -0.5558 -0.8777
 6398SOL    HW230831   3.537   3.965   8.081 -0.4916 -0.2561 -0.8047
 6399SOL     OW30832   2.667   0.910  16.267  0.3941  0.2780  0.6052
 6399SOL    HW130833   2.759   0.884  16.255  0.7776  1.8628  0.1203
 6399SOL    HW230834   2.677   1.003  16.287  0.8273  0.9726 -2.8347
 6400SOL     OW30835   3.583   2.419   7.121 -0.8337  0.2050  0.4145
 6400SOL    HW130836   3.531   2.424   7.040 -2.3502  2.3526  1.5158
 6400SOL    HW230837   3.520   2.415   7.192 -2.5031  1.2973 -1.0037
 6401SOL     OW30838   1.983   3.805   1.059  0.2470  0.0213  0.1381
 6401SOL    HW130839   1.953   3.874   1.119 -0.0314  0.1237 -0.1219
 6401SOL    HW230840   1.933   3.724   1.075  0.9688 -0.8942 -2.2793
 6402SOL     OW30841   3.447   1.148   2.923 -0.4155  0.5141  0.0044
 6402SOL    HW130842   3.542   1.156   2.934 -0.3194 -0.2957 -0.2663
 6402SOL    HW230843   3.432   1.054   2.927  1.3353  0.1794 -1.7003
 6403SOL     OW30844   1.734   3.940   7.752  0.2519 -0.2608  0.3483
 6403SOL    HW130845   1.728   3.915   7.660 -0.9280  1.3345 -0.0166
 6403SOL    HW230846   1.670   4.012   7.747  0.1613 -0.2697  1.2348
 6404SOL     OW30847   1.370   2.406   5.122  0.6251 -0.8152  0.4674
 6404SOL    HW130848   1.317   2.485   5.117 -0.6243 -1.6964 -0.4524
 6404SOL    HW230849   1.345   2.378   5.210  0.0840  0.9652  0.8799
 6405SOL     OW30850   2.452   4.242   8.945 -0.1383 -0.5082  0.1745
 6405SOL    HW130851   2.362   4.272   8.955  0.1391 -0.4990  2.5490
 6405SOL    HW230852   2.445   4.196   8.861  0.4334 -0.9298  0.3529
 6406SOL     OW30853   3.233   2.378   4.920  0.2592  0.6111  0.3848
 6406SOL    HW130854   3.247   2.305   4.860  0.2841  2.0749 -1.3753
 6406SOL    HW230855   3.184   2.334   4.990 -0.8728 -1.8187 -1.9263
 6407SOL     OW30856   1.985   3.160   8.070 -0.0564 -0.8846  0.1201
 6407SOL    HW130857   2.058   3.220   8.052 -3.5096  3.3050 -0.0450
 6407SOL    HW230858   2.022   3.073   8.060 -0.0478 -0.7213 -1.2601
 6408SOL     OW30859   3.725   4.072  17.658  0.0196 -0.2121 -0.6558
 6408SOL    HW130860   3.687   3.988  17.632 -2.3812  0.6038  0.2580
 6408SOL    HW230861   3.817   4.049  17.668  0.3274  0.9161 -0.8779
 6409SOL     OW30862   2.569   3.971   4.350 -0.1997 -0.1591 -0.0270
 6409SOL    HW130863   2.562   3.938   4.440  0.0848  0.9782  0.4188
 6409SOL    HW230864   2.535   4.059   4.369 -1.4675 -0.6898  0.1676
 6410SOL     OW30865   3.643   3.284   7.132 -0.6733  0.0304 -0.2760
 6410SOL    HW130866   3.648   3.372   7.170 -0.2616  0.1905 -0.6989
 6410SOL    HW230867   3.615   3.315   7.046  1.0763  0.0610 -0.8504
 6411SOL     OW30868   1.990   3.514  17.018 -0.3099 -0.0203 -0.6589
 6411SOL    HW130869   2.059   3.547  16.959 -0.9749  0.7139 -1.0258
 6411SOL    HW230870   2.022   3.556  17.097  0.7878 -0.1432 -1.0342
 6412SOL     OW30871   0.166   3.546  14.851  0.3235  0.1316 -0.8078
 6412SOL    HW130872   0.163   3.636  14.883 -3.1099 -0.3766  0.3242
 6412SOL    HW230873   0.246   3.539  14.799  2.8360 -1.6697  3.3282
 6413SOL     OW30874   4.118   3.194   2.562  0.1072  0.4719 -0.7867
 6413SOL    HW130875   4.112   3.107   2.524  0.0381 -0.2220  0.8115
 6413SOL    HW230876   4.098   3.182   2.655  2.2891 -0.3922 -0.4445
 6414SOL     OW30877   3.233   4.708   2.893 -0.0760 -0.4891 -0.7673
 6414SOL    HW130878   3.264   4.698   2.982  0.0131  1.5120 -0.5883
 6414SOL    HW230879   3.258   4.620   2.864 -1.7248 -1.5290  0.9816
 6415SOL     OW30880   0.368   3.592  10.694 -0.4238 -0.1971 -0.3539
 6415SOL    HW130881   0.300   3.658  10.682 -0.0661  0.0978 -0.7232
 6415SOL    HW230882   0.372   3.582  10.789  2.6511  0.7949 -0.3885
 6416SOL     OW30883   1.216   0.081  17.305  0.2477  0.0719  0.8727
 6416SOL    HW130884   1.273   0.005  17.319 -0.3656 -0.2419  1.6503
 6416SOL    HW230885   1.156   0.084  17.379 -0.2767  1.0023  0.4048
 6417SOL     OW30886   2.690   2.623   4.753  0.5313 -0.0695  0.2869
 6417SOL    HW130887   2.767   2.582   4.714  1.8991  1.2984  1.5287
 6417SOL    HW230888   2.630   2.608   4.680 -1.1712 -0.1796  1.7280
 6418SOL     OW30889   1.114   1.817   5.731 -0.3420 -0.2375  0.2229
 6418SOL    HW130890   1.207   1.841   5.733 -0.1360 -0.9616 -1.3614
 6418SOL    HW230891   1.081   1.867   5.657  0.4498 -0.2106 -0.1101
 6419SOL     OW30892   2.408   2.312   2.902  0.3442 -0.5012 -0.6618
 6419SOL    HW130893   2.351   2.344   2.972  1.0348 -1.7771  0.4831
 6419SOL    HW230894   2.412   2.218   2.921 -1.7432 -0.4050  0.2293
 6420SOL     OW30895   3.367   3.074  13.796  0.4978 -0.2414 -0.1766
 6420SOL    HW130896   3.403   3.037  13.877 -0.0480 -1.8049 -0.6452
 6420SOL    HW230897   3.279   3.037  13.792  0.0391  0.6648  1.2892
 6421SOL     OW30898   4.554   2.525  12.154 -0.5671  0.0047 -0.1955
 6421SOL    HW130899   4.535   2.548  12.244 -2.5294 -1.0842 -0.3137
 6421SOL    HW230900   4.461   2.512  12.131 -0.9950  1.0123  0.9813
 6422SOL     OW30901   1.367   2.441   4.662  0.1777  0.2343  0.1291
 6422SOL    HW130902   1.458   2.453   4.635 -0.6600 -0.3402 -2.9656
 6422SOL    HW230903   1.381   2.377   4.732 -3.3765 -0.8677 -0.1537
 6423SOL     OW30904   3.715   0.120   0.040  0.2333 -0.8228 -0.5151
 6423SOL    HW130905   3.748   0.146  17.722  0.4648  0.0992 -0.1479
 6423SOL    HW230906   3.634   0.078   0.009  0.0571  0.2183 -1.5040
 6424SOL     OW30907   3.504   0.956  14.791  0.1923  0.5210  0.3407
 6424SOL    HW130908   3.591   0.990  14.770 -0.3333  2.9225  1.9643
 6424SOL    HW230909   3.452   1.035  14.777  1.9434  1.7952  1.0799
 6425SOL     OW30910   2.362   0.969   8.182  0.1388 -0.2438  0.0248
 6425SOL    HW130911   2.455   0.951   8.172  0.5162  2.0673 -0.4980
 6425SOL    HW230912   2.348   0.894   8.240 -1.5120  0.4739  0.5659
 6426SOL     OW30913   3.385   2.226  11.198 -0.6061  0.1364 -0.0857
 6426SOL    HW130914   3.356   2.140  11.228  2.8767 -1.5254 -1.4066
 6426SOL    HW230915   3.301   2.266  11.176  0.6116  2.7260 -0.0006
 6427SOL     OW30916   1.725   2.368   9.623  0.7587 -0.0443  0.4060
 6427SOL    HW130917   1.650   2.412   9.662 -0.0893 -0.5878 -0.5985
 6427SOL    HW230918   1.753   2.320   9.701  1.6763 -2.9862 -1.7191
 6428SOL     OW30919   0.056   1.628   2.713  0.3863 -0.0125  0.4329
 6428SOL    HW130920   0.053   1.564   2.641  0.8145  1.1353 -0.5898
 6428SOL    HW230921   0.008   1.584   2.783 -1.4978  2.0604  0.4289
 6429SOL     OW30922   2.544   1.708   6.953  0.4546  0.3463 -0.3164
 6429SOL    HW130923   2.557   1.616   6.975 -1.8444 -0.1528 -1.0431
 6429SOL    HW230924   2.595   1.742   7.026  0.8220 -0.7627 -0.0520
 6430SOL     OW30925   3.834   4.511   3.841 -0.3943  0.1974  0.6463
 6430SOL    HW130926   3.790   4.426   3.839 -0.4917  0.3140 -1.6098
 6430SOL    HW230927   3.871   4.508   3.929  0.0067 -0.6418  0.4442
 6431SOL     OW30928   2.811   1.475  10.459 -0.1514  0.5054  0.0458
 6431SOL    HW130929   2.763   1.553  10.484 -2.0172 -0.8689  0.7491
 6431SOL    HW230930   2.891   1.490  10.511  1.6308 -0.0882 -2.5183
 6432SOL     OW30931   1.967   1.270   5.545  0.1041  0.1732 -0.2002
 6432SOL    HW130932   1.943   1.264   5.637  0.9252  1.4380  0.1018
 6432SOL    HW230933   1.934   1.187   5.512 -0.1099 -0.0283  0.5245
 6433SOL     OW30934   2.953   2.575   9.330 -0.2538  0.5928 -0.2373
 6433SOL    HW130935   2.922   2.659   9.365  0.3974  1.0958 -0.8877
 6433SOL    HW230936   3.018   2.614   9.272  1.3142 -3.0346 -0.9616
 6434SOL     OW30937   4.673   0.221   3.597  0.4900 -0.7095 -0.0079
 6434SOL    HW130938   0.005   0.236   3.538  0.4754  0.7884  0.3386
 6434SOL    HW230939   4.597   0.235   3.541  2.4533  0.9745 -2.2888
 6435SOL     OW30940   1.491   1.170  16.629 -0.1437  0.0310  0.0306
 6435SOL    HW130941   1.545   1.191  16.553  1.3329 -1.3101  0.7171
 6435SOL    HW230942   1.455   1.085  16.605  0.2641  0.1131 -0.8948
 6436SOL     OW30943   2.441   2.631   7.993  0.2964  0.0706  0.0127
 6436SOL    HW130944   2.401   2.584   8.066  2.6025  0.6336  1.6477
 6436SOL    HW230945   2.520   2.652   8.042  1.2698 -1.8676 -0.7564
 6437SOL     OW30946   2.367   3.791   5.384 -0.3916 -0.0234 -0.1663
 6437SOL    HW130947   2.424   3.855   5.341 -0.0874 -0.7427 -0.8362
 6437SOL    HW230948   2.433   3.740   5.432 -1.4162  0.7258  2.0195
 6438SOL     OW30949   4.338   0.820   5.966  0.2809  0.0672 -0.0189
 6438SOL    HW130950   4.411   0.866   6.006  1.1519 -1.0194 -0.3557
 6438SOL    HW230951   4.389   0.752   5.922  1.0400 -0.0397  1.0260
 6439SOL     OW30952   1.008   2.062   5.541  0.1398 -0.4539  0.4742
 6439SOL    HW130953   1.006   2.130   5.474  1.8460  0.2003  1.0850
 6439SOL    HW230954   0.963   1.988   5.501 -0.7834  1.1380 -1.4359
 6440SOL     OW30955   1.371   0.680   2.090  0.1150 -0.2477 -0.1973
 6440SOL    HW130956   1.441   0.692   2.026  2.2422 -2.0233  1.7878
 6440SOL    HW230957   1.315   0.755   2.069  1.0203 -0.1573 -2.2755
 6441SOL     OW30958   2.466   3.530   7.115  0.0387 -0.0701  0.3825
 6441SOL    HW130959   2.438   3.585   7.188  1.1332  0.3247  0.4994
 6441SOL    HW230960   2.478   3.590   7.040  1.8684  0.7901  1.3735
 6442SOL     OW30961   0.531   3.281   4.630 -0.0489  0.7028  0.1293
 6442SOL    HW130962   0.544   3.273   4.535 -0.5350 -2.0174  0.3081
 6442SOL    HW230963   0.541   3.376   4.635  3.5927  0.5625 -4.3878
 6443SOL     OW30964   4.632   2.473  16.546  0.1160 -0.0456  0.2562
 6443SOL    HW130965   4.698   2.504  16.608  1.0546 -1.0306 -0.2468
 6443SOL    HW230966   4.590   2.554  16.516  1.2898  0.9438  1.2903
 6444SOL     OW30967   1.725   3.720  16.216  0.2971  0.0478  0.8766
 6444SOL    HW130968   1.747   3.670  16.295  1.5340 -2.6356 -1.1783
 6444SOL    HW230969   1.707   3.811  16.241  3.1605  0.1681  2.4522
 6445SOL     OW30970   0.455   0.972   8.429 -0.1376  0.1900 -0.7806
 6445SOL    HW130971   0.392   1.021   8.482  1.3842 -0.6269  1.7214
 6445SOL    HW230972   0.516   0.949   8.498  1.9818  4.5736 -1.1708
 6446SOL     OW30973   3.242   2.782   5.125 -0.1216  0.3897 -0.4508
 6446SOL    HW130974   3.217   2.836   5.050  1.3065  0.3688 -0.9387
 6446SOL    HW230975   3.304   2.716   5.091  1.6578  2.0998 -0.5122
 6447SOL     OW30976   1.016   0.202   8.095  0.5723 -0.0312 -0.3224
 6447SOL    HW130977   1.007   0.279   8.039 -1.3300  0.1786  0.2790
 6447SOL    HW230978   1.003   0.248   8.179 -0.2596 -0.8888  0.0171
 6448SOL     OW30979   4.177   4.320   8.735  0.2509 -0.4984 -0.0695
 6448SOL    HW130980   4.254   4.342   8.682 -0.0541  2.2234  0.6571
 6448SOL    HW230981   4.117   4.385   8.700  0.6430  0.3819  0.9074
 6449SOL     OW30982   4.496   2.741   5.943 -0.1991  0.3561  0.5676
 6449SOL    HW130983   4.447   2.671   5.986  0.0136 -0.2200 -0.1330
 6449SOL    HW230984   4.509   2.706   5.854 -1.5806 -2.0080  1.2919
 6450SOL     OW30985   1.162   0.380   7.399 -0.1668 -0.6081  0.0949
 6450SOL    HW130986   1.256   0.374   7.416 -0.2796 -0.4869  0.7546
 6450SOL    HW230987   1.137   0.288   7.390 -3.9001  0.5362 -0.8161
 6451SOL     OW30988   4.147   4.646   3.597 -0.0155 -0.0601  0.4648
 6451SOL    HW130989   4.136   4.713   3.530 -0.6337 -0.6856 -0.0470
 6451SOL    HW230990   4.238   4.616   3.587  0.5203  0.9166  2.3385
 6452SOL     OW30991   1.527   0.678  16.943  0.2192  0.7290 -0.0674
 6452SOL    HW130992   1.516   0.585  16.966 -1.0105  0.2791 -2.4550
 6452SOL    HW230993   1.440   0.714  16.927  0.1831  1.1685  1.0809
 6453SOL     OW30994   1.434   0.865   8.864  0.0464 -0.7007 -0.4187
 6453SOL    HW130995   1.378   0.934   8.898  2.4216  1.7726 -1.5644
 6453SOL    HW230996   1.523   0.896   8.880 -0.5401  1.0168 -0.4948
 6454SOL     OW30997   4.082   2.318   5.106  0.3825  0.3214 -0.0109
 6454SOL    HW130998   4.005   2.362   5.071  1.3811 -0.0825 -2.7771
 6454SOL    HW230999   4.148   2.355   5.047  0.9084 -2.2513 -1.0373
 6455SOL     OW31000   3.627   4.139   2.821 -0.2184 -0.0268 -0.2540
 6455SOL    HW131001   3.638   4.122   2.728 -0.4108 -1.1405 -0.0761
 6455SOL    HW231002   3.664   4.056   2.853  0.1800 -0.0935 -0.8809
 6456SOL     OW31003   0.045   0.268   4.524  0.2111  0.7036  0.4711
 6456SOL    HW131004   0.007   0.246   4.439  4.6808 -1.7735 -0.8728
 6456SOL    HW231005   4.735   0.212   4.581  1.6241  1.3449  2.4189
 6457SOL     OW31006   4.191   0.919   4.092  0.2107  0.3120  0.2708
 6457SOL    HW131007   4.171   0.990   4.031 -2.8763 -0.4803  0.3831
 6457SOL    HW231008   4.192   0.960   4.179  1.6869 -0.0466  0.4202
 6458SOL     OW31009   2.907   3.345   5.761  0.7142  0.4860  0.0686
 6458SOL    HW131010   2.863   3.409   5.817 -0.8877 -2.6678  2.4319
 6458SOL    HW231011   2.986   3.326   5.811 -0.5110 -0.9705  1.4621
 6459SOL     OW31012   4.578   3.464   6.890 -0.4678 -0.1881  0.2168
 6459SOL    HW131013   4.491   3.425   6.895 -1.1301  1.1212 -1.1833
 6459SOL    HW231014   4.602   3.465   6.983  1.2429 -2.7572 -0.1841
 6460SOL     OW31015   1.417   2.920   0.616  0.7701 -0.1829  0.2689
 6460SOL    HW131016   1.340   2.874   0.649  0.8235  0.7148  1.6253
 6460SOL    HW231017   1.368   2.999   0.596  0.9321 -0.3196 -0.6636
 6461SOL     OW31018   1.063   3.784   0.317 -0.2735 -0.0075 -0.0925
 6461SOL    HW131019   1.102   3.871   0.317 -0.1419 -0.0671 -0.9146
 6461SOL    HW231020   1.084   3.743   0.233  0.6085  3.2252 -1.4604
 6462SOL     OW31021   4.246   0.032   6.560  0.0820 -0.0363  0.0526
 6462SOL    HW131022   4.251   0.052   6.653  1.6595  1.1658 -0.2803
 6462SOL    HW231023   4.284   0.115   6.531  1.2137 -1.3592 -2.2846
 6463SOL     OW31024   2.042   4.354   0.727  0.4032  0.1386  0.3257
 6463SOL    HW131025   2.000   4.277   0.690  2.2923 -0.4794 -0.5660
 6463SOL    HW231026   2.061   4.312   0.810  0.5225  1.8421  1.1607
 6464SOL     OW31027   0.823   2.925   3.955  0.5401  0.3510  0.6630
 6464SOL    HW131028   0.822   2.948   3.862  0.3893 -1.4884  0.1988
 6464SOL    HW231029   0.793   3.007   3.994  0.1185  0.7449 -0.4947
 6465SOL     OW31030   3.690   2.673   3.997 -0.0612 -0.5671  0.6734
 6465SOL    HW131031   3.630   2.736   3.957 -0.4548 -0.6851  1.0844
 6465SOL    HW231032   3.766   2.728   4.019 -0.4515  0.1921  0.1407
 6466SOL     OW31033   0.566   1.147   9.650  0.1303  0.0034 -0.4764
 6466SOL    HW131034   0.543   1.138   9.743  1.1033  0.5877 -0.1846
 6466SOL    HW231035   0.480   1.175   9.616  1.1182  0.8536 -2.2545
 6467SOL     OW31036   4.228   4.644   1.135 -0.1428  0.0921  0.6176
 6467SOL    HW131037   4.240   4.615   1.226 -1.2648 -0.2861  0.6475
 6467SOL    HW231038   4.182   4.574   1.090  0.7916 -0.6514  0.8233
 6468SOL     OW31039   3.156   3.022   6.429 -0.6715  0.1824 -0.3603
 6468SOL    HW131040   3.156   3.028   6.334  0.8797  1.2360 -0.2894
 6468SOL    HW231041   3.097   2.947   6.431  0.9106 -1.0523 -0.0079
 6469SOL     OW31042   1.350   0.350   3.906  0.0798  0.1667  0.4007
 6469SOL    HW131043   1.258   0.324   3.904  0.0853  0.2103 -0.4241
 6469SOL    HW231044   1.338   0.445   3.911 -1.1988 -0.1263  2.4989
 6470SOL     OW31045   0.444   1.262   8.772 -0.2563 -0.2246 -0.7325
 6470SOL    HW131046   0.435   1.288   8.680 -0.0731  0.5732 -0.5251
 6470SOL    HW231047   0.394   1.181   8.776 -0.3181 -0.1729 -0.4513
 6471SOL     OW31048   3.191   2.066   6.352  0.6223  0.5194 -0.0231
 6471SOL    HW131049   3.194   2.074   6.257  2.1964  1.8765  0.1235
 6471SOL    HW231050   3.204   1.972   6.354  0.2670  0.4669 -0.2367
 6472SOL     OW31051   4.627   2.902   8.113 -0.4905 -0.1324 -0.4664
 6472SOL    HW131052   4.604   2.840   8.182 -0.4563  0.8820  0.4546
 6472SOL    HW231053   4.710   2.866   8.082  0.2417  0.0735  1.2671
 6473SOL     OW31054   3.745   3.366   7.753 -0.2056  0.2700  0.1274
 6473SOL    HW131055   3.694   3.396   7.677 -0.0289  1.6510  0.5503
 6473SOL    HW231056   3.681   3.306   7.793 -1.1891  0.3983 -1.2104
 6474SOL     OW31057   3.150   2.475   8.266  0.1090  0.1823 -0.3635
 6474SOL    HW131058   3.071   2.446   8.221  1.5355 -1.1224 -2.0462
 6474SOL    HW231059   3.210   2.401   8.251 -0.9526 -0.5786 -0.8891
 6475SOL     OW31060   2.655   3.162   9.764  0.0687 -0.0606 -0.6164
 6475SOL    HW131061   2.695   3.116   9.838 -1.5267  1.3398  1.1019
 6475SOL    HW231062   2.637   3.249   9.799  3.9656  0.1259  0.9675
 6476SOL     OW31063   1.326   3.657   5.031 -0.1067 -0.0221 -0.2844
 6476SOL    HW131064   1.394   3.717   5.001  0.7684  0.0835  1.8937
 6476SOL    HW231065   1.342   3.633   5.123 -1.7501  0.1685  0.0589
 6477SOL     OW31066   3.095   2.166   4.605 -0.1639 -0.2886  0.3156
 6477SOL    HW131067   3.056   2.080   4.617 -0.1617 -0.5883 -1.6904
 6477SOL    HW231068   3.017   2.219   4.621  0.1078  0.3314 -0.3582
 6478SOL     OW31069   1.508   2.439   2.597 -0.1154 -0.0249  0.4819
 6478SOL    HW131070   1.559   2.364   2.627  2.9101  1.0538 -1.9188
 6478SOL    HW231071   1.477   2.408   2.513  2.1064  1.5417 -0.9327
 6479SOL     OW31072   3.229   3.304   2.608 -0.0574  0.0222 -0.1665
 6479SOL    HW131073   3.160   3.351   2.563 -0.6387  0.1843  0.8835
 6479SOL    HW231074   3.246   3.238   2.541  2.4874  0.4857 -0.0055
 6480SOL     OW31075   4.664   4.461   6.324 -0.1060  0.0331  0.7503
 6480SOL    HW131076   4.624   4.429   6.405 -1.0894 -0.5569  0.0382
 6480SOL    HW231077   4.609   4.538   6.307  0.1703  0.6076  2.5063
 6481SOL     OW31078   1.865   2.201   7.703  0.2927  0.5569  0.5138
 6481SOL    HW131079   1.836   2.120   7.744  0.5092 -0.3142 -1.0436
 6481SOL    HW231080   1.784   2.250   7.719  0.4134  1.1495 -0.6518
 6482SOL     OW31081   0.417   1.785   1.555 -0.2821 -0.0061 -0.1769
 6482SOL    HW131082   0.412   1.703   1.507  1.3535 -1.2775  1.8275
 6482SOL    HW231083   0.504   1.806   1.521 -1.0367  1.7693 -1.0526
 6483SOL     OW31084   0.718   3.324   7.711 -0.0854  0.2037 -0.4199
 6483SOL    HW131085   0.805   3.340   7.673  0.4654  0.4494  0.9386
 6483SOL    HW231086   0.666   3.370   7.646  2.3244  4.7554  0.8998
 6484SOL     OW31087   1.513   0.057   1.658  0.2160 -0.3601 -0.2842
 6484SOL    HW131088   1.463   0.129   1.619  0.4057 -0.0430  0.0604
 6484SOL    HW231089   1.499   0.086   1.748 -1.0247 -0.4606 -0.4377
 6485SOL     OW31090   0.331   3.790  11.989  0.3598 -0.5501  0.5147
 6485SOL    HW131091   0.373   3.715  12.030 -0.3847 -1.0858  0.2795
 6485SOL    HW231092   0.239   3.768  11.995 -0.2914  1.9224 -0.3300
 6486SOL     OW31093   0.470   2.639   7.821  0.0434  0.5460 -0.9254
 6486SOL    HW131094   0.440   2.722   7.858 -1.2146 -0.4658  0.3208
 6486SOL    HW231095   0.560   2.644   7.852 -0.1041 -0.4722 -0.3550
 6487SOL     OW31096   3.774   1.633   6.243  0.2039 -0.3144  0.0442
 6487SOL    HW131097   3.687   1.607   6.273 -0.3488  0.1239 -1.1546
 6487SOL    HW231098   3.786   1.594   6.156 -0.2113  1.4202 -0.7914
 6488SOL     OW31099   4.477   2.503  12.468 -0.0118 -0.2883 -0.0370
 6488SOL    HW131100   4.408   2.443  12.440 -0.5657  1.1403 -1.7464
 6488SOL    HW231101   4.429   2.577  12.506 -0.1808 -1.0702  1.2934
 6489SOL     OW31102   3.765   2.282   2.305 -0.1140  0.2827  0.0028
 6489SOL    HW131103   3.746   2.205   2.357  1.2002 -0.0139  0.0394
 6489SOL    HW231104   3.751   2.248   2.217 -0.9318  1.3587 -0.2988
 6490SOL     OW31105   2.326   2.682  11.903  0.4360 -0.4099  0.2460
 6490SOL    HW131106   2.318   2.766  11.948  0.9652 -0.5680  0.6267
 6490SOL    HW231107   2.303   2.615  11.967 -1.6187 -0.4367 -0.5085
 6491SOL     OW31108   2.912   4.661  14.651 -0.4380 -0.3525  0.0683
 6491SOL    HW131109   2.906   4.601  14.725 -0.3388  0.9499  1.1444
 6491SOL    HW231110   2.825   4.650  14.611  1.3412 -1.3560 -3.4737
 6492SOL     OW31111   2.290   3.317   3.152  0.4177 -0.3236  0.6372
 6492SOL    HW131112   2.240   3.240   3.125 -1.0866  0.8736  0.0001
 6492SOL    HW231113   2.379   3.282   3.159  0.1632 -0.8958  0.9734
 6493SOL     OW31114   2.148   2.860   6.785 -0.2131  0.1821 -0.0550
 6493SOL    HW131115   2.212   2.894   6.847 -0.3564  0.7612 -0.2147
 6493SOL    HW231116   2.199   2.811   6.721  1.6794 -0.5195  2.0244
 6494SOL     OW31117   0.406   0.600   2.646 -0.7631  0.3258 -0.3083
 6494SOL    HW131118   0.338   0.604   2.580 -0.2648  2.2835 -0.7069
 6494SOL    HW231119   0.389   0.512   2.680 -4.5231  2.4216  3.1621
 6495SOL     OW31120   2.820   0.571   3.216 -0.5083 -0.1229  0.4325
 6495SOL    HW131121   2.849   0.568   3.307  1.1711  0.2704 -0.1005
 6495SOL    HW231122   2.850   0.657   3.187  0.4936 -0.9261 -0.8839
 6496SOL     OW31123   4.438   3.571   8.090  0.0516  0.4000  0.8452
 6496SOL    HW131124   4.423   3.612   8.005  1.8439  0.7566  0.7003
 6496SOL    HW231125   4.384   3.492   8.080  1.3840 -0.5998  1.6083
 6497SOL     OW31126   3.568   1.388   1.876 -0.3415  0.0428 -0.1177
 6497SOL    HW131127   3.481   1.350   1.887 -0.2603 -0.1443 -0.1096
 6497SOL    HW231128   3.612   1.339   1.806  0.7987  0.9652 -0.0515
 6498SOL     OW31129   4.189   1.486  12.033 -0.1798 -0.2498  0.3184
 6498SOL    HW131130   4.157   1.451  12.116 -3.0613  0.1359 -0.6269
 6498SOL    HW231131   4.117   1.548  12.016 -1.2692 -1.6990 -0.3562
 6499SOL     OW31132   4.291   1.271  17.531  0.1993 -0.5296  0.5349
 6499SOL    HW131133   4.373   1.252  17.576  1.3267  1.2644 -0.7712
 6499SOL    HW231134   4.266   1.357  17.565  2.4610  0.7472 -1.0802
 6500SOL     OW31135   1.622   2.067  10.148 -0.5973  0.1386  0.4643
 6500SOL    HW131136   1.622   1.985  10.098  1.4630 -0.0533  0.7528
 6500SOL    HW231137   1.578   2.122  10.084 -1.2352 -1.1366 -0.2036
 6501SOL     OW31138   1.351   4.093  14.263  0.0450 -0.0932 -0.9303
 6501SOL    HW131139   1.335   4.162  14.198 -0.6576  0.1362 -0.5089
 6501SOL    HW231140   1.398   4.150  14.324  1.1007 -1.8546 -0.1049
 6502SOL     OW31141   1.703   0.604  15.989 -0.2381  0.6058  0.0249
 6502SOL    HW131142   1.632   0.640  16.042 -0.2635  0.5313  0.0407
 6502SOL    HW231143   1.779   0.652  16.023 -0.7339  0.6804  1.0396
 6503SOL     OW31144   4.065   3.253   8.413 -0.4455  0.5079 -0.1264
 6503SOL    HW131145   4.136   3.314   8.391 -0.1346  0.4317  0.6677
 6503SOL    HW231146   4.078   3.176   8.358 -0.7906  0.2537  0.1437
 6504SOL     OW31147   0.423   2.085   5.699  0.1167 -0.3266  0.1608
 6504SOL    HW131148   0.409   2.163   5.645 -4.2980 -0.0792  1.6517
 6504SOL    HW231149   0.363   2.099   5.772  0.8648  1.4093  0.4472
 6505SOL     OW31150   0.725   3.091   5.948  0.0250 -0.4286  0.1326
 6505SOL    HW131151   0.650   3.143   5.975  0.1914 -0.1959  0.1508
 6505SOL    HW231152   0.705   3.007   5.991  3.1219 -0.5360  1.3714
 6506SOL     OW31153   4.725   1.887   8.358  0.2552  0.1523  0.9553
 6506SOL    HW131154   4.677   1.848   8.431 -2.2337  1.9092  0.2421
 6506SOL    HW231155   0.034   1.811   8.331 -0.2125  0.1621  0.0296
 6507SOL     OW31156   0.993   3.058   5.960 -0.6329 -0.3057  0.0412
 6507SOL    HW131157   1.032   3.130   5.911 -2.4192  0.5423 -0.1214
 6507SOL    HW231158   0.901   3.084   5.968 -0.7088 -0.2798 -0.9785
 6508SOL     OW31159   0.167   2.409  10.079  0.1587 -0.4300  0.1937
 6508SOL    HW131160   0.098   2.468  10.111  0.9751 -0.2892  1.6985
 6508SOL    HW231161   0.153   2.333  10.135 -1.0359  0.2303  0.8044
 6509SOL     OW31162   2.966   4.369   4.346 -0.3682  0.1530  0.4351
 6509SOL    HW131163   3.048   4.325   4.367 -0.8581 -1.2584 -0.6051
 6509SOL    HW231164   2.906   4.331   4.410 -0.2560 -0.4339  0.1899
 6510SOL     OW31165   2.052   2.205   3.024 -0.3398  0.5519  0.4614
 6510SOL    HW131166   2.046   2.114   3.053  2.0750 -0.8996 -3.7177
 6510SOL    HW231167   2.081   2.210   2.934  2.6004  2.4641  1.5127
 6511SOL     OW31168   0.084   0.014   2.351 -0.1313 -0.1654 -0.2308
 6511SOL    HW131169   0.121   0.034   2.437  0.4202  0.9456 -0.7251
 6511SOL    HW231170   0.170   0.013   2.307 -0.5276 -0.2170 -0.9986
 6512SOL     OW31171   2.624   0.932   8.116  0.1950  0.3848 -0.4672
 6512SOL    HW131172   2.663   0.993   8.054  1.9740 -1.3051 -1.0041
 6512SOL    HW231173   2.702   0.910   8.167 -0.9160 -1.4318  0.4352
 6513SOL     OW31174   2.781   4.276   5.412  0.8859 -0.3392  0.8863
 6513SOL    HW131175   2.860   4.329   5.421  0.5569  0.3545 -0.4212
 6513SOL    HW231176   2.815   4.192   5.443  0.6751  0.1532  2.4368
 6514SOL     OW31177   0.191   3.962   3.558 -0.3068 -0.2818  0.3937
 6514SOL    HW131178   0.221   3.936   3.471 -0.2623 -0.9365  0.6052
 6514SOL    HW231179   0.250   3.911   3.614  0.5362  1.7887  1.4319
 6515SOL     OW31180   4.361   1.194   8.066 -0.2579  0.1135 -0.1908
 6515SOL    HW131181   4.377   1.178   8.159  0.7695  0.0392 -0.3825
 6515SOL    HW231182   4.316   1.113   8.042  1.6197 -0.4983 -1.6352
 6516SOL     OW31183   2.483   2.711   8.368  0.5940  0.3841 -0.3253
 6516SOL    HW131184   2.491   2.647   8.439  2.0675  2.2622  1.2015
 6516SOL    HW231185   2.478   2.653   8.292 -0.3874  1.1286 -0.8181
 6517SOL     OW31186   1.118   2.323   4.513  0.4337  0.4769  0.4024
 6517SOL    HW131187   1.162   2.396   4.556  0.1622 -1.2959  3.6881
 6517SOL    HW231188   1.190   2.263   4.530 -0.5825 -0.4970  1.2386
 6518SOL     OW31189   4.235   3.430  11.972  0.5870  0.5549 -0.1512
 6518SOL    HW131190   4.313   3.431  11.917  0.5551 -0.8394 -0.2464
 6518SOL    HW231191   4.225   3.334  11.967 -1.4876  0.7942 -0.5989
 6519SOL     OW31192   3.792   2.732   3.233  0.6207 -0.5872  0.3507
 6519SOL    HW131193   3.722   2.689   3.183  0.3111  1.9396 -1.3689
 6519SOL    HW231194   3.755   2.737   3.321  0.4946 -0.0868  0.2704
 6520SOL     OW31195   2.216   0.403   6.736 -0.3928  0.5554  0.2380
 6520SOL    HW131196   2.256   0.438   6.656 -1.8610  1.3628 -0.1282
 6520SOL    HW231197   2.210   0.307   6.730 -1.7348  0.7205 -1.1010
 6521SOL     OW31198   0.173   1.857   2.427 -0.1188  0.2197 -0.3777
 6521SOL    HW131199   0.194   1.831   2.517  1.1046 -0.8125 -0.9657
 6521SOL    HW231200   0.253   1.836   2.379  1.9750  0.5872  2.8693
 6522SOL     OW31201   0.339   3.541  14.619  0.1354  0.1853 -1.1465
 6522SOL    HW131202   0.380   3.536  14.533 -0.0394 -0.3677 -1.1955
 6522SOL    HW231203   0.420   3.551  14.670 -1.1896 -0.2014  1.0582
 6523SOL     OW31204   2.133   1.951  12.398 -0.0242 -0.6089  0.1120
 6523SOL    HW131205   2.106   1.972  12.308 -1.8784 -2.2630  0.2689
 6523SOL    HW231206   2.212   1.901  12.377  0.1416  0.8288 -2.6361
 6524SOL     OW31207   0.358   1.717  10.209  0.2769 -0.0716 -0.1256
 6524SOL    HW131208   0.284   1.711  10.149 -0.1635  0.2283  0.3814
 6524SOL    HW231209   0.315   1.715  10.295  1.5795  0.9924  0.5448
 6525SOL     OW31210   1.979   4.083   3.926  0.0285  0.6125  0.1128
 6525SOL    HW131211   1.913   4.041   3.980 -0.0869 -1.6756 -1.8571
 6525SOL    HW231212   2.036   4.115   3.996  0.7502 -1.3247  0.4062
 6526SOL     OW31213   1.408   0.207   5.752 -0.2537 -0.5277  0.2530
 6526SOL    HW131214   1.330   0.164   5.786  2.1123 -2.3663  3.4222
 6526SOL    HW231215   1.375   0.244   5.671  0.0944 -1.0570 -0.1320
 6527SOL     OW31216   2.223   3.903   2.839 -0.5799 -0.0832 -0.4021
 6527SOL    HW131217   2.168   3.824   2.840  1.0294 -1.1553  1.3858
 6527SOL    HW231218   2.179   3.962   2.901 -0.4174 -0.0356 -0.3322
 6528SOL     OW31219   0.647   1.096   8.263  0.5561  0.3403 -0.1404
 6528SOL    HW131220   0.574   1.046   8.300  0.4306  0.4266 -0.2717
 6528SOL    HW231221   0.629   1.092   8.169 -2.1581 -1.1948  0.4407
 6529SOL     OW31222   4.256   1.985   8.891  0.6769 -0.3147  0.9447
 6529SOL    HW131223   4.304   1.903   8.902  1.8436  0.2141 -0.0882
 6529SOL    HW231224   4.225   1.987   8.981 -0.7783  3.1816  0.3754
 6530SOL     OW31225   1.360   2.023  12.573 -0.0670 -0.3650  0.2405
 6530SOL    HW131226   1.277   2.071  12.564 -0.5938 -1.9388 -3.2905
 6530SOL    HW231227   1.326   1.935  12.589 -0.1332 -0.2218  0.8857
 6531SOL     OW31228   1.572   4.246   0.088 -0.3654  0.6842  0.3705
 6531SOL    HW131229   1.500   4.197   0.047  0.1644 -0.5402  0.9133
 6531SOL    HW231230   1.570   4.328   0.039  3.1280  2.0439  2.5422
 6532SOL     OW31231   3.499   1.071   2.622 -0.2651  0.1047 -0.0366
 6532SOL    HW131232   3.472   1.069   2.714 -0.0429 -0.9873  0.0029
 6532SOL    HW231233   3.591   1.095   2.623  0.0103 -0.7235 -3.7176
 6533SOL     OW31234   4.685   4.144   6.320  0.1720  0.4616 -0.2330
 6533SOL    HW131235   0.037   4.152   6.320  0.2658 -0.7202  0.5083
 6533SOL    HW231236   4.663   4.151   6.413  0.8100 -0.7794  0.0117
 6534SOL     OW31237   2.668   3.297   3.797  0.0767  0.5338  0.3712
 6534SOL    HW131238   2.643   3.205   3.795 -2.0473  1.1329  0.1681
 6534SOL    HW231239   2.589   3.350   3.798  0.2053  0.7496 -0.4775
 6535SOL     OW31240   1.860   4.440   2.240  0.8328  0.0167  0.0759
 6535SOL    HW131241   1.773   4.459   2.206  1.5251  0.7630 -1.2671
 6535SOL    HW231242   1.869   4.348   2.216 -2.0847 -0.0503 -0.8222
 6536SOL     OW31243   1.746   4.355   8.063 -0.4143  0.1238 -0.4194
 6536SOL    HW131244   1.813   4.422   8.077 -0.4670 -0.3627  2.2125
 6536SOL    HW231245   1.720   4.342   8.154 -0.1823 -0.0181 -0.3732
 6537SOL     OW31246   4.247   2.703  10.451  0.0422 -0.1610 -0.0927
 6537SOL    HW131247   4.226   2.768  10.384  1.9978  0.7656  0.1981
 6537SOL    HW231248   4.160   2.675  10.478 -0.3414  0.7534 -0.3812
 6538SOL     OW31249   3.068   4.554   7.915  0.2591  0.3704 -0.4023
 6538SOL    HW131250   3.149   4.602   7.895  0.6521 -0.5816 -1.0765
 6538SOL    HW231251   3.096   4.495   7.984 -1.9639 -0.7010 -0.4326
 6539SOL     OW31252   1.914   0.270   3.722  0.1243 -0.1832 -0.3604
 6539SOL    HW131253   1.826   0.309   3.712 -0.5122 -1.4704  0.2698
 6539SOL    HW231254   1.975   0.331   3.681 -0.1466 -0.5308 -1.2854
 6540SOL     OW31255   0.848   4.606   3.270  0.1712  0.3817  0.5767
 6540SOL    HW131256   0.900   4.530   3.294  0.2661  0.1917 -0.2323
 6540SOL    HW231257   0.759   4.582   3.295 -0.0363 -1.1023 -1.6243
 6541SOL     OW31258   0.436   0.618   7.647  0.0214  0.5753 -0.3661
 6541SOL    HW131259   0.525   0.647   7.630  0.3904 -0.6031 -0.3908
 6541SOL    HW231260   0.443   0.593   7.739  1.2242 -3.6663 -1.6257
 6542SOL     OW31261   3.047   0.521   4.959 -0.1126  0.6255 -0.5126
 6542SOL    HW131262   3.099   0.464   4.902  0.6079 -0.0591  0.8167
 6542SOL    HW231263   2.967   0.471   4.971  0.1283  0.6582  1.2756
 6543SOL     OW31264   1.963   1.472   1.609  0.5293 -0.2979 -0.5071
 6543SOL    HW131265   1.994   1.560   1.634 -0.0229 -0.9003  2.3280
 6543SOL    HW231266   1.888   1.460   1.667 -0.6435  0.1543 -1.9305
 6544SOL     OW31267   1.774   2.244   9.844  0.3007  0.1481 -0.5053
 6544SOL    HW131268   1.775   2.149   9.861  0.4934  0.4477  1.1901
 6544SOL    HW231269   1.867   2.263   9.846  0.6948 -1.8436  1.1132
 6545SOL     OW31270   2.268   1.228  16.319 -0.0077  0.0939 -0.4447
 6545SOL    HW131271   2.286   1.229  16.226 -0.2209 -1.3322 -0.5107
 6545SOL    HW231272   2.286   1.320  16.340 -1.5082 -0.1192  1.8739
 6546SOL     OW31273   1.281   0.979   7.673  0.3875  0.3285  0.2251
 6546SOL    HW131274   1.265   1.065   7.713 -1.6832 -0.2276  0.5844
 6546SOL    HW231275   1.195   0.944   7.695  0.2926 -0.0101 -0.7141
 6547SOL     OW31276   0.684   4.241  15.229 -0.2665  0.1128 -0.3010
 6547SOL    HW131277   0.633   4.322  15.233  0.1927  0.2627  2.5752
 6547SOL    HW231278   0.621   4.177  15.263 -0.8189  1.1671  0.6760
 6548SOL     OW31279   0.450   3.704   9.545 -0.2113  0.3026 -0.3824
 6548SOL    HW131280   0.445   3.738   9.635  2.4085  2.5716 -1.0889
 6548SOL    HW231281   0.509   3.768   9.505 -0.9842  1.6214  0.5993
 6549SOL     OW31282   1.507   0.805   5.167 -0.1057  0.7453  0.0564
 6549SOL    HW131283   1.461   0.822   5.085 -2.5116  2.0179  1.6489
 6549SOL    HW231284   1.475   0.715   5.177  2.3154  0.1121  2.1422
 6550SOL     OW31285   4.051   1.915   8.031 -0.1839 -0.1743 -0.1020
 6550SOL    HW131286   3.968   1.960   8.018 -0.3352 -0.5866 -0.5774
 6550SOL    HW231287   4.046   1.894   8.125  1.6122 -0.5182 -0.0751
 6551SOL     OW31288   4.409   4.702   5.147  0.1343 -0.0776 -0.1598
 6551SOL    HW131289   4.396   4.630   5.085 -0.0942  0.1615 -0.3884
 6551SOL    HW231290   4.335   0.019   5.131  0.3155  0.5781  1.4653
 6552SOL     OW31291   1.369   4.548   1.993 -0.4020 -0.1139 -0.2853
 6552SOL    HW131292   1.377   4.556   1.898 -0.0521 -0.3326 -0.2747
 6552SOL    HW231293   1.298   4.611   2.008 -2.1029 -2.6191  2.1403
 6553SOL     OW31294   4.050   0.738  11.535  0.0473  0.1966  0.0640
 6553SOL    HW131295   4.026   0.823  11.498  3.0485  1.5376  1.2039
 6553SOL    HW231296   4.001   0.731  11.617  0.0732 -0.8344 -0.0104
 6554SOL     OW31297   4.095   1.195   3.361 -0.1256  0.1042 -0.5421
 6554SOL    HW131298   4.071   1.259   3.428  1.5103  0.9180 -0.7546
 6554SOL    HW231299   4.177   1.163   3.399 -0.2487  0.3473 -0.0714
 6555SOL     OW31300   1.466   0.080  15.114  0.4069  0.2246 -0.3299
 6555SOL    HW131301   1.556   0.088  15.081  0.0622 -1.8789 -1.7929
 6555SOL    HW231302   1.483   0.054  15.204  0.3172  2.4809  0.3262
 6556SOL     OW31303   2.609   2.742   9.232  0.2536  0.2861  0.0800
 6556SOL    HW131304   2.582   2.786   9.151  0.1501  1.5544  0.8085
 6556SOL    HW231305   2.608   2.647   9.219 -1.5202  0.2931  0.1012
 6557SOL     OW31306   0.614   3.907   9.459 -0.0440 -0.2506  0.2781
 6557SOL    HW131307   0.654   3.867   9.382 -0.6120 -0.5073  0.1134
 6557SOL    HW231308   0.589   3.994   9.430 -0.0878  0.0210  1.1275
 6558SOL     OW31309   2.000   3.950   0.633 -0.7449  0.2504 -0.4827
 6558SOL    HW131310   2.055   3.911   0.565  0.3996 -1.4136  1.4003
 6558SOL    HW231311   1.924   3.891   0.629  0.5776 -1.4665 -0.4155
 6559SOL     OW31312   0.591   4.414  15.980 -0.4735  0.0353  0.0537
 6559SOL    HW131313   0.497   4.398  15.972 -0.5333 -1.8624  4.5684
 6559SOL    HW231314   0.611   4.396  16.072  1.8357 -1.3516 -0.7025
 6560SOL     OW31315   0.599   0.741   1.569 -0.2776  0.1811 -0.5560
 6560SOL    HW131316   0.678   0.692   1.592 -0.9351 -0.9749 -0.7243
 6560SOL    HW231317   0.638   0.809   1.515 -0.6641  1.6381  1.0125
 6561SOL     OW31318   1.680   1.253   0.759  0.5709 -0.6805  0.1713
 6561SOL    HW131319   1.724   1.337   0.746  0.1968 -0.3092  1.2456
 6561SOL    HW231320   1.754   1.195   0.779  1.2799  0.5897  1.2992
 6562SOL     OW31321   4.436   1.965   7.678  0.5872  0.5348 -0.5952
 6562SOL    HW131322   4.401   1.880   7.652 -0.3319  1.0688 -1.0862
 6562SOL    HW231323   4.396   1.989   7.762 -1.3725  0.3832 -1.4972
 6563SOL     OW31324   4.299   2.207   0.060  0.1099  0.5423 -0.4548
 6563SOL    HW131325   4.368   2.260   0.099  2.0031 -1.0543 -1.6948
 6563SOL    HW231326   4.334   2.120   0.075  0.7427  0.5520 -1.8902
 6564SOL     OW31327   3.314   3.472   6.760  0.0163  0.3885 -0.7827
 6564SOL    HW131328   3.268   3.396   6.723 -2.0493  1.8721 -1.2549
 6564SOL    HW231329   3.384   3.490   6.697 -1.9017  2.0785 -2.4005
 6565SOL     OW31330   4.659   2.966   6.456  0.2098 -0.6610  0.3959
 6565SOL    HW131331   4.620   2.954   6.369  0.7670  0.7972 -0.0610
 6565SOL    HW231332   4.742   2.921   6.440  0.6931  0.6475 -0.7780
 6566SOL     OW31333   1.955   0.993   6.959 -0.0013  0.0457 -0.3621
 6566SOL    HW131334   1.876   0.994   6.904  0.3392 -2.7040 -0.8891
 6566SOL    HW231335   1.906   0.982   7.041  0.0546  3.5002  0.1390
 6567SOL     OW31336   0.382   0.838   7.506 -0.5771 -0.4834  0.8237
 6567SOL    HW131337   0.400   0.750   7.538 -1.1421 -0.2643  1.7426
 6567SOL    HW231338   0.390   0.888   7.587 -1.2396  0.5869  0.2395
 6568SOL     OW31339   1.284   1.089   9.883 -0.1891  0.3232 -0.3550
 6568SOL    HW131340   1.313   1.002   9.852 -0.2567 -0.1588  0.9257
 6568SOL    HW231341   1.253   1.062   9.969  2.8379 -1.0401  0.3485
 6569SOL     OW31342   0.128   3.987   4.279  0.1486 -0.1338  0.0860
 6569SOL    HW131343   0.147   4.075   4.246 -2.4960  0.9026  1.3455
 6569SOL    HW231344   0.125   3.924   4.207  0.1666 -0.0300 -0.0049
 6570SOL     OW31345   0.207   4.504   9.863 -0.6244  0.1665 -0.6304
 6570SOL    HW131346   0.144   4.502   9.935 -0.5894  0.8133 -0.5779
 6570SOL    HW231347   0.276   4.547   9.914 -0.0187 -0.4482 -0.9287
 6571SOL     OW31348   2.809   0.012   0.484 -0.4435 -0.4194 -0.2993
 6571SOL    HW131349   2.884   4.706   0.450 -0.6895  0.3677 -1.9307
 6571SOL    HW231350   2.734   4.710   0.444 -1.3964  1.2933 -0.4400
 6572SOL     OW31351   0.850   4.574   8.117  0.2653  0.8380 -0.4251
 6572SOL    HW131352   0.884   4.519   8.046 -0.6251 -0.7004  0.3235
 6572SOL    HW231353   0.797   4.508   8.161  1.5051 -0.6449 -1.1337
 6573SOL     OW31354   3.247   2.166   1.790  0.2247  0.3493  0.3140
 6573SOL    HW131355   3.261   2.252   1.751  0.8186 -0.1005 -0.4656
 6573SOL    HW231356   3.338   2.149   1.813  0.6073 -1.9916 -2.9033
 6574SOL     OW31357   4.544   3.694   6.128 -0.3792  0.8063  0.0602
 6574SOL    HW131358   4.587   3.733   6.204 -0.2236  1.1937 -0.2298
 6574SOL    HW231359   4.456   3.728   6.143 -1.1784 -1.4791  0.5502
 6575SOL     OW31360   0.857   1.209   9.970  0.2567  0.0186  0.1054
 6575SOL    HW131361   0.881   1.131   9.920  0.8552 -0.4462  1.1064
 6575SOL    HW231362   0.834   1.270   9.900  2.6104 -1.8416 -2.3314
 6576SOL     OW31363   0.484   1.108   9.929  0.1517  0.0385  0.1050
 6576SOL    HW131364   0.482   1.183   9.987  2.1563 -1.0440  1.5616
 6576SOL    HW231365   0.534   1.048   9.984 -0.5012 -0.7402 -0.1401
 6577SOL     OW31366   2.705   0.970   5.534 -0.4874  0.2043 -0.2307
 6577SOL    HW131367   2.746   0.945   5.451 -2.5437 -2.4343 -0.4566
 6577SOL    HW231368   2.641   1.034   5.502 -0.4640  1.0568  1.4626
 6578SOL     OW31369   1.773   0.747   4.112  0.3172  0.6009  0.0772
 6578SOL    HW131370   1.694   0.697   4.090 -0.5559  1.5205  1.1009
 6578SOL    HW231371   1.846   0.687   4.092  2.1518  2.9144 -0.1458
 6579SOL     OW31372   3.254   0.433  14.800  0.2850  0.0156  0.1544
 6579SOL    HW131373   3.328   0.388  14.758 -0.4849 -1.7581  0.6631
 6579SOL    HW231374   3.175   0.385  14.777 -0.4073  0.2782  1.9468
 6580SOL     OW31375   1.788   4.269   6.432  0.4073  0.1494  0.3780
 6580SOL    HW131376   1.867   4.293   6.384  1.2234 -0.9392  1.1895
 6580SOL    HW231377   1.735   4.349   6.423 -0.7713 -0.6441  0.2660
 6581SOL     OW31378   4.550   3.574   1.763 -0.4802 -0.3286  0.5421
 6581SOL    HW131379   4.481   3.526   1.717 -0.0455  0.3195 -0.8047
 6581SOL    HW231380   4.580   3.503   1.820 -0.4054 -1.6453 -1.1167
 6582SOL     OW31381   2.740   4.143   3.912 -0.2011  0.3354 -0.1866
 6582SOL    HW131382   2.670   4.089   3.949 -0.7662  1.3109  0.1744
 6582SOL    HW231383   2.809   4.078   3.916 -0.9751 -0.5446 -1.0169
 6583SOL     OW31384   2.802   2.098   4.280  0.7678  0.4887 -0.6389
 6583SOL    HW131385   2.861   2.173   4.284  2.9093 -1.2026 -0.7120
 6583SOL    HW231386   2.796   2.085   4.186  1.5197 -0.1881 -0.6028
 6584SOL     OW31387   0.742   4.024   7.913  0.1399 -0.0029  0.0085
 6584SOL    HW131388   0.691   4.087   7.963  1.7478  0.2059  1.3700
 6584SOL    HW231389   0.821   4.067   7.879 -1.1494  0.7910 -1.9764
 6585SOL     OW31390   0.685   3.969  13.733  0.4163 -0.0446  0.1325
 6585SOL    HW131391   0.743   3.968  13.656  0.6317  2.6877  0.2357
 6585SOL    HW231392   0.688   3.879  13.763 -1.2100 -0.7991 -1.9371
 6586SOL     OW31393   2.540   3.790   8.153  0.1454 -0.1057  0.0717
 6586SOL    HW131394   2.581   3.747   8.227 -0.1677 -0.3689  0.0938
 6586SOL    HW231395   2.526   3.877   8.192  0.7899 -0.5825  1.3450
 6587SOL     OW31396   3.196   3.530   4.922  0.0446  0.3527 -0.4277
 6587SOL    HW131397   3.151   3.446   4.934  0.7406 -0.0543 -0.6021
 6587SOL    HW231398   3.286   3.503   4.904 -0.1014 -0.8487  0.5785
 6588SOL     OW31399   1.549   2.224   8.410 -0.3685 -0.6142  0.3781
 6588SOL    HW131400   1.568   2.314   8.383 -0.2088 -0.8645 -0.3553
 6588SOL    HW231401   1.564   2.235   8.504 -0.9572 -0.7217  0.4862
 6589SOL     OW31402   1.253   3.654   4.165  0.4301  0.2299  0.3088
 6589SOL    HW131403   1.285   3.643   4.076  1.4789 -1.1543  0.8577
 6589SOL    HW231404   1.333   3.667   4.216  0.2199  1.5416  0.3160
 6590SOL     OW31405   0.074   2.660   0.800  0.6310  0.1516  0.2595
 6590SOL    HW131406   0.079   2.676   0.706  0.8660  0.7849  0.3810
 6590SOL    HW231407   0.058   2.565   0.801 -1.4208  0.4867 -1.2242
 6591SOL     OW31408   1.799   3.497   3.889  0.4379  0.5779 -0.0422
 6591SOL    HW131409   1.894   3.482   3.895  0.3958  0.3017 -0.0900
 6591SOL    HW231410   1.792   3.446   3.809  4.3725 -0.7073  0.4084
 6592SOL     OW31411   1.056   3.803   7.808  0.2283 -0.0884  0.5607
 6592SOL    HW131412   1.150   3.813   7.792 -0.0864 -0.5010 -1.6556
 6592SOL    HW231413   1.011   3.873   7.760 -2.3035 -1.0453  1.5407
 6593SOL     OW31414   0.583   1.335   7.795  0.1935  0.0866  0.0295
 6593SOL    HW131415   0.572   1.240   7.798 -1.6007  0.2701 -0.6263
 6593SOL    HW231416   0.505   1.359   7.745 -1.0761  0.1290  2.0458
 6594SOL     OW31417   2.203   3.485  17.402  0.3044 -0.3872  0.2009
 6594SOL    HW131418   2.256   3.464  17.325 -1.3265  0.2619 -1.0897
 6594SOL    HW231419   2.147   3.550  17.359  0.8327 -0.8426 -1.1935
 6595SOL     OW31420   0.100   2.792   5.223 -0.4533  0.1292  0.1762
 6595SOL    HW131421   0.146   2.874   5.209  1.6221 -0.9374  0.6707
 6595SOL    HW231422   0.096   2.747   5.139 -0.0171  1.0331 -0.3206
 6596SOL     OW31423   2.004   4.588   3.164 -0.3763 -0.0245  0.6473
 6596SOL    HW131424   2.039   4.506   3.201 -0.9782 -0.1603  0.9191
 6596SOL    HW231425   2.070   4.615   3.100 -2.2938  3.4074  0.1409
 6597SOL     OW31426   4.343   0.374   9.226 -0.3927 -0.7643 -0.1780
 6597SOL    HW131427   4.363   0.436   9.156 -3.1441  1.1007  0.6670
 6597SOL    HW231428   4.308   0.304   9.170  1.3000 -0.8136 -1.1634
 6598SOL     OW31429   4.722   3.441   5.336 -0.4206  0.3390 -0.0957
 6598SOL    HW131430   0.074   3.436   5.351 -0.3591 -0.0390 -0.5880
 6598SOL    HW231431   4.713   3.363   5.281  0.0536 -0.7115  1.3008
 6599SOL     OW31432   0.971   2.051  14.305 -0.2372  0.2496  0.0748
 6599SOL    HW131433   0.901   1.986  14.309  1.0472 -1.0596  1.5983
 6599SOL    HW231434   1.039   2.005  14.255 -0.0848 -0.3240  0.7971
 6600SOL     OW31435   0.987   3.519   2.058  0.1024  0.1056  0.1470
 6600SOL    HW131436   1.000   3.614   2.050  0.4977 -0.1064 -1.8202
 6600SOL    HW231437   1.073   3.499   2.096 -0.8197 -0.6581  1.8181
 6601SOL     OW31438   0.039   2.410   8.119 -0.1835 -0.1565 -0.3374
 6601SOL    HW131439   4.727   2.359   8.059 -0.6346  0.6723 -0.6442
 6601SOL    HW231440   0.037   2.359   8.200  1.2365  1.2715  0.5935
 6602SOL     OW31441   2.279   3.920  14.882 -0.3747 -0.5503  0.8398
 6602SOL    HW131442   2.240   3.994  14.927 -0.0059 -0.5992  1.2502
 6602SOL    HW231443   2.211   3.853  14.890 -0.3098 -0.5835  1.1094
 6603SOL     OW31444   3.208   1.263   4.843 -0.8322 -0.0861 -0.9854
 6603SOL    HW131445   3.293   1.289   4.879 -0.3100  0.9710 -2.9375
 6603SOL    HW231446   3.145   1.300   4.904 -0.7111  1.7118 -1.9430
 6604SOL     OW31447   4.153   0.612   8.388  0.3485  0.4308  0.2120
 6604SOL    HW131448   4.224   0.675   8.374 -0.1121  0.7094 -0.9197
 6604SOL    HW231449   4.172   0.558   8.311  0.4302 -1.1592  1.3639
 6605SOL     OW31450   0.298   0.005   0.037  0.4811  0.5732 -0.5373
 6605SOL    HW131451   0.291   0.002   0.133  2.0951 -1.1265 -0.4719
 6605SOL    HW231452   0.253   4.666   0.018 -0.8264  1.3299 -0.7400
 6606SOL     OW31453   1.323   1.944  11.692 -0.9265  0.6600 -0.1075
 6606SOL    HW131454   1.301   1.855  11.666 -0.7099  0.4185  0.5468
 6606SOL    HW231455   1.278   1.940  11.776  0.2398  0.8720  0.5262
 6607SOL     OW31456   0.169   0.560   5.772 -0.1046 -0.7409 -0.2372
 6607SOL    HW131457   0.149   0.560   5.678  1.0995  1.1739 -0.4914
 6607SOL    HW231458   0.240   0.498   5.783  0.4625  0.0486  0.5412
 6608SOL     OW31459   0.942   3.912   5.203  0.1590 -0.1462 -0.0116
 6608SOL    HW131460   0.941   3.907   5.108  1.7250  1.0180 -0.0894
 6608SOL    HW231461   1.035   3.903   5.223  0.3652 -0.3023 -1.0614
 6609SOL     OW31462   0.295   1.809   5.499 -0.2386 -0.1215 -0.0761
 6609SOL    HW131463   0.227   1.877   5.495  0.6079  0.6823 -0.6854
 6609SOL    HW231464   0.274   1.744   5.432 -1.7196 -0.5826  0.8152
 6610SOL     OW31465   3.724   1.778   7.428 -0.1333  0.2219  0.6201
 6610SOL    HW131466   3.747   1.867   7.456  0.7306  0.1257  0.2193
 6610SOL    HW231467   3.725   1.768   7.332  1.2554  0.0462  0.6493
 6611SOL     OW31468   2.383   3.213   1.277 -0.0981 -0.3707 -0.0797
 6611SOL    HW131469   2.322   3.249   1.212  2.6166  2.0039 -1.3246
 6611SOL    HW231470   2.467   3.233   1.237  0.9753 -0.7520  2.0086
 6612SOL     OW31471   1.545   1.264  11.515  0.0570 -0.0720 -0.2856
 6612SOL    HW131472   1.495   1.213  11.578  0.5091 -0.6879 -0.4238
 6612SOL    HW231473   1.513   1.215  11.439  0.9088  0.9896 -1.3392
 6613SOL     OW31474   3.364   4.296   3.636  0.4902 -0.4984 -0.2007
 6613SOL    HW131475   3.400   4.352   3.704 -1.7695  1.1452 -0.3629
 6613SOL    HW231476   3.447   4.268   3.597  0.9735  0.9886 -0.2553
 6614SOL     OW31477   1.248   2.484   3.132  0.3932 -0.5123  0.4596
 6614SOL    HW131478   1.276   2.563   3.086  0.0872 -0.4446  0.3891
 6614SOL    HW231479   1.330   2.440   3.153  0.2089 -0.9092  0.3411
 6615SOL     OW31480   4.417   0.136   1.763 -0.4894  0.2383  0.0780
 6615SOL    HW131481   4.440   0.228   1.751 -0.1906  0.3362  1.3957
 6615SOL    HW231482   4.466   0.113   1.842 -0.8325 -0.9542 -0.0458
 6616SOL     OW31483   3.236   2.638   4.841  0.0781  0.5663  0.4352
 6616SOL    HW131484   3.236   2.546   4.868  2.9329  0.3009 -0.4095
 6616SOL    HW231485   3.317   2.646   4.790 -0.9087  0.8746 -1.0989
 6617SOL     OW31486   3.869   1.920   2.062 -0.0096 -0.7149  0.3129
 6617SOL    HW131487   3.779   1.944   2.082  0.5862  1.2959  0.5927
 6617SOL    HW231488   3.878   1.825   2.077 -0.4451 -0.2996  3.2131
 6618SOL     OW31489   3.956   0.647   6.963 -0.2423 -0.4963  0.3855
 6618SOL    HW131490   3.890   0.710   6.933  0.4342 -0.4129 -0.9039
 6618SOL    HW231491   4.024   0.706   6.995 -0.0959 -1.1557  1.2929
 6619SOL     OW31492   4.134   1.152  17.326 -0.5870 -0.5662 -0.0457
 6619SOL    HW131493   4.168   1.063  17.321 -0.6811 -0.4366 -2.9073
 6619SOL    HW231494   4.197   1.189  17.388 -2.5581  0.5725  1.2780
 6620SOL     OW31495   0.172   1.096   6.790  0.4192 -0.1653  0.0127
 6620SOL    HW131496   0.168   1.125   6.698  3.7382 -0.0397 -0.0780
 6620SOL    HW231497   0.090   1.046   6.793  1.2127 -1.1993  3.7131
 6621SOL     OW31498   0.963   4.120   2.379 -0.3518 -0.0205  0.5055
 6621SOL    HW131499   1.001   4.039   2.342 -1.9026  0.9401 -3.1919
 6621SOL    HW231500   0.986   4.172   2.302 -2.1624  0.5600  0.3758
 6622SOL     OW31501   1.970   1.592   2.724 -0.0314  0.2117 -0.0475
 6622SOL    HW131502   2.010   1.513   2.689 -1.3465 -0.5872  0.2767
 6622SOL    HW231503   1.897   1.624   2.670  0.5849  3.0672  0.7933
 6623SOL     OW31504   2.259   3.166   4.864 -0.3713 -0.2434 -0.2633
 6623SOL    HW131505   2.235   3.176   4.772 -0.2505  2.0940 -0.0407
 6623SOL    HW231506   2.299   3.250   4.886  0.2439 -1.0066  1.5514
 6624SOL     OW31507   1.619   2.677   2.521 -0.6377  0.0185 -0.0700
 6624SOL    HW131508   1.549   2.704   2.462  0.3253 -0.5194 -1.4826
 6624SOL    HW231509   1.579   2.598   2.556 -0.9321 -0.0741 -0.6178
 6625SOL     OW31510   4.467   4.091  13.804 -0.7425 -0.2714 -0.1205
 6625SOL    HW131511   4.539   4.030  13.787  0.0326  0.2857  1.1716
 6625SOL    HW231512   4.437   4.119  13.718 -1.2709  0.5395  0.3355
 6626SOL     OW31513   0.991   1.725   5.190 -0.0251  0.5509  0.0446
 6626SOL    HW131514   1.047   1.710   5.267  1.5206 -0.9665 -1.3757
 6626SOL    HW231515   0.909   1.691   5.225  0.6362 -0.8636  0.2153
 6627SOL     OW31516   0.094   2.407  17.185 -0.1383  0.4645  0.0572
 6627SOL    HW131517   0.090   2.479  17.247 -1.3889 -1.0434  1.7060
 6627SOL    HW231518   0.155   2.440  17.119  0.4266  2.8892  1.8153
 6628SOL     OW31519   2.297   1.400  17.013  0.1095 -0.2047 -0.3102
 6628SOL    HW131520   2.291   1.387  17.108 -2.7878  3.9325  0.0755
 6628SOL    HW231521   2.240   1.476  17.004  0.3690 -0.2051 -2.0187
 6629SOL     OW31522   0.697   2.259   3.361 -0.5107  0.3909 -0.3762
 6629SOL    HW131523   0.758   2.275   3.433  0.5259  0.7692 -1.3647
 6629SOL    HW231524   0.615   2.234   3.405 -0.7071  1.3109 -0.2233
 6630SOL     OW31525   4.728   1.010   3.830  0.6573  0.3422  0.1274
 6630SOL    HW131526   0.034   1.073   3.883  1.2663 -1.3163  1.5674
 6630SOL    HW231527   4.724   1.049   3.743 -0.0068  0.5362  0.2439
 6631SOL     OW31528   0.870   1.146   0.644  0.0019 -0.2634  0.2451
 6631SOL    HW131529   0.915   1.189   0.570 -0.2937 -3.0561 -1.5571
 6631SOL    HW231530   0.868   1.214   0.711 -0.3745 -1.2426  1.2293
 6632SOL     OW31531   2.138   4.458  15.005  0.0781 -1.0723  0.1774
 6632SOL    HW131532   2.159   4.525  14.939  1.5797 -1.9726 -0.2571
 6632SOL    HW231533   2.199   4.481  15.075  1.5510  0.5553 -1.6381
 6633SOL     OW31534   1.290   3.082   4.439  0.4071 -0.5373 -0.2279
 6633SOL    HW131535   1.367   3.136   4.457  0.5978 -1.4366  1.6450
 6633SOL    HW231536   1.326   2.998   4.410  0.5487 -0.3237 -0.6732
 6634SOL     OW31537   1.134   0.277  17.142 -0.4182  0.9114 -0.4141
 6634SOL    HW131538   1.135   0.190  17.182 -0.1165 -0.0515 -2.4950
 6634SOL    HW231539   1.061   0.268  17.080 -0.7132  0.6039 -0.0255
 6635SOL     OW31540   1.141   3.833  12.267 -0.0320  0.6337  0.1217
 6635SOL    HW131541   1.063   3.778  12.278  0.6181 -0.3160 -0.0025
 6635SOL    HW231542   1.200   3.772  12.223 -1.6844 -0.9013  0.0381
 6636SOL     OW31543   3.158   3.879   5.640  0.0139  0.2763  0.2858
 6636SOL    HW131544   3.081   3.859   5.692 -0.2292 -0.6426 -0.4397
 6636SOL    HW231545   3.139   3.967   5.608 -0.4147  0.9325  2.3163
 6637SOL     OW31546   2.536   1.785   2.581 -0.7905 -0.4744 -0.2929
 6637SOL    HW131547   2.479   1.708   2.577 -1.4582 -0.0265  0.8203
 6637SOL    HW231548   2.620   1.758   2.618 -0.5318  0.7757  0.0109
 6638SOL     OW31549   1.400   4.327   2.828  1.3156  0.9531 -0.2594
 6638SOL    HW131550   1.416   4.392   2.897  1.1037  2.1413 -1.3265
 6638SOL    HW231551   1.405   4.245   2.878 -2.2390  0.6291 -0.4729
 6639SOL     OW31552   0.416   3.811   8.218  0.5923 -0.0506  0.2120
 6639SOL    HW131553   0.459   3.840   8.299 -0.3800 -0.0865  0.7324
 6639SOL    HW231554   0.336   3.772   8.253  1.2924 -2.4001 -0.7912
 6640SOL     OW31555   0.571   1.445   5.452 -0.8134 -0.5093  0.1032
 6640SOL    HW131556   0.560   1.416   5.542  1.0294 -1.8189 -0.1016
 6640SOL    HW231557   0.606   1.532   5.471 -1.8534 -0.7745  3.1691
 6641SOL     OW31558   1.495   2.601  13.582  0.3494  0.2809  0.3678
 6641SOL    HW131559   1.434   2.672  13.601 -2.3968 -2.2338  1.0155
 6641SOL    HW231560   1.443   2.544  13.525  0.2488 -1.4470  2.1863
 6642SOL     OW31561   0.905   2.456  17.743 -0.2030  0.6520  0.3413
 6642SOL    HW131562   1.000   2.454  17.730 -0.0888  0.9082  1.1724
 6642SOL    HW231563   0.897   2.542   0.015 -0.7314  0.1766  1.2578
 6643SOL     OW31564   2.129   4.704   2.085  0.3452 -0.0249 -0.1322
 6643SOL    HW131565   2.181   4.626   2.065  0.5221 -0.3200  1.5342
 6643SOL    HW231566   2.191   0.034   2.086 -0.7381  0.8561  2.5167
 6644SOL     OW31567   1.423   0.292   2.554  0.2235  0.3240  0.5866
 6644SOL    HW131568   1.489   0.332   2.497  1.7907 -3.9942 -0.7077
 6644SOL    HW231569   1.466   0.286   2.639  3.5140  0.9940 -1.0246
 6645SOL     OW31570   1.250   2.061   5.984  0.0031  0.2330 -0.2208
 6645SOL    HW131571   1.161   2.081   6.015  0.6601  2.2189  0.3711
 6645SOL    HW231572   1.245   2.038   5.891  0.2027 -0.5444 -0.0435
 6646SOL     OW31573   1.107   1.510   2.343 -0.0096  0.8046 -0.4516
 6646SOL    HW131574   1.089   1.416   2.341 -0.0968  0.7750  2.1261
 6646SOL    HW231575   1.200   1.513   2.321 -0.2518  0.3392 -1.5461
 6647SOL     OW31576   3.437   3.054   3.254 -0.1183  0.1882  0.2769
 6647SOL    HW131577   3.472   2.998   3.324 -0.3179 -0.9678 -0.5463
 6647SOL    HW231578   3.344   3.032   3.251 -0.5923  2.2519  0.1930
 6648SOL     OW31579   0.866   2.337   5.831 -0.4880  0.2390  0.0891
 6648SOL    HW131580   0.851   2.338   5.736 -1.4575  2.2728  0.2723
 6648SOL    HW231581   0.823   2.423   5.833  0.3848  0.6651  0.4704
 6649SOL     OW31582   4.428   1.879   6.391 -0.3113 -0.8359  0.1266
 6649SOL    HW131583   4.495   1.914   6.450  0.3668  1.3177 -1.9054
 6649SOL    HW231584   4.404   1.793   6.425 -0.3947 -1.0085 -0.3707
 6650SOL     OW31585   1.780   2.804   2.083 -0.1753  0.1147 -0.3231
 6650SOL    HW131586   1.781   2.842   2.171 -3.9124 -0.8882  0.1599
 6650SOL    HW231587   1.794   2.714   2.113 -1.8811 -0.1700 -0.3982
 6651SOL     OW31588   4.406   0.922   8.523  0.1587 -0.3421  0.1513
 6651SOL    HW131589   4.478   0.984   8.531 -0.1198 -0.0924  0.7489
 6651SOL    HW231590   4.441   0.855   8.582  1.2628  0.0545 -0.0470
 6652SOL     OW31591   2.433   1.907   9.671 -0.3187  0.0594  0.3735
 6652SOL    HW131592   2.436   1.880   9.763  3.0440 -0.6419  0.0451
 6652SOL    HW231593   2.348   1.870   9.646  0.1049 -1.7795  1.6412
 6653SOL     OW31594   2.558   1.960   5.685 -0.3701 -0.4462 -0.4877
 6653SOL    HW131595   2.473   1.980   5.646  0.2166  0.8867 -1.0694
 6653SOL    HW231596   2.564   1.865   5.678 -0.1254 -0.3652 -1.3305
 6654SOL     OW31597   4.625   4.473   8.684 -0.1734  0.2071  0.0222
 6654SOL    HW131598   4.670   4.388   8.679  0.8137  0.6432  1.6171
 6654SOL    HW231599   4.664   4.520   8.758  0.7330  0.6167 -0.7107
 6655SOL     OW31600   3.540   2.336   8.640 -0.7186  0.2333  0.2780
 6655SOL    HW131601   3.629   2.342   8.607 -0.2267 -0.6908  1.4473
 6655SOL    HW231602   3.497   2.414   8.607 -0.6696  0.8281  1.6128
 6656SOL     OW31603   1.952   3.937   5.463  0.3821  0.8645  0.4103
 6656SOL    HW131604   1.912   3.993   5.396 -1.1116  1.5876  1.9029
 6656SOL    HW231605   2.040   3.973   5.469  0.2858  1.1239  0.2570
 6657SOL     OW31606   0.027   3.380   7.748  0.1289  0.2643 -0.0177
 6657SOL    HW131607   0.067   3.376   7.661  2.5016 -1.0434  1.1248
 6657SOL    HW231608   4.686   3.336   7.732 -0.5393  1.7119 -0.4376
 6658SOL     OW31609   3.191   3.102   2.379  0.2198 -0.7520  0.5206
 6658SOL    HW131610   3.268   3.046   2.372 -0.5383 -1.7126 -0.2290
 6658SOL    HW231611   3.196   3.135   2.289  0.5880 -1.5616  0.2429
 6659SOL     OW31612   2.389   4.346   7.850  1.0274  0.1944  0.0155
 6659SOL    HW131613   2.432   4.351   7.765  4.3184 -2.5850  1.4702
 6659SOL    HW231614   2.310   4.299   7.826  0.5094  0.2000  1.6839
 6660SOL     OW31615   2.192   0.904  14.011 -0.2762  0.0508 -0.1009
 6660SOL    HW131616   2.200   0.884  13.917 -1.8113  0.6294 -0.3479
 6660SOL    HW231617   2.192   0.999  14.008  3.1485 -0.0060 -2.5846
 6661SOL     OW31618   3.207   4.097  12.547  0.4880  0.0068 -0.0325
 6661SOL    HW131619   3.143   4.166  12.531  2.5794  1.9038 -0.2489
 6661SOL    HW231620   3.180   4.079  12.637 -1.8169 -1.2472 -0.9715
 6662SOL     OW31621   1.234   2.344  16.067  0.4745 -0.2984 -0.1479
 6662SOL    HW131622   1.191   2.346  15.981 -0.2848 -1.5909  0.1847
 6662SOL    HW231623   1.155   2.324  16.119 -0.5804  2.2062 -0.7853
 6663SOL     OW31624   1.314   2.274   5.377  0.3792  0.3687 -0.4437
 6663SOL    HW131625   1.228   2.239   5.357  0.2916 -0.7337  1.7695
 6663SOL    HW231626   1.314   2.324   5.459  0.4421 -0.9699  0.3923
 6664SOL     OW31627   0.367   3.103   1.536 -0.3083  0.3917  0.0190
 6664SOL    HW131628   0.399   3.192   1.522 -0.3025  0.0254 -2.4161
 6664SOL    HW231629   0.289   3.096   1.482  0.4567  1.6576 -1.2602
 6665SOL     OW31630   1.361   0.510  13.712 -0.0247 -0.2261 -0.4486
 6665SOL    HW131631   1.382   0.431  13.662  2.3484  0.6006 -0.7801
 6665SOL    HW231632   1.282   0.477  13.755 -0.8122  0.4043 -1.4127
 6666SOL     OW31633   3.102   1.290  13.343 -0.5539 -0.3821 -0.3519
 6666SOL    HW131634   3.081   1.198  13.324  0.6585 -0.7757  0.2117
 6666SOL    HW231635   3.123   1.282  13.436  0.3183 -0.1599 -0.5299
 6667SOL     OW31636   2.511   3.323  17.222 -0.2621 -0.5470  0.0535
 6667SOL    HW131637   2.450   3.395  17.208  0.5604 -0.6225 -3.8243
 6667SOL    HW231638   2.465   3.264  17.282  0.9476 -1.1336  0.4191
 6668SOL     OW31639   4.164   0.546   7.888 -0.0221  0.2552  0.1918
 6668SOL    HW131640   4.253   0.566   7.859  0.4846 -1.6476  0.4839
 6668SOL    HW231641   4.125   0.604   7.822  0.2530 -1.4276 -1.4379
 6669SOL     OW31642   2.118   0.585  14.021  0.3328 -0.1537 -0.5338
 6669SOL    HW131643   2.178   0.641  13.971 -0.1593 -0.5190 -1.5250
 6669SOL    HW231644   2.150   0.609  14.108  0.0565 -2.0460  0.0908
 6670SOL     OW31645   4.131   3.156   9.200  0.0326 -0.2342 -0.0983
 6670SOL    HW131646   4.212   3.202   9.178 -1.0205  1.9973  0.6921
 6670SOL    HW231647   4.091   3.219   9.260 -0.3770 -0.6925  0.1074
 6671SOL     OW31648   2.135   4.418   2.322 -0.2906 -0.4075  0.5394
 6671SOL    HW131649   2.042   4.410   2.298  0.3721 -0.3642 -2.0577
 6671SOL    HW231650   2.150   4.330   2.356 -0.7609  0.0173  1.8497
 6672SOL     OW31651   0.498   2.213   8.607  0.1684 -0.4255  0.4493
 6672SOL    HW131652   0.566   2.146   8.612 -1.3973 -2.1053 -0.9336
 6672SOL    HW231653   0.494   2.231   8.513 -1.4304 -0.1337  0.5742
 6673SOL     OW31654   4.527   1.041   6.454  0.2536  0.7853  0.6113
 6673SOL    HW131655   4.476   1.096   6.396 -0.1609 -1.0775 -0.8098
 6673SOL    HW231656   4.587   0.999   6.392 -0.9479 -0.5351  0.3319
 6674SOL     OW31657   0.269   2.431   5.792  0.0989  0.3680 -0.1243
 6674SOL    HW131658   0.313   2.458   5.712 -0.0847  0.7324 -0.1012
 6674SOL    HW231659   0.198   2.385   5.747 -0.9403  1.5460  0.3002
 6675SOL     OW31660   1.854   0.131  17.526  0.2168 -0.6461 -0.3255
 6675SOL    HW131661   1.780   0.147  17.585  0.1926  0.0517 -0.5445
 6675SOL    HW231662   1.847   0.037  17.512  1.3910 -0.7588 -0.1095
 6676SOL     OW31663   4.645   1.387  17.692 -0.0823 -0.0845  0.3383
 6676SOL    HW131664   4.588   1.321  17.733 -0.4623  0.9326  1.4579
 6676SOL    HW231665   4.647   1.365  17.599 -1.7864 -1.0759  0.5338
 6677SOL     OW31666   1.326   1.965   2.374 -0.1604 -0.1824 -0.2794
 6677SOL    HW131667   1.303   1.891   2.431  0.7591  0.2746  0.6911
 6677SOL    HW231668   1.350   1.911   2.299  0.1757  0.2445 -0.4786
 6678SOL     OW31669   2.339   2.310   3.357 -0.1315 -0.2253 -0.2744
 6678SOL    HW131670   2.248   2.320   3.328 -0.7167  0.4553  1.8265
 6678SOL    HW231671   2.381   2.259   3.288  1.6785  0.5690  0.2289
 6679SOL     OW31672   3.961   3.047   3.877  0.1431 -0.3541  0.1997
 6679SOL    HW131673   3.990   3.041   3.786 -2.1815 -1.3707 -0.4994
 6679SOL    HW231674   4.002   3.130   3.898  1.2348 -0.5805 -1.0264
 6680SOL     OW31675   4.521   1.923  15.427  0.5656  0.0130 -0.1955
 6680SOL    HW131676   4.428   1.942  15.441  0.8725  1.1880  0.2202
 6680SOL    HW231677   4.514   1.904  15.334  0.1463  0.9793 -0.3642
 6681SOL     OW31678   1.836   0.302   1.992  0.0622 -0.0897 -0.1468
 6681SOL    HW131679   1.894   0.314   2.068  1.3373 -1.0867 -0.9546
 6681SOL    HW231680   1.754   0.263   2.020  0.5782  0.5326  2.2816
 6682SOL     OW31681   4.622   4.472   3.850 -0.3832 -0.0963  0.2972
 6682SOL    HW131682   4.627   4.552   3.797 -0.3755  0.0120  0.4601
 6682SOL    HW231683   4.603   4.505   3.938  1.3593  0.9467  0.2731
 6683SOL     OW31684   3.201   1.205  11.299  0.7499  0.0950 -0.2218
 6683SOL    HW131685   3.109   1.232  11.305  1.0412  1.2696 -0.9859
 6683SOL    HW231686   3.220   1.227  11.208  0.5129  2.9135  0.3971
 6684SOL     OW31687   1.128   2.113   3.995 -0.2170 -0.2367  0.2149
 6684SOL    HW131688   1.061   2.058   3.955 -3.2767  1.8180  2.5484
 6684SOL    HW231689   1.111   2.198   3.955 -0.8009 -1.5465 -2.3260
 6685SOL     OW31690   2.288   3.872   4.065 -0.0754  0.4526 -0.9001
 6685SOL    HW131691   2.272   3.802   4.002  0.1203  1.3332 -1.9211
 6685SOL    HW231692   2.235   3.837   4.136  0.4278  0.3483 -0.5697
 6686SOL     OW31693   2.784   0.504   5.666 -0.1333  0.2034 -0.0420
 6686SOL    HW131694   2.706   0.541   5.624  0.6734  3.3650  1.2223
 6686SOL    HW231695   2.754   0.514   5.756 -2.0529  0.4728 -0.6960
 6687SOL     OW31696   2.426   2.705   2.387  0.3668 -0.2889  0.2780
 6687SOL    HW131697   2.377   2.717   2.468  1.6136 -2.6806  1.3899
 6687SOL    HW231698   2.380   2.754   2.319  2.1281  1.6696  0.4846
 6688SOL     OW31699   3.651   0.159   7.125  0.7336 -0.8685  0.0121
 6688SOL    HW131700   3.614   0.149   7.213  0.5150  0.6510  0.0922
 6688SOL    HW231701   3.616   0.246   7.104 -2.0372 -1.7178  1.0241
 6689SOL     OW31702   4.736   2.965   4.806 -0.4678 -0.1652 -0.2221
 6689SOL    HW131703   0.011   2.872   4.795 -1.0108 -0.2628 -0.2652
 6689SOL    HW231704   4.722   2.991   4.715 -2.8721 -3.4685 -0.8028
 6690SOL     OW31705   3.160   3.007   4.419 -0.2804 -0.6302  0.2310
 6690SOL    HW131706   3.152   2.953   4.340  1.7362 -0.0648 -0.3519
 6690SOL    HW231707   3.078   2.983   4.462 -0.1771  0.9503  1.3059
 6691SOL     OW31708   1.627   2.412   4.050  0.1561  0.5226  0.6203
 6691SOL    HW131709   1.588   2.331   4.084  3.3047 -1.4790 -0.5309
 6691SOL    HW231710   1.548   2.467   4.057  1.0759  2.1382 -1.7414
 6692SOL     OW31711   1.688   4.632  16.063 -0.3684  0.0510  0.0255
 6692SOL    HW131712   1.751   4.699  16.038  0.1367 -0.9241 -1.2685
 6692SOL    HW231713   1.745   4.571  16.109 -0.6960  1.5082  2.4320
 6693SOL     OW31714   0.228   1.781   0.474 -0.6622 -0.3217  0.0039
 6693SOL    HW131715   0.274   1.699   0.456 -0.8146 -0.4129  0.0357
 6693SOL    HW231716   0.269   1.808   0.556 -4.4158 -3.1120  2.7183
 6694SOL     OW31717   3.331   2.027   5.030 -0.5338 -0.6819 -0.8364
 6694SOL    HW131718   3.333   2.011   4.935  0.3208 -3.5019 -0.3508
 6694SOL    HW231719   3.271   1.961   5.065 -0.1797 -0.4693  0.1455
 6695SOL     OW31720   2.786   3.860   4.596 -0.0104  0.0240 -0.3401
 6695SOL    HW131721   2.876   3.861   4.628 -0.2747 -0.6321  0.4328
 6695SOL    HW231722   2.797   3.929   4.531 -2.8411  1.6392  0.9460
 6696SOL     OW31723   4.582   3.086   9.896  0.1282 -0.3434  0.0411
 6696SOL    HW131724   4.610   3.100   9.805 -0.2921  2.2330  0.2885
 6696SOL    HW231725   4.661   3.043   9.926 -0.5740 -1.1391  0.7479
 6697SOL     OW31726   1.934   3.330  13.686 -0.4934  0.0928 -0.0606
 6697SOL    HW131727   1.940   3.353  13.779 -1.3704  1.4132 -0.3255
 6697SOL    HW231728   1.842   3.353  13.672 -0.2234  0.4765 -1.2095
 6698SOL     OW31729   2.939   1.303   8.008 -0.1667 -0.6515  0.3643
 6698SOL    HW131730   2.891   1.260   8.078  2.4093 -1.5807  1.5505
 6698SOL    HW231731   2.879   1.284   7.936 -1.1645 -2.2117  1.6079
 6699SOL     OW31732   1.143   4.435   8.510  0.0923  0.2633  0.2162
 6699SOL    HW131733   1.213   4.435   8.576 -0.5580 -1.3768  0.8938
 6699SOL    HW231734   1.152   4.351   8.466 -1.8231  0.6391 -0.8846
 6700SOL     OW31735   1.406   3.147   5.913  0.0584 -0.4655 -0.1262
 6700SOL    HW131736   1.480   3.203   5.934 -0.3832 -1.0269  2.9962
 6700SOL    HW231737   1.364   3.203   5.848 -1.2276 -0.2909  0.8639
 6701SOL     OW31738   3.655   0.092  14.602 -0.3349  0.0413  0.1120
 6701SOL    HW131739   3.711   0.129  14.534 -1.0165 -0.1222 -0.5451
 6701SOL    HW231740   3.723   0.056  14.658 -1.7908 -2.3084  0.3706
 6702SOL     OW31741   3.402   3.472   0.509 -0.1660 -0.2825 -0.5222
 6702SOL    HW131742   3.493   3.490   0.529  0.2372  0.1913 -2.7313
 6702SOL    HW231743   3.373   3.564   0.511  0.4564 -0.0156 -3.1193
 6703SOL     OW31744   4.428   0.938   5.401 -0.1902  0.4437 -0.4636
 6703SOL    HW131745   4.364   1.009   5.405 -1.2819 -0.6651  1.1824
 6703SOL    HW231746   4.395   0.877   5.466 -0.7462  1.2911  0.0487
 6704SOL     OW31747   4.344   2.049   3.848 -0.6801  0.3654  0.1150
 6704SOL    HW131748   4.315   2.139   3.864 -2.1698 -0.3207  1.3412
 6704SOL    HW231749   4.293   2.033   3.769 -0.0685 -1.5752  0.1299
 6705SOL     OW31750   0.476   0.111   2.880 -0.0087 -0.0282  0.0544
 6705SOL    HW131751   0.563   0.088   2.847  0.3080  1.0388  0.1388
 6705SOL    HW231752   0.446   0.030   2.921  1.1301 -0.8094 -0.6479
 6706SOL     OW31753   2.506   0.055   3.480  0.4039  0.4056 -0.4172
 6706SOL    HW131754   2.428   0.044   3.534  1.9655  0.2033  1.7813
 6706SOL    HW231755   2.496   4.722   3.423 -0.3228 -0.6417  1.1080
 6707SOL     OW31756   0.113   2.574   7.358  0.5775 -0.4639  0.3752
 6707SOL    HW131757   0.151   2.511   7.419 -2.5828 -1.1682  1.6636
 6707SOL    HW231758   0.120   2.514   7.285  1.2767  0.1812 -0.0849
 6708SOL     OW31759   4.463   4.536   1.850  0.5920 -0.0020 -0.0349
 6708SOL    HW131760   4.552   4.560   1.823  0.2808  0.8791 -0.2626
 6708SOL    HW231761   4.444   4.465   1.788 -0.1205 -0.7686  1.0607
 6709SOL     OW31762   2.529   1.138   2.312 -0.0319  0.2412 -0.1055
 6709SOL    HW131763   2.527   1.150   2.217 -1.3723 -1.3051 -0.2764
 6709SOL    HW231764   2.487   1.221   2.337  2.4637  1.0723  1.3662
 6710SOL     OW31765   1.486   3.249  14.487 -0.1728 -0.7384  0.3772
 6710SOL    HW131766   1.441   3.218  14.565  0.2931 -0.6624  0.6726
 6710SOL    HW231767   1.536   3.320  14.527 -1.9368 -0.0564  1.4128
 6711SOL     OW31768   0.207   4.710   1.402  0.1710  0.4341  0.0735
 6711SOL    HW131769   0.298   4.703   1.429  0.1334 -1.1729 -0.2220
 6711SOL    HW231770   0.208   4.686   1.309 -1.0430  0.8859 -0.0589
 6712SOL     OW31771   2.701   1.186   6.240  0.4181  0.1564 -0.8127
 6712SOL    HW131772   2.672   1.095   6.251 -2.4350  0.7595 -3.3945
 6712SOL    HW231773   2.677   1.212   6.151 -1.0316  1.2508 -0.1047
 6713SOL     OW31774   0.219   1.461   1.888  0.1418  0.5238 -0.0414
 6713SOL    HW131775   0.169   1.464   1.970 -0.8447  1.2517 -0.6617
 6713SOL    HW231776   0.160   1.430   1.818  0.2628 -2.0578  1.0006
 6714SOL     OW31777   0.004   0.342   8.208  0.0639  0.0125 -0.0874
 6714SOL    HW131778   4.718   0.359   8.298 -4.0178  1.6261 -1.6790
 6714SOL    HW231779   0.054   0.422   8.189 -0.3123  0.0631 -0.8691
 6715SOL     OW31780   1.265   0.274   2.949 -0.2089 -0.6402  0.0839
 6715SOL    HW131781   1.350   0.317   2.952  0.2987 -1.6765  0.7268
 6715SOL    HW231782   1.238   0.302   2.862  2.3346 -0.7861 -0.7581
 6716SOL     OW31783   4.583   2.487   6.088  0.1200 -0.4795 -0.6350
 6716SOL    HW131784   4.644   2.434   6.138  1.3041  1.1244 -0.3923
 6716SOL    HW231785   4.626   2.572   6.093  0.7167 -0.7915 -0.5681
 6717SOL     OW31786   3.844   0.262   0.254  0.2613  0.8139 -0.1202
 6717SOL    HW131787   3.895   0.190   0.293 -1.3001 -0.2563 -0.0422
 6717SOL    HW231788   3.821   0.221   0.171  2.1421 -0.5510  0.0107
 6718SOL     OW31789   3.899   0.666   6.617 -0.4642 -0.3552 -0.0521
 6718SOL    HW131790   3.954   0.705   6.686 -1.9648 -0.4020  1.1584
 6718SOL    HW231791   3.898   0.573   6.641  0.7121  0.1280  1.9189
 6719SOL     OW31792   2.023   3.667   2.806 -0.3336 -0.1585  0.1585
 6719SOL    HW131793   2.021   3.588   2.860 -2.5232  0.8473  1.5698
 6719SOL    HW231794   2.030   3.620   2.723  1.8763 -0.4638  0.4974
 6720SOL     OW31795   0.930   1.513   3.402  0.0897  0.1130  0.4633
 6720SOL    HW131796   0.988   1.543   3.332  1.0623 -0.3204  1.0855
 6720SOL    HW231797   0.873   1.588   3.417 -0.4797  0.0386 -1.2439
 6721SOL     OW31798   0.446   4.439  14.984 -0.0698  0.1049 -0.0667
 6721SOL    HW131799   0.491   4.469  15.063  0.6020  0.3717 -0.5485
 6721SOL    HW231800   0.501   4.479  14.916 -0.8108  2.0358  0.4752
 6722SOL     OW31801   4.325   0.431  15.665  0.3041 -0.1121  0.1105
 6722SOL    HW131802   4.341   0.434  15.571  0.4116 -1.7046  0.0870
 6722SOL    HW231803   4.286   0.344  15.674  2.4539 -1.2148 -1.4837
 6723SOL     OW31804   0.227   3.056   4.943  0.0816  0.0642  0.1306
 6723SOL    HW131805   0.140   3.043   4.906  0.3026  2.7093 -1.3580
 6723SOL    HW231806   0.278   3.098   4.874  2.8245 -3.0708  0.2640
 6724SOL     OW31807   3.853   1.118  17.000  0.1772  0.3304 -0.1232
 6724SOL    HW131808   3.912   1.044  16.987  0.0792  0.4895 -1.4512
 6724SOL    HW231809   3.909   1.195  17.009 -1.0184  0.9521  1.9801
 6725SOL     OW31810   2.074   1.532   6.898  0.2611 -0.3243  0.7467
 6725SOL    HW131811   2.138   1.538   6.969  2.2167 -0.8967 -0.9646
 6725SOL    HW231812   2.000   1.532   6.959 -1.8791  0.9521 -1.8302
 6726SOL     OW31813   2.472   0.769   1.373 -0.0156 -0.3159 -0.6155
 6726SOL    HW131814   2.390   0.815   1.358  0.3365  0.8310  0.9686
 6726SOL    HW231815   2.510   0.777   1.286  1.1626  1.4709  0.0703
 6727SOL     OW31816   3.535   1.826  10.005 -0.2973  0.7619  0.1731
 6727SOL    HW131817   3.449   1.851  10.040 -2.0259 -1.8419 -2.2425
 6727SOL    HW231818   3.572   1.914   9.998  0.3834  0.3735 -1.1390
 6728SOL     OW31819   1.214   3.035  15.882  0.0795 -0.2144 -0.0889
 6728SOL    HW131820   1.151   3.072  15.943 -0.4037 -1.7209  0.3247
 6728SOL    HW231821   1.293   3.062  15.930  1.1029 -0.2435 -1.7432
 6729SOL     OW31822   3.162   3.205  10.421 -0.1829  0.4389 -0.2081
 6729SOL    HW131823   3.157   3.296  10.392  2.1027  0.6840  0.1598
 6729SOL    HW231824   3.243   3.214  10.471  0.8439  0.4019 -1.8612
 6730SOL     OW31825   0.887   4.407  15.302 -0.2128 -0.1375 -0.0077
 6730SOL    HW131826   0.884   4.367  15.389  0.4736  0.0147  0.0842
 6730SOL    HW231827   0.877   4.329  15.249  1.7806 -0.7294  0.4847
 6731SOL     OW31828   2.262   1.746   3.985  0.0170 -0.5857  0.1750
 6731SOL    HW131829   2.245   1.732   3.892 -1.3727 -1.0060  0.4957
 6731SOL    HW231830   2.358   1.749   3.988 -0.1101  2.4058  1.8789
 6732SOL     OW31831   0.288   1.754   5.981 -0.1262 -0.3170 -0.1807
 6732SOL    HW131832   0.237   1.734   5.902  0.4826 -1.2292 -0.3355
 6732SOL    HW231833   0.292   1.661   6.004  0.9818  0.3903  2.4121
 6733SOL     OW31834   2.154   2.455   4.658 -0.3722 -0.0794 -0.0395
 6733SOL    HW131835   2.236   2.464   4.706  0.0991  0.6702 -0.9955
 6733SOL    HW231836   2.174   2.383   4.597 -0.3606  0.5423 -0.7667
 6734SOL     OW31837   2.535   3.774   5.032  0.0722  0.2502  0.1108
 6734SOL    HW131838   2.573   3.758   4.945 -1.5648  0.9092 -0.7141
 6734SOL    HW231839   2.504   3.685   5.045  0.0336 -0.1303 -2.6097
 6735SOL     OW31840   3.890   4.625   0.172 -0.2926  0.6480 -0.1441
 6735SOL    HW131841   3.977   4.662   0.184  0.2142  0.8301 -4.4518
 6735SOL    HW231842   3.856   4.687   0.108 -0.8024  1.0209  0.4891
 6736SOL     OW31843   0.302   3.909   5.229 -0.3314  0.4120  0.5670
 6736SOL    HW131844   0.208   3.899   5.221 -0.0530 -2.5356  1.0788
 6736SOL    HW231845   0.336   3.839   5.174 -0.7261  1.1425 -0.6206
 6737SOL     OW31846   2.898   1.955  10.115  0.2000  0.5053 -0.1445
 6737SOL    HW131847   2.814   1.910  10.122 -0.4886  2.1419  2.1190
 6737SOL    HW231848   2.963   1.891  10.144 -0.2587 -0.7339 -1.8480
 6738SOL     OW31849   3.648   0.921   3.967 -0.6151  0.1875  0.4353
 6738SOL    HW131850   3.598   0.973   4.030 -1.1366 -1.0685  1.0482
 6738SOL    HW231851   3.659   0.839   4.016 -0.6919 -0.4030 -0.5374
 6739SOL     OW31852   1.630   1.790   7.121 -0.0799 -0.4489 -0.2110
 6739SOL    HW131853   1.653   1.881   7.134  0.4316 -0.5754 -0.2381
 6739SOL    HW231854   1.598   1.776   7.031 -0.4498  1.4135 -0.3690
 6740SOL     OW31855   3.136   3.931   5.179 -0.2747  0.2144  0.2847
 6740SOL    HW131856   3.158   3.898   5.092 -1.2987 -1.2887  0.6006
 6740SOL    HW231857   3.199   4.003   5.179 -2.0873  1.8181  1.6196
 6741SOL     OW31858   2.982   0.614  11.457  0.0479 -0.6755  0.4169
 6741SOL    HW131859   2.962   0.591  11.367  0.2390 -1.6568  0.6302
 6741SOL    HW231860   2.920   0.567  11.512 -1.5441 -0.1568 -0.9415
 6742SOL     OW31861   2.591   1.093   4.808  0.3546 -0.0127 -0.7394
 6742SOL    HW131862   2.507   1.119   4.771  0.4566 -0.9716 -1.6691
 6742SOL    HW231863   2.629   1.052   4.730  2.5557 -0.0671  0.3848
 6743SOL     OW31864   3.592   1.372   3.946  0.2168  0.1472  0.5352
 6743SOL    HW131865   3.669   1.418   3.980  1.2276 -1.1679  0.0422
 6743SOL    HW231866   3.556   1.431   3.880  2.7618  1.0333 -0.0935
 6744SOL     OW31867   2.751   3.523   7.673  0.3609 -0.1911  0.1829
 6744SOL    HW131868   2.798   3.451   7.716  3.1602  1.5769  0.0141
 6744SOL    HW231869   2.790   3.601   7.712 -0.3833  0.4438 -0.3473
 6745SOL     OW31870   3.111   2.592   8.888  0.0713  0.0405  0.2781
 6745SOL    HW131871   3.157   2.555   8.812 -1.7351  0.2310 -0.9047
 6745SOL    HW231872   3.110   2.685   8.864 -1.8663  0.7584  3.0923
 6746SOL     OW31873   4.640   0.706   1.749  0.0273  0.1213 -0.3534
 6746SOL    HW131874   4.676   0.634   1.802 -2.4594 -0.5105  0.4824
 6746SOL    HW231875   4.607   0.655   1.675  1.0817  0.8094 -1.2825
 6747SOL     OW31876   4.494   0.592   3.415  0.1515 -0.4489 -0.1590
 6747SOL    HW131877   4.485   0.509   3.462  1.7337 -0.0702  0.8337
 6747SOL    HW231878   4.436   0.647   3.468  1.2303 -0.6876  1.2832
 6748SOL     OW31879   1.698   4.164  13.463  0.3375  0.2024 -0.0299
 6748SOL    HW131880   1.647   4.085  13.482 -2.2652  2.1456  0.9130
 6748SOL    HW231881   1.766   4.151  13.529 -1.0139  0.2363  1.3579
 6749SOL     OW31882   3.938   1.435  11.267 -0.1354 -0.0756  0.0312
 6749SOL    HW131883   4.016   1.438  11.212 -0.1548 -3.1779 -0.1669
 6749SOL    HW231884   3.872   1.493  11.230  0.7525  0.8764 -0.0687
 6750SOL     OW31885   1.625   4.313  16.877 -0.0552  0.2434 -0.1298
 6750SOL    HW131886   1.595   4.367  16.950 -1.8087 -2.7673  1.3561
 6750SOL    HW231887   1.663   4.374  16.813 -1.8213 -1.9940 -3.3290
 6751SOL     OW31888   0.697   2.138   5.921  0.0746 -0.6026 -0.0901
 6751SOL    HW131889   0.768   2.188   5.882 -1.7314  1.3181 -0.8919
 6751SOL    HW231890   0.633   2.208   5.915  2.1160  1.2542 -0.2942
 6752SOL     OW31891   3.863   2.321   8.593  0.7635 -0.0282 -0.1167
 6752SOL    HW131892   3.833   2.244   8.544  1.0134 -0.3972  0.3038
 6752SOL    HW231893   3.886   2.285   8.679 -0.9646  1.3491  0.8950
 6753SOL     OW31894   2.442   4.575   2.504  0.4639  0.0014 -0.3760
 6753SOL    HW131895   2.437   4.535   2.418 -0.8419  2.3372 -1.3824
 6753SOL    HW231896   2.382   4.522   2.558 -0.9767  0.2162 -1.7729
 6754SOL     OW31897   3.270   4.547   3.924 -0.1574  0.1025  0.1611
 6754SOL    HW131898   3.276   4.583   3.835 -1.9848 -0.2333 -0.0976
 6754SOL    HW231899   3.363   4.532   3.942 -0.0434 -0.3979 -0.8339
 6755SOL     OW31900   1.859   3.671   7.137  0.5491  0.0404  0.2317
 6755SOL    HW131901   1.849   3.614   7.061 -1.7587  0.1430  0.4333
 6755SOL    HW231902   1.953   3.675   7.154  0.3964  1.4770  0.7366
 6756SOL     OW31903   0.955   3.067   6.681 -0.5995 -0.0536 -0.0265
 6756SOL    HW131904   0.991   3.155   6.671 -0.3626  0.0579  1.7225
 6756SOL    HW231905   1.015   3.024   6.742  0.3605 -0.5888 -1.3497
 6757SOL     OW31906   4.730   4.617  16.740  0.1025 -0.1486 -0.1361
 6757SOL    HW131907   4.646   4.600  16.780  0.3842  1.6369  1.2137
 6757SOL    HW231908   4.740   4.540  16.683  1.1173  0.2770 -0.5517
 6758SOL     OW31909   3.442   1.448   7.982 -0.7801 -0.1953  0.1488
 6758SOL    HW131910   3.375   1.379   7.984 -2.2208  1.1513 -1.6781
 6758SOL    HW231911   3.471   1.449   8.073 -1.5616  1.7311  0.3694
 6759SOL     OW31912   0.416   4.629   4.778  0.3972  0.1823  0.3948
 6759SOL    HW131913   0.336   4.669   4.744  1.1781  2.0522  0.7663
 6759SOL    HW231914   0.413   4.535   4.759  0.4986  0.6082 -1.8013
 6760SOL     OW31915   4.362   4.384   8.538  0.6495  0.3413  0.0074
 6760SOL    HW131916   4.360   4.329   8.460 -2.7367 -1.5951  1.4435
 6760SOL    HW231917   4.440   4.350   8.583  1.6303  0.7942 -1.3563
 6761SOL     OW31918   1.737   3.805   7.501  0.2117  0.3906 -0.4909
 6761SOL    HW131919   1.741   3.871   7.432  1.6719  1.7040  0.8222
 6761SOL    HW231920   1.829   3.786   7.522  0.3828  0.7729 -0.8917
 6762SOL     OW31921   3.057   1.127   9.873 -0.6195  0.4250  0.0593
 6762SOL    HW131922   3.137   1.097   9.830 -0.5482  1.3444 -0.4460
 6762SOL    HW231923   3.053   1.059   9.941 -1.0030  0.3224 -0.0639
 6763SOL     OW31924   2.868   3.250   9.586  0.3640 -0.5917 -0.1182
 6763SOL    HW131925   2.789   3.219   9.631  1.0193  0.4525  1.7604
 6763SOL    HW231926   2.925   3.175   9.597  1.1561 -0.0223 -0.3400
 6764SOL     OW31927   1.027   2.605   4.077  0.2774 -0.1433  0.1089
 6764SOL    HW131928   1.072   2.682   4.041  0.2447 -0.4866 -0.6779
 6764SOL    HW231929   0.956   2.638   4.132 -0.0689 -2.3624  1.0062
 6765SOL     OW31930   0.339   1.503   0.410 -0.5771 -0.5407 -0.5321
 6765SOL    HW131931   0.283   1.425   0.407 -0.0573 -0.7505 -5.1242
 6765SOL    HW231932   0.429   1.471   0.415 -1.1337 -2.4002 -2.5994
 6766SOL     OW31933   1.604   1.794   6.601  0.4302 -0.0912 -0.0869
 6766SOL    HW131934   1.632   1.704   6.583 -2.1188 -1.3095  2.1292
 6766SOL    HW231935   1.656   1.844   6.537 -0.7794 -0.8991 -1.6999
 6767SOL     OW31936   2.573   0.327   7.443  0.1044  0.2472 -0.0789
 6767SOL    HW131937   2.614   0.241   7.456 -1.1291 -0.3780 -0.3592
 6767SOL    HW231938   2.629   0.395   7.481 -1.7226  0.7121  1.8161
 6768SOL     OW31939   0.119   1.214   8.748  0.2083 -0.8526  0.1393
 6768SOL    HW131940   0.082   1.302   8.754  1.0823 -0.2836 -2.5225
 6768SOL    HW231941   0.156   1.204   8.836  0.4045 -0.9602  0.0447
 6769SOL     OW31942   1.707   2.256  15.987 -0.2574  0.3398 -0.2096
 6769SOL    HW131943   1.634   2.257  15.926 -0.6012  0.8247  0.2066
 6769SOL    HW231944   1.649   2.222  16.055 -0.4403 -0.5008 -0.7830
 6770SOL     OW31945   3.875   4.391  12.323 -0.2655  0.9883  0.7263
 6770SOL    HW131946   3.959   4.409  12.280 -0.4965  1.1388  0.3408
 6770SOL    HW231947   3.811   4.395  12.252  1.1886  0.3377 -0.6271
 6771SOL     OW31948   0.921   0.221   7.651  0.2491  0.6526 -0.3859
 6771SOL    HW131949   0.989   0.217   7.583  0.4161  1.3261 -0.2594
 6771SOL    HW231950   0.951   0.156   7.714 -0.8350 -1.1857 -1.7500
 6772SOL     OW31951   4.428   4.077  11.830  0.2314  0.0281  0.7216
 6772SOL    HW131952   4.378   4.004  11.793 -0.3377  0.2014  1.1334
 6772SOL    HW231953   4.487   4.096  11.758 -0.7408  1.2540  0.2446
 6773SOL     OW31954   1.153   2.965   6.833  0.2503 -0.2152  0.1365
 6773SOL    HW131955   1.200   3.045   6.813  0.9897  0.1933  3.4464
 6773SOL    HW231956   1.223   2.900   6.842 -0.0373 -0.6372 -0.6755
 6774SOL     OW31957   2.850   0.051   5.485 -0.0092 -0.3140  0.1209
 6774SOL    HW131958   2.764   0.088   5.463  0.6144  0.8274 -0.3861
 6774SOL    HW231959   2.903   0.076   5.410  0.8158 -0.2126  0.7396
 6775SOL     OW31960   3.857   1.542   7.499  0.0074  0.5488  0.2539
 6775SOL    HW131961   3.824   1.621   7.457 -0.9169 -0.8801 -1.7087
 6775SOL    HW231962   3.902   1.576   7.576  1.2231  0.4619 -0.4230
 6776SOL     OW31963   3.675   1.477   5.524  0.3360  0.4031  0.3058
 6776SOL    HW131964   3.715   1.390   5.535  1.2944  0.7409 -0.4609
 6776SOL    HW231965   3.747   1.510   5.471  0.0297  0.5741 -0.0034
 6777SOL     OW31966   3.638   4.057   7.100 -0.3012  0.1730  0.1684
 6777SOL    HW131967   3.717   4.012   7.071 -1.2711 -0.7863 -1.0000
 6777SOL    HW231968   3.626   4.124   7.032 -0.6585 -1.2420 -1.1706
 6778SOL     OW31969   1.078   3.656  14.319 -0.4572  0.1415 -0.2434
 6778SOL    HW131970   1.094   3.750  14.319  0.0050  0.0643  1.3197
 6778SOL    HW231971   0.987   3.649  14.291  0.2509 -1.0897 -2.2664
 6779SOL     OW31972   4.007   3.861   4.728 -0.6145  0.1498 -0.2360
 6779SOL    HW131973   3.934   3.907   4.687 -1.3740 -2.1179 -1.4395
 6779SOL    HW231974   4.000   3.882   4.821  0.3215 -0.2970 -0.0672
 6780SOL     OW31975   0.749   3.728   2.419 -0.5778 -0.2285 -0.1591
 6780SOL    HW131976   0.776   3.648   2.374 -2.2456 -0.6566 -0.4030
 6780SOL    HW231977   0.770   3.794   2.353  2.7313 -1.2615 -0.1352
 6781SOL     OW31978   0.550   1.236   3.039 -0.7876  0.2188 -0.2080
 6781SOL    HW131979   0.476   1.180   3.014 -1.5363  0.6915  0.9439
 6781SOL    HW231980   0.554   1.300   2.969  1.0881  1.4149  0.9743
 6782SOL     OW31981   1.312   1.296   1.794  0.1619 -0.0777 -0.4957
 6782SOL    HW131982   1.249   1.239   1.751 -0.3132  1.1362 -1.3990
 6782SOL    HW231983   1.271   1.303   1.881 -1.0050  0.2326 -1.0724
 6783SOL     OW31984   0.084   3.009   8.285 -0.2394 -0.4025  0.1946
 6783SOL    HW131985   0.002   3.011   8.236  0.8380  0.5825 -1.5834
 6783SOL    HW231986   0.063   2.942   8.350  0.2518  0.2350  1.0023
 6784SOL     OW31987   1.415   1.461   5.416 -0.1122 -0.1125  0.4664
 6784SOL    HW131988   1.490   1.420   5.459  1.4621 -0.5629 -2.6890
 6784SOL    HW231989   1.414   1.544   5.464 -0.2002  1.7767 -2.7913
 6785SOL     OW31990   1.472   3.288   7.461  0.1732 -0.7915  0.0309
 6785SOL    HW131991   1.510   3.286   7.373  1.7046  1.6673  0.6236
 6785SOL    HW231992   1.495   3.380   7.472  0.2591 -1.2082  3.2647
 6786SOL     OW31993   2.322   1.571   9.437 -0.0617 -0.5417 -0.4532
 6786SOL    HW131994   2.257   1.628   9.480  0.7890  0.0017  0.1049
 6786SOL    HW231995   2.319   1.491   9.489 -0.4405  0.2984  0.8318
 6787SOL     OW31996   2.030   1.109   9.152 -0.1202 -0.2435 -1.2481
 6787SOL    HW131997   2.105   1.150   9.110  0.7190 -3.1120 -2.5462
 6787SOL    HW231998   1.983   1.188   9.176  1.7902 -0.3051  2.6908
 6788SOL     OW31999   3.722   0.879   7.655 -0.1207  0.2204 -0.2970
 6788SOL    HW132000   3.736   0.792   7.618 -1.6816  0.0972 -0.6066
 6788SOL    HW232001   3.630   0.893   7.635 -0.2492  1.5125  1.2205
 6789SOL     OW32002   2.272   4.551   4.048 -0.1557 -0.1409  0.1448
 6789SOL    HW132003   2.228   4.524   4.129 -2.6627 -3.3398 -2.2901
 6789SOL    HW232004   2.294   4.637   4.084  1.7712 -0.5819  0.0106
 6790SOL     OW32005   0.827   3.478   5.325  0.1665  0.0204 -0.6050
 6790SOL    HW132006   0.799   3.421   5.397 -0.3697  0.3576 -0.5538
 6790SOL    HW232007   0.844   3.409   5.260  2.1820  0.7452 -0.8499
 6791SOL     OW32008   0.362   4.458   7.080 -0.4543  0.0878  0.2401
 6791SOL    HW132009   0.318   4.387   7.127 -0.9876  0.8385  0.8520
 6791SOL    HW232010   0.358   4.414   6.995 -2.0412 -0.2853  0.5069
 6792SOL     OW32011   4.147   0.195   7.380  0.5571  0.4964 -0.3620
 6792SOL    HW132012   4.071   0.140   7.359  1.6756 -1.7246  1.4392
 6792SOL    HW232013   4.148   0.185   7.475  0.6398 -0.6833 -0.4801
 6793SOL     OW32014   3.598   2.360   4.795 -0.0819 -0.4920 -0.4190
 6793SOL    HW132015   3.560   2.375   4.881  2.0330  0.3314  0.3666
 6793SOL    HW232016   3.541   2.293   4.756 -0.7544  0.5866 -1.3028
 6794SOL     OW32017   0.937   3.592   8.993  0.2845 -0.1349  0.8343
 6794SOL    HW132018   0.990   3.520   9.026 -1.6087 -2.1991 -0.6893
 6794SOL    HW232019   0.884   3.553   8.923  0.2680  2.0035 -0.3607
 6795SOL     OW32020   0.020   2.306   1.594  0.1101  0.3326  0.0862
 6795SOL    HW132021   0.115   2.310   1.585 -0.2072  1.3730 -2.8546
 6795SOL    HW232022   0.012   2.237   1.659 -1.6726  0.1135 -0.3576
 6796SOL     OW32023   2.194   0.973   2.867  0.5167  0.5345 -0.1823
 6796SOL    HW132024   2.244   0.920   2.805 -1.3003  0.9663 -2.0010
 6796SOL    HW232025   2.169   1.048   2.813  2.3924  1.5437  0.3693
 6797SOL     OW32026   4.098   1.324   8.229 -0.1035  0.0674  0.3002
 6797SOL    HW132027   4.168   1.307   8.293  0.4523  0.2159 -0.2749
 6797SOL    HW232028   4.119   1.410   8.194  0.6836  0.1926  1.0911
 6798SOL     OW32029   4.028   1.004  13.780 -0.4188 -0.1984  0.2248
 6798SOL    HW132030   4.036   1.074  13.715  3.5545 -1.5128 -0.7199
 6798SOL    HW232031   4.081   0.941  13.732 -1.4007 -1.1452  0.4067
 6799SOL     OW32032   4.413   3.504  13.277 -0.7467  0.7368  0.4982
 6799SOL    HW132033   4.378   3.533  13.192 -0.1373  1.4971  0.5085
 6799SOL    HW232034   4.341   3.524  13.335 -1.6505 -0.5020 -0.2061
 6800SOL     OW32035   4.208   1.479   4.938  1.0107 -0.6525 -0.0316
 6800SOL    HW132036   4.155   1.496   4.861 -1.7059 -0.8312  1.7908
 6800SOL    HW232037   4.293   1.453   4.902  1.4387 -0.7552  1.0504
 6801SOL     OW32038   2.895   0.537   0.310  0.2004 -0.0559 -0.0995
 6801SOL    HW132039   2.984   0.517   0.279  1.9520  0.7193  4.4964
 6801SOL    HW232040   2.918   0.570   0.397 -1.8582  0.7300  0.1411
 6802SOL     OW32041   0.273   1.996   0.326 -0.0908 -0.0900 -0.7520
 6802SOL    HW132042   0.367   2.011   0.335 -0.6508  1.7461  2.0243
 6802SOL    HW232043   0.245   1.944   0.401  0.9380 -0.9959 -0.9988
 6803SOL     OW32044   2.687   2.261  13.582  0.1733 -0.2503 -0.2755
 6803SOL    HW132045   2.624   2.294  13.646  1.1094  1.3236 -0.1701
 6803SOL    HW232046   2.655   2.296  13.498  1.0731 -1.4673 -1.1181
 6804SOL     OW32047   0.263   1.377  10.251 -0.0632 -0.3757 -0.2093
 6804SOL    HW132048   0.277   1.426  10.332 -0.5476  2.5117 -1.8648
 6804SOL    HW232049   0.209   1.302  10.277 -0.6944  0.4781  0.9558
 6805SOL     OW32050   0.446   3.801   7.525  0.1038  0.2281  0.3018
 6805SOL    HW132051   0.426   3.715   7.562  0.4554  0.6499  1.4414
 6805SOL    HW232052   0.517   3.823   7.585  0.9900  2.3156 -1.5192
 6806SOL     OW32053   2.175   0.316   6.424 -0.0781 -0.0782 -0.0206
 6806SOL    HW132054   2.204   0.257   6.354 -2.6109  1.5659 -2.4459
 6806SOL    HW232055   2.168   0.256   6.498  0.9129 -0.9330 -0.6340
 6807SOL     OW32056   0.196   1.141   7.058  0.4394  0.1840  0.5892
 6807SOL    HW132057   0.175   1.105   6.972 -0.3718  0.9620  0.4610
 6807SOL    HW232058   0.110   1.143   7.099  0.7945 -0.2273  1.3653
 6808SOL     OW32059   0.186   2.948   4.341  0.7456  0.1808  0.0883
 6808SOL    HW132060   0.253   3.009   4.311  0.7362 -1.5475 -3.3846
 6808SOL    HW232061   0.111   3.005   4.360 -1.3873 -1.9626 -1.7524
 6809SOL     OW32062   4.139   1.042  17.640 -0.1210  0.0619 -0.1117
 6809SOL    HW132063   4.192   1.114  17.606 -1.5570  1.4174  0.5208
 6809SOL    HW232064   4.207   0.975  17.638  0.3712  0.6173 -1.9259
 6810SOL     OW32065   3.541   1.053   9.753  0.3217  0.1426  0.4104
 6810SOL    HW132066   3.604   0.985   9.733  0.6341  0.6970 -0.4766
 6810SOL    HW232067   3.496   1.014   9.828 -0.7259 -0.8596 -0.7488
 6811SOL     OW32068   4.178   0.032   7.654  0.0631 -0.1480  0.0347
 6811SOL    HW132069   4.163   4.732   7.570 -0.4740  1.0999 -0.5009
 6811SOL    HW232070   4.252   4.724   7.687  0.8679  0.0562 -1.4452
 6812SOL     OW32071   3.277   4.506   7.128 -0.1553  0.1027 -0.8861
 6812SOL    HW132072   3.244   4.425   7.089  0.9617 -0.5290 -0.5238
 6812SOL    HW232073   3.306   4.469   7.211  0.3233  0.2233 -0.9993
 6813SOL     OW32074   0.988   2.454   9.615 -0.1835 -0.4087  0.0848
 6813SOL    HW132075   0.926   2.389   9.583 -0.1824 -0.0100 -0.7279
 6813SOL    HW232076   1.070   2.411   9.591  0.4037  0.2061  0.9718
 6814SOL     OW32077   2.487   4.525  17.537  0.0802  0.4408  0.1750
 6814SOL    HW132078   2.535   4.449  17.503 -1.3777 -0.3250 -0.1775
 6814SOL    HW232079   2.432   4.548  17.462 -0.8927 -0.7487  0.5213
 6815SOL     OW32080   1.313   0.261  10.210  0.0457 -0.1557  0.2587
 6815SOL    HW132081   1.380   0.200  10.178 -3.3480 -3.1913 -0.9716
 6815SOL    HW232082   1.356   0.292  10.289 -2.6305  0.9795  1.2655
 6816SOL     OW32083   3.162   1.643   9.558 -0.3836 -0.1606 -0.3147
 6816SOL    HW132084   3.189   1.653   9.467  0.7370 -0.1590  0.0204
 6816SOL    HW232085   3.102   1.718   9.562  0.3103  0.4666 -1.7083
 6817SOL     OW32086   4.558   3.000  13.663  0.3836  0.3726  0.1052
 6817SOL    HW132087   4.534   3.030  13.751 -0.0290 -1.6129  0.6694
 6817SOL    HW232088   4.589   3.083  13.626  0.5949  0.2765  0.0629
 6818SOL     OW32089   2.969   1.554   4.547  0.3782  0.6909  0.1640
 6818SOL    HW132090   2.969   1.584   4.637  1.2221 -1.4115  0.8790
 6818SOL    HW232091   3.043   1.493   4.549 -1.2525 -1.3845 -1.7691
 6819SOL     OW32092   3.575   0.232   2.351 -0.9417 -0.0383 -0.2716
 6819SOL    HW132093   3.522   0.225   2.431 -0.6273 -0.4784 -0.1059
 6819SOL    HW232094   3.503   0.256   2.292 -1.4777  1.9145  1.1596
 6820SOL     OW32095   4.279   2.765   6.833 -0.5279 -0.0305  0.4595
 6820SOL    HW132096   4.369   2.786   6.861 -0.1191 -1.3287  0.1148
 6820SOL    HW232097   4.273   2.798   6.744 -0.2348 -0.7729  0.1628
 6821SOL     OW32098   1.711   0.154   1.125  0.1838 -0.5835 -0.1652
 6821SOL    HW132099   1.718   0.060   1.110  1.0129 -0.6631  0.7644
 6821SOL    HW232100   1.794   0.182   1.087 -0.1704 -0.7413 -1.0473
 6822SOL     OW32101   2.338   3.334   9.514 -0.3852 -0.2331 -0.2093
 6822SOL    HW132102   2.306   3.407   9.567  0.6855  0.8605 -1.0532
 6822SOL    HW232103   2.352   3.381   9.432 -1.5799 -1.1188 -0.9143
 6823SOL     OW32104   0.521   3.152   4.961 -0.1682 -0.4202 -0.4508
 6823SOL    HW132105   0.468   3.155   4.881  1.1045  1.2303 -1.2268
 6823SOL    HW232106   0.540   3.245   4.969 -0.5634 -0.5012  1.5007
 6824SOL     OW32107   0.647   3.439   6.885 -0.0623 -0.2407  0.0416
 6824SOL    HW132108   0.708   3.365   6.882 -0.7079 -0.7530 -0.3498
 6824SOL    HW232109   0.627   3.445   6.978  0.2514 -0.4402  0.1233
 6825SOL     OW32110   2.469   1.914   1.698 -0.4101  1.2430  0.6385
 6825SOL    HW132111   2.431   1.911   1.786 -1.9907  0.4644 -0.0700
 6825SOL    HW232112   2.524   1.991   1.712 -0.8040  1.6003  0.2036
 6826SOL     OW32113   0.275   4.093   1.497  0.5076 -0.1749  0.4935
 6826SOL    HW132114   0.334   4.024   1.467 -2.9931 -1.9239 -2.4364
 6826SOL    HW232115   0.198   4.036   1.507 -0.9074  1.2381 -2.5731
 6827SOL     OW32116   3.445   4.150   3.921 -0.3609 -0.4701  0.6118
 6827SOL    HW132117   3.373   4.088   3.910  0.6529 -1.4754 -0.4020
 6827SOL    HW232118   3.501   4.090   3.970  0.1161  0.3696  1.0907
 6828SOL     OW32119   4.321   4.439   7.192  0.5554 -0.3010  0.2765
 6828SOL    HW132120   4.335   4.456   7.099  0.6893  0.4557  0.4342
 6828SOL    HW232121   4.370   4.509   7.234  2.2957 -0.1928 -1.9510
 6829SOL     OW32122   2.964   2.215   8.153 -0.0320  0.1189 -0.0940
 6829SOL    HW132123   2.996   2.205   8.243 -2.2462  1.1912  0.7972
 6829SOL    HW232124   3.042   2.200   8.099  1.4543  2.2680  1.4381
 6830SOL     OW32125   0.785   3.035  15.469 -0.4462 -0.0191 -0.1922
 6830SOL    HW132126   0.748   3.119  15.497 -1.0125  0.2167 -1.6208
 6830SOL    HW232127   0.796   3.050  15.375 -0.3125  2.2025  0.1609
 6831SOL     OW32128   3.795   0.346   4.316 -0.0881  0.1040 -0.5524
 6831SOL    HW132129   3.710   0.381   4.289 -0.7719 -1.1445 -0.0008
 6831SOL    HW232130   3.858   0.402   4.270 -0.1418  1.4399  0.9907
 6832SOL     OW32131   3.728   1.375  11.892 -0.0655  0.4066 -0.5792
 6832SOL    HW132132   3.690   1.452  11.934  1.1024  0.7757 -0.2119
 6832SOL    HW232133   3.763   1.330  11.969 -0.5122  0.5454 -0.2995
 6833SOL     OW32134   0.821   1.653   0.120  0.4717  0.1879 -1.2282
 6833SOL    HW132135   0.730   1.681   0.129  1.2882  2.5890 -0.6398
 6833SOL    HW232136   0.811   1.570   0.073 -2.4446  0.0801 -0.4552
 6834SOL     OW32137   4.051   2.165   5.851  0.0821 -0.4545 -0.0798
 6834SOL    HW132138   4.001   2.084   5.840 -1.5703  0.7539 -1.5099
 6834SOL    HW232139   4.137   2.129   5.876 -0.4088 -1.5034  0.1150
 6835SOL     OW32140   0.216   4.097   6.380  0.5102 -0.0347 -0.0510
 6835SOL    HW132141   0.309   4.075   6.386  0.1206 -1.8259 -0.5838
 6835SOL    HW232142   0.188   4.039   6.450 -1.6420  1.2773  0.1755
 6836SOL     OW32143   3.900   0.369   4.570  0.1384 -0.6843  0.3127
 6836SOL    HW132144   3.868   0.347   4.483 -0.1324  0.7245  0.0534
 6836SOL    HW232145   3.858   0.454   4.581  0.8666 -0.3789  0.7813
 6837SOL     OW32146   4.081   1.948   0.155 -0.5956 -0.5461 -0.5501
 6837SOL    HW132147   4.167   1.981   0.181 -1.9308  2.0627  0.6741
 6837SOL    HW232148   4.079   1.966   0.061 -0.2221  0.4689 -0.3648
 6838SOL     OW32149   4.252   0.487  16.197 -0.7615 -0.2140 -0.4071
 6838SOL    HW132150   4.326   0.544  16.177 -1.0701 -0.1318 -1.3400
 6838SOL    HW232151   4.284   0.457  16.282 -2.3762 -0.8956 -0.0456
 6839SOL     OW32152   0.494   1.447   6.036 -0.3711  0.5330 -0.3293
 6839SOL    HW132153   0.435   1.440   5.961  0.7353  1.1035 -1.2664
 6839SOL    HW232154   0.570   1.494   6.001  0.2010  0.8362  1.3545
 6840SOL     OW32155   3.052   0.367   6.862 -0.7714 -0.0404  0.0931
 6840SOL    HW132156   3.116   0.375   6.791 -0.8043 -0.9916 -0.0331
 6840SOL    HW232157   3.042   0.274   6.843  0.1254 -0.1810  0.3278
 6841SOL     OW32158   0.836   4.574   5.042 -0.6108  0.0429  0.0504
 6841SOL    HW132159   0.844   4.483   5.011 -2.0560 -0.2986  0.6868
 6841SOL    HW232160   0.873   4.613   4.963  0.0872  0.2970  0.5049
 6842SOL     OW32161   0.748   1.785   2.852  0.4379  0.2877 -0.4071
 6842SOL    HW132162   0.689   1.773   2.778  1.2244 -2.5682 -0.5929
 6842SOL    HW232163   0.680   1.808   2.915  0.6022  0.4370 -0.2831
 6843SOL     OW32164   3.572   0.374  13.459  0.0657 -0.5229 -0.3526
 6843SOL    HW132165   3.526   0.399  13.539  1.3775  0.7275  0.0071
 6843SOL    HW232166   3.511   0.413  13.396  0.3664  1.9489  0.8957
 6844SOL     OW32167   3.649   3.174   4.455 -0.0474  0.2374 -0.0143
 6844SOL    HW132168   3.554   3.175   4.447 -0.0473 -3.6260 -0.5282
 6844SOL    HW232169   3.672   3.099   4.400 -2.4762  0.4061 -1.2440
 6845SOL     OW32170   3.713   1.762  13.928 -0.2146 -0.5468  0.0613
 6845SOL    HW132171   3.727   1.735  14.019  0.4888 -1.8563 -0.4286
 6845SOL    HW232172   3.647   1.828  13.949 -0.6220 -1.1275  0.6105
 6846SOL     OW32173   4.698   0.793   2.417 -0.5304 -0.1190  0.0250
 6846SOL    HW132174   4.661   0.825   2.335 -2.2051 -1.7893  0.1349
 6846SOL    HW232175   4.717   0.700   2.405 -1.8695 -0.4395  0.3329
 6847SOL     OW32176   0.864   3.917   3.357  0.2869  0.3162  0.6009
 6847SOL    HW132177   0.959   3.925   3.372  0.4321 -2.0234  0.8890
 6847SOL    HW232178   0.837   3.893   3.446 -1.3960 -0.3237 -0.1008
 6848SOL     OW32179   4.723   1.365   8.101 -0.1443 -0.5656 -0.4378
 6848SOL    HW132180   4.680   1.378   8.016 -0.9630 -0.1109  0.0415
 6848SOL    HW232181   4.665   1.308   8.151 -0.0421 -0.9035 -0.7052
 6849SOL     OW32182   3.464   4.043   7.740 -0.2746 -0.0792  0.1180
 6849SOL    HW132183   3.449   3.958   7.781 -1.3442  0.0466 -0.0132
 6849SOL    HW232184   3.551   4.027   7.704  0.2866 -0.8076  1.8239
 6850SOL     OW32185   4.278   1.047   2.176  0.4795  0.1952  0.2651
 6850SOL    HW132186   4.311   1.136   2.181  0.3917  0.2135  0.5350
 6850SOL    HW232187   4.267   1.025   2.269 -1.7541 -0.3707 -0.1237
 6851SOL     OW32188   2.067   0.386   5.696  0.6532  0.2951  0.0114
 6851SOL    HW132189   2.064   0.291   5.683  1.0330  0.3678 -0.5937
 6851SOL    HW232190   2.001   0.396   5.764  0.2315  0.8625 -0.4834
 6852SOL     OW32191   1.812   0.951   2.555 -0.5400  0.1917  0.0616
 6852SOL    HW132192   1.812   0.886   2.485  0.1865  0.4726 -0.1994
 6852SOL    HW232193   1.787   1.032   2.510  1.0692  1.0018  0.6074
 6853SOL     OW32194   2.051   0.046   6.858 -0.3156  0.6735  0.5726
 6853SOL    HW132195   2.066   0.121   6.915  1.8580  2.0234 -1.7373
 6853SOL    HW232196   1.972   0.084   6.819 -0.1624 -0.1318 -0.5304
 6854SOL     OW32197   2.859   0.378  13.246  0.3402  0.1273  0.0750
 6854SOL    HW132198   2.815   0.463  13.246 -0.2575 -0.1768  0.8364
 6854SOL    HW232199   2.784   0.321  13.229  0.7160 -0.3521  0.0062
 6855SOL     OW32200   3.503   0.211   5.185  0.5170  0.4816 -0.0175
 6855SOL    HW132201   3.485   0.134   5.239 -1.4606  0.1955 -1.0579
 6855SOL    HW232202   3.597   0.222   5.192  0.6201  0.2079 -0.9378
 6856SOL     OW32203   0.614   0.225  17.405  0.2613  0.3377  0.5837
 6856SOL    HW132204   0.540   0.164  17.410 -0.0504  0.8723  2.1650
 6856SOL    HW232205   0.661   0.214  17.487 -0.6368 -1.1041  0.8943
 6857SOL     OW32206   2.889   3.369  13.116 -0.3168  0.0855  0.0660
 6857SOL    HW132207   2.892   3.361  13.021  0.1847  0.2256  0.0694
 6857SOL    HW232208   2.928   3.456  13.126  3.1175 -1.5217  0.6606
 6858SOL     OW32209   0.170   2.020   4.303 -0.0672  0.2696 -0.1964
 6858SOL    HW132210   0.246   2.014   4.361  0.8234  1.3456 -1.2743
 6858SOL    HW232211   0.125   1.938   4.325  3.3652 -1.1870  1.4993
 6859SOL     OW32212   0.835   0.566   4.291  0.5968  0.8249 -0.0176
 6859SOL    HW132213   0.847   0.659   4.276  0.2055  0.6610 -1.3848
 6859SOL    HW232214   0.790   0.571   4.375  2.2112  1.7865  0.7696
 6860SOL     OW32215   3.315   2.292   4.108  0.0852  0.2180 -0.0586
 6860SOL    HW132216   3.405   2.319   4.123  0.8875 -0.9540 -2.6606
 6860SOL    HW232217   3.284   2.262   4.194  1.4775 -0.5314  0.1767
 6861SOL     OW32218   1.790   2.141  10.641 -0.1992  0.0262 -0.7448
 6861SOL    HW132219   1.749   2.133  10.727  0.6502  2.7502 -0.0843
 6861SOL    HW232220   1.708   2.162  10.596  0.0538  1.0175 -0.7313
 6862SOL     OW32221   3.625   2.412  10.929 -0.3150 -0.4427 -0.0450
 6862SOL    HW132222   3.557   2.445  10.870  1.7721  1.1082 -1.5416
 6862SOL    HW232223   3.579   2.438  11.009 -2.0928 -2.1089 -0.5271
 6863SOL     OW32224   2.213   0.417   3.867  0.7951 -0.3101 -0.3047
 6863SOL    HW132225   2.192   0.422   3.773 -2.8161  0.8769  0.5544
 6863SOL    HW232226   2.131   0.376   3.895  0.1638  1.6289  0.7213
 6864SOL     OW32227   2.508   0.740  11.838 -0.1334 -0.3590  0.5165
 6864SOL    HW132228   2.585   0.703  11.794 -0.9839 -1.2861 -0.1906
 6864SOL    HW232229   2.448   0.763  11.767  0.5784  0.4984  0.1964
 6865SOL     OW32230   3.800   2.502  13.675  0.0675  0.3517  0.1826
 6865SOL    HW132231   3.784   2.539  13.588 -2.6506  0.8597  0.8947
 6865SOL    HW232232   3.891   2.526  13.689  0.0318  1.7463 -1.9906
 6866SOL     OW32233   3.166   4.112   6.618 -0.3429 -0.3002 -0.0624
 6866SOL    HW132234   3.225   4.152   6.681 -0.5144  0.1210 -0.1681
 6866SOL    HW232235   3.088   4.109   6.673  1.1515 -2.0177  1.9376
 6867SOL     OW32236   0.245   3.874  17.753  0.5688  0.0691 -0.5127
 6867SOL    HW132237   0.251   3.921   0.069  1.7524 -4.0800  1.7195
 6867SOL    HW232238   0.269   3.942  17.689 -1.1462 -0.6666 -1.9240
 6868SOL     OW32239   4.085   2.389  14.827  0.6441 -0.3623 -0.2842
 6868SOL    HW132240   4.135   2.453  14.776 -2.2390  0.2209 -2.3931
 6868SOL    HW232241   4.146   2.317  14.813  0.5280 -0.2904 -1.1605
 6869SOL     OW32242   1.800   2.969   9.262  0.2082 -0.4599  0.2473
 6869SOL    HW132243   1.810   3.054   9.219 -1.3548 -0.2591  0.2643
 6869SOL    HW232244   1.888   2.941   9.285 -0.6147 -0.0370  4.0320
 6870SOL     OW32245   1.466   1.122   7.944 -0.1487  0.0488  0.0168
 6870SOL    HW132246   1.478   1.027   7.934 -0.4288 -0.1679  1.7133
 6870SOL    HW232247   1.409   1.117   8.021  1.1423  2.3838  1.1144
 6871SOL     OW32248   3.118   3.497   5.362  0.1555  0.4152  0.2972
 6871SOL    HW132249   3.177   3.571   5.352  1.9767 -0.7114  2.6112
 6871SOL    HW232250   3.073   3.518   5.443  2.6662 -1.3428  2.1872
 6872SOL     OW32251   4.085   2.833   1.801 -0.2517 -0.0879  0.2721
 6872SOL    HW132252   4.113   2.741   1.796  0.0918  0.0432 -0.2285
 6872SOL    HW232253   4.011   2.828   1.861 -0.8380  1.1690 -0.3502
 6873SOL     OW32254   2.803   1.533   6.378 -0.1996 -0.1216 -0.5495
 6873SOL    HW132255   2.755   1.574   6.307  0.7360  0.7823 -0.6675
 6873SOL    HW232256   2.733   1.504   6.436  1.2114 -1.7540  0.3524
 6874SOL     OW32257   3.386   0.231   1.941  0.0792  0.5607 -0.2944
 6874SOL    HW132258   3.434   0.150   1.960  2.0116  2.0259  1.2048
 6874SOL    HW232259   3.375   0.275   2.025  1.1431  2.8580 -1.3538
 6875SOL     OW32260   1.792   1.302   5.240 -0.3101 -0.2228  0.0481
 6875SOL    HW132261   1.758   1.335   5.323 -1.7526  0.2069 -0.7012
 6875SOL    HW232262   1.710   1.291   5.191 -1.0109 -1.7277  1.5702
 6876SOL     OW32263   1.234   0.920   1.604 -0.1512  0.2296 -0.3475
 6876SOL    HW132264   1.221   1.015   1.603  1.4744  0.4815  0.6700
 6876SOL    HW232265   1.329   0.905   1.614  0.2398  2.8710 -0.1538
 6877SOL     OW32266   4.315   1.467   8.800  0.3434  0.3086 -0.1779
 6877SOL    HW132267   4.245   1.476   8.736  1.3066 -0.7376 -1.3693
 6877SOL    HW232268   4.328   1.373   8.791  1.1136  0.1124  2.7812
 6878SOL     OW32269   2.561   2.507   4.054 -0.4552 -0.6579  0.0819
 6878SOL    HW132270   2.495   2.455   4.009 -2.1070  1.4045  0.1233
 6878SOL    HW232271   2.506   2.558   4.114 -0.7802 -0.7911 -0.1025
 6879SOL     OW32272   4.371   1.010   7.301 -0.0791  0.5568 -0.5898
 6879SOL    HW132273   4.388   1.074   7.371 -3.1774  1.1332 -0.3613
 6879SOL    HW232274   4.293   0.969   7.337 -0.3706  3.0233  1.6644
 6880SOL     OW32275   0.918   0.944   2.296 -0.4041  0.2508  0.1784
 6880SOL    HW132276   0.883   0.855   2.289  0.3545 -0.1686  1.7614
 6880SOL    HW232277   0.843   0.997   2.270 -2.0182 -1.8556  0.5947
 6881SOL     OW32278   4.680   3.551  11.699 -0.2065 -0.3252 -0.1832
 6881SOL    HW132279   4.665   3.636  11.659 -1.3860 -1.8162 -2.9201
 6881SOL    HW232280   4.731   3.503  11.633 -1.2237 -0.7421 -0.6717
 6882SOL     OW32281   4.314   0.116   5.857  0.0264  0.0432  0.3593
 6882SOL    HW132282   4.389   0.161   5.895  3.7303 -3.4550 -2.8590
 6882SOL    HW232283   4.276   0.173   5.790 -0.1428 -0.4858 -0.0005
 6883SOL     OW32284   0.286   1.323   3.249 -0.5464 -0.1302 -0.7152
 6883SOL    HW132285   0.240   1.407   3.246  0.3051  0.2922 -2.2794
 6883SOL    HW232286   0.248   1.273   3.176 -1.1039 -2.1233  0.9434
 6884SOL     OW32287   1.507   4.079  13.977  1.0237  0.1885 -0.0534
 6884SOL    HW132288   1.469   4.156  14.020  0.5263  1.3775 -2.6640
 6884SOL    HW232289   1.581   4.113  13.928  1.7758 -3.1518 -1.2261
 6885SOL     OW32290   1.203   2.172   7.001 -0.0334  0.1863 -0.0467
 6885SOL    HW132291   1.153   2.175   7.082 -0.7657  0.9365 -0.5268
 6885SOL    HW232292   1.137   2.178   6.933 -0.1275  0.8932  0.1088
 6886SOL     OW32293   0.378   2.964   3.750 -0.3934 -0.3587 -0.6218
 6886SOL    HW132294   0.374   2.959   3.654  1.3952 -1.2684 -0.6387
 6886SOL    HW232295   0.344   3.052   3.767 -0.1670 -0.8535  2.3113
 6887SOL     OW32296   1.399   4.569   4.324  0.0272  0.5695  0.4463
 6887SOL    HW132297   1.396   4.655   4.283  0.0130 -0.1097 -0.9978
 6887SOL    HW232298   1.433   4.580   4.412 -0.3940  1.5414  0.4908
 6888SOL     OW32299   0.063   2.665   3.858 -0.2412  0.7061 -0.1462
 6888SOL    HW132300   4.739   2.622   3.806 -0.3177  0.7519 -0.0868
 6888SOL    HW232301   0.107   2.601   3.914 -1.3253 -1.1808 -1.4894
 6889SOL     OW32302   1.991   0.981   3.211  0.4247 -0.0943  0.4248
 6889SOL    HW132303   2.080   0.960   3.182 -0.2783 -2.2733 -0.1357
 6889SOL    HW232304   1.970   1.054   3.153 -0.1157 -2.0514 -1.8211
 6890SOL     OW32305   3.096   0.327   3.619  0.1638 -0.3450  0.3436
 6890SOL    HW132306   3.049   0.269   3.680  0.0039 -0.4340  0.1346
 6890SOL    HW232307   3.167   0.352   3.679  0.6230 -3.5810  1.1721
 6891SOL     OW32308   0.850   1.089  13.207 -0.3656 -0.1704 -0.5806
 6891SOL    HW132309   0.821   0.999  13.222 -1.6758  0.2222 -0.7613
 6891SOL    HW232310   0.772   1.128  13.168  1.2854 -0.3588 -4.1064
 6892SOL     OW32311   4.639   1.104   8.189  0.0015 -0.8407  0.0846
 6892SOL    HW132312   4.620   1.091   8.097  1.8409  1.0831 -0.5644
 6892SOL    HW232313   4.728   1.068   8.182  0.6417  0.8831 -0.4591
 6893SOL     OW32314   4.721   4.574  17.100  0.4224 -0.6036 -0.2194
 6893SOL    HW132315   4.685   4.495  17.060 -1.5210 -0.1071  0.5418
 6893SOL    HW232316   4.690   4.644  17.042  0.6607 -1.8900 -1.8683
 6894SOL     OW32317   3.232   0.258  13.966  0.6411  0.6360 -0.2143
 6894SOL    HW132318   3.267   0.170  13.952  0.5663  0.6016 -0.1817
 6894SOL    HW232319   3.223   0.296  13.879 -4.3057  0.7862  0.3597
 6895SOL     OW32320   3.371   4.698   8.266 -0.3314 -0.1661 -0.6895
 6895SOL    HW132321   3.326   4.708   8.350 -0.4844  0.9710 -0.9098
 6895SOL    HW232322   3.438   0.023   8.271 -0.0419 -0.6062  1.3195
 6896SOL     OW32323   0.692   4.086   2.814  0.3824 -0.2074 -0.1208
 6896SOL    HW132324   0.743   4.037   2.749  0.0428 -0.4150 -0.2291
 6896SOL    HW232325   0.766   4.138   2.843  0.7913 -0.8538 -0.0061
 6897SOL     OW32326   2.272   3.414  15.487  0.6244  0.7844  0.3378
 6897SOL    HW132327   2.248   3.329  15.451  1.4496  0.9357 -0.5644
 6897SOL    HW232328   2.192   3.442  15.533 -0.0977  1.1147 -1.1191
 6898SOL     OW32329   2.293   1.024  10.641 -0.3003 -0.1260  0.2793
 6898SOL    HW132330   2.315   1.084  10.570  2.4802  0.8090  1.9313
 6898SOL    HW232331   2.354   0.951  10.634 -0.1560  0.1941 -1.8171
 6899SOL     OW32332   3.194   2.724  17.754 -0.3023  0.0341 -0.4508
 6899SOL    HW132333   3.108   2.706   0.025  0.9804  1.3990  3.0272
 6899SOL    HW232334   3.188   2.730  17.659  0.9267  1.1723 -0.4604
 6900SOL     OW32335   0.003   2.871  13.435  0.2044  0.0209  0.2760
 6900SOL    HW132336   0.098   2.875  13.427 -0.0070  1.8052 -1.3496
 6900SOL    HW232337   4.719   2.963  13.431  1.8069  0.4853  0.4032
 6901SOL     OW32338   4.182   4.025   8.504  0.0542  0.1237  0.0303
 6901SOL    HW132339   4.108   4.043   8.446  0.2051  2.9759  0.7276
 6901SOL    HW232340   4.255   4.077   8.470  0.1687  0.2128  0.4073
 6902SOL     OW32341   1.002   2.777   7.817  0.5519  0.3000  0.1572
 6902SOL    HW132342   1.078   2.835   7.809  1.1210 -0.3045  1.1818
 6902SOL    HW232343   1.037   2.710   7.757  0.2037 -0.1485  0.4542
 6903SOL     OW32344   1.243   2.144   5.704  0.2080 -0.3007  0.2221
 6903SOL    HW132345   1.263   2.237   5.720 -0.3711  0.0433 -1.0356
 6903SOL    HW232346   1.154   2.155   5.670  0.6031  1.3323 -0.3082
 6904SOL     OW32347   0.278   3.280   3.474  0.9471 -0.5524  0.0815
 6904SOL    HW132348   0.302   3.327   3.554  0.6948 -0.5745  0.1711
 6904SOL    HW232349   0.348   3.318   3.420  0.3917 -0.5314 -0.6213
 6905SOL     OW32350   4.463   4.086  11.300  0.0706 -0.2923 -0.3342
 6905SOL    HW132351   4.461   4.181  11.314 -3.4904 -0.3911 -0.2567
 6905SOL    HW232352   4.372   4.058  11.305  0.2626 -0.4410  2.1200
 6906SOL     OW32353   4.592   4.090   1.204 -0.3682  0.1373 -0.0843
 6906SOL    HW132354   4.502   4.064   1.223 -0.6569  0.6654 -0.7203
 6906SOL    HW232355   4.631   4.008   1.175  0.0312  0.2529  0.1259
 6907SOL     OW32356   4.476   1.473   4.828  0.3818  0.0120  0.0845
 6907SOL    HW132357   4.555   1.452   4.877 -0.3992 -0.8000  0.9813
 6907SOL    HW232358   4.488   1.407   4.759 -0.4315  0.6192 -0.6520
 6908SOL     OW32359   3.353   3.787   9.298 -0.7734 -0.3519  0.2666
 6908SOL    HW132360   3.300   3.725   9.347  0.3342  0.0703  1.9784
 6908SOL    HW232361   3.375   3.746   9.214 -0.0931 -0.8096  0.6640
 6909SOL     OW32362   1.263   4.625   7.183 -0.6337  0.7634  0.0006
 6909SOL    HW132363   1.318   4.678   7.126  0.5123  0.4643  0.8302
 6909SOL    HW232364   1.305   4.539   7.177  0.2740  1.3845 -2.4201
 6910SOL     OW32365   2.375   2.381   3.892 -0.0520  0.2700 -0.1074
 6910SOL    HW132366   2.330   2.354   3.813  1.3998  1.5925 -1.3890
 6910SOL    HW232367   2.308   2.359   3.956 -1.2773 -0.8678 -1.7972
 6911SOL     OW32368   0.164   1.739  16.896  0.6129 -0.2572  0.6405
 6911SOL    HW132369   0.249   1.749  16.854  0.1440  2.3155  0.3029
 6911SOL    HW232370   0.152   1.644  16.893 -0.6566 -0.0309 -1.4466
 6912SOL     OW32371   1.713   3.673   3.234 -0.0196  0.0472 -0.7087
 6912SOL    HW132372   1.663   3.640   3.159  0.6502 -2.3185 -0.1041
 6912SOL    HW232373   1.804   3.658   3.209  0.1521 -0.5813  0.3205
 6913SOL     OW32374   4.116   2.905   3.606  0.2027 -0.0310 -0.0074
 6913SOL    HW132375   4.056   2.831   3.608  1.9564 -1.4818 -1.8086
 6913SOL    HW232376   4.188   2.868   3.555  1.0517  2.1305 -0.3722
 6914SOL     OW32377   4.578   0.937  10.284  0.6192 -0.2332  0.1387
 6914SOL    HW132378   4.667   0.961  10.257  1.3100 -3.9341 -0.7821
 6914SOL    HW232379   4.595   0.885  10.362 -1.8828 -1.8655 -0.4218
 6915SOL     OW32380   3.866   0.002  11.813  0.5083 -0.5239  0.3211
 6915SOL    HW132381   3.937   4.692  11.775  1.4713  0.8063  0.2475
 6915SOL    HW232382   3.886   4.727  11.905  2.1208  1.2275  0.3212
 6916SOL     OW32383   0.699   4.666   1.902  0.2180 -0.1740 -0.6652
 6916SOL    HW132384   0.639   4.712   1.844 -0.9928 -0.5651  0.2982
 6916SOL    HW232385   0.648   4.677   1.982  2.1831 -0.2951  0.6121
 6917SOL     OW32386   3.400   1.471   9.942  0.6257  0.2851 -0.0232
 6917SOL    HW132387   3.431   1.456   9.852  1.8750 -1.5025  0.7044
 6917SOL    HW232388   3.370   1.561   9.930 -1.1669 -0.4727 -1.3299
 6918SOL     OW32389   1.299   4.693   9.137 -0.4099  0.4142 -0.0665
 6918SOL    HW132390   1.212   4.717   9.106 -0.1954  0.6501 -0.4869
 6918SOL    HW232391   1.296   4.719   9.229 -2.5585  0.3518 -0.1117
 6919SOL     OW32392   3.430   1.482   5.314  0.5352 -0.4830 -0.0330
 6919SOL    HW132393   3.428   1.451   5.405 -0.2814 -1.6949 -0.4685
 6919SOL    HW232394   3.379   1.562   5.326  0.4825 -0.6729  0.9702
 6920SOL     OW32395   0.791   0.702   5.199 -0.2031  0.1978 -0.3975
 6920SOL    HW132396   0.747   0.653   5.270  1.5990 -0.6087  0.1542
 6920SOL    HW232397   0.776   0.663   5.113  0.8016  0.9828 -0.9163
 6921SOL     OW32398   0.037   3.484   2.225  0.1799 -0.3162 -0.3150
 6921SOL    HW132399   0.003   3.530   2.148 -1.0122 -0.9449 -0.1560
 6921SOL    HW232400   0.063   3.399   2.189 -0.4751  0.2069 -2.0492
 6922SOL     OW32401   3.487   1.489   9.407  0.5464 -0.0093 -0.3841
 6922SOL    HW132402   3.411   1.454   9.361 -1.1970  3.0876  0.1493
 6922SOL    HW232403   3.464   1.456   9.493 -1.8640 -0.3152 -1.1364
 6923SOL     OW32404   3.661   1.939   3.263 -0.4081 -0.0363 -0.0547
 6923SOL    HW132405   3.585   1.923   3.208 -0.4801  3.2892 -0.9180
 6923SOL    HW232406   3.722   1.964   3.192  2.5530  1.4350  2.9868
 6924SOL     OW32407   2.309   4.506   4.919 -0.2714 -0.3218  0.2925
 6924SOL    HW132408   2.381   4.475   4.974  0.3714 -0.6624 -0.7518
 6924SOL    HW232409   2.305   4.594   4.958  1.1391 -0.9470  1.8364
 6925SOL     OW32410   0.913   2.731   4.509 -0.2630  0.1239  0.6485
 6925SOL    HW132411   0.883   2.714   4.420 -3.0017 -0.4381  1.6869
 6925SOL    HW232412   0.832   2.762   4.551  0.7226  2.4072  0.8452
 6926SOL     OW32413   1.004   3.220  11.775 -0.1778  0.4276  0.7654
 6926SOL    HW132414   1.096   3.245  11.782 -0.3160 -0.0531  4.3176
 6926SOL    HW232415   0.979   3.235  11.867 -1.1392 -1.4554  0.7997
 6927SOL     OW32416   0.651   2.752  10.023 -0.4006 -1.2691 -0.0351
 6927SOL    HW132417   0.652   2.710  10.109 -1.5810  0.5295  0.8531
 6927SOL    HW232418   0.561   2.746   9.988 -1.2847  1.7104  1.7156
 6928SOL     OW32419   2.318   2.078  14.916 -0.7122  0.7467 -0.7872
 6928SOL    HW132420   2.412   2.083  14.931 -0.9634 -0.6687  1.3963
 6928SOL    HW232421   2.303   2.085  14.822  0.0254 -1.7622 -1.0840
 6929SOL     OW32422   1.781   4.617  11.747 -0.0750 -0.0144  0.6801
 6929SOL    HW132423   1.794   4.644  11.838  1.7790 -1.3673  0.8316
 6929SOL    HW232424   1.698   4.660  11.727  0.2335  0.3939  0.2984
 6930SOL     OW32425   3.600   4.244  11.931 -0.0738 -0.3552 -0.4316
 6930SOL    HW132426   3.597   4.173  11.995  2.1790 -0.0386  0.0232
 6930SOL    HW232427   3.510   4.232  11.901  0.0896 -1.9159 -0.2568
 6931SOL     OW32428   2.448   3.624   2.338  0.1093 -0.5884  0.1934
 6931SOL    HW132429   2.475   3.607   2.248 -0.4944 -1.8533  0.2527
 6931SOL    HW232430   2.416   3.714   2.342  0.2654 -0.5443  0.4158
 6932SOL     OW32431   1.638   1.413  12.579 -0.5238  0.6483 -0.4601
 6932SOL    HW132432   1.588   1.458  12.511 -0.0924  0.2007 -1.0634
 6932SOL    HW232433   1.572   1.380  12.641 -0.1071  0.7157  0.0165
 6933SOL     OW32434   0.955   3.856   4.528  0.0500  0.1528  0.0474
 6933SOL    HW132435   1.030   3.808   4.492  1.0945  0.9327  1.1671
 6933SOL    HW232436   0.951   3.932   4.471 -1.4850  0.7240  0.9173
 6934SOL     OW32437   2.623   2.894   5.592 -0.1430  0.2254 -0.4083
 6934SOL    HW132438   2.595   2.831   5.658  2.4480 -0.2157  0.2918
 6934SOL    HW232439   2.616   2.981   5.632  2.7034  0.1108  0.3411
 6935SOL     OW32440   3.873   3.620   3.345 -0.2967  0.2562  0.0579
 6935SOL    HW132441   3.908   3.555   3.284 -1.3655 -0.3836  0.1394
 6935SOL    HW232442   3.872   3.573   3.428 -0.3458 -1.5762 -0.9819
 6936SOL     OW32443   3.043   0.815   6.892 -0.4515  0.0363 -0.0722
 6936SOL    HW132444   3.046   0.883   6.824  1.6657  0.5313  0.5145
 6936SOL    HW232445   3.050   0.734   6.840 -1.2794 -2.5897  3.9296
 6937SOL     OW32446   1.110   2.369   3.878  0.0524  0.6339 -0.5613
 6937SOL    HW132447   1.057   2.440   3.914  0.7604  0.2890  1.1769
 6937SOL    HW232448   1.166   2.424   3.823 -2.4878  3.1023 -0.6551
 6938SOL     OW32449   4.380   3.924  12.235 -0.1816  0.3421  0.3615
 6938SOL    HW132450   4.325   3.919  12.157 -1.5170 -0.2804  1.3385
 6938SOL    HW232451   4.464   3.931  12.191  0.7730 -0.0495  2.1395
 6939SOL     OW32452   1.568   3.240   0.726  0.1348 -0.2487  0.0188
 6939SOL    HW132453   1.472   3.247   0.725  0.4044  3.8039  0.7442
 6939SOL    HW232454   1.590   3.333   0.729 -0.3556 -0.1260 -0.1617
 6940SOL     OW32455   3.572   2.483   9.648 -0.7077  0.0732  0.1747
 6940SOL    HW132456   3.502   2.441   9.597 -0.4851 -1.1485  0.8656
 6940SOL    HW232457   3.619   2.402   9.669 -0.4053  0.4821  1.1059
 6941SOL     OW32458   3.008   0.623   0.533 -0.1203  0.3587  0.0400
 6941SOL    HW132459   3.027   0.656   0.621 -1.3717  1.8226 -0.2309
 6941SOL    HW232460   3.074   0.676   0.487 -0.7345  2.7878  1.9371
 6942SOL     OW32461   4.376   3.052  16.813  0.5924  0.3803  0.0402
 6942SOL    HW132462   4.371   3.006  16.730  1.2119 -1.2291  0.8823
 6942SOL    HW232463   4.427   3.130  16.793  0.6749  1.3315  3.8840
 6943SOL     OW32464   3.814   0.669   6.333 -0.2615  0.1537 -0.5675
 6943SOL    HW132465   3.852   0.692   6.418  0.9178 -1.3399 -0.6843
 6943SOL    HW232466   3.823   0.574   6.321  0.0158 -0.1325  2.0209
 6944SOL     OW32467   1.370   4.075  17.763  0.3771 -0.1666 -0.0731
 6944SOL    HW132468   1.431   4.003  17.746  0.2889 -0.4259  0.7018
 6944SOL    HW232469   1.285   4.030  17.767  0.9450 -1.1482  1.1135
 6945SOL     OW32470   3.202   1.573   4.198  0.3297  0.1159  0.1993
 6945SOL    HW132471   3.117   1.539   4.225 -0.3554  3.0588  1.8022
 6945SOL    HW232472   3.262   1.520   4.250 -0.5542  2.0159  3.1747
 6946SOL     OW32473   3.735   1.518  16.647 -0.4204 -0.3060  0.0028
 6946SOL    HW132474   3.795   1.445  16.659  0.0630  0.3237  1.3435
 6946SOL    HW232475   3.674   1.477  16.585 -1.8909  2.2405 -0.2382
 6947SOL     OW32476   3.107   3.167  10.096  0.0824  0.3645  0.3170
 6947SOL    HW132477   3.032   3.225  10.106  0.1816  0.6750 -0.7040
 6947SOL    HW232478   3.182   3.225  10.097  0.2677  0.1174  0.8648
 6948SOL     OW32479   1.799   3.381   3.353 -0.3302  0.3341 -0.3143
 6948SOL    HW132480   1.837   3.338   3.276 -2.2242  2.0580 -2.2156
 6948SOL    HW232481   1.861   3.451   3.371  0.8448 -0.8089  0.1538
 6949SOL     OW32482   4.604   2.952   5.109  0.3322  0.2755 -0.4905
 6949SOL    HW132483   4.546   2.929   5.037 -0.6189 -1.1839  0.7472
 6949SOL    HW232484   4.622   2.863   5.138  2.3256  0.6860 -0.4327
 6950SOL     OW32485   0.766   2.442  16.863 -0.5270  0.4932  0.1187
 6950SOL    HW132486   0.674   2.438  16.888 -0.6648 -1.4553 -0.6813
 6950SOL    HW232487   0.789   2.534  16.848  0.0073 -0.2636 -3.5895
 6951SOL     OW32488   1.902   2.773   6.883 -0.4543  0.0433 -0.9062
 6951SOL    HW132489   1.979   2.808   6.837 -0.5061 -0.7804 -1.6239
 6951SOL    HW232490   1.847   2.744   6.810 -0.8850 -4.3609  1.1881
 6952SOL     OW32491   2.741   2.760   3.077 -0.3252 -0.5301 -0.6889
 6952SOL    HW132492   2.662   2.811   3.095 -0.1721  0.0782 -1.7501
 6952SOL    HW232493   2.709   2.689   3.022  0.4217 -2.1874  1.0478
 6953SOL     OW32494   3.757   0.179   7.591  0.1825 -0.2909  0.5748
 6953SOL    HW132495   3.842   0.223   7.590 -0.2062  0.4602  0.0104
 6953SOL    HW232496   3.702   0.242   7.639  2.6671  1.3263  1.3159
 6954SOL     OW32497   3.538   2.160   7.968 -0.4172 -0.4222  0.3475
 6954SOL    HW132498   3.527   2.065   7.975  3.2186 -0.6560  2.9052
 6954SOL    HW232499   3.473   2.198   7.908 -0.1968  0.5355  0.7168
 6955SOL     OW32500   1.259   3.644   5.696 -0.5417 -0.2153  0.0267
 6955SOL    HW132501   1.218   3.655   5.609 -0.2201 -2.5312 -0.4262
 6955SOL    HW232502   1.210   3.703   5.753  1.7023  1.4324  0.2256
 6956SOL     OW32503   3.794   0.263   2.497 -0.1682  0.0334 -0.1040
 6956SOL    HW132504   3.718   0.249   2.441  0.8560  0.2325 -1.5485
 6956SOL    HW232505   3.804   0.358   2.498  2.9786 -0.2917 -0.2584
 6957SOL     OW32506   0.578   4.195  16.403  0.3531  0.4404  0.2378
 6957SOL    HW132507   0.557   4.194  16.309  2.5656 -0.8716 -0.2486
 6957SOL    HW232508   0.512   4.256  16.434  0.4565 -0.7045  2.6613
 6958SOL     OW32509   3.263   1.834  10.650  0.2159  0.4055 -0.2080
 6958SOL    HW132510   3.192   1.895  10.670 -0.0221 -0.5241  1.7309
 6958SOL    HW232511   3.280   1.793  10.735  0.5300  1.1196  0.0670
 6959SOL     OW32512   4.273   4.273   1.993 -0.1942 -0.1656  0.1794
 6959SOL    HW132513   4.191   4.308   1.958  0.4243 -0.4605 -1.5985
 6959SOL    HW232514   4.312   4.345   2.041 -0.9866 -0.6703  1.5646
 6960SOL     OW32515   3.732   1.596   3.684  0.4272  0.1200  0.1562
 6960SOL    HW132516   3.755   1.519   3.632  1.8569 -0.9054  2.2856
 6960SOL    HW232517   3.740   1.672   3.627 -0.1515  0.3364  0.3704
 6961SOL     OW32518   3.299   4.731   5.429  0.1112  0.4958 -0.0132
 6961SOL    HW132519   3.224   4.677   5.404 -0.8542 -0.0251  3.9324
 6961SOL    HW232520   3.367   4.663   5.426  1.4773  1.8639  0.3389
 6962SOL     OW32521   2.954   0.989   0.507 -0.3586 -0.2295 -0.0362
 6962SOL    HW132522   2.973   1.062   0.566 -1.5628 -0.3231  0.4745
 6962SOL    HW232523   2.872   0.951   0.540 -1.0588  2.7165  1.6600
 6963SOL     OW32524   0.565   0.550   5.766 -0.8307  0.0245 -0.0106
 6963SOL    HW132525   0.497   0.602   5.809  0.0919  0.1038  1.3414
 6963SOL    HW232526   0.550   0.554   5.672 -0.1168  1.1117 -0.0725
 6964SOL     OW32527   3.873   1.221   7.180 -0.4193 -0.1404 -0.4630
 6964SOL    HW132528   3.927   1.259   7.248 -0.7996  1.0998 -0.8510
 6964SOL    HW232529   3.810   1.172   7.234  0.6573  0.9287  1.7417
 6965SOL     OW32530   3.935   2.707   4.864 -0.2512 -0.3372  0.3507
 6965SOL    HW132531   3.960   2.669   4.780  2.6195  1.7442  0.2730
 6965SOL    HW232532   3.904   2.625   4.903  2.1737 -1.0177  0.8477
 6966SOL     OW32533   0.294   3.491  13.586  0.0211 -0.0446 -0.2095
 6966SOL    HW132534   0.270   3.545  13.511 -2.0115 -0.4957  0.1069
 6966SOL    HW232535   0.216   3.437  13.597  0.7320 -1.2201 -0.8686
 6967SOL     OW32536   2.287   1.130  15.533  0.0539  0.1459 -0.1437
 6967SOL    HW132537   2.277   1.223  15.554 -1.0040  0.4220 -1.8713
 6967SOL    HW232538   2.231   1.130  15.455 -1.0671  1.0557  0.6747
 6968SOL     OW32539   1.753   1.438   3.648  0.2414  0.2951  0.4751
 6968SOL    HW132540   1.688   1.470   3.710  2.6444  0.8486  2.7290
 6968SOL    HW232541   1.702   1.377   3.595  0.7950 -0.7708  1.1720
 6969SOL     OW32542   4.210   1.012   5.809  0.4041 -0.5878  0.1106
 6969SOL    HW132543   4.263   0.951   5.861  0.8612 -1.7278 -1.7042
 6969SOL    HW232544   4.261   1.090   5.793  0.5254 -0.8717 -0.8607
 6970SOL     OW32545   4.717   1.711   4.166  0.4029  0.3745 -0.0453
 6970SOL    HW132546   4.622   1.714   4.179  0.1012 -1.0703 -1.9243
 6970SOL    HW232547   4.736   1.745   4.079 -0.9209  0.9734 -0.0937
 6971SOL     OW32548   4.219   2.612   2.578  0.0531  0.0979  0.4450
 6971SOL    HW132549   4.270   2.612   2.497  0.9501  0.7250  1.0078
 6971SOL    HW232550   4.205   2.706   2.593  2.1267  0.6167 -0.8554
 6972SOL     OW32551   1.590   3.935  14.178  0.3219 -0.2057  0.7646
 6972SOL    HW132552   1.578   3.995  14.104  1.7403  0.4394  1.0617
 6972SOL    HW232553   1.512   3.965  14.225 -1.1126 -2.2600 -0.2810
 6973SOL     OW32554   2.568   1.425   8.701 -0.0029  0.1327  0.6983
 6973SOL    HW132555   2.554   1.426   8.606  0.9932 -1.2226  0.5472
 6973SOL    HW232556   2.482   1.455   8.730 -1.3163 -1.3160 -1.7031
 6974SOL     OW32557   3.802   3.080   5.083 -0.1485 -0.7615 -0.1656
 6974SOL    HW132558   3.881   3.032   5.061  1.2103  2.9420 -3.3891
 6974SOL    HW232559   3.826   3.125   5.164 -2.3785 -1.7179  1.0403
 6975SOL     OW32560   1.342   3.231  16.538  0.6139  0.9013 -0.1623
 6975SOL    HW132561   1.361   3.151  16.489  0.4401  0.3041  0.7507
 6975SOL    HW232562   1.345   3.207  16.630 -1.9393  1.2592  0.0209
 6976SOL     OW32563   1.063   0.461   6.731  0.2575 -0.0718  0.1121
 6976SOL    HW132564   1.027   0.549   6.746  2.4092  0.7425  0.5037
 6976SOL    HW232565   1.150   0.493   6.709 -0.3548  1.6654  0.1703
 6977SOL     OW32566   1.888   2.080   9.065 -0.3079 -0.3996  0.3919
 6977SOL    HW132567   1.931   2.120   9.140  1.3668  0.4055 -0.9895
 6977SOL    HW232568   1.911   1.988   9.078 -1.6096 -0.8965 -0.8446
 6978SOL     OW32569   3.749   0.950   8.782 -0.5167  0.1396  0.0320
 6978SOL    HW132570   3.791   0.975   8.699  1.4430  0.4507  1.1349
 6978SOL    HW232571   3.678   1.014   8.773 -1.1903 -0.6021  0.0727
 6979SOL     OW32572   3.584   2.129  14.244 -0.1850  0.4531 -0.0520
 6979SOL    HW132573   3.583   2.215  14.202  1.0410  0.5149  0.0351
 6979SOL    HW232574   3.600   2.162  14.333 -3.2594 -2.0764  1.4075
 6980SOL     OW32575   0.286   3.255   1.810  0.3510 -0.0622  0.0724
 6980SOL    HW132576   0.341   3.320   1.767  0.1877  1.3573  1.9705
 6980SOL    HW232577   0.216   3.239   1.747  2.1479  1.7143 -2.3994
 6981SOL     OW32578   2.714   1.674   5.633 -0.6288 -0.3743  0.4125
 6981SOL    HW132579   2.701   1.612   5.705  0.5888  0.7728  1.6185
 6981SOL    HW232580   2.637   1.678   5.576 -0.0741  1.3027 -0.2176
 6982SOL     OW32581   4.456   3.161   2.875  0.4231  0.0326 -0.1566
 6982SOL    HW132582   4.542   3.191   2.902 -0.9652  1.0034  3.1322
 6982SOL    HW232583   4.474   3.087   2.817  2.2295 -1.3165  2.1325
 6983SOL     OW32584   1.719   1.712   2.051  0.0563  0.4196 -0.2391
 6983SOL    HW132585   1.671   1.778   2.100 -0.3945  1.4034 -1.9762
 6983SOL    HW232586   1.693   1.738   1.962 -0.7948  1.6231  0.3675
 6984SOL     OW32587   0.514   3.176   6.647 -0.1396  0.1785 -0.3918
 6984SOL    HW132588   0.541   3.114   6.716  0.9501  0.5468 -0.4844
 6984SOL    HW232589   0.592   3.201   6.597 -0.3566  0.1912 -0.7212
 6985SOL     OW32590   0.084   4.081   6.809  0.5577  0.1988 -0.1075
 6985SOL    HW132591   0.147   4.010   6.796  0.3927 -0.0267  0.3376
 6985SOL    HW232592   0.135   4.162   6.804 -1.4817  1.3833 -1.8250
 6986SOL     OW32593   1.768   3.276   5.245  0.0243 -0.0289 -0.0196
 6986SOL    HW132594   1.863   3.264   5.234 -0.1573 -0.7696 -0.7534
 6986SOL    HW232595   1.741   3.219   5.318 -1.0203 -0.1384 -0.5020
 6987SOL     OW32596   2.077   2.101  11.974  0.2603  0.2174  0.6453
 6987SOL    HW132597   2.042   2.025  11.928  0.6715 -0.2798  1.1608
 6987SOL    HW232598   2.172   2.098  11.960  0.7486  1.5958  3.6785
 6988SOL     OW32599   3.334   1.568   8.251 -0.5809 -0.1010 -0.1153
 6988SOL    HW132600   3.265   1.634   8.246 -1.5187 -1.1082 -0.6630
 6988SOL    HW232601   3.268   1.499   8.246  0.7030 -1.4124  0.7843
 6989SOL     OW32602   1.106   1.429   3.048  0.2135  0.2839 -0.2410
 6989SOL    HW132603   1.117   1.479   2.967 -0.9251  1.2800  0.2379
 6989SOL    HW232604   1.109   1.487   3.123  0.4733 -0.2913  0.1928
 6990SOL     OW32605   3.503   2.062   1.863  0.0781 -0.5849  0.0517
 6990SOL    HW132606   3.466   1.977   1.835  3.3135 -1.0598 -2.7707
 6990SOL    HW232607   3.589   2.039   1.828  0.4955  0.7353  0.2315
 6991SOL     OW32608   1.000   1.535   9.858  0.6228  0.1077 -0.6387
 6991SOL    HW132609   0.986   1.629   9.869 -1.4333 -0.0304 -2.0312
 6991SOL    HW232610   1.063   1.524   9.929  0.3797  0.6176 -0.3457
 6992SOL     OW32611   1.498   0.943   7.504 -0.3530 -0.8411 -0.2432
 6992SOL    HW132612   1.455   0.989   7.575 -0.5410 -2.1274  0.4857
 6992SOL    HW232613   1.585   0.932   7.541  0.0982 -1.2874 -1.4161
 6993SOL     OW32614   2.447   4.213   8.488 -0.0537  0.0080 -0.4959
 6993SOL    HW132615   2.495   4.170   8.559 -2.0504 -3.1930 -1.0847
 6993SOL    HW232616   2.502   4.200   8.411  1.0678  2.3180 -0.0756
 6994SOL     OW32617   4.425   4.693   4.012 -0.0730  0.5269  0.2763
 6994SOL    HW132618   4.432   0.000   3.930  0.1737 -2.7064 -1.6656
 6994SOL    HW232619   4.388   0.016   4.070  0.8949  0.5241  0.9061
 6995SOL     OW32620   1.087   0.397  10.178 -0.1299 -0.2026 -0.4239
 6995SOL    HW132621   1.165   0.384  10.231 -0.3109  2.4885  0.4948
 6995SOL    HW232622   1.059   0.479  10.218  0.1101  0.1054 -0.8931
 6996SOL     OW32623   3.529   2.500  13.804 -0.3339 -0.1299  0.1874
 6996SOL    HW132624   3.557   2.523  13.716  2.6758  1.4748  1.5700
 6996SOL    HW232625   3.557   2.408  13.803  2.2500  0.6885 -1.4717
 6997SOL     OW32626   4.560   0.851   9.291 -0.3556  0.1048  0.2224
 6997SOL    HW132627   4.521   0.852   9.379  0.3202  0.3007  0.5188
 6997SOL    HW232628   4.481   0.862   9.238 -0.4219 -1.3404  0.0187
 6998SOL     OW32629   2.592   4.400   6.216  0.7401 -0.0532 -0.7311
 6998SOL    HW132630   2.673   4.447   6.233  1.3491 -1.6978  0.9311
 6998SOL    HW232631   2.540   4.471   6.179 -1.1081 -0.8094  0.4059
 6999SOL     OW32632   4.454   2.832   7.707 -0.4328 -0.4602  0.2974
 6999SOL    HW132633   4.441   2.778   7.630 -1.4036 -1.1566  0.9544
 6999SOL    HW232634   4.383   2.804   7.765 -2.0570 -0.3160 -1.6058
 7000SOL     OW32635   2.118   2.937   6.050 -0.1749 -0.3221  0.3565
 7000SOL    HW132636   2.135   2.884   6.128  0.0496  0.5563  0.9007
 7000SOL    HW232637   2.023   2.942   6.065 -0.2708 -1.3407  0.0978
 7001SOL     OW32638   4.150   2.476   6.054 -0.5133  0.0091 -0.3160
 7001SOL    HW132639   4.200   2.438   6.127  1.5118 -0.0940 -1.7745
 7001SOL    HW232640   4.073   2.422   6.071  1.0252 -2.7377 -2.0626
 7002SOL     OW32641   3.003   1.983   1.237 -0.6461  0.0418 -0.2976
 7002SOL    HW132642   2.950   1.959   1.313 -1.7468 -1.6276 -1.5884
 7002SOL    HW232643   3.068   2.041   1.277 -2.1423  1.0180  0.7363
 7003SOL     OW32644   3.218   2.137  17.700  0.1089  0.3452 -0.3690
 7003SOL    HW132645   3.219   2.233  17.706  0.3049  0.1044  3.5824
 7003SOL    HW232646   3.300   2.105  17.735 -0.6441 -0.2124  0.8928
 7004SOL     OW32647   0.769   3.328   0.305 -0.0755 -0.2137  0.2201
 7004SOL    HW132648   0.746   3.348   0.214 -3.4571 -0.4758  0.9950
 7004SOL    HW232649   0.688   3.281   0.328 -1.5462  1.2681 -1.9344
 7005SOL     OW32650   0.943   3.120   8.629  0.1609 -0.4133 -0.4748
 7005SOL    HW132651   0.953   3.179   8.704 -0.2944  0.7814 -1.3670
 7005SOL    HW232652   0.864   3.158   8.591  0.8918  2.4591  0.8671
 7006SOL     OW32653   0.395   2.744   9.962  0.6272  0.1406 -0.5454
 7006SOL    HW132654   0.363   2.754   9.872 -0.3023 -0.8321 -0.3262
 7006SOL    HW232655   0.314   2.764  10.008  0.9994  1.9434 -0.6661
 7007SOL     OW32656   0.337   4.343  15.928  0.1699 -0.0872  0.3806
 7007SOL    HW132657   0.259   4.374  15.883  0.8403  0.5621 -0.3413
 7007SOL    HW232658   0.363   4.268  15.874  0.3512  0.1522  0.1347
 7008SOL     OW32659   0.227   4.172   2.938  0.0211  0.1860  0.4600
 7008SOL    HW132660   0.132   4.163   2.925  0.3374  0.1530 -1.7896
 7008SOL    HW232661   0.253   4.099   2.882  0.1429  0.5032  0.1067
 7009SOL     OW32662   1.362   0.807  11.221  0.2257 -0.0812 -0.4071
 7009SOL    HW132663   1.446   0.840  11.250 -0.8559  1.0918  1.3857
 7009SOL    HW232664   1.395   0.742  11.159 -0.6496 -1.4819  0.6061
 7010SOL     OW32665   4.222   1.096  13.992  0.4743 -0.3372 -0.1410
 7010SOL    HW132666   4.154   1.141  14.040 -0.1078  0.2532 -1.5091
 7010SOL    HW232667   4.166   1.037  13.941 -0.5817 -0.4442  1.1550
 7011SOL     OW32668   1.318   1.550   8.420  0.1666  0.3060  0.0786
 7011SOL    HW132669   1.396   1.602   8.403 -0.2051  0.5245 -0.9113
 7011SOL    HW232670   1.277   1.605   8.488 -0.6290  0.5994 -0.6400
 7012SOL     OW32671   3.946   0.023   5.789  0.0658 -0.4917  0.0082
 7012SOL    HW132672   3.865   0.073   5.795 -0.2935 -0.8970 -1.5477
 7012SOL    HW232673   3.973   0.035   5.880  0.1285  1.6968 -0.3190
 7013SOL     OW32674   1.686   3.111  15.965 -0.5845  0.0286  0.3784
 7013SOL    HW132675   1.779   3.092  15.980 -0.6447  1.2254  2.2125
 7013SOL    HW232676   1.693   3.180  15.899  0.5834  0.4510  0.9309
 7014SOL     OW32677   2.735   2.303   1.382 -0.0111  0.2842  0.1152
 7014SOL    HW132678   2.820   2.325   1.420 -0.6403 -0.1688  1.8039
 7014SOL    HW232679   2.769   2.272   1.298 -0.7154 -0.1689 -0.0023
 7015SOL     OW32680   2.601   3.384   5.324 -0.0983 -0.2942 -0.0339
 7015SOL    HW132681   2.643   3.341   5.250 -0.6696  2.9254 -2.2174
 7015SOL    HW232682   2.527   3.325   5.342  0.1802 -0.1465  1.5454
 7016SOL     OW32683   2.474   4.617   9.913  0.2293 -0.1058 -0.0214
 7016SOL    HW132684   2.442   4.569   9.836  2.5875 -0.1778 -0.9560
 7016SOL    HW232685   2.566   4.605   9.891  1.1403 -1.2917  4.5055
 7017SOL     OW32686   4.352   2.550  17.015  0.0672 -0.1397 -0.7009
 7017SOL    HW132687   4.350   2.535  17.110 -0.9107 -3.9079 -1.3132
 7017SOL    HW232688   4.262   2.580  17.003 -0.0870 -0.3056  0.0230
 7018SOL     OW32689   1.895   2.623  16.537 -0.7119 -0.3820  0.0096
 7018SOL    HW132690   1.947   2.650  16.613 -1.1708 -0.1640  0.2427
 7018SOL    HW232691   1.813   2.665  16.562 -1.0944 -2.9381  3.0359
 7019SOL     OW32692   0.148   1.536   3.369  0.2298  0.2809  0.2696
 7019SOL    HW132693   0.079   1.505   3.309 -0.9552  1.0948  1.2211
 7019SOL    HW232694   0.096   1.570   3.442  0.6018 -0.1802  0.7477
 7020SOL     OW32695   3.696   1.433   9.025 -0.1205  0.2506 -0.1778
 7020SOL    HW132696   3.757   1.452   8.954  0.1785  2.0972  0.5844
 7020SOL    HW232697   3.620   1.483   8.993  1.2555  1.2395 -1.8422
 7021SOL     OW32698   4.399   2.010   4.999  0.2160  0.3433 -0.3541
 7021SOL    HW132699   4.319   2.057   4.975  0.8552  1.8270  0.4368
 7021SOL    HW232700   4.410   1.935   4.940 -0.5482 -0.2188  0.2035
 7022SOL     OW32701   0.237   3.733  15.640  0.3992 -0.2880  0.5022
 7022SOL    HW132702   0.229   3.827  15.657 -1.7999 -0.9231  2.9892
 7022SOL    HW232703   0.185   3.725  15.561 -0.7950  0.0530  1.2520
 7023SOL     OW32704   3.263   0.848  13.739 -0.1773  1.1283  0.6472
 7023SOL    HW132705   3.341   0.900  13.762  1.3557 -1.8477  2.2102
 7023SOL    HW232706   3.299   0.761  13.755  0.5302  1.3478  0.2469
 7024SOL     OW32707   4.645   1.048   9.544 -0.1008 -0.1782 -0.2813
 7024SOL    HW132708   4.640   1.133   9.501  0.7387 -0.1400 -0.2959
 7024SOL    HW232709   4.556   1.036   9.580  0.3179 -0.4564  0.6807
 7025SOL     OW32710   0.566   3.894   8.435 -0.2978  0.2143 -0.0351
 7025SOL    HW132711   0.615   3.831   8.488 -2.0541 -2.2590 -1.3294
 7025SOL    HW232712   0.548   3.964   8.497  1.6248 -1.2191  2.1511
 7026SOL     OW32713   2.693   1.065   3.512 -0.1469  0.2436 -0.3544
 7026SOL    HW132714   2.665   1.115   3.589 -0.3504  0.5985 -0.6578
 7026SOL    HW232715   2.781   1.048   3.546 -0.1593  1.4831  0.2963
 7027SOL     OW32716   2.448   4.464   8.677  0.0693 -0.4762  0.4422
 7027SOL    HW132717   2.439   4.382   8.629  0.0148 -0.5170  0.5223
 7027SOL    HW232718   2.532   4.449   8.720  0.7439 -2.5356 -1.5891
 7028SOL     OW32719   1.732   1.453   2.113 -0.0658 -0.4491  0.1883
 7028SOL    HW132720   1.724   1.539   2.073 -0.4657 -0.8148 -0.5240
 7028SOL    HW232721   1.724   1.472   2.206  1.0207  0.3067  0.1175
 7029SOL     OW32722   2.682   1.021   2.654  0.4458 -0.3277  0.1046
 7029SOL    HW132723   2.727   1.075   2.590 -1.1759  1.8201  0.7976
 7029SOL    HW232724   2.755   0.965   2.680  0.1774 -1.4613 -1.6159
 7030SOL     OW32725   3.403   3.868   2.623  0.0185 -0.0476 -0.0960
 7030SOL    HW132726   3.477   3.873   2.562 -0.2111 -0.3034 -0.3941
 7030SOL    HW232727   3.359   3.787   2.595 -0.4264  0.8234 -1.9164
 7031SOL     OW32728   3.450   0.741   6.357 -0.3222  0.0309  0.4067
 7031SOL    HW132729   3.528   0.795   6.345 -0.0697 -0.0240  1.8173
 7031SOL    HW232730   3.479   0.656   6.323  1.4065  0.3947  0.9449
 7032SOL     OW32731   3.336   0.688   3.108  0.2464  0.1112 -0.3971
 7032SOL    HW132732   3.298   0.601   3.094  0.1475  0.7272 -3.9785
 7032SOL    HW232733   3.293   0.709   3.191  0.7284  2.2401 -0.7006
 7033SOL     OW32734   3.725   0.387   1.291 -0.1244  0.7987  0.2908
 7033SOL    HW132735   3.684   0.465   1.327 -2.1176 -0.7579  1.3598
 7033SOL    HW232736   3.818   0.408   1.284  0.0611 -0.1201 -0.1085
 7034SOL     OW32737   0.984   2.493   9.039 -0.0716 -0.5201 -0.3066
 7034SOL    HW132738   0.970   2.464   9.129 -0.6399 -1.7660 -0.7994
 7034SOL    HW232739   1.080   2.492   9.045 -0.0153 -2.6483 -1.7671
 7035SOL     OW32740   2.627   3.925   2.910  0.1492 -0.6886  0.1963
 7035SOL    HW132741   2.590   3.932   2.997 -2.5409 -0.2601 -0.9753
 7035SOL    HW232742   2.689   3.853   2.923 -0.6724 -1.5814 -0.7521
 7036SOL     OW32743   0.502   0.888   6.443 -0.8410 -0.4152  0.1985
 7036SOL    HW132744   0.536   0.832   6.513  0.1686  2.6806  2.2472
 7036SOL    HW232745   0.583   0.921   6.404 -0.9631 -0.2014  0.1252
 7037SOL     OW32746   0.090   2.615   8.392  0.2768 -0.2495  0.4619
 7037SOL    HW132747   0.152   2.555   8.350  0.0562 -0.3624  0.2942
 7037SOL    HW232748   0.139   2.678   8.445 -3.1713  2.3559  0.5671
 7038SOL     OW32749   3.655   3.383   2.245 -0.8231 -0.3805 -0.3772
 7038SOL    HW132750   3.724   3.448   2.258 -1.0820 -0.6613  2.3469
 7038SOL    HW232751   3.593   3.415   2.311  2.5484  0.6101  2.3008
 7039SOL     OW32752   1.902   0.208  17.026 -0.0879  0.4977 -0.5874
 7039SOL    HW132753   1.921   0.251  17.109 -2.1746  1.7876 -0.7784
 7039SOL    HW232754   1.855   0.126  17.043  2.0420 -0.7192 -0.6099
 7040SOL     OW32755   2.387   2.433   7.436 -0.5972 -0.0756  0.3143
 7040SOL    HW132756   2.413   2.345   7.408  1.1641  0.0116  1.7153
 7040SOL    HW232757   2.314   2.441   7.374  1.1948  1.7329 -1.5266
 7041SOL     OW32758   2.950   4.330   6.661  0.1709 -0.3448  0.1890
 7041SOL    HW132759   2.874   4.365   6.707  1.7875 -0.5522  3.0293
 7041SOL    HW232760   2.986   4.274   6.730 -1.6624 -0.8472  0.7256
 7042SOL     OW32761   3.119   0.800   7.157 -0.2537 -0.9463  0.3443
 7042SOL    HW132762   3.177   0.744   7.106  1.5176  0.7107  0.5742
 7042SOL    HW232763   3.079   0.834   7.077  0.4324  0.7767  0.7395
 7043SOL     OW32764   0.088   0.378  10.751 -0.4529 -0.3122  0.2188
 7043SOL    HW132765   0.073   0.284  10.761  0.8351 -0.4914  0.4592
 7043SOL    HW232766   0.183   0.385  10.746 -0.3610 -2.3856 -0.9739
 7044SOL     OW32767   0.323   3.331   5.825  0.2521 -0.0302 -0.4106
 7044SOL    HW132768   0.294   3.417   5.795  1.6147  0.3484 -0.6067
 7044SOL    HW232769   0.312   3.342   5.919 -1.2529 -0.3796 -0.5381
 7045SOL     OW32770   4.686   0.178  15.349 -0.1298 -0.3118 -0.0696
 7045SOL    HW132771   4.614   0.141  15.400  2.0076 -1.9695  1.7465
 7045SOL    HW232772   4.673   0.128  15.268  0.4823  2.4967 -1.8714
 7046SOL     OW32773   2.961   2.435   7.080  0.0311  0.0100  0.7316
 7046SOL    HW132774   3.005   2.493   7.018 -0.5645  1.4953  1.6870
 7046SOL    HW232775   2.883   2.409   7.032  0.8299 -1.3231  0.1720
 7047SOL     OW32776   2.749   3.960   0.400  0.6245 -0.5087  0.1925
 7047SOL    HW132777   2.724   4.053   0.399  0.2381 -0.6000  1.1870
 7047SOL    HW232778   2.666   3.919   0.375  0.4415  0.0806 -0.1833
 7048SOL     OW32779   2.283   1.048   6.191  0.3396  0.2072  0.2842
 7048SOL    HW132780   2.286   1.125   6.134 -0.3528 -0.0068 -0.0321
 7048SOL    HW232781   2.190   1.030   6.182 -0.2506  1.8537  3.2382
 7049SOL     OW32782   4.512   3.779   6.984 -0.1225 -0.1103 -0.1755
 7049SOL    HW132783   4.443   3.845   6.989 -1.1149 -0.8138 -4.1547
 7049SOL    HW232784   4.528   3.767   7.077 -0.0248  0.1830 -0.1548
 7050SOL     OW32785   0.619   0.790  16.373 -0.1275 -0.0174  0.0656
 7050SOL    HW132786   0.651   0.842  16.446 -1.3718  0.2685  0.3976
 7050SOL    HW232787   0.579   0.714  16.415  1.0741  0.7626  2.6131
 7051SOL     OW32788   0.324   4.570   8.181 -0.5354  0.3935 -0.1947
 7051SOL    HW132789   0.278   4.485   8.177 -0.1113  0.1421  0.2875
 7051SOL    HW232790   0.252   4.631   8.196  0.2945  1.5578 -0.9379
 7052SOL     OW32791   3.566   1.568   8.370 -0.4607  1.0526 -0.1949
 7052SOL    HW132792   3.604   1.651   8.342 -1.9381  1.2728 -1.5136
 7052SOL    HW232793   3.488   1.576   8.317 -0.1901  2.8477 -0.3148
 7053SOL     OW32794   2.101   0.639   0.514 -0.0395  0.1603  0.0770
 7053SOL    HW132795   2.153   0.601   0.585 -2.8469 -1.1719  1.4429
 7053SOL    HW232796   2.023   0.583   0.520 -0.5971  0.8454 -0.7917
 7054SOL     OW32797   2.755   1.940  13.343 -0.3905  0.7559 -0.4294
 7054SOL    HW132798   2.822   2.007  13.328  0.8100 -0.3223  0.1462
 7054SOL    HW232799   2.797   1.904  13.421 -0.6647  2.0248  0.3061
 7055SOL     OW32800   1.294   0.244   4.740  0.2658  0.1906 -0.3263
 7055SOL    HW132801   1.209   0.252   4.697  0.7461  2.4043 -0.8587
 7055SOL    HW232802   1.339   0.203   4.665  0.5845 -1.0183  0.5279
 7056SOL     OW32803   0.303   3.886  14.538  0.2245 -0.3010 -0.2169
 7056SOL    HW132804   0.393   3.914  14.523 -0.1582  1.0550  0.0146
 7056SOL    HW232805   0.307   3.793  14.512 -1.6857 -0.0839 -1.2923
 7057SOL     OW32806   1.701   2.680  16.079 -0.3432  0.0775 -0.3561
 7057SOL    HW132807   1.659   2.765  16.088  0.4220  0.2123  2.0290
 7057SOL    HW232808   1.629   2.620  16.096  0.4961 -0.5923  0.8646
 7058SOL     OW32809   0.882   3.069   1.802  0.5248 -0.1150  0.0058
 7058SOL    HW132810   0.849   3.124   1.873 -4.5649 -3.5354  0.2622
 7058SOL    HW232811   0.873   3.133   1.732  1.8344 -1.2291 -1.1837
 7059SOL     OW32812   0.986   3.172   2.489 -0.6040  0.2683 -0.0478
 7059SOL    HW132813   0.912   3.129   2.448 -0.5377 -1.5724  1.7330
 7059SOL    HW232814   0.996   3.115   2.565  1.6214  0.6862 -0.0152
 7060SOL     OW32815   3.889   2.163   6.885 -0.5569 -0.1093  0.6246
 7060SOL    HW132816   3.832   2.237   6.864 -0.3610 -0.3389 -0.6582
 7060SOL    HW232817   3.946   2.158   6.808  0.0309  1.1679  0.9587
 7061SOL     OW32818   4.255   3.429  10.538  0.3920  0.2296  0.3877
 7061SOL    HW132819   4.311   3.353  10.556  0.0552  0.0612  0.7192
 7061SOL    HW232820   4.192   3.400  10.472 -0.8174 -1.4101  2.2613
 7062SOL     OW32821   3.842   2.912  12.760 -0.2573 -0.3077  0.0504
 7062SOL    HW132822   3.887   2.975  12.705 -0.0740 -0.3346  0.1696
 7062SOL    HW232823   3.780   2.965  12.811  0.5863 -1.7887  2.6537
 7063SOL     OW32824   4.559   2.244   9.544  0.3090 -0.1322  0.0584
 7063SOL    HW132825   4.643   2.237   9.499  1.4878 -0.3678  2.3000
 7063SOL    HW232826   4.506   2.240   9.464  1.9934  1.6571 -1.1483
 7064SOL     OW32827   3.122   1.861   5.098  0.4889 -0.0358  0.5945
 7064SOL    HW132828   3.063   1.881   5.026 -0.6528  1.5385  1.9648
 7064SOL    HW232829   3.064   1.867   5.175 -0.0382 -1.7234  0.3506
 7065SOL     OW32830   0.769   0.989   9.562  0.4815 -0.2208 -0.4249
 7065SOL    HW132831   0.831   0.996   9.634  1.5939 -0.6169 -1.3496
 7065SOL    HW232832   0.695   1.044   9.589  1.5834  0.8390  0.4382
 7066SOL     OW32833   3.006   0.619   2.914 -0.4247  0.0448 -0.4186
 7066SOL    HW132834   2.962   0.696   2.950 -0.9158  0.2002 -1.3521
 7066SOL    HW232835   2.946   0.546   2.927  1.2546 -1.1574  0.5461
 7067SOL     OW32836   0.128   0.334  16.302  0.3274 -0.1023  0.1391
 7067SOL    HW132837   0.060   0.282  16.345 -0.0879 -1.0131 -1.6162
 7067SOL    HW232838   0.167   0.383  16.374 -0.7000  0.0482  0.5903
 7068SOL     OW32839   1.431   3.130   7.791 -0.1787 -0.3628 -0.2899
 7068SOL    HW132840   1.487   3.198   7.754  0.7229 -0.8139  0.2403
 7068SOL    HW232841   1.403   3.169   7.874  0.7689 -1.5365  0.5758
 7069SOL     OW32842   2.999   3.535   1.950  0.1503  0.0582 -0.2168
 7069SOL    HW132843   2.928   3.536   1.885  0.4654 -0.0317 -0.5578
 7069SOL    HW232844   3.060   3.473   1.911 -0.3335 -0.2415 -0.4971
 7070SOL     OW32845   0.749   3.884   2.191 -0.7941 -0.2229 -0.3102
 7070SOL    HW132846   0.818   3.893   2.125 -1.2281 -2.4831 -1.0562
 7070SOL    HW232847   0.733   3.973   2.224 -0.0545  0.5132 -1.9357
 7071SOL     OW32848   0.447   1.843  16.941  0.2834  0.5982 -0.0018
 7071SOL    HW132849   0.419   1.922  16.987 -0.6301 -0.7159  1.7310
 7071SOL    HW232850   0.509   1.806  17.003 -1.9598 -1.0391  1.2662
 7072SOL     OW32851   0.099   4.138   3.304 -0.1925 -0.4123 -0.5254
 7072SOL    HW132852   0.049   4.180   3.374 -0.3556 -2.0709  0.3633
 7072SOL    HW232853   0.027   4.104   3.252  0.1172 -2.9258  0.6709
 7073SOL     OW32854   2.759   4.073  17.052 -0.2401 -0.7911 -0.1946
 7073SOL    HW132855   2.763   3.977  17.051 -1.2368 -0.8483  0.6572
 7073SOL    HW232856   2.700   4.092  17.126  2.1264 -1.1640  1.7875
 7074SOL     OW32857   3.163   0.908  15.511 -0.0959 -0.0222  0.0457
 7074SOL    HW132858   3.241   0.942  15.468  2.4262 -2.5154  2.6299
 7074SOL    HW232859   3.203   0.826  15.540  1.6741  1.0649  0.6590
 7075SOL     OW32860   2.338   4.108  16.608  0.1100 -0.0698 -0.1375
 7075SOL    HW132861   2.403   4.043  16.583  0.6621  0.1251  0.7852
 7075SOL    HW232862   2.400   4.171  16.645  0.1545 -0.8825  1.1701
 7076SOL     OW32863   1.950   3.118  15.937 -0.2087 -0.9819  0.0283
 7076SOL    HW132864   1.999   3.117  16.019 -0.1742 -1.9559 -0.0057
 7076SOL    HW232865   1.984   3.199  15.898  2.7068 -1.9545  0.5431
 7077SOL     OW32866   0.267   1.082   0.942 -0.1481 -0.3641 -0.0729
 7077SOL    HW132867   0.175   1.089   0.965 -0.2551 -0.0284 -0.6066
 7077SOL    HW232868   0.296   1.064   1.032  1.9382 -0.7850 -0.8168
 7078SOL     OW32869   1.376   3.110  11.901 -0.5960 -0.5127 -0.5327
 7078SOL    HW132870   1.450   3.130  11.844  0.9144 -0.3694  1.4746
 7078SOL    HW232871   1.307   3.120  11.835  1.1812 -0.2355 -2.3689
 7079SOL     OW32872   0.121   3.244   6.288 -0.0291 -0.2387  0.0893
 7079SOL    HW132873   0.148   3.153   6.303  0.1118 -0.7607 -3.4487
 7079SOL    HW232874   0.111   3.287   6.373  1.6042  0.7982 -0.2563
 7080SOL     OW32875   1.476   1.319   2.105  0.0595 -0.0555  0.0122
 7080SOL    HW132876   1.563   1.359   2.109 -0.1887  0.6763 -1.9170
 7080SOL    HW232877   1.426   1.392   2.069  0.3855  0.0722 -0.1837
 7081SOL     OW32878   2.140   1.228   7.338 -0.1545 -0.1555  0.0925
 7081SOL    HW132879   2.171   1.201   7.251 -2.3012 -0.8785 -0.4727
 7081SOL    HW232880   2.045   1.241   7.334 -0.2821 -1.6777 -1.8041
 7082SOL     OW32881   3.269   1.390   7.546  0.0321  0.0583  0.1343
 7082SOL    HW132882   3.212   1.316   7.563 -1.2365  1.4258  1.8229
 7082SOL    HW232883   3.209   1.464   7.537 -0.6638 -0.1679  2.8550
 7083SOL     OW32884   4.604   2.628  16.886  0.3273 -0.1383  0.7658
 7083SOL    HW132885   4.533   2.662  16.830 -0.6206 -0.0788  1.9966
 7083SOL    HW232886   4.563   2.579  16.957  0.7276 -0.8177  0.5228
 7084SOL     OW32887   3.725   3.179   9.044  0.5616  0.7061 -0.2996
 7084SOL    HW132888   3.720   3.208   8.952 -0.6155 -0.4552 -0.6057
 7084SOL    HW232889   3.713   3.263   9.089  1.5678  0.9027 -0.4081
 7085SOL     OW32890   0.624   0.121  10.081 -0.0039 -0.1372 -0.3289
 7085SOL    HW132891   0.613   0.108   9.987  1.1450 -1.4108 -0.2981
 7085SOL    HW232892   0.626   0.031  10.113  1.0781  0.8107  2.2088
 7086SOL     OW32893   0.401   2.159  14.254 -0.0358 -0.5063 -0.5841
 7086SOL    HW132894   0.362   2.206  14.328 -0.0502 -0.0039 -0.9100
 7086SOL    HW232895   0.398   2.067  14.280  1.6928 -0.9743 -2.0325
 7087SOL     OW32896   0.269   4.165   4.864 -0.0086  0.2686 -0.7763
 7087SOL    HW132897   0.220   4.084   4.873 -0.0756  0.2734 -1.0992
 7087SOL    HW232898   0.230   4.219   4.934  1.7814 -1.5595  1.6554
 7088SOL     OW32899   0.249   1.351  12.196 -0.0844 -0.2308  0.3560
 7088SOL    HW132900   0.197   1.392  12.127  2.0533  0.5892 -0.7685
 7088SOL    HW232901   0.337   1.384  12.178 -0.3829  0.8103  0.8119
 7089SOL     OW32902   3.301   1.042   8.647 -0.5778  0.2259 -0.1192
 7089SOL    HW132903   3.395   1.032   8.629 -0.3459  2.2949 -0.0217
 7089SOL    HW232904   3.270   0.951   8.639  0.0395 -0.0252  0.3337
 7090SOL     OW32905   0.830   4.710   0.472  0.2513 -0.2675  0.0413
 7090SOL    HW132906   0.897   0.010   0.420 -0.2821 -1.3136 -1.4912
 7090SOL    HW232907   0.801   4.636   0.419  1.1546 -2.4393  2.5438
 7091SOL     OW32908   3.305   1.713   5.324  0.2732  0.1028 -0.4027
 7091SOL    HW132909   3.325   1.807   5.320  0.3578  0.1877  2.1780
 7091SOL    HW232910   3.210   1.712   5.315  0.1158  2.0348  1.2122
 7092SOL     OW32911   0.171   1.755   4.351  1.1127  0.0366 -0.2030
 7092SOL    HW132912   0.156   1.675   4.401 -0.0424  0.2861 -0.1604
 7092SOL    HW232913   0.103   1.742   4.285 -0.2400 -0.0225  1.2136
 7093SOL     OW32914   4.481   4.039   3.281 -0.0801 -0.0668 -0.4799
 7093SOL    HW132915   4.420   4.005   3.346  1.9974 -0.0464  1.4570
 7093SOL    HW232916   4.449   4.129   3.271  0.3528  0.2879  1.3565
 7094SOL     OW32917   4.310   3.581   6.418 -0.4173 -0.5763  0.8370
 7094SOL    HW132918   4.391   3.608   6.460 -1.0798 -0.3139  1.9293
 7094SOL    HW232919   4.285   3.651   6.357 -2.1052 -2.1420 -0.2601
 7095SOL     OW32920   3.266   2.713   8.291  0.2238  0.6158 -0.0845
 7095SOL    HW132921   3.222   2.630   8.278 -2.9889  2.0487  1.6778
 7095SOL    HW232922   3.188   2.765   8.271  0.9755  1.5689 -0.5654
 7096SOL     OW32923   3.364   1.610  17.415 -0.3182  0.3732 -0.7203
 7096SOL    HW132924   3.458   1.613  17.432  0.3431 -0.0446 -4.3254
 7096SOL    HW232925   3.358   1.529  17.364 -0.4813  0.7125 -1.2356
 7097SOL     OW32926   0.109   4.366  16.368 -0.1806  0.1307 -0.6699
 7097SOL    HW132927   0.019   4.396  16.357  0.1671  1.4107 -0.0957
 7097SOL    HW232928   0.142   4.395  16.283  1.1892 -0.5997 -0.3823
 7098SOL     OW32929   4.164   4.259   1.621  0.3304  0.4978 -0.3338
 7098SOL    HW132930   4.071   4.279   1.613 -0.0074 -0.5012  0.9991
 7098SOL    HW232931   4.212   4.336   1.590  1.6772  0.0325  0.6097
 7099SOL     OW32932   2.327   1.990  10.785  0.0206  0.0717  0.1893
 7099SOL    HW132933   2.407   1.943  10.760 -0.1683 -0.7875  1.1913
 7099SOL    HW232934   2.367   2.077  10.785 -2.0553  1.0291 -2.1983
 7100SOL     OW32935   1.537   3.011   7.423 -0.0609 -0.0642 -0.2348
 7100SOL    HW132936   1.481   3.082   7.453 -2.1634 -2.0384  0.4809
 7100SOL    HW232937   1.621   3.043   7.457 -0.2830 -2.6574  2.7065
 7101SOL     OW32938   1.303   0.622   3.901  0.2986  0.0133 -0.4777
 7101SOL    HW132939   1.251   0.640   3.823 -0.4366  0.5861  0.1467
 7101SOL    HW232940   1.234   0.628   3.968 -0.2420 -0.7284 -0.9616
 7102SOL     OW32941   3.845   1.413   1.566  0.3863  0.0332 -0.1005
 7102SOL    HW132942   3.814   1.504   1.565  0.6037  0.0711 -2.8823
 7102SOL    HW232943   3.904   1.403   1.492 -2.0881  1.6093 -2.2872
 7103SOL     OW32944   1.125   1.434   5.161 -0.3424  0.1594  0.3208
 7103SOL    HW132945   1.078   1.489   5.224 -0.5602 -1.5143  1.6268
 7103SOL    HW232946   1.212   1.473   5.169 -0.5941  0.6614  0.6931
 7104SOL     OW32947   1.952   4.399   0.089 -0.4770  0.1350 -0.4868
 7104SOL    HW132948   1.969   4.492   0.105 -2.6879  0.3414  0.7237
 7104SOL    HW232949   1.905   4.385   0.007  1.2315  0.1899 -1.4623
 7105SOL     OW32950   0.681   1.149   7.538 -0.6680  0.2451  0.2977
 7105SOL    HW132951   0.722   1.210   7.599  1.7964 -0.5358 -0.5725
 7105SOL    HW232952   0.738   1.138   7.462  2.1420  1.5892  2.2354
 7106SOL     OW32953   0.905   0.018   6.638 -0.0598  0.2942  0.0524
 7106SOL    HW132954   0.838   4.707   6.595  0.9202 -1.3603  0.5964
 7106SOL    HW232955   0.890   4.719   6.723 -1.2346 -1.6007 -1.0778
 7107SOL     OW32956   4.209   4.548  16.140  0.7677 -0.1999 -0.1225
 7107SOL    HW132957   4.260   4.502  16.074  2.5300  0.8640  0.5134
 7107SOL    HW232958   4.126   4.501  16.130  0.9553 -0.2201 -1.6761
 7108SOL     OW32959   3.170   3.028   3.231  0.4468 -0.0226  0.2469
 7108SOL    HW132960   3.131   3.021   3.144  1.1048  3.0759 -0.3001
 7108SOL    HW232961   3.120   3.104   3.262  2.6931  1.5360  0.0548
 7109SOL     OW32962   0.785   1.621  11.025  0.1784  0.0812 -0.2773
 7109SOL    HW132963   0.719   1.633  10.957  1.4973  0.8777 -1.4320
 7109SOL    HW232964   0.854   1.581  10.972  0.5150 -1.6867  1.5005
 7110SOL     OW32965   1.996   3.565   0.797 -0.4400 -0.4415 -0.4363
 7110SOL    HW132966   2.010   3.602   0.710  1.7369 -0.5097 -0.1218
 7110SOL    HW232967   1.905   3.590   0.815 -0.4714 -0.0828 -1.0719
 7111SOL     OW32968   2.254   0.866  17.479  0.1594  0.0202 -0.3020
 7111SOL    HW132969   2.294   0.807  17.415  1.0746 -1.2657  1.4643
 7111SOL    HW232970   2.296   0.951  17.463 -3.6261  1.4678 -2.7457
 7112SOL     OW32971   2.657   2.044  10.476 -0.1169  0.2390 -0.0550
 7112SOL    HW132972   2.591   2.075  10.414 -2.7422 -1.8339  1.6831
 7112SOL    HW232973   2.689   2.126  10.513 -2.5153  1.4614 -0.6731
 7113SOL     OW32974   3.100   1.828   4.143  0.1257  0.3850  0.1578
 7113SOL    HW132975   3.056   1.831   4.228 -1.8076 -3.7436 -0.7101
 7113SOL    HW232976   3.146   1.746   4.158  0.6544  0.5715 -0.4302
 7114SOL     OW32977   2.312   4.139   9.276  0.0307 -0.0586 -0.0540
 7114SOL    HW132978   2.295   4.146   9.182 -0.5132 -0.7757 -0.0077
 7114SOL    HW232979   2.343   4.229   9.286 -3.0892  0.7281  2.6375
 7115SOL     OW32980   1.562   4.460  17.673  0.2950  0.3786 -0.0854
 7115SOL    HW132981   1.474   4.495  17.656  0.2025 -0.4121 -1.2676
 7115SOL    HW232982   1.604   4.537  17.712 -0.2091  0.7683 -0.3020
 7116SOL     OW32983   0.530   3.572   5.482 -0.7820 -0.3272  0.1124
 7116SOL    HW132984   0.488   3.620   5.553  0.0922  0.1787  0.2916
 7116SOL    HW232985   0.552   3.641   5.420 -1.7580 -0.2868 -0.1975
 7117SOL     OW32986   4.218   4.494  15.830  0.0116  0.6673  0.2803
 7117SOL    HW132987   4.280   4.488  15.758 -1.0128 -1.0047 -0.4569
 7117SOL    HW232988   4.147   4.547  15.796  0.4182  0.9202 -0.1701
 7118SOL     OW32989   4.082   0.371   8.858  0.2053 -0.0035  0.1153
 7118SOL    HW132990   4.033   0.446   8.891  2.1266  1.5314 -0.5376
 7118SOL    HW232991   4.104   0.391   8.767  3.6165  1.5323  1.2860
 7119SOL     OW32992   1.654   0.154   2.346 -0.3160  0.5782 -0.6437
 7119SOL    HW132993   1.733   0.113   2.310  0.0711  1.0712 -0.3612
 7119SOL    HW232994   1.587   0.108   2.296 -0.1960 -0.1347 -0.1349
 7120SOL     OW32995   2.162   1.658   1.498  0.1003  0.0614  0.5174
 7120SOL    HW132996   2.080   1.704   1.479  1.3609  1.8803 -0.5756
 7120SOL    HW232997   2.137   1.625   1.584  0.5919 -1.3072  0.1407
 7121SOL     OW32998   2.665   3.752   1.859  0.1765  0.5696 -0.1593
 7121SOL    HW132999   2.629   3.812   1.793 -0.6682  1.2940  0.9510
 7121SOL    HW233000   2.677   3.679   1.798 -0.5223  1.3791 -1.2886
 7122SOL     OW33001   3.139   4.133   1.418 -0.2691 -0.3059  0.7436
 7122SOL    HW133002   3.197   4.157   1.490 -2.0749 -0.8984  2.4016
 7122SOL    HW233003   3.089   4.214   1.409 -0.0302 -0.4251 -1.4714
 7123SOL     OW33004   0.167   0.479   5.502  0.2815  0.0414 -0.0101
 7123SOL    HW133005   0.140   0.478   5.410 -1.8775 -2.3154  0.6588
 7123SOL    HW233006   0.116   0.407   5.538  0.9766 -1.2772 -1.6728
 7124SOL     OW33007   2.419   0.373   2.273 -0.3647  0.5318  0.5423
 7124SOL    HW133008   2.486   0.357   2.339  0.5133  2.2362  0.0706
 7124SOL    HW233009   2.344   0.331   2.314  0.2940  0.8683  2.0732
 7125SOL     OW33010   2.851   0.014   6.475  0.3717  0.4789 -0.2260
 7125SOL    HW133011   2.846   0.094   6.527  1.3329 -0.0707  0.6973
 7125SOL    HW233012   2.756   4.741   6.467  0.7229  0.1354 -3.7144
 7126SOL     OW33013   3.225   0.750   2.252 -0.1135  0.2545 -0.3065
 7126SOL    HW133014   3.253   0.763   2.343 -0.6045 -0.2515 -0.0807
 7126SOL    HW233015   3.172   0.829   2.240 -1.0268 -0.1823  0.7738
 7127SOL     OW33016   3.554   1.248   8.701  0.0480  0.5351 -0.2292
 7127SOL    HW133017   3.519   1.234   8.614  1.4617  0.3740 -0.7729
 7127SOL    HW233018   3.634   1.299   8.692 -0.6970  1.7020 -0.2206
 7128SOL     OW33019   1.615   2.886   6.663 -0.2387 -0.2967  0.0643
 7128SOL    HW133020   1.646   2.796   6.660 -0.2961 -0.2671 -1.4491
 7128SOL    HW233021   1.554   2.881   6.736 -0.3917 -2.5621 -0.2158
 7129SOL     OW33022   3.347   1.999  15.569 -0.0989 -0.1607  0.3862
 7129SOL    HW133023   3.332   1.924  15.511  0.3664 -0.7096  0.9752
 7129SOL    HW233024   3.376   1.953  15.648  1.1898 -0.6838 -0.3973
 7130SOL     OW33025   2.995   2.003  17.739 -0.5083  0.0852  0.1185
 7130SOL    HW133026   3.068   2.062  17.723 -1.0559  0.1500 -2.0449
 7130SOL    HW233027   3.003   1.940  17.668 -1.0967  0.0639  0.0688
 7131SOL     OW33028   2.973   0.660   4.398  0.2089 -0.4333  0.2150
 7131SOL    HW133029   2.895   0.605   4.392 -0.6217  0.6250  1.4123
 7131SOL    HW233030   2.956   0.694   4.486 -0.2515 -0.3208  0.0816
 7132SOL     OW33031   2.901   3.806   5.760 -0.0457  0.0985  0.4980
 7132SOL    HW133032   2.867   3.881   5.711 -2.4098 -0.6454  0.9646
 7132SOL    HW233033   2.831   3.806   5.825  1.3039  3.2922  1.9020
 7133SOL     OW33034   4.277   1.756   9.813  0.8130 -0.1490 -0.1325
 7133SOL    HW133035   4.272   1.767   9.908  3.5648  0.4122 -0.0485
 7133SOL    HW233036   4.361   1.801   9.804 -0.0424  1.0425 -2.1533
 7134SOL     OW33037   0.326   1.349   5.360  0.1823 -0.2067  0.3604
 7134SOL    HW133038   0.355   1.259   5.347  0.1655 -0.3825  1.5795
 7134SOL    HW233039   0.414   1.386   5.371  1.3048 -1.9055 -2.6225
 7135SOL     OW33040   0.133   3.611   5.073  0.2130  0.1525  0.0619
 7135SOL    HW133041   0.065   3.574   5.017 -0.9507  0.3290  1.3781
 7135SOL    HW233042   0.203   3.550   5.051 -0.4278  0.8260 -3.9725
 7136SOL     OW33043   1.460   2.924   9.180  0.3728 -0.1715  0.5794
 7136SOL    HW133044   1.511   2.852   9.216 -0.1594 -0.1187  1.4615
 7136SOL    HW233045   1.499   2.997   9.229  1.6018  0.0299 -0.7068
 7137SOL     OW33046   3.260   4.502   1.988 -0.4069  0.1215  0.1152
 7137SOL    HW133047   3.168   4.518   1.966 -0.4404 -0.2787 -0.0337
 7137SOL    HW233048   3.289   4.570   2.049  2.0873 -0.9837  0.1761
 7138SOL     OW33049   1.229   0.904   2.019 -0.0131 -0.0213  0.2629
 7138SOL    HW133050   1.163   0.956   1.974 -0.2350  1.4573  2.2926
 7138SOL    HW233051   1.255   0.968   2.085  1.9368  1.1663 -1.6583
 7139SOL     OW33052   3.389   3.565   9.137  0.4834 -0.4997  0.5332
 7139SOL    HW133053   3.365   3.565   9.044  2.1180 -0.0007  0.0981
 7139SOL    HW233054   3.304   3.542   9.174 -1.2191  3.1335 -1.1547
 7140SOL     OW33055   3.481   0.267   1.510 -0.3005 -0.3759  0.6233
 7140SOL    HW133056   3.393   0.248   1.478 -0.6033  2.5680 -0.2691
 7140SOL    HW233057   3.459   0.290   1.600 -0.4800  2.3141 -0.1093
 7141SOL     OW33058   2.329   3.179   2.233  0.0944  0.0765 -0.1875
 7141SOL    HW133059   2.362   3.244   2.296 -1.8197 -0.4424  1.3369
 7141SOL    HW233060   2.247   3.221   2.206 -0.1626  0.9471  1.9761
 7142SOL     OW33061   0.762   4.007   7.262  0.9370  0.0473 -0.1521
 7142SOL    HW133062   0.673   4.039   7.274  1.7916  1.5656  2.1096
 7142SOL    HW233063   0.789   3.987   7.351  0.5933 -0.1679 -0.0958
 7143SOL     OW33064   4.324   4.208   8.338  0.3252 -0.3875  0.5581
 7143SOL    HW133065   4.272   4.261   8.277 -2.3855 -1.4197  1.9906
 7143SOL    HW233066   4.367   4.148   8.277  1.2112 -0.3652  1.1651
 7144SOL     OW33067   0.202   1.108  15.528 -0.1649 -0.3475 -0.1368
 7144SOL    HW133068   0.163   1.173  15.585  0.2965  1.3600 -1.7778
 7144SOL    HW233069   0.295   1.125  15.542 -0.9356  3.3778  0.3446
 7145SOL     OW33070   3.218   0.874   6.139  0.1272  0.5651  0.2713
 7145SOL    HW133071   3.222   0.803   6.075 -0.0143 -0.1053  1.0139
 7145SOL    HW233072   3.308   0.897   6.158  1.1596 -0.4871 -3.1977
 7146SOL     OW33073   1.848   2.206   6.612  0.3485  0.3146 -0.0546
 7146SOL    HW133074   1.884   2.290   6.639  1.7713  0.1513 -1.4079
 7146SOL    HW233075   1.809   2.177   6.694  1.3139 -0.4325  0.1445
 7147SOL     OW33076   0.160   3.531  15.809  0.7173 -0.4640  0.0768
 7147SOL    HW133077   0.212   3.545  15.888  2.5115  1.0412 -1.3429
 7147SOL    HW233078   0.179   3.612  15.761  1.3735  0.4646  1.9015
 7148SOL     OW33079   2.495   0.363  14.100 -0.3366  0.3829 -0.3057
 7148SOL    HW133080   2.569   0.341  14.044 -1.5334 -1.5949 -1.0744
 7148SOL    HW233081   2.438   0.297  14.062  0.7275 -0.9963  0.5056
 7149SOL     OW33082   2.347   0.069   9.615 -0.1970  0.0106 -0.1286
 7149SOL    HW133083   2.345   0.070   9.711  1.8122 -0.7641 -0.0665
 7149SOL    HW233084   2.284   0.004   9.586 -0.7963  0.7911 -0.5609
 7150SOL     OW33085   1.099   3.388   4.995  0.6642  0.2052  0.4462
 7150SOL    HW133086   1.051   3.400   4.914 -0.3396  1.5617  1.2385
 7150SOL    HW233087   1.176   3.445   4.990  0.0682  0.7319 -2.1630
 7151SOL     OW33088   4.255   0.811  11.354 -0.2179 -0.0068  0.2986
 7151SOL    HW133089   4.178   0.783  11.402  0.2880  0.1259  1.1910
 7151SOL    HW233090   4.292   0.731  11.316 -3.5277 -1.2437 -0.3279
 7152SOL     OW33091   3.979   0.450  15.001 -0.1663 -0.1948 -0.2903
 7152SOL    HW133092   4.023   0.433  14.918 -0.4371 -1.1989 -0.2186
 7152SOL    HW233093   3.996   0.541  15.027  3.1764 -0.9122  0.0260
 7153SOL     OW33094   0.679   0.466   1.310 -0.1817  0.2255  0.1620
 7153SOL    HW133095   0.639   0.396   1.258 -1.1132  1.6997 -1.0788
 7153SOL    HW233096   0.765   0.436   1.340 -0.3281 -0.3170  0.0402
 7154SOL     OW33097   2.467   2.261   8.144 -0.1486 -0.3936  0.8912
 7154SOL    HW133098   2.501   2.173   8.127 -2.5121 -0.9182 -1.1009
 7154SOL    HW233099   2.399   2.275   8.078  0.0942  3.1205  1.4324
 7155SOL     OW33100   2.819   4.110   3.586  0.2941  0.2728 -0.1537
 7155SOL    HW133101   2.807   4.108   3.681 -2.2852  0.0817 -0.4880
 7155SOL    HW233102   2.768   4.036   3.552 -1.2327  1.4855 -0.4809
 7156SOL     OW33103   2.267   2.274  17.145 -0.1615 -0.1197  0.0961
 7156SOL    HW133104   2.289   2.274  17.052 -0.8412 -1.2717 -0.0637
 7156SOL    HW233105   2.174   2.295  17.138 -0.7517 -2.5262  0.7843
 7157SOL     OW33106   0.294   3.402   6.102  0.4974  0.8461 -0.0525
 7157SOL    HW133107   0.274   3.490   6.134 -0.5254  0.2426  0.9863
 7157SOL    HW233108   0.225   3.350   6.144 -1.3561  2.7651 -0.7496
 7158SOL     OW33109   2.134   1.509  16.571  0.3725 -0.4783 -0.3873
 7158SOL    HW133110   2.131   1.605  16.575  0.3917 -0.4064 -2.3078
 7158SOL    HW233111   2.220   1.496  16.533  0.9646  2.1554  0.0665
 7159SOL     OW33112   2.319   2.020   5.065  0.4980 -0.1034  0.6732
 7159SOL    HW133113   2.406   2.017   5.104  2.2286 -0.1549 -3.2253
 7159SOL    HW233114   2.342   1.945   5.010 -0.0576  1.1585 -1.2643
 7160SOL     OW33115   1.897   4.014  17.132 -0.1413 -0.4159  0.0298
 7160SOL    HW133116   1.865   4.101  17.154  2.3081  0.3568  0.5783
 7160SOL    HW233117   1.847   3.981  17.058 -1.0684 -0.3997  0.6574
 7161SOL     OW33118   4.023   1.453   5.159  0.3692  0.5297 -0.3448
 7161SOL    HW133119   4.107   1.440   5.114 -0.4367  0.6327 -1.8784
 7161SOL    HW233120   3.966   1.397   5.107  0.6356  0.5577 -0.6629
 7162SOL     OW33121   0.360   0.500   6.272  0.7594  0.4522 -0.2619
 7162SOL    HW133122   0.336   0.513   6.364 -2.8271  2.4953 -1.4567
 7162SOL    HW233123   0.297   0.550   6.219  1.6037  0.9083 -0.8340
 7163SOL     OW33124   2.223   3.869  13.814 -1.1880  0.7499 -0.1300
 7163SOL    HW133125   2.294   3.825  13.768 -0.5461  0.9768  0.6328
 7163SOL    HW233126   2.253   3.872  13.905  0.7874 -0.9496 -0.7314
 7164SOL     OW33127   0.047   4.106  10.531  0.1809  0.7357  0.0854
 7164SOL    HW133128   4.736   4.032  10.559  2.6818 -1.0392  0.1590
 7164SOL    HW233129   0.134   4.069  10.518  0.0901  0.5051  0.1432
 7165SOL     OW33130   0.775   0.085   8.012  0.0912  0.4602  0.1228
 7165SOL    HW133131   0.856   0.136   8.007  0.9712 -1.0271 -1.1023
 7165SOL    HW233132   0.795   0.019   8.079  0.6066 -2.6160 -3.0209
 7166SOL     OW33133   1.130   2.767   5.543 -0.2406 -0.0736  0.0222
 7166SOL    HW133134   1.068   2.787   5.473  1.8754 -1.7197 -2.3303
 7166SOL    HW233135   1.086   2.694   5.587  1.0730 -0.7199  0.2757
 7167SOL     OW33136   3.244   2.336   2.807 -0.3110 -0.2099 -0.3566
 7167SOL    HW133137   3.252   2.275   2.734  0.3906 -1.7931  1.0809
 7167SOL    HW233138   3.284   2.411   2.762  1.4372 -0.1078  1.3806
 7168SOL     OW33139   3.834   2.188   4.861 -0.2936  0.5023 -0.0544
 7168SOL    HW133140   3.756   2.243   4.859 -1.2158 -0.8348 -0.6462
 7168SOL    HW233141   3.808   2.123   4.927 -2.1365  0.0258 -1.2579
 7169SOL     OW33142   2.583   1.361   6.403 -0.2435 -0.2329 -0.1033
 7169SOL    HW133143   2.488   1.359   6.393 -0.4061 -0.7504  1.5411
 7169SOL    HW233144   2.610   1.291   6.344  0.9746 -1.3812  1.8173
 7170SOL     OW33145   1.305   4.693   6.510 -0.0917  0.3739 -0.1727
 7170SOL    HW133146   1.267   0.024   6.558  1.4233  0.7820  0.3762
 7170SOL    HW233147   1.226   4.647   6.482 -0.7802  0.2601  1.9953
 7171SOL     OW33148   1.712   0.253   2.600 -0.1158  0.7282  0.4868
 7171SOL    HW133149   1.796   0.208   2.604  1.3777  3.4472 -0.0321
 7171SOL    HW233150   1.667   0.219   2.523  0.6223 -1.7130  1.1427
 7172SOL     OW33151   0.979   4.732  11.338  0.0166 -1.2463 -0.0166
 7172SOL    HW133152   0.950   4.695  11.421 -1.5608  1.9902  0.8483
 7172SOL    HW233153   1.062   4.686  11.319 -0.6008 -1.4937 -2.2054
 7173SOL     OW33154   0.106   3.829   4.521 -0.1722 -0.1211  0.1396
 7173SOL    HW133155   0.096   3.889   4.448 -2.0266  1.1571  1.4274
 7173SOL    HW233156   0.183   3.865   4.565 -1.1344  0.4318  1.4104
 7174SOL     OW33157   0.916   0.858   8.502 -0.3463  0.2537 -0.2055
 7174SOL    HW133158   1.002   0.897   8.483 -1.6345  2.7209 -0.9124
 7174SOL    HW233159   0.933   0.776   8.549  2.6909  0.0254 -1.6750
 7175SOL     OW33160   0.790   1.989   3.381  1.0726 -0.6034  0.1851
 7175SOL    HW133161   0.879   1.979   3.414  1.4304 -0.0912 -0.6182
 7175SOL    HW233162   0.795   2.080   3.350 -0.0340 -0.3762  0.6924
 7176SOL     OW33163   4.379   2.363   3.599  0.7554  0.1867 -0.7085
 7176SOL    HW133164   4.388   2.279   3.554  0.1336 -0.2267 -0.0641
 7176SOL    HW233165   4.401   2.425   3.529  2.9645 -0.6195 -0.7258
 7177SOL     OW33166   0.931   0.507  12.800  0.3164  0.5185  0.1409
 7177SOL    HW133167   0.943   0.434  12.740  1.5605  1.0828 -0.2985
 7177SOL    HW233168   1.011   0.556  12.783  0.1523  0.1065 -1.9160
 7178SOL     OW33169   1.467   0.253   1.035  0.0104  0.0851  0.4598
 7178SOL    HW133170   1.447   0.202   0.956 -1.0320  0.8088  0.2606
 7178SOL    HW233171   1.545   0.212   1.073  0.7776  1.0334 -0.1257
 7179SOL     OW33172   0.678   1.748  17.113  0.5601  0.3747  0.2607
 7179SOL    HW133173   0.743   1.803  17.157  1.4596  1.7848 -2.8348
 7179SOL    HW233174   0.739   1.679  17.088  0.7858  0.9440 -0.7580
 7180SOL     OW33175   3.771   0.234  13.372  0.0434  0.4159 -0.2287
 7180SOL    HW133176   3.754   0.176  13.446 -2.5437  1.0151 -0.3201
 7180SOL    HW233177   3.705   0.301  13.393  0.4224  0.2382  1.5629
 7181SOL     OW33178   3.244   3.856   6.601 -0.1948  0.1448  0.2651
 7181SOL    HW133179   3.320   3.877   6.547  1.0294 -2.7341  0.8332
 7181SOL    HW233180   3.200   3.941   6.599  2.9720  1.8378  1.5180
 7182SOL     OW33181   3.603   0.101   8.355 -0.6989  0.1820 -0.1524
 7182SOL    HW133182   3.541   0.145   8.414  0.2939 -0.3873  1.3272
 7182SOL    HW233183   3.677   0.160   8.347 -1.1277  0.6786 -0.4382
 7183SOL     OW33184   1.524   1.966   8.418  0.1611 -0.2244  0.0448
 7183SOL    HW133185   1.544   2.058   8.400 -0.7476 -0.2767 -1.3040
 7183SOL    HW233186   1.558   1.932   8.335  1.3623 -1.0613  0.8800
 7184SOL     OW33187   1.594   0.321  12.748 -0.4814 -0.0451 -0.2919
 7184SOL    HW133188   1.611   0.410  12.777 -0.4531 -0.3473  0.6295
 7184SOL    HW233189   1.506   0.323  12.711 -1.6879 -1.7000  2.4545
 7185SOL     OW33190   2.799   4.330  15.473 -0.2069  0.3142 -1.0907
 7185SOL    HW133191   2.872   4.269  15.475 -0.6884 -0.2372  0.0226
 7185SOL    HW233192   2.732   4.263  15.455  0.2185 -0.1852 -0.8329
 7186SOL     OW33193   4.340   4.078  14.244 -0.3178  0.1689  0.5458
 7186SOL    HW133194   4.394   4.085  14.165 -1.0572 -1.8912 -0.1353
 7186SOL    HW233195   4.285   4.154  14.224 -1.1207 -0.6134 -0.1980
 7187SOL     OW33196   3.890   3.545   9.193 -0.4905 -0.3458  0.0568
 7187SOL    HW133197   3.875   3.618   9.253  2.5050 -0.3898  0.8505
 7187SOL    HW233198   3.821   3.484   9.220 -0.1814 -0.8379 -0.2727
 7188SOL     OW33199   3.384   2.087   5.890 -0.2473  0.0710 -0.1405
 7188SOL    HW133200   3.434   2.013   5.854  2.8172  2.6654 -1.2110
 7188SOL    HW233201   3.453   2.146   5.921 -0.6412  1.3311 -1.6776
 7189SOL     OW33202   1.304   3.082   8.971 -0.0993 -0.0565  0.4039
 7189SOL    HW133203   1.333   3.034   9.048  1.0745  1.0586  0.6603
 7189SOL    HW233204   1.256   3.157   9.007  2.0507  1.8891 -0.7816
 7190SOL     OW33205   1.885   0.887   4.323 -0.2982  0.1572  0.4728
 7190SOL    HW133206   1.973   0.918   4.301  0.2766 -0.5640  1.7355
 7190SOL    HW233207   1.848   0.848   4.244  1.9658 -0.2340 -0.4034
 7191SOL     OW33208   2.736   2.804   6.589 -0.3971 -0.6306  0.5384
 7191SOL    HW133209   2.713   2.897   6.579 -1.1933 -1.1938 -2.7964
 7191SOL    HW233210   2.809   2.791   6.528  0.2530  1.1506  0.9371
 7192SOL     OW33211   2.891   1.688   7.035  0.0020 -0.2176  0.1835
 7192SOL    HW133212   2.844   1.638   7.102  1.9930 -1.0971  0.9119
 7192SOL    HW233213   2.939   1.749   7.091  0.9552  0.3457 -1.2478
 7193SOL     OW33214   2.646   3.116   1.905  0.1013 -0.3240  0.4073
 7193SOL    HW133215   2.730   3.088   1.941  0.5746  0.0496 -0.4125
 7193SOL    HW233216   2.618   3.187   1.963 -0.0342 -0.2840  0.2940
 7194SOL     OW33217   1.106   1.075  16.015 -0.1505 -0.5542 -0.1997
 7194SOL    HW133218   1.017   1.109  16.023 -0.9034 -2.8779  1.3085
 7194SOL    HW233219   1.086   0.993  16.061 -0.6596 -0.2576  0.1015
 7195SOL     OW33220   1.616   1.282  16.402  0.3187  0.0360  0.0658
 7195SOL    HW133221   1.670   1.241  16.335 -3.7463 -1.0173 -2.5804
 7195SOL    HW233222   1.692   1.320  16.446  0.3909  1.8325 -1.6286
 7196SOL     OW33223   4.288   2.010   7.895  0.0532  0.4413 -0.5692
 7196SOL    HW133224   4.310   2.017   7.987 -1.5483 -0.9969 -0.0833
 7196SOL    HW233225   4.195   1.986   7.902  0.1013  0.3070 -0.4111
 7197SOL     OW33226   2.737   0.557   0.106 -0.2117 -0.4298 -0.6697
 7197SOL    HW133227   2.688   0.638   0.093 -0.4968 -0.9679 -3.0753
 7197SOL    HW233228   2.796   0.574   0.179  1.8646 -1.0496 -2.1895
 7198SOL     OW33229   0.100   1.389   6.948 -0.5661  0.6300  0.0633
 7198SOL    HW133230   0.166   1.426   6.889 -0.3778  0.2086  0.0134
 7198SOL    HW233231   0.154   1.320   6.986  4.0088  2.4821 -3.1293
 7199SOL     OW33232   2.055   1.290   8.103  0.0140  0.4394 -0.0463
 7199SOL    HW133233   1.970   1.259   8.071  1.0741 -0.3008 -2.1685
 7199SOL    HW233234   2.083   1.345   8.030  1.9345 -0.3041  0.1342
 7200SOL     OW33235   2.759   1.983  13.016  0.0738 -0.2590  0.2842
 7200SOL    HW133236   2.833   2.019  12.968  1.1400 -0.4372  1.7850
 7200SOL    HW233237   2.694   2.034  12.968  0.9661 -0.4045 -1.0767
 7201SOL     OW33238   3.916   3.499  14.190  0.8550  0.1531 -0.0961
 7201SOL    HW133239   3.867   3.565  14.239 -2.3480 -0.0549 -3.0194
 7201SOL    HW233240   3.933   3.430  14.254  1.7011 -0.1155 -0.6079
 7202SOL     OW33241   1.942   4.708   8.067  0.1197 -0.3759 -0.1627
 7202SOL    HW133242   1.913   4.650   8.138 -0.5901  0.4401  0.2131
 7202SOL    HW233243   2.021   4.664   8.036  1.0553  0.6354  0.7812
 7203SOL     OW33244   2.873   1.982   4.531 -0.2959 -0.7593  0.3207
 7203SOL    HW133245   2.786   1.996   4.567  0.6924  1.5373  1.8349
 7203SOL    HW233246   2.861   2.020   4.444 -0.7654 -1.8542 -0.0818
 7204SOL     OW33247   4.546   3.147  17.133  0.0236 -0.6625  0.0725
 7204SOL    HW133248   4.572   3.137  17.041 -0.8073 -0.2756 -0.2007
 7204SOL    HW233249   4.598   3.215  17.176 -1.4801  1.4079 -1.4176
 7205SOL     OW33250   4.249   3.352   8.035 -0.1810  0.0786  0.2684
 7205SOL    HW133251   4.257   3.349   7.940 -0.5018  2.6935  0.1672
 7205SOL    HW233252   4.248   3.261   8.066 -0.5513 -1.0576 -3.0719
 7206SOL     OW33253   3.405   0.208   4.862 -0.0129 -0.3973  0.1199
 7206SOL    HW133254   3.410   0.238   4.952 -0.3906  1.3318 -0.4505
 7206SOL    HW233255   3.313   0.216   4.838  0.0699 -1.5268 -0.6016
 7207SOL     OW33256   0.552   3.320   7.988 -0.3463 -0.2758  0.3166
 7207SOL    HW133257   0.638   3.319   7.945  1.0541  0.0039  3.0662
 7207SOL    HW233258   0.571   3.315   8.082 -5.4548  0.6939  1.4013
 7208SOL     OW33259   2.599   3.025   3.831  0.3305  0.2502  0.4926
 7208SOL    HW133260   2.599   2.940   3.874  0.8635 -0.4192 -0.8201
 7208SOL    HW233261   2.592   2.989   3.742  2.6819 -2.1844  1.2948
 7209SOL     OW33262   0.011   3.180   2.778 -0.3493  0.1605  0.0984
 7209SOL    HW133263   4.727   3.228   2.700  2.8383  2.5968  0.4877
 7209SOL    HW233264   0.090   3.222   2.813 -2.2398  2.9610  0.9526
 7210SOL     OW33265   0.621   2.670   7.551  0.5250 -0.2033 -0.1673
 7210SOL    HW133266   0.623   2.692   7.645 -1.8955  1.2837 -0.4711
 7210SOL    HW233267   0.534   2.698   7.523  0.9772 -1.1247 -2.4278
 7211SOL     OW33268   3.880   2.868   8.120 -0.4725  1.0340 -0.0538
 7211SOL    HW133269   3.915   2.841   8.035 -0.9684 -1.8913  0.7021
 7211SOL    HW233270   3.791   2.833   8.118  0.0694 -0.2454 -1.7490
 7212SOL     OW33271   0.140   2.254   0.209 -0.1121 -0.3258 -0.0359
 7212SOL    HW133272   0.174   2.270   0.121 -0.3708 -0.4450 -0.1596
 7212SOL    HW233273   0.153   2.161   0.223  1.2297 -0.5532 -2.6517
 7213SOL     OW33274   0.095   1.037   5.623 -0.0513  0.6715 -0.4995
 7213SOL    HW133275   0.113   1.084   5.704  1.0376 -0.6824  0.0456
 7213SOL    HW233276   0.034   0.973   5.659  0.2490  1.7723  1.9520
 7214SOL     OW33277   1.855   2.870   9.656 -0.5267  0.3368  0.1361
 7214SOL    HW133278   1.927   2.933   9.652  0.4770 -0.9305 -1.4840
 7214SOL    HW233279   1.797   2.927   9.707 -2.1010 -1.0643 -0.0913
 7215SOL     OW33280   4.515   2.482   8.966 -0.4315 -0.0045  1.0825
 7215SOL    HW133281   4.466   2.561   8.942 -1.7525 -1.4868 -1.0750
 7215SOL    HW233282   4.595   2.516   9.005 -1.2535  1.0294  1.8598
 7216SOL     OW33283   2.158   4.300   8.208 -0.0729 -0.0509  0.1202
 7216SOL    HW133284   2.239   4.256   8.181 -0.0695 -0.0825  0.1836
 7216SOL    HW233285   2.136   4.349   8.128  2.3174 -0.8725 -1.0549
 7217SOL     OW33286   1.827   2.698   7.560 -0.2971 -0.6499  0.3469
 7217SOL    HW133287   1.739   2.719   7.529 -0.0413  0.3157  0.2607
 7217SOL    HW233288   1.862   2.665   7.478 -0.0991 -1.7098  0.8499
 7218SOL     OW33289   3.486   3.839  12.189 -0.1081 -0.1649  0.0187
 7218SOL    HW133290   3.536   3.918  12.169 -0.1270  0.6884  3.3997
 7218SOL    HW233291   3.458   3.864  12.277  2.6853 -0.3335  0.9387
 7219SOL     OW33292   2.121   4.305   8.745  0.2542 -0.2185  0.0804
 7219SOL    HW133293   2.132   4.254   8.666 -2.3852 -1.5734  0.5818
 7219SOL    HW233294   2.100   4.394   8.716  1.0219 -0.6884 -1.8602
 7220SOL     OW33295   0.499   3.706   3.458  0.3671 -0.0720  0.1562
 7220SOL    HW133296   0.476   3.756   3.536  0.5070 -1.7799  1.2771
 7220SOL    HW233297   0.467   3.765   3.389  0.6666 -0.5129 -0.3515
 7221SOL     OW33298   0.544   4.248   8.071 -0.1577  0.0119 -0.7396
 7221SOL    HW133299   0.488   4.235   7.994 -0.2761 -3.9721  0.0218
 7221SOL    HW233300   0.484   4.207   8.134  1.6617 -0.7625  0.4909
 7222SOL     OW33301   1.610   0.533   7.982 -0.0619  0.4199 -0.4214
 7222SOL    HW133302   1.633   0.468   7.916 -0.3828  0.0508 -0.1717
 7222SOL    HW233303   1.671   0.605   7.968  0.8049  0.2830  2.7589
 7223SOL     OW33304   0.962   1.375  12.052  0.6270 -0.4985 -0.0700
 7223SOL    HW133305   1.021   1.320  12.102 -0.5315 -3.2905 -1.7754
 7223SOL    HW233306   0.931   1.316  11.983  2.5963 -1.5048 -0.0733
 7224SOL     OW33307   1.754   3.672   4.386 -0.1642  0.7161  0.0531
 7224SOL    HW133308   1.809   3.598   4.410 -1.2816  0.5964  2.1968
 7224SOL    HW233309   1.793   3.684   4.299  1.0559  0.7855  0.6130
 7225SOL     OW33310   2.696   1.520   1.580  0.9999 -0.2470  0.0927
 7225SOL    HW133311   2.772   1.515   1.522  1.5020 -0.8430  0.8047
 7225SOL    HW233312   2.634   1.578   1.535  3.1386  0.2881 -2.1882
 7226SOL     OW33313   0.316   1.595   8.179 -0.2549  0.1272 -0.7922
 7226SOL    HW133314   0.304   1.673   8.124 -0.3891 -0.2898 -1.3477
 7226SOL    HW233315   0.236   1.602   8.232 -0.8937  1.4564 -1.9315
 7227SOL     OW33316   0.102   2.280   4.282  0.4616  0.2441 -0.4361
 7227SOL    HW133317   0.137   2.191   4.276 -1.0310 -0.3009 -0.8221
 7227SOL    HW233318   0.010   2.256   4.279  0.1844  1.2248  0.3215
 7228SOL     OW33319   3.974   2.725   2.190  0.1422 -0.3130  0.1448
 7228SOL    HW133320   3.935   2.740   2.276  3.1424  0.5094  1.3721
 7228SOL    HW233321   4.068   2.729   2.207 -0.0143  1.6909  0.5483
 7229SOL     OW33322   1.585   0.589   6.689  0.2361 -0.2465  0.4781
 7229SOL    HW133323   1.649   0.534   6.643  1.0004 -1.4036  2.9501
 7229SOL    HW233324   1.519   0.594   6.619 -1.2538 -1.6289  1.7877
 7230SOL     OW33325   4.209   4.665   5.689  0.0487 -0.1984  0.1742
 7230SOL    HW133326   4.116   4.667   5.711 -0.1420  3.1163 -0.9743
 7230SOL    HW233327   4.250   4.726   5.749 -1.3481 -0.7287  1.6533
 7231SOL     OW33328   2.325   4.238   7.510 -0.4436  0.0137  0.5837
 7231SOL    HW133329   2.349   4.246   7.418  1.6359 -0.6615  1.0661
 7231SOL    HW233330   2.410   4.248   7.552 -0.0887  1.9728 -0.6147
 7232SOL     OW33331   2.182   1.288   4.587  0.2874  0.4305  0.1720
 7232SOL    HW133332   2.108   1.276   4.528  0.8543 -0.1832 -0.4162
 7232SOL    HW233333   2.226   1.367   4.553 -0.9533  0.6160 -1.0054
 7233SOL     OW33334   4.315   0.848  17.695 -0.1793  0.2992 -0.1043
 7233SOL    HW133335   4.307   0.856   0.022 -0.5486  1.4009 -0.2288
 7233SOL    HW233336   4.358   0.763  17.693  1.9469  1.2758  3.8047
 7234SOL     OW33337   0.495   3.063   8.309  0.2926 -0.1361 -0.1468
 7234SOL    HW133338   0.557   3.120   8.264 -1.0999  2.5786  1.4073
 7234SOL    HW233339   0.411   3.088   8.271 -0.1866 -1.7985 -0.1749
 7235SOL     OW33340   4.249   4.245  15.925  0.1023 -0.9513  0.7265
 7235SOL    HW133341   4.239   4.328  15.879 -0.4413 -0.3655  1.8951
 7235SOL    HW233342   4.160   4.215  15.944 -0.5199  0.4493  0.0362
 7236SOL     OW33343   1.549   3.220   2.992 -0.1571 -0.4853 -0.5535
 7236SOL    HW133344   1.520   3.156   3.057 -1.6649 -1.5820 -2.2959
 7236SOL    HW233345   1.592   3.169   2.923 -0.2901  0.5169 -1.3880
 7237SOL     OW33346   3.892   4.086   4.019 -0.2429 -0.0211 -0.0809
 7237SOL    HW133347   3.923   4.123   3.936  0.2523  0.0907  0.1556
 7237SOL    HW233348   3.973   4.078   4.069  0.1410 -0.3105 -0.7532
 7238SOL     OW33349   1.733   3.140   5.683  0.2684  0.2557 -0.2524
 7238SOL    HW133350   1.684   3.126   5.602  1.1839 -0.6472 -0.6519
 7238SOL    HW233351   1.714   3.231   5.707  1.2591  0.7177 -1.2314
 7239SOL     OW33352   0.069   4.020  16.657 -0.1599  0.0804 -1.1210
 7239SOL    HW133353   0.022   3.958  16.713  0.6724 -0.2944 -0.8390
 7239SOL    HW233354   0.019   3.997  16.579  0.1965 -0.6992 -1.1207
 7240SOL     OW33355   2.269   4.444   2.007 -0.6360  0.4343 -0.1672
 7240SOL    HW133356   2.202   4.395   2.056 -0.2520 -1.4120 -1.5359
 7240SOL    HW233357   2.323   4.380   1.962  0.5984  1.5615 -0.2839
 7241SOL     OW33358   3.091   4.130   0.020 -0.4537 -0.2821  0.4503
 7241SOL    HW133359   3.180   4.148   0.047  0.1571 -0.1441 -1.6456
 7241SOL    HW233360   3.072   4.050   0.070 -1.2017  0.0832  0.7551
 7242SOL     OW33361   0.955   2.064   8.010 -0.3267 -0.3268  0.0567
 7242SOL    HW133362   0.865   2.034   7.999 -1.8231  3.5362  1.6739
 7242SOL    HW233363   0.977   2.041   8.100 -3.4794  0.6586  1.0662
 7243SOL     OW33364   3.777   2.743   4.321 -0.3846 -0.3579  0.1487
 7243SOL    HW133365   3.697   2.794   4.326 -2.2079 -2.9205 -2.5552
 7243SOL    HW233366   3.825   2.793   4.255 -1.1782 -1.2384 -1.0930
 7244SOL     OW33367   0.954   2.585   8.483 -0.3356 -0.1667  0.0214
 7244SOL    HW133368   0.970   2.530   8.560 -1.7257 -2.7531 -1.5262
 7244SOL    HW233369   0.936   2.666   8.531 -0.4491  0.8015 -1.6696
 7245SOL     OW33370   1.284   0.824  16.910 -0.7105  0.1660 -0.3944
 7245SOL    HW133371   1.193   0.801  16.925 -0.7298 -0.1087 -0.9191
 7245SOL    HW233372   1.286   0.868  16.824 -0.5108 -0.3006 -0.6280
 7246SOL     OW33373   0.323   3.178   4.739 -0.1229 -0.3751 -0.1069
 7246SOL    HW133374   0.379   3.219   4.674 -1.2301  0.4442 -0.5437
 7246SOL    HW233375   0.249   3.238   4.750  1.5564  1.1458  2.9148
 7247SOL     OW33376   1.875   3.224   9.380  0.3614  0.3394 -0.3249
 7247SOL    HW133377   1.943   3.165   9.413 -3.6383 -2.9922  1.9753
 7247SOL    HW233378   1.848   3.263   9.463  0.7083  2.4735 -1.2186
 7248SOL     OW33379   2.592   1.974   5.085  0.1691 -0.0521  0.4166
 7248SOL    HW133380   2.620   1.918   5.013 -1.6059  2.2936 -2.0969
 7248SOL    HW233381   2.659   1.954   5.150  0.3479 -0.8202 -0.0136
 7249SOL     OW33382   2.868   0.277   0.498  0.0592 -0.3327 -0.0333
 7249SOL    HW133383   2.805   0.206   0.509 -1.7367  1.5815  1.9820
 7249SOL    HW233384   2.943   0.229   0.461 -0.5014 -0.8219 -0.5379
 7250SOL     OW33385   2.637   2.563   7.341 -0.3821 -0.1360 -0.0724
 7250SOL    HW133386   2.610   2.555   7.250  1.3023  0.5978 -0.6443
 7250SOL    HW233387   2.571   2.516   7.391 -0.6566 -0.3504 -0.6328
 7251SOL     OW33388   0.273   2.069   9.171  0.6520 -0.1127 -0.0421
 7251SOL    HW133389   0.296   2.116   9.091 -0.7308 -0.6005 -0.7226
 7251SOL    HW233390   0.241   2.148   9.214  0.8534  1.0829 -2.0461
 7252SOL     OW33391   4.341   3.996   1.246 -0.6391  0.1171 -0.0319
 7252SOL    HW133392   4.268   3.956   1.197  1.4439 -0.1818 -2.8441
 7252SOL    HW233393   4.315   4.088   1.249  1.5286  0.7310 -0.6808
 7253SOL     OW33394   0.809   0.837   7.173 -0.2054 -0.1966 -0.3684
 7253SOL    HW133395   0.891   0.883   7.155 -2.4253  3.0469 -2.3102
 7253SOL    HW233396   0.775   0.821   7.085 -0.6968  1.1284 -0.4133
 7254SOL     OW33397   1.904   1.863   5.029  0.0505  0.1456 -0.4250
 7254SOL    HW133398   1.925   1.941   4.978 -0.3110 -0.1546 -1.0327
 7254SOL    HW233399   1.849   1.898   5.099 -1.5027 -0.4586 -1.3449
 7255SOL     OW33400   0.378   2.510   1.998  0.0406  0.2019 -0.4058
 7255SOL    HW133401   0.379   2.536   1.906  1.2639  0.3736 -0.3388
 7255SOL    HW233402   0.299   2.456   1.996  1.2109 -1.4428 -1.8367
 7256SOL     OW33403   2.704   2.853  11.438 -0.1451 -0.4987  0.0823
 7256SOL    HW133404   2.685   2.773  11.389  2.6773 -0.8484 -0.4407
 7256SOL    HW233405   2.791   2.869  11.401  0.2238  0.0303  1.2062
 7257SOL     OW33406   0.247   3.799   2.403 -0.8257 -0.1970  0.4915
 7257SOL    HW133407   0.264   3.723   2.347  0.5974  0.0119  0.6291
 7257SOL    HW233408   0.331   3.843   2.391 -1.0721 -0.1138 -0.9725
 7258SOL     OW33409   0.349   2.979   8.533 -0.3399 -0.4071  0.1136
 7258SOL    HW133410   0.420   3.015   8.588  0.7807 -4.3425  1.2467
 7258SOL    HW233411   0.389   3.005   8.450  0.4677 -0.6624  0.4236
 7259SOL     OW33412   0.511   4.041  12.930 -0.3581 -0.7009 -0.1705
 7259SOL    HW133413   0.447   4.005  12.991 -0.8754 -1.6304 -1.2696
 7259SOL    HW233414   0.585   4.007  12.980 -1.4004 -1.7209  0.6707
 7260SOL     OW33415   1.397   4.142  16.513  0.0008 -0.3971 -0.0512
 7260SOL    HW133416   1.487   4.150  16.480  0.3732 -1.3363  0.7181
 7260SOL    HW233417   1.369   4.106  16.429 -0.4891  1.7077 -0.7863
 7261SOL     OW33418   4.354   3.735   2.195 -0.2206 -0.5597 -0.1965
 7261SOL    HW133419   4.386   3.740   2.105  0.5777 -2.8607 -0.0287
 7261SOL    HW233420   4.301   3.815   2.199  0.2058 -0.1952 -1.6683
 7262SOL     OW33421   0.995   3.432   6.371 -0.1223  0.2503 -0.1653
 7262SOL    HW133422   1.047   3.399   6.445  2.0270 -0.6624 -2.0856
 7262SOL    HW233423   1.006   3.352   6.320 -0.1213 -0.6219  1.1903
 7263SOL     OW33424   1.787   0.758  10.944 -0.0576 -0.2699  0.3391
 7263SOL    HW133425   1.802   0.796  10.857 -0.7692  1.1191  0.8358
 7263SOL    HW233426   1.799   0.664  10.929  1.3177 -0.1837  0.8639
 7264SOL     OW33427   1.803   3.954   4.119  0.3131  0.4562 -0.3940
 7264SOL    HW133428   1.794   3.991   4.207  0.5779  0.9324 -0.5726
 7264SOL    HW233429   1.712   3.968   4.094 -0.6462 -0.1900  2.7383
 7265SOL     OW33430   2.101   2.422   6.063 -0.6173 -0.5656  0.4405
 7265SOL    HW133431   2.116   2.422   5.969  1.9487  1.1091  0.8462
 7265SOL    HW233432   2.187   2.399   6.099  0.3067 -0.6630 -1.8318
 7266SOL     OW33433   0.611   3.176   0.028 -0.4525 -0.1494 -0.1137
 7266SOL    HW133434   0.618   3.247  17.732  0.2062  1.3143  1.5884
 7266SOL    HW233435   0.565   3.218   0.100 -2.4101  0.5606 -1.7704
 7267SOL     OW33436   0.923   0.883   6.222 -0.2333 -0.5429 -0.5998
 7267SOL    HW133437   1.006   0.868   6.177  0.0142 -4.2160  1.0524
 7267SOL    HW233438   0.879   0.808   6.184 -0.2501  0.6508 -2.9025
 7268SOL     OW33439   4.356   3.870  15.451  0.0154  0.0054  0.5217
 7268SOL    HW133440   4.319   3.786  15.424 -1.1065  1.3911 -2.2423
 7268SOL    HW233441   4.363   3.847  15.544 -0.9668 -1.6041  0.1949
 7269SOL     OW33442   2.439   1.773   2.966  0.1130  0.4141  0.0188
 7269SOL    HW133443   2.498   1.705   2.932  0.7829 -0.6940  3.3620
 7269SOL    HW233444   2.472   1.768   3.055  0.3492 -1.4545 -0.1541
 7270SOL     OW33445   0.573   1.975   9.761 -0.1932 -0.2705  0.0840
 7270SOL    HW133446   0.553   1.883   9.747 -1.7292  0.1598 -0.5064
 7270SOL    HW233447   0.661   1.969   9.797  0.5591 -1.0923 -1.9529
 7271SOL     OW33448   0.210   4.392   5.064  0.2291  0.2233  0.8180
 7271SOL    HW133449   0.241   4.328   5.128  0.6238 -0.5816 -0.1897
 7271SOL    HW233450   0.116   4.397   5.084  0.1355 -0.6131  0.5494
 7272SOL     OW33451   2.407   3.783   6.948  0.1889 -0.0351 -0.2960
 7272SOL    HW133452   2.318   3.773   6.983  0.1777 -2.0488 -0.9127
 7272SOL    HW233453   2.390   3.789   6.854 -0.7164 -0.9580 -0.1992
 7273SOL     OW33454   0.141   3.396  10.469  0.0656 -0.0397 -0.0569
 7273SOL    HW133455   0.119   3.303  10.470 -2.4924  0.5517 -2.1456
 7273SOL    HW233456   0.060   3.436  10.439  1.0488  3.3335  1.8284
 7274SOL     OW33457   2.156   2.702   5.833  0.1212 -0.0659 -0.4252
 7274SOL    HW133458   2.069   2.739   5.850 -1.5171 -2.6798 -3.1471
 7274SOL    HW233459   2.221   2.742   5.890  0.5031 -2.0051  0.4826
 7275SOL     OW33460   2.672   3.673   4.436  0.1637  0.1588 -0.0021
 7275SOL    HW133461   2.668   3.614   4.511  3.1088 -0.8726 -0.6518
 7275SOL    HW233462   2.697   3.752   4.484 -1.5074  0.8364 -0.2464
 7276SOL     OW33463   0.787   4.219   1.027 -0.2286 -0.1329 -0.0647
 7276SOL    HW133464   0.876   4.212   0.995  0.4092  0.8511  1.5036
 7276SOL    HW233465   0.795   4.166   1.106 -1.7948  0.6038  0.5816
 7277SOL     OW33466   3.570   4.064   6.206 -0.1294  0.0890 -0.0823
 7277SOL    HW133467   3.609   4.118   6.136  2.4269  0.2574  1.4670
 7277SOL    HW233468   3.517   4.005   6.154  2.5437 -2.8244  0.5118
 7278SOL     OW33469   1.765   4.724   5.521 -0.0694  0.9303 -0.4585
 7278SOL    HW133470   1.709   4.647   5.515 -0.9730  1.5066  0.5820
 7278SOL    HW233471   1.803   4.727   5.433 -3.6926 -1.9814 -2.0888
 7279SOL     OW33472   0.168   0.716   7.832  0.2195  0.9036  0.6567
 7279SOL    HW133473   0.119   0.674   7.762  0.4405  0.1694  0.9490
 7279SOL    HW233474   0.138   0.807   7.833 -0.7802  0.5878 -0.3047
 7280SOL     OW33475   0.941   1.824   1.051  0.0195 -0.1079 -0.5264
 7280SOL    HW133476   0.971   1.758   1.114 -0.1794  1.8596  1.6070
 7280SOL    HW233477   0.902   1.761   0.991 -0.8314  0.9339 -1.0618
 7281SOL     OW33478   0.524   2.492   1.155  0.0649  0.2851 -0.0380
 7281SOL    HW133479   0.511   2.583   1.128  1.2818  0.9440  1.6588
 7281SOL    HW233480   0.612   2.476   1.121  0.8471  0.4790  1.9135
 7282SOL     OW33481   4.441   1.735  12.494  0.1872 -0.4026  0.5076
 7282SOL    HW133482   4.407   1.727  12.405 -0.5908 -1.7127  0.9254
 7282SOL    HW233483   4.528   1.769  12.475  0.7303 -0.7175  2.5003
 7283SOL     OW33484   0.406   3.627  14.369 -0.6197 -0.6967 -0.1880
 7283SOL    HW133485   0.496   3.632  14.337 -1.0687  0.1181 -1.3621
 7283SOL    HW233486   0.362   3.660  14.290  0.6266 -1.1051 -1.0537
 7284SOL     OW33487   3.519   4.137   8.058  0.9355  0.0524 -0.1919
 7284SOL    HW133488   3.517   4.212   8.117  1.0782 -0.3364  0.3062
 7284SOL    HW233489   3.432   4.151   8.019 -0.1768 -2.9412  1.1558
 7285SOL     OW33490   3.887   1.171   1.927  0.1853 -0.2187  0.0899
 7285SOL    HW133491   3.914   1.238   1.990 -1.5221 -0.5567  1.1877
 7285SOL    HW233492   3.967   1.120   1.939 -0.3483 -1.3987 -1.2759
 7286SOL     OW33493   2.212   4.572   8.398  0.2452  0.0259  0.0526
 7286SOL    HW133494   2.254   4.548   8.316  2.7814 -1.5935  1.8165
 7286SOL    HW233495   2.286   4.604   8.450  0.3428 -0.2728  0.0986
 7287SOL     OW33496   0.897   4.371  17.685  0.0504 -0.2467 -0.4186
 7287SOL    HW133497   0.879   4.461  17.658 -0.6366  0.1062  1.1957
 7287SOL    HW233498   0.968   4.352  17.624 -0.4859  0.2992 -1.2125
 7288SOL     OW33499   1.016   2.273   7.549  0.9093 -0.0013  0.4648
 7288SOL    HW133500   0.951   2.259   7.480 -0.3283  0.3388  1.5587
 7288SOL    HW233501   0.964   2.321   7.613  0.2201 -1.9418  1.3723
 7289SOL     OW33502   2.767   3.670   3.378 -0.1797 -0.1037  0.2718
 7289SOL    HW133503   2.853   3.628   3.379 -0.1871 -0.1084  1.2789
 7289SOL    HW233504   2.709   3.597   3.354 -1.4892  1.4692 -1.3800
 7290SOL     OW33505   0.633   2.098   9.421  0.0736  0.2978 -0.9308
 7290SOL    HW133506   0.558   2.039   9.415  0.5901 -0.2859 -1.6683
 7290SOL    HW233507   0.691   2.057   9.356 -2.1217 -0.6214 -2.3035
 7291SOL     OW33508   1.647   2.407   2.004  0.1735  0.6704  0.5494
 7291SOL    HW133509   1.566   2.436   2.046 -0.5707 -0.7371  0.1068
 7291SOL    HW233510   1.705   2.472   2.043  2.4625 -0.4679 -0.9671
 7292SOL     OW33511   1.190   0.291   9.942  0.0665 -0.1884  0.1986
 7292SOL    HW133512   1.212   0.277  10.034 -0.6034  0.0826  0.4032
 7292SOL    HW233513   1.274   0.282   9.898  0.1529 -3.3383  0.9988
 7293SOL     OW33514   0.820   4.602   2.975  0.4764  0.3857 -0.2057
 7293SOL    HW133515   0.789   4.512   2.975  0.1071  0.5159  0.5380
 7293SOL    HW233516   0.820   4.616   3.069  0.3608 -0.4087 -0.0899
 7294SOL     OW33517   2.255   0.932   6.967 -0.2607 -0.1410  0.6053
 7294SOL    HW133518   2.274   1.017   6.927  0.1214 -0.1566  0.7469
 7294SOL    HW233519   2.164   0.921   6.943  0.1030 -0.3446 -0.6546
 7295SOL     OW33520   1.160   4.474  13.172 -0.4219 -0.2452  0.3165
 7295SOL    HW133521   1.238   4.518  13.206 -1.1585  0.7858  0.6407
 7295SOL    HW233522   1.187   4.466  13.080  1.4141  3.7384  0.5055
 7296SOL     OW33523   0.663   3.701  14.285 -0.6300 -0.0598 -0.1262
 7296SOL    HW133524   0.713   3.682  14.206  1.3664  2.9044  0.4099
 7296SOL    HW233525   0.686   3.631  14.345 -0.1730 -0.8540 -1.2265
 7297SOL     OW33526   3.046   2.848   5.316  0.1930  0.8018 -0.2290
 7297SOL    HW133527   3.016   2.932   5.281  1.1696  0.2572 -2.3992
 7297SOL    HW233528   3.114   2.822   5.254  2.1159  0.9953  1.8071
 7298SOL     OW33529   0.189   0.833  15.481  0.3898  0.4858  0.1037
 7298SOL    HW133530   0.099   0.803  15.470  0.0763  1.3314  0.3487
 7298SOL    HW233531   0.172   0.921  15.513  1.0730 -0.0558  1.9626
 7299SOL     OW33532   1.301   4.129   4.052  0.1190 -0.4976  0.1111
 7299SOL    HW133533   1.249   4.198   4.093  0.2270 -0.6535  0.5194
 7299SOL    HW233534   1.282   4.123   3.959  1.0275 -0.0745 -0.0987
 7300SOL     OW33535   0.161   4.200   0.087 -0.7732  0.5403 -0.0951
 7300SOL    HW133536   0.113   4.269   0.132 -1.2020 -1.3783  2.3479
 7300SOL    HW233537   0.095   4.154   0.035 -2.0926  0.2608  1.8601
 7301SOL     OW33538   2.218   2.023   8.883  0.3022  0.3522  0.2000
 7301SOL    HW133539   2.202   2.073   8.803 -2.9029  0.8520  1.1290
 7301SOL    HW233540   2.270   2.081   8.938  2.1214 -1.7483  0.6938
 7302SOL     OW33541   4.550   1.554  11.671 -0.0968  0.0045 -0.6846
 7302SOL    HW133542   4.579   1.507  11.593  0.2297 -1.9008  0.5759
 7302SOL    HW233543   4.480   1.501  11.710  2.6819 -2.2008  1.2978
 7303SOL     OW33544   4.242   0.780  11.841 -0.0340  0.1608  0.1247
 7303SOL    HW133545   4.293   0.707  11.876 -1.0344 -0.6929 -0.1847
 7303SOL    HW233546   4.295   0.859  11.848  0.7990 -0.2505 -1.5743
 7304SOL     OW33547   0.893   4.324   6.976 -0.4342 -0.9095  0.1490
 7304SOL    HW133548   0.889   4.418   6.960  0.0864 -0.7041  1.2350
 7304SOL    HW233549   0.918   4.295   6.888 -1.3949  2.0364 -1.0857
 7305SOL     OW33550   4.313   2.913   5.081 -0.1604 -0.0466  0.1104
 7305SOL    HW133551   4.370   2.882   5.011  0.5196  1.6786 -0.1040
 7305SOL    HW233552   4.293   2.832   5.126  0.0205  0.6976  1.5380
 7306SOL     OW33553   4.064   2.152   2.316 -0.4158 -0.0677  0.0571
 7306SOL    HW133554   4.013   2.086   2.363  0.4841  0.7606  2.2002
 7306SOL    HW233555   4.101   2.198   2.392  1.3674 -0.4234 -0.6035
 7307SOL     OW33556   3.553   3.359  14.278 -0.3505 -0.0466  0.0646
 7307SOL    HW133557   3.571   3.275  14.237  1.0498  0.4922 -0.4179
 7307SOL    HW233558   3.516   3.403  14.202  0.4951 -0.5742 -0.6529
 7308SOL     OW33559   3.323   0.553   7.730 -0.1243 -0.2886  0.2258
 7308SOL    HW133560   3.325   0.467   7.770 -0.5828 -0.4209 -0.0330
 7308SOL    HW233561   3.337   0.540   7.637  1.0551 -0.9833  0.5087
 7309SOL     OW33562   0.421   1.448   3.675 -0.3280 -0.1018 -0.5700
 7309SOL    HW133563   0.381   1.377   3.624 -0.8078  0.0501 -0.3974
 7309SOL    HW233564   0.363   1.523   3.671 -1.4161 -0.8741  0.9365
 7310SOL     OW33565   0.980   4.159   3.906  0.0898  0.2964  0.5105
 7310SOL    HW133566   0.919   4.104   3.954 -0.5112 -1.4107 -2.2066
 7310SOL    HW233567   0.974   4.242   3.954  1.8747  0.0846  1.1130
 7311SOL     OW33568   4.288   3.512  11.059  0.7265  0.2227 -0.0826
 7311SOL    HW133569   4.253   3.585  11.008  1.3437 -0.5959 -1.7165
 7311SOL    HW233570   4.349   3.478  10.993  0.6468  1.0727 -0.5935
 7312SOL     OW33571   2.173   0.127   7.184 -0.1987 -0.2960  0.2076
 7312SOL    HW133572   2.096   0.154   7.134 -0.5779  0.9739  1.4620
 7312SOL    HW233573   2.244   0.175   7.143  0.4241  0.0451  1.6753
 7313SOL     OW33574   2.119   3.730  10.931 -0.3778 -0.0343  0.1570
 7313SOL    HW133575   2.082   3.739  11.019 -0.0984  0.6663  0.2031
 7313SOL    HW233576   2.212   3.751  10.941  0.1570 -3.1866  1.8360
 7314SOL     OW33577   4.347   1.296  14.224 -0.7911 -0.1984 -0.1337
 7314SOL    HW133578   4.346   1.227  14.158 -0.0099 -1.5618  1.2823
 7314SOL    HW233579   4.318   1.242  14.298  0.8259 -0.0740  0.5977
 7315SOL     OW33580   0.200   2.517   4.472 -0.1176 -0.2214 -0.3937
 7315SOL    HW133581   0.181   2.503   4.565  0.5778  0.5743 -0.1257
 7315SOL    HW233582   0.158   2.441   4.433 -0.6126  0.0742 -0.4384
 7316SOL     OW33583   4.199   4.153  16.194  0.4281  0.1400 -0.8169
 7316SOL    HW133584   4.104   4.152  16.182  0.2989  1.3536  0.0634
 7316SOL    HW233585   4.219   4.173  16.102  0.0336 -0.8468 -1.1139
 7317SOL     OW33586   1.617   0.183   4.179 -0.1258  0.2774 -0.3412
 7317SOL    HW133587   1.653   0.101   4.145 -1.3731 -0.3380 -0.1593
 7317SOL    HW233588   1.645   0.233   4.102 -0.0476 -0.9253 -1.0934
 7318SOL     OW33589   4.070   0.834   3.510 -0.1692 -0.2148  0.0219
 7318SOL    HW133590   4.108   0.806   3.427 -1.1068 -1.2115 -0.0735
 7318SOL    HW233591   4.000   0.897   3.493  2.1871  1.8165 -2.0536
 7319SOL     OW33592   0.558   4.508  15.250 -0.1173  0.5129 -0.1372
 7319SOL    HW133593   0.468   4.493  15.277  1.1568 -2.4805  2.4381
 7319SOL    HW233594   0.574   4.591  15.295  0.6325  1.3797 -2.0026
 7320SOL     OW33595   0.009   0.759  12.486  0.2644  0.3043 -0.3093
 7320SOL    HW133596   0.062   0.687  12.454 -0.9088 -1.1017  0.9224
 7320SOL    HW233597   0.009   0.727  12.577 -4.4616 -1.2988 -0.8817
 7321SOL     OW33598   3.670   2.425   2.677  0.3484  0.0643 -0.1094
 7321SOL    HW133599   3.752   2.460   2.643 -0.0609  1.7016  0.5826
 7321SOL    HW233600   3.697   2.340   2.712 -1.9453  0.2900  2.2030
 7322SOL     OW33601   4.433   1.900   2.618 -0.2835 -0.0689 -0.3738
 7322SOL    HW133602   4.378   1.960   2.569 -0.0314  0.3354 -0.1589
 7322SOL    HW233603   4.525   1.926   2.609  0.2161 -2.0946 -1.1975
 7323SOL     OW33604   4.572   1.739   3.461 -0.3425  0.8582  0.0269
 7323SOL    HW133605   4.636   1.810   3.473  1.0323 -0.2657 -0.5420
 7323SOL    HW233606   4.587   1.695   3.544 -2.9963 -1.9853 -1.0062
 7324SOL     OW33607   1.650   3.391   4.544 -0.3310 -0.4058 -0.4501
 7324SOL    HW133608   1.599   3.368   4.466 -2.4490  0.0941  0.8099
 7324SOL    HW233609   1.651   3.305   4.587 -2.3511 -0.0256  0.3647
 7325SOL     OW33610   2.667   4.373   3.810 -0.3814 -0.2449 -0.4697
 7325SOL    HW133611   2.707   4.292   3.843 -3.1745 -1.5030 -0.2215
 7325SOL    HW233612   2.576   4.364   3.838  0.0759 -1.3919  0.6608
 7326SOL     OW33613   0.862   2.389   7.760 -0.1226  0.0617 -0.0069
 7326SOL    HW133614   0.917   2.371   7.837  0.4625  2.7914  0.2151
 7326SOL    HW233615   0.805   2.460   7.790  0.4244  0.3610  0.3316
 7327SOL     OW33616   1.512   3.695   0.492 -0.1570  0.0078  0.5548
 7327SOL    HW133617   1.445   3.642   0.449 -1.8237  1.3542  1.5162
 7327SOL    HW233618   1.489   3.781   0.457  2.5990  0.3403 -0.4368
 7328SOL     OW33619   1.471   3.720   7.962 -0.3315  0.1773 -0.9781
 7328SOL    HW133620   1.563   3.725   7.988 -0.3745 -0.9637 -0.5898
 7328SOL    HW233621   1.429   3.747   8.043  0.5286  0.4493 -0.6266
 7329SOL     OW33622   3.193   3.681   9.518 -0.1290  0.2486  0.9383
 7329SOL    HW133623   3.173   3.641   9.603  1.3930  1.4816  1.8674
 7329SOL    HW233624   3.154   3.768   9.523 -1.5307 -0.3214 -0.1836
 7330SOL     OW33625   2.799   0.023  17.475 -0.1766  0.0545  0.3347
 7330SOL    HW133626   2.741   4.693  17.451 -0.8648  0.7025  0.0296
 7330SOL    HW233627   2.771   0.034  17.566  0.2411  2.1346  0.2195
 7331SOL     OW33628   1.026   0.127  10.405 -0.7208 -0.0706  0.3659
 7331SOL    HW133629   0.965   0.088  10.468 -0.2913  0.0512  0.8634
 7331SOL    HW233630   1.032   0.217  10.438 -0.8486  0.2008 -0.3650
 7332SOL     OW33631   4.026   0.795   4.716 -0.2711  0.1055 -0.2224
 7332SOL    HW133632   4.097   0.858   4.731  2.1499 -2.1312 -2.3409
 7332SOL    HW233633   4.042   0.768   4.626 -0.2893 -0.3166 -0.1002
 7333SOL     OW33634   4.171   3.671   7.879 -0.0615 -0.3405 -0.4990
 7333SOL    HW133635   4.124   3.604   7.828  1.4113  0.0653 -2.3866
 7333SOL    HW233636   4.264   3.663   7.858  0.4147  3.2403  0.2569
 7334SOL     OW33637   4.565   0.702  11.564  0.4463  0.0801  0.0542
 7334SOL    HW133638   4.555   0.740  11.651  2.2473 -0.7016  0.6160
 7334SOL    HW233639   4.475   0.694  11.534  0.7264 -1.2466 -0.4557
 7335SOL     OW33640   1.559   3.669  15.320  0.4625  0.2178  0.3221
 7335SOL    HW133641   1.518   3.731  15.380  0.0600 -0.9799  1.2875
 7335SOL    HW233642   1.479   3.644  15.273  0.0666  0.9514  0.6091
 7336SOL     OW33643   2.876   0.111   9.384  0.0422  0.3585 -0.4836
 7336SOL    HW133644   2.846   0.197   9.412 -2.0516 -0.8778  1.0969
 7336SOL    HW233645   2.824   0.094   9.305 -1.7306 -1.5173  1.0709
 7337SOL     OW33646   1.051   4.371  12.388  0.3933 -0.6927  0.3364
 7337SOL    HW133647   1.004   4.289  12.403  0.7002 -1.0039 -0.4335
 7337SOL    HW233648   1.081   4.394  12.476 -0.1748 -1.1175  0.6433
 7338SOL     OW33649   2.920   2.310   9.295 -1.0844  0.3099 -0.2334
 7338SOL    HW133650   2.936   2.404   9.290  0.1212  0.0321 -1.3873
 7338SOL    HW233651   3.007   2.272   9.280 -2.0745 -0.7659 -3.2547
 7339SOL     OW33652   2.191   4.352   5.670 -0.1655  0.5149  0.0575
 7339SOL    HW133653   2.143   4.406   5.609 -0.5831 -0.4506 -0.4709
 7339SOL    HW233654   2.279   4.386   5.654  0.6741 -3.3035 -3.3701
 7340SOL     OW33655   3.045   1.327   5.236  0.2356  0.1402 -0.4237
 7340SOL    HW133656   3.031   1.382   5.313 -0.4367 -1.0967  0.3320
 7340SOL    HW233657   3.098   1.257   5.273 -0.4440 -1.3565 -2.2655
 7341SOL     OW33658   2.847   3.401   6.034 -0.2491 -0.4226 -0.0651
 7341SOL    HW133659   2.912   3.469   6.053 -0.0581 -0.6247  0.0116
 7341SOL    HW233660   2.767   3.451   6.053  0.0839  0.1311 -0.1108
 7342SOL     OW33661   3.162   3.395   9.669 -0.5514  0.1139 -0.2860
 7342SOL    HW133662   3.228   3.328   9.684 -1.0027 -0.4584 -0.8388
 7342SOL    HW233663   3.090   3.345   9.630 -0.8345  0.3595 -0.0811
 7343SOL     OW33664   4.343   4.331   5.972  0.4912 -0.6203 -0.4035
 7343SOL    HW133665   4.368   4.423   5.960  0.4964 -0.7936 -1.7340
 7343SOL    HW233666   4.399   4.305   6.044 -0.5454  0.9439  0.9572
 7344SOL     OW33667   2.449   2.266   5.280  0.2625  0.2200  0.0323
 7344SOL    HW133668   2.400   2.302   5.206  0.4480  1.5227  0.5388
 7344SOL    HW233669   2.421   2.311   5.360  0.8481 -0.6464  0.7224
 7345SOL     OW33670   4.202   1.057  15.412 -0.0178  0.2247 -0.3526
 7345SOL    HW133671   4.106   1.056  15.406  0.0852  0.9085 -2.2978
 7345SOL    HW233672   4.211   1.043  15.506  0.2297  0.9122 -0.2729
 7346SOL     OW33673   0.322   0.286   4.581  0.4015 -0.4446 -0.5861
 7346SOL    HW133674   0.237   0.268   4.540  0.0339 -2.2334  0.9747
 7346SOL    HW233675   0.321   0.381   4.592 -0.7781 -0.7619  2.0892
 7347SOL     OW33676   3.976   0.198   3.561 -0.0662  0.2742 -0.3291
 7347SOL    HW133677   3.929   0.125   3.601 -0.5663  0.6472 -0.2252
 7347SOL    HW233678   3.900   0.230   3.512 -0.9894  0.4470  1.2133
 7348SOL     OW33679   2.208   4.157   7.855 -0.3770  0.3287 -0.0976
 7348SOL    HW133680   2.290   4.119   7.887  0.7489  2.4510 -0.4850
 7348SOL    HW233681   2.153   4.079   7.851 -1.2978  0.8803  2.0454
 7349SOL     OW33682   4.182   0.468   7.278  0.2587  0.4200  0.3902
 7349SOL    HW133683   4.088   0.479   7.263  0.5429 -0.0252 -1.7008
 7349SOL    HW233684   4.182   0.396   7.340  0.4750  0.0068 -0.0928
 7350SOL     OW33685   2.432   2.187   7.364 -0.6057 -0.3615  0.8328
 7350SOL    HW133686   2.518   2.170   7.324 -1.9245  4.6277 -4.0657
 7350SOL    HW233687   2.390   2.102   7.349  1.4048 -1.1139 -0.5298
 7351SOL     OW33688   3.967   4.494   8.067  0.3524 -0.2344 -0.3814
 7351SOL    HW133689   3.913   4.425   8.027 -0.8178  0.2403  0.3928
 7351SOL    HW233690   3.908   4.569   8.058 -0.6544 -0.6043  3.0092
 7352SOL     OW33691   1.589   4.213   7.477  0.2255  0.2460  0.2142
 7352SOL    HW133692   1.603   4.291   7.424  1.7019 -0.4060 -0.3451
 7352SOL    HW233693   1.589   4.248   7.567 -0.9194  3.4965 -1.0326
 7353SOL     OW33694   0.979   0.514  15.033  0.5465 -0.4705 -0.1507
 7353SOL    HW133695   1.029   0.490  14.955  1.7131 -0.8408  0.7128
 7353SOL    HW233696   0.994   0.608  15.038 -0.1571 -0.4045  0.6569
 7354SOL     OW33697   2.676   2.120   7.237  0.1182  0.4029 -0.0754
 7354SOL    HW133698   2.727   2.102   7.316 -0.0787 -1.2669 -0.3252
 7354SOL    HW233699   2.726   2.092   7.160 -2.3095  0.8118 -1.8035
 7355SOL     OW33700   3.228   0.335   1.757 -0.2227 -0.4746 -0.8810
 7355SOL    HW133701   3.304   0.393   1.760 -2.7257  2.6459  1.3440
 7355SOL    HW233702   3.247   0.277   1.830 -2.5930 -0.6242 -0.3841
 7356SOL     OW33703   1.298   0.324   2.187  0.2924 -0.1611 -0.1657
 7356SOL    HW133704   1.238   0.357   2.120 -1.2438 -1.2767  0.6752
 7356SOL    HW233705   1.259   0.356   2.268  0.3837  0.9543 -0.5601
 7357SOL     OW33706   2.528   2.177  15.309 -0.1079  0.2109 -0.0526
 7357SOL    HW133707   2.443   2.205  15.341 -0.1449  0.9212 -0.7618
 7357SOL    HW233708   2.501   2.095  15.267 -3.3416  0.1116  2.2803
 7358SOL     OW33709   0.329   4.679   5.731  0.1689  0.4868  0.1536
 7358SOL    HW133710   0.385   4.626   5.788 -2.5331 -1.2381  1.2256
 7358SOL    HW233711   0.398   4.705   5.671 -1.7890 -0.8739 -2.6554
 7359SOL     OW33712   0.274   2.243   2.561  0.0903 -0.0825  0.4545
 7359SOL    HW133713   0.232   2.160   2.538  1.0868 -0.6489  0.6723
 7359SOL    HW233714   0.353   2.207   2.601  0.6583  0.3427 -0.2865
 7360SOL     OW33715   2.316   4.662   0.115 -0.3091 -0.1524  0.5851
 7360SOL    HW133716   2.229   4.681   0.081 -0.0090 -1.3293 -0.8088
 7360SOL    HW233717   2.351   0.009   0.113  0.2024 -0.3382  0.9151
 7361SOL     OW33718   3.198   0.376   3.362 -0.0624 -0.0524  0.2327
 7361SOL    HW133719   3.282   0.419   3.379 -0.4675 -0.2931  2.8345
 7361SOL    HW233720   3.155   0.365   3.447 -1.9235  2.4136 -0.4017
 7362SOL     OW33721   0.106   3.266   8.010  0.1654  0.0296 -0.4899
 7362SOL    HW133722   0.054   3.291   7.934 -0.8727  1.7965  0.8274
 7362SOL    HW233723   0.040   3.283   8.076 -0.6090  0.2099 -1.3127
 7363SOL     OW33724   2.010   1.255   6.138 -0.1995  0.2680 -0.3014
 7363SOL    HW133725   2.038   1.165   6.125  2.5725  0.8938  1.2219
 7363SOL    HW233726   1.919   1.254   6.108 -0.3428  0.4604  0.1193
 7364SOL     OW33727   1.227   4.463  13.527 -0.9118 -0.3196  0.7080
 7364SOL    HW133728   1.238   4.417  13.444 -1.8429 -1.9919  1.5073
 7364SOL    HW233729   1.157   4.415  13.572 -0.6618 -0.7880  0.5921
 7365SOL     OW33730   4.578   1.454   9.840 -0.3295 -0.0207  0.0133
 7365SOL    HW133731   4.598   1.382   9.901  0.0062 -0.2761 -0.4000
 7365SOL    HW233732   4.538   1.522   9.895 -0.2092  0.0735 -0.0142
 7366SOL     OW33733   4.443   4.245  16.276 -0.3183 -0.2140 -0.7831
 7366SOL    HW133734   4.421   4.335  16.300  0.0391 -0.2412 -0.3593
 7366SOL    HW233735   4.357   4.202  16.274 -0.3870 -0.1827  1.8707
 7367SOL     OW33736   2.496   0.975   3.682 -0.3955 -0.2913  0.0310
 7367SOL    HW133737   2.465   1.063   3.659 -0.1270  0.3917  2.2790
 7367SOL    HW233738   2.550   0.955   3.605  2.1371 -3.1639  2.5804
 7368SOL     OW33739   0.611   2.793   5.776  0.1270 -0.0578  0.3622
 7368SOL    HW133740   0.550   2.857   5.812  0.4492 -0.7817  2.1797
 7368SOL    HW233741   0.619   2.828   5.688  1.1269 -0.6220  0.2248
 7369SOL     OW33742   1.288   2.080   8.760 -0.0285  0.0889  0.0733
 7369SOL    HW133743   1.251   2.039   8.681 -0.3706  2.6423 -1.1003
 7369SOL    HW233744   1.367   2.026   8.770 -0.1565  0.7098  4.2576
 7370SOL     OW33745   3.902   3.478   3.576 -0.6104  0.3548 -0.2218
 7370SOL    HW133746   3.829   3.419   3.592 -1.3508  1.0605 -1.0191
 7370SOL    HW233747   3.964   3.406   3.568 -1.4264 -0.3452 -0.2383
 7371SOL     OW33748   4.106   2.673   3.855  0.5919  0.0496  0.2574
 7371SOL    HW133749   4.050   2.720   3.794 -0.1353 -0.9976  0.1166
 7371SOL    HW233750   4.195   2.677   3.820 -0.1173  1.6098 -1.3628
 7372SOL     OW33751   2.757   0.536   7.530  0.4555 -0.3927 -0.0436
 7372SOL    HW133752   2.737   0.602   7.465  0.3571 -0.7480 -0.3735
 7372SOL    HW233753   2.738   0.576   7.615  1.0886  1.9702 -1.0258
 7373SOL     OW33754   1.820   2.868   8.494  0.1821 -0.2083  0.0581
 7373SOL    HW133755   1.868   2.812   8.555  2.2906 -0.2484 -1.6177
 7373SOL    HW233756   1.887   2.936   8.492 -1.7708  1.6174 -2.4270
 7374SOL     OW33757   4.068   2.608  10.684 -0.4006 -0.3228 -0.3883
 7374SOL    HW133758   4.045   2.564  10.602 -0.1692 -1.1002 -0.0330
 7374SOL    HW233759   3.980   2.619  10.721 -1.0175  1.4112 -2.3948
 7375SOL     OW33760   3.549   3.888   8.651 -0.0453  0.4954 -0.0585
 7375SOL    HW133761   3.635   3.847   8.643 -1.0268 -1.6843  0.3110
 7375SOL    HW233762   3.571   3.976   8.680  2.4843  0.1070 -0.8652
 7376SOL     OW33763   2.048   2.861   2.027  0.0055 -0.0943 -0.4910
 7376SOL    HW133764   1.955   2.839   2.030  0.5275 -2.0362  1.5934
 7376SOL    HW233765   2.045   2.910   1.945 -1.2444  0.2218 -0.2472
 7377SOL     OW33766   1.268   4.072   5.751 -0.7856  0.3562  0.3760
 7377SOL    HW133767   1.325   4.135   5.708 -0.5309 -1.0384 -1.3173
 7377SOL    HW233768   1.250   4.006   5.684  3.0132 -1.6487  1.3139
 7378SOL     OW33769   1.995   3.772   4.899  0.7092 -0.1448 -0.7020
 7378SOL    HW133770   2.085   3.746   4.922  0.8566  2.0899  1.1976
 7378SOL    HW233771   2.013   3.817   4.816 -0.4256 -2.4002 -2.1608
 7379SOL     OW33772   1.348   1.926   7.658  0.4690  0.1753 -0.1450
 7379SOL    HW133773   1.326   1.873   7.581 -0.8495  0.1557  0.2330
 7379SOL    HW233774   1.261   1.955   7.687 -1.0661 -2.6183 -1.8653
 7380SOL     OW33775   0.712   0.008   2.784 -0.3794  0.1851 -0.4565
 7380SOL    HW133776   0.742   4.691   2.852 -0.8965 -1.3603 -1.5920
 7380SOL    HW233777   0.688   4.682   2.722 -0.7412 -0.4444  0.3976
 7381SOL     OW33778   3.275   1.925   7.435 -0.7984  0.3488 -1.5303
 7381SOL    HW133779   3.345   1.872   7.474  0.6029  1.6685 -2.2687
 7381SOL    HW233780   3.318   1.925   7.350  2.4086  0.7010  0.0610
 7382SOL     OW33781   1.128   1.899   9.244 -0.2191  0.0498 -0.3078
 7382SOL    HW133782   1.156   1.819   9.200  1.3308  1.0224 -1.0854
 7382SOL    HW233783   1.043   1.863   9.272  0.1370 -0.6640 -0.1397
 7383SOL     OW33784   1.366   3.491   6.294 -0.4450 -0.8519  0.6896
 7383SOL    HW133785   1.372   3.449   6.380  0.7622 -0.2879  0.8798
 7383SOL    HW233786   1.342   3.417   6.238 -1.0026  0.1100 -0.3333
 7384SOL     OW33787   4.330   2.865  12.276  0.7147 -0.6024 -0.0575
 7384SOL    HW133788   4.238   2.887  12.265  0.7341 -0.9711 -0.9563
 7384SOL    HW233789   4.351   2.832  12.188  3.2280  3.3166 -0.9444
 7385SOL     OW33790   0.358   2.711   7.521  0.5600  0.5759  0.3354
 7385SOL    HW133791   0.320   2.626   7.500  0.5023  0.4371  1.0055
 7385SOL    HW233792   0.302   2.738   7.594  3.1912  0.2914  2.4390
 7386SOL     OW33793   3.589   3.244   3.417  0.3587  0.5429  0.1248
 7386SOL    HW133794   3.528   3.180   3.380  1.4302 -1.3214  1.5720
 7386SOL    HW233795   3.671   3.208   3.385 -0.3708 -0.6443 -0.3935
 7387SOL     OW33796   4.408   3.267   1.863 -0.4126 -0.1221  0.7635
 7387SOL    HW133797   4.316   3.264   1.886 -0.0300 -1.2336  2.1641
 7387SOL    HW233798   4.398   3.274   1.768  1.0023  2.6843  0.8187
 7388SOL     OW33799   1.956   2.745  13.333 -0.8485 -0.3014  0.4167
 7388SOL    HW133800   2.018   2.729  13.262 -1.7911  0.5765 -0.6020
 7388SOL    HW233801   2.006   2.735  13.414  3.4246 -2.0742 -2.4101
 7389SOL     OW33802   3.800   1.321  12.178  0.2456  0.3850 -0.3647
 7389SOL    HW133803   3.882   1.272  12.176 -0.0385 -0.0246 -2.4074
 7389SOL    HW233804   3.831   1.410  12.196  1.7993 -0.2213 -0.0085
 7390SOL     OW33805   0.263   3.082   7.359 -0.8143  0.0299 -0.2199
 7390SOL    HW133806   0.312   3.029   7.423  0.6760  1.4289 -0.2009
 7390SOL    HW233807   0.221   3.010   7.312 -0.8766  0.5994 -1.0263
 7391SOL     OW33808   4.114   4.658  11.739  0.3117  0.0018 -0.4209
 7391SOL    HW133809   4.180   4.615  11.685  1.0311  2.1375 -1.2414
 7391SOL    HW233810   4.151   4.636  11.824  1.2953 -2.3443 -1.4515
 7392SOL     OW33811   1.749   0.513   1.865 -0.1663  0.0594 -0.4323
 7392SOL    HW133812   1.798   0.456   1.924  0.1169  2.7290  1.9305
 7392SOL    HW233813   1.717   0.453   1.798 -1.9483  0.8215 -0.2594
 7393SOL     OW33814   1.086   0.069   4.453 -0.0250 -0.4200  0.2260
 7393SOL    HW133815   1.011   0.022   4.490  0.3105 -1.7582 -0.7419
 7393SOL    HW233816   1.041   0.108   4.377 -0.7024 -1.4496  0.0891
 7394SOL     OW33817   2.530   2.102  12.573 -0.5534  0.0325 -0.4750
 7394SOL    HW133818   2.562   2.080  12.660  1.9794  2.0871 -0.8975
 7394SOL    HW233819   2.485   2.184  12.596  0.2291 -0.1525  1.6991
 7395SOL     OW33820   2.175   1.791   5.900 -0.5353  0.5029  0.3832
 7395SOL    HW133821   2.136   1.877   5.881  0.5512  1.3020  1.6895
 7395SOL    HW233822   2.104   1.731   5.925  0.1552 -1.3102 -2.1497
 7396SOL     OW33823   2.070   2.453  12.575  0.5354 -0.7305  0.4726
 7396SOL    HW133824   2.121   2.501  12.510 -0.1389  0.3352  0.7189
 7396SOL    HW233825   2.034   2.379  12.526 -0.1648  0.5996 -1.0613
 7397SOL     OW33826   3.693   3.147  14.196  0.4192  0.4121  0.1760
 7397SOL    HW133827   3.671   3.059  14.226  1.2885  0.2220  0.2409
 7397SOL    HW233828   3.743   3.125  14.118  0.2962 -2.3426  0.8936
 7398SOL     OW33829   2.850   3.712   2.097 -0.2043  0.0062  0.2646
 7398SOL    HW133830   2.826   3.775   2.030  0.1006  0.0065  0.1557
 7398SOL    HW233831   2.918   3.668   2.046  0.5445 -1.3914  2.4177
 7399SOL     OW33832   0.528   2.935   2.304 -0.2988 -0.0275 -0.0291
 7399SOL    HW133833   0.601   2.948   2.244 -1.0506 -2.2828 -1.4200
 7399SOL    HW233834   0.547   2.847   2.335  3.7831  1.0432  0.4867
 7400SOL     OW33835   3.280   1.290   8.826 -0.2899 -0.4456 -0.0039
 7400SOL    HW133836   3.315   1.250   8.746  0.4784 -2.2033  1.2132
 7400SOL    HW233837   3.257   1.209   8.871 -2.4339  0.2358  0.1347
 7401SOL     OW33838   1.877   2.281   8.881  0.2051  0.1120  0.1306
 7401SOL    HW133839   1.949   2.266   8.819 -1.6375 -1.2657 -1.6904
 7401SOL    HW233840   1.876   2.208   8.943  1.3866  0.3300  0.4105
 7402SOL     OW33841   4.548   1.137   1.551 -0.7356  0.4367 -0.0340
 7402SOL    HW133842   4.453   1.136   1.540 -0.9337  0.7179  1.7471
 7402SOL    HW233843   4.578   1.066   1.493 -0.7298 -0.2791  0.8429
 7403SOL     OW33844   1.615   0.164   6.897 -0.3681  0.8454 -0.0429
 7403SOL    HW133845   1.560   0.153   6.974 -0.8326  0.9377 -0.3597
 7403SOL    HW233846   1.585   0.089   6.845 -0.0937  0.8407 -0.1965
 7404SOL     OW33847   0.114   1.398   4.149  0.8344  0.0933 -0.2979
 7404SOL    HW133848   0.106   1.373   4.241  0.5110 -0.8453 -0.5776
 7404SOL    HW233849   0.021   1.411   4.129  0.9524 -0.9094 -1.4840
 7405SOL     OW33850   0.620   0.588   6.265  0.1456 -0.3056 -0.5264
 7405SOL    HW133851   0.641   0.551   6.350 -1.5984  0.4822  0.2303
 7405SOL    HW233852   0.527   0.568   6.258  0.5965 -2.5174  0.0505
 7406SOL     OW33853   2.153   3.205  11.199  0.3636  0.3622 -0.6097
 7406SOL    HW133854   2.178   3.171  11.285  0.2632  1.2217 -0.2389
 7406SOL    HW233855   2.214   3.279  11.194  1.8373 -0.5360  4.3196
 7407SOL     OW33856   0.026   0.622   0.944 -0.0273  0.0976 -0.4710
 7407SOL    HW133857   4.701   0.687   0.959 -1.2850 -1.5675  1.1893
 7407SOL    HW233858   0.102   0.674   0.972 -0.1380 -0.2620  0.5251
 7408SOL     OW33859   4.736   4.684  14.601  0.1389 -0.0050  0.0620
 7408SOL    HW133860   4.721   4.630  14.524 -0.8092 -1.5683  1.3588
 7408SOL    HW233861   0.029   0.020  14.559 -2.1250  1.2559  0.4754
 7409SOL     OW33862   2.504   4.037   6.550 -0.9897  0.0398 -0.0402
 7409SOL    HW133863   2.409   4.047   6.543 -1.0711  0.2243  1.3261
 7409SOL    HW233864   2.535   4.085   6.474  0.3888 -2.2598 -0.9068
 7410SOL     OW33865   1.706   3.115   9.712  0.3550  0.2150 -0.6700
 7410SOL    HW133866   1.742   3.088   9.796  0.1885 -1.1207 -1.0328
 7410SOL    HW233867   1.688   3.207   9.733 -0.5696  0.3238 -1.9080
 7411SOL     OW33868   2.570   3.941  16.561  0.0549  0.0311  0.2964
 7411SOL    HW133869   2.568   3.854  16.521  1.2200  0.5073 -0.8012
 7411SOL    HW233870   2.600   3.990  16.485  0.0183 -1.8791 -0.9548
 7412SOL     OW33871   2.440   4.175   1.397 -0.0765 -0.4569 -0.3186
 7412SOL    HW133872   2.434   4.171   1.492 -0.2566  0.4393 -0.2922
 7412SOL    HW233873   2.525   4.133   1.387  0.0725 -0.2960  0.2995
 7413SOL     OW33874   4.654   2.131   7.671  0.2800 -0.0440  0.6282
 7413SOL    HW133875   4.593   2.062   7.647  1.3091 -0.4754 -0.7301
 7413SOL    HW233876   4.643   2.132   7.766 -2.2894 -0.3390  0.3204
 7414SOL     OW33877   1.529   0.478  17.598 -0.1920 -0.5567 -0.0106
 7414SOL    HW133878   1.625   0.471  17.599 -0.1743 -0.2517  0.6950
 7414SOL    HW233879   1.516   0.546  17.532  1.4112 -0.6604 -0.4510
 7415SOL     OW33880   4.656   3.946   3.609  0.1138  0.3863  0.1993
 7415SOL    HW133881   4.724   3.971   3.547 -0.8302  0.3451 -0.8637
 7415SOL    HW233882   4.714   3.909   3.675 -0.0488 -1.4054 -0.6479
 7416SOL     OW33883   1.722   3.899  17.418 -0.4502 -0.3232  0.4050
 7416SOL    HW133884   1.710   3.819  17.368  0.0267  0.5446 -1.1030
 7416SOL    HW233885   1.670   3.959  17.364 -1.2077  0.5551  2.0771
 7417SOL     OW33886   3.520   0.516   8.495  0.2073 -0.2171  0.6384
 7417SOL    HW133887   3.578   0.507   8.570  1.1677 -0.4926 -0.1391
 7417SOL    HW233888   3.534   0.608   8.475  1.1240 -0.5952 -0.4130
 7418SOL     OW33889   0.034   1.810   5.027 -0.0220 -0.7838  0.2333
 7418SOL    HW133890   0.022   1.793   4.934  0.5994  1.8106 -0.3293
 7418SOL    HW233891   4.739   1.898   5.033  0.2870 -0.5103 -1.9377
 7419SOL     OW33892   0.617   4.301   2.502  0.2379 -0.0709 -0.2973
 7419SOL    HW133893   0.706   4.306   2.535  0.8095  0.0272 -1.8573
 7419SOL    HW233894   0.588   4.390   2.481 -1.7766 -0.3523  1.2389
 7420SOL     OW33895   3.721   3.606   5.665  0.2491 -0.0900 -0.3772
 7420SOL    HW133896   3.776   3.598   5.743 -1.2619  0.9239  0.7712
 7420SOL    HW233897   3.676   3.688   5.683  1.2099  0.3058  0.2426
 7421SOL     OW33898   1.131   1.029  12.376  0.2862 -0.1314 -0.1773
 7421SOL    HW133899   1.084   0.950  12.404 -2.3234  1.9583  1.3420
 7421SOL    HW233900   1.224   1.012  12.392  0.8339  0.8460 -2.2477
 7422SOL     OW33901   1.341   1.704   9.957 -0.1728  0.2344  0.4482
 7422SOL    HW133902   1.334   1.657   9.875 -1.1326 -0.4962  0.9483
 7422SOL    HW233903   1.268   1.674  10.011 -1.0609 -1.5449 -1.7730
 7423SOL     OW33904   1.907   2.996   3.715  0.1880 -0.5581  0.1042
 7423SOL    HW133905   1.832   3.025   3.663 -0.1480  0.3765  1.1292
 7423SOL    HW233906   1.873   2.914   3.752  0.1267  0.1411  1.5550
 7424SOL     OW33907   4.506   0.638   2.010 -0.4820  0.7698 -0.3173
 7424SOL    HW133908   4.581   0.589   1.976 -0.5224 -0.2442  1.0688
 7424SOL    HW233909   4.435   0.576   2.025 -1.9246  3.0469  2.3257
 7425SOL     OW33910   4.206   0.873  13.381 -0.2940  0.0781  0.1773
 7425SOL    HW133911   4.174   0.786  13.404  2.6485 -0.5054  2.1912
 7425SOL    HW233912   4.269   0.839  13.318  0.9924  1.0141  0.9390
 7426SOL     OW33913   0.227   3.408   5.391 -0.1934 -0.0996 -0.1574
 7426SOL    HW133914   0.245   3.331   5.444  0.8082  1.0749  1.2136
 7426SOL    HW233915   0.291   3.401   5.320  1.0262  2.1161  0.7094
 7427SOL     OW33916   2.261   0.082   3.585  0.1000 -0.7579 -0.5673
 7427SOL    HW133917   2.265   0.087   3.680  1.2377 -0.2813 -0.6347
 7427SOL    HW233918   2.176   0.041   3.575 -1.0665  1.6313 -0.4876
 7428SOL     OW33919   4.373   1.200   2.563 -0.0874  0.4335  0.4061
 7428SOL    HW133920   4.468   1.198   2.563 -0.1016 -0.0347  1.3825
 7428SOL    HW233921   4.365   1.282   2.612  0.2161  0.9466 -0.3898
 7429SOL     OW33922   0.117   1.169   4.909  0.0017 -0.1664  0.3614
 7429SOL    HW133923   0.067   1.153   4.830 -0.2359  0.3238  0.4174
 7429SOL    HW233924   0.198   1.125   4.883  0.2389  0.5982 -0.1760
 7430SOL     OW33925   4.486   1.555   1.750 -0.1786  0.5191 -0.2989
 7430SOL    HW133926   4.413   1.506   1.712  0.1263 -0.6682  0.6339
 7430SOL    HW233927   4.473   1.529   1.841  1.0691 -0.0534 -0.2916
 7431SOL     OW33928   1.855   0.180   6.742  0.2870 -0.7280 -0.1903
 7431SOL    HW133929   1.794   0.202   6.812 -0.3520 -0.8984 -0.6904
 7431SOL    HW233930   1.794   0.171   6.668 -0.0770 -0.0533  0.0293
 7432SOL     OW33931   2.587   2.735   5.370  0.0249  0.5603  0.2260
 7432SOL    HW133932   2.564   2.795   5.441  1.2220  0.4148  0.7410
 7432SOL    HW233933   2.662   2.689   5.407  1.1807  0.0668 -2.7382
 7433SOL     OW33934   2.010   1.650  11.886 -0.0074  0.3729  0.1860
 7433SOL    HW133935   1.996   1.571  11.938  0.1104 -0.2864 -0.7752
 7433SOL    HW233936   2.102   1.625  11.873  0.3028  1.2171  0.7792
 7434SOL     OW33937   3.151   0.247   4.804 -0.5692 -0.5282 -0.5774
 7434SOL    HW133938   3.059   0.245   4.831 -0.7433  0.3191 -1.1397
 7434SOL    HW233939   3.148   0.209   4.717 -1.3280 -2.0913  0.1155
 7435SOL     OW33940   2.621   0.168  13.877  0.4956 -0.4780  0.4788
 7435SOL    HW133941   2.623   0.132  13.789  0.1858 -3.3962  1.6675
 7435SOL    HW233942   2.688   0.236  13.872  1.3345 -1.4574 -1.4097
 7436SOL     OW33943   4.329   1.362   5.243  0.5296 -0.0621 -0.0484
 7436SOL    HW133944   4.414   1.402   5.225 -0.2276  1.6424  0.1733
 7436SOL    HW233945   4.282   1.426   5.295 -1.6958 -1.4932 -0.2895
 7437SOL     OW33946   3.407   4.215   8.713  0.2782  0.8903 -0.2964
 7437SOL    HW133947   3.492   4.171   8.722 -2.2382 -3.2868  2.7739
 7437SOL    HW233948   3.378   4.245   8.799  1.3388 -1.5172  0.9018
 7438SOL     OW33949   1.508   1.486   7.436  0.3658  0.5189  0.7713
 7438SOL    HW133950   1.564   1.519   7.367 -1.5357  2.2223  0.0295
 7438SOL    HW233951   1.549   1.403   7.459  0.1781 -0.1749 -1.4679
 7439SOL     OW33952   1.713   2.729  16.863  0.0372 -0.0770 -0.0063
 7439SOL    HW133953   1.723   2.754  16.772 -0.4905  1.7900  0.4506
 7439SOL    HW233954   1.756   2.644  16.853  0.5146  0.1429  0.1940
 7440SOL     OW33955   4.709   2.637   2.181 -0.3125  0.0187 -0.5767
 7440SOL    HW133956   4.627   2.591   2.160  1.6022 -3.5754 -0.1589
 7440SOL    HW233957   4.706   2.696   2.106  0.1555  0.7738  0.0021
 7441SOL     OW33958   1.828   1.946   3.040 -0.5038  0.5222  0.0458
 7441SOL    HW133959   1.782   1.864   3.025  0.5406 -0.1449  0.4808
 7441SOL    HW233960   1.908   1.921   3.086  0.3292 -0.8125 -2.1744
 7442SOL     OW33961   0.789   2.197   6.994 -0.3662 -0.2059 -0.2009
 7442SOL    HW133962   0.729   2.257   6.950  1.0470 -0.3174 -2.2768
 7442SOL    HW233963   0.804   2.238   7.079  0.8650 -1.2284  0.0926
 7443SOL     OW33964   0.200   0.852   9.008 -0.6859  0.2902  0.9637
 7443SOL    HW133965   0.247   0.875   8.928 -2.0345 -0.6558 -0.1215
 7443SOL    HW233966   0.276   0.855   9.065  1.7230 -2.0855 -2.0939
 7444SOL     OW33967   3.133   4.143  15.703 -0.4724 -0.5684 -0.1611
 7444SOL    HW133968   3.123   4.234  15.732 -2.5831 -0.7127 -0.4364
 7444SOL    HW233969   3.196   4.123  15.773  0.2295 -1.0455 -0.9363
 7445SOL     OW33970   0.699   1.703  15.670 -0.3832  0.7766  0.4903
 7445SOL    HW133971   0.635   1.753  15.720 -0.0213  0.5116  1.2199
 7445SOL    HW233972   0.767   1.768  15.687 -0.1580 -0.1442  3.1920
 7446SOL     OW33973   1.957   3.247  14.508 -0.1769  0.6645 -0.2540
 7446SOL    HW133974   1.897   3.264  14.436 -0.4078  0.1465 -0.1810
 7446SOL    HW233975   1.899   3.218  14.579  1.0904  0.8322  0.8511
 7447SOL     OW33976   0.841   3.814   9.576 -0.4615  0.2737 -0.0228
 7447SOL    HW133977   0.794   3.765   9.644  1.2280 -1.9030 -0.4598
 7447SOL    HW233978   0.763   3.867   9.555 -0.4067 -0.2603 -1.5487
 7448SOL     OW33979   1.145   3.385   8.281 -0.0895  0.2656  0.5780
 7448SOL    HW133980   1.097   3.323   8.227  4.3050 -0.8487 -2.0969
 7448SOL    HW233981   1.228   3.395   8.234  0.3754 -1.8810  0.9070
 7449SOL     OW33982   4.023   1.742   5.193 -0.0334  0.2945 -0.3986
 7449SOL    HW133983   4.112   1.758   5.224 -0.8483  1.4679  1.3438
 7449SOL    HW233984   4.021   1.646   5.194  2.3201  0.2496  1.4224
 7450SOL     OW33985   1.969   4.082  10.197 -0.2463 -0.0658 -0.5977
 7450SOL    HW133986   1.970   3.999  10.245 -1.2521  1.0428  1.3742
 7450SOL    HW233987   2.021   4.067  10.119 -3.3845 -1.0628 -2.4721
 7451SOL     OW33988   1.124   1.620   3.234 -0.5403 -0.4611 -0.1322
 7451SOL    HW133989   1.197   1.661   3.282 -0.9018 -1.3510  1.1917
 7451SOL    HW233990   1.080   1.689   3.184 -0.0887  0.2387  0.4234
 7452SOL     OW33991   4.544   2.213  15.391 -0.5640 -0.0401 -0.6328
 7452SOL    HW133992   4.451   2.235  15.378 -0.0723  2.0882 -0.5430
 7452SOL    HW233993   4.536   2.123  15.423  1.6324 -0.5480 -1.5960
 7453SOL     OW33994   2.803   1.038  10.020 -0.3345 -0.6892 -0.1577
 7453SOL    HW133995   2.856   0.962  10.044 -0.4144 -1.0683 -1.1649
 7453SOL    HW233996   2.721   0.994  10.002  0.2662 -0.8695 -2.4464
 7454SOL     OW33997   3.052   2.223   7.205 -0.1444 -0.5296 -0.0627
 7454SOL    HW133998   3.138   2.228   7.166 -0.1040 -0.4886  0.0303
 7454SOL    HW233999   3.013   2.296   7.158 -0.2501 -0.9267 -0.5855
 7455SOL     OW34000   1.692   3.062   8.201 -0.1966  0.8206  0.2453
 7455SOL    HW134001   1.709   3.154   8.182  1.0242 -0.0906 -3.1034
 7455SOL    HW234002   1.775   3.035   8.241  0.1345  0.3589 -0.7387
 7456SOL     OW34003   4.408   1.439   7.999  0.2271 -0.2405  0.1682
 7456SOL    HW134004   4.471   1.429   7.928 -1.6181 -0.8098 -1.3767
 7456SOL    HW234005   4.401   1.351   8.037  1.1805 -1.2308 -1.9375
 7457SOL     OW34006   1.237   1.831   6.978 -0.0326  0.0859 -0.4592
 7457SOL    HW134007   1.141   1.832   6.981 -0.0248  0.4195 -0.3081
 7457SOL    HW234008   1.269   1.919   6.958 -0.9681  0.2658 -1.2051
 7458SOL     OW34009   4.155   1.569  15.990  0.3627  0.4401 -0.0286
 7458SOL    HW134010   4.143   1.621  15.910  0.5796  1.0725  0.3542
 7458SOL    HW234011   4.121   1.630  16.056  0.5308 -0.2442  0.6922
 7459SOL     OW34012   4.092   1.963   8.639 -0.1349 -0.6569  0.1003
 7459SOL    HW134013   4.036   2.039   8.624  0.4706 -0.0681  0.7420
 7459SOL    HW234014   4.126   1.980   8.727 -0.2857  0.1835  0.0005
 7460SOL     OW34015   4.479   3.820   4.526 -0.0110  0.4271  0.0894
 7460SOL    HW134016   4.442   3.812   4.438 -1.4294 -2.3802  0.9161
 7460SOL    HW234017   4.404   3.863   4.565 -0.5498 -1.0789  0.7303
 7461SOL     OW34018   2.820   0.813   8.806 -0.0410 -0.0213 -0.4160
 7461SOL    HW134019   2.737   0.839   8.848 -0.0714 -0.3422 -0.2757
 7461SOL    HW234020   2.787   0.795   8.718  0.1312 -1.5446 -0.1699
 7462SOL     OW34021   0.851   0.122   4.257 -0.1633  0.2982  0.0622
 7462SOL    HW134022   0.768   0.168   4.246  0.0411  0.3634 -1.1707
 7462SOL    HW234023   0.911   0.175   4.204 -1.0644  2.5841  1.3576
 7463SOL     OW34024   3.728   3.104   7.990  0.1417  0.0588  0.2819
 7463SOL    HW134025   3.696   3.048   7.920  0.7278 -0.5814  0.5234
 7463SOL    HW234026   3.809   3.141   7.955 -0.6844 -0.6893 -2.4021
 7464SOL     OW34027   2.150   4.067   9.022 -0.0011 -0.5526  0.4918
 7464SOL    HW134028   2.087   3.996   9.014  0.1253 -0.6899  0.7336
 7464SOL    HW234029   2.087   4.139   9.023  3.2016  2.2501  0.9929
 7465SOL     OW34030   2.953   1.907   3.488  0.4811  0.5253 -0.5394
 7465SOL    HW134031   2.866   1.946   3.493 -0.1514 -0.9705  0.0705
 7465SOL    HW234032   2.945   1.837   3.553 -0.6692  0.2481 -0.9837
 7466SOL     OW34033   0.427   0.061   1.978 -0.2872 -0.1201 -0.4116
 7466SOL    HW134034   0.479   0.140   1.993 -0.3163 -0.0111 -0.9027
 7466SOL    HW234035   0.456   0.023   1.895 -2.9019 -3.2297  0.0803
 7467SOL     OW34036   0.211   2.753  10.920 -0.2054  0.2970 -0.4556
 7467SOL    HW134037   0.141   2.817  10.932 -2.8952 -2.2979 -2.0766
 7467SOL    HW234038   0.261   2.759  11.001  0.8920 -2.4181 -0.9278
 7468SOL     OW34039   0.895   2.633  14.835 -0.0818 -0.3765 -0.4771
 7468SOL    HW134040   0.876   2.726  14.836  0.6377 -0.2257 -0.4040
 7468SOL    HW234041   0.868   2.612  14.925  0.9445  0.7201  0.0866
 7469SOL     OW34042   2.869   2.055   1.661 -0.4211 -0.1215 -0.1799
 7469SOL    HW134043   2.816   1.991   1.612 -0.2627 -0.5576  0.2250
 7469SOL    HW234044   2.820   2.048   1.743 -1.9040 -1.5935 -1.1939
 7470SOL     OW34045   4.654   3.395  14.424 -0.7309  0.0052  0.5347
 7470SOL    HW134046   0.004   3.407  14.404 -1.2513 -0.3191 -2.0965
 7470SOL    HW234047   4.610   3.474  14.392  0.4536  0.4247 -0.0408
 7471SOL     OW34048   0.368   1.068  13.073  0.3905 -0.1844  0.1018
 7471SOL    HW134049   0.321   1.004  13.019 -0.7586  0.0676  0.7890
 7471SOL    HW234050   0.383   1.015  13.152  2.7348  1.3779  0.6961
 7472SOL     OW34051   1.217   3.906   5.232 -0.5093 -0.2887 -0.2143
 7472SOL    HW134052   1.263   3.979   5.190  0.7233 -0.8187  0.2053
 7472SOL    HW234053   1.284   3.842   5.257  1.1760  1.2750 -0.7106
 7473SOL     OW34054   1.985   1.305   3.463  0.1284 -0.3407  0.3697
 7473SOL    HW134055   1.895   1.307   3.431 -0.3093  0.2502  1.6198
 7473SOL    HW234056   1.995   1.210   3.473  0.3321 -0.3894 -0.2899
 7474SOL     OW34057   1.390   0.652   2.352  0.1169  1.1708  0.5265
 7474SOL    HW134058   1.436   0.569   2.358 -0.1732  1.0223  0.7005
 7474SOL    HW234059   1.368   0.654   2.259  1.0463  0.0477  0.2894
 7475SOL     OW34060   1.470   2.828   7.185 -0.5179  0.1218 -0.4545
 7475SOL    HW134061   1.561   2.813   7.161  0.1090  0.7827  1.5498
 7475SOL    HW234062   1.484   2.902   7.243  1.3899 -1.2157  0.7865
 7476SOL     OW34063   3.671   4.592  11.690  0.4769 -0.9291 -0.3438
 7476SOL    HW134064   3.601   4.612  11.751  2.6116 -0.2657  1.9092
 7476SOL    HW234065   3.739   4.650  11.725  0.2836 -2.2420  2.1627
 7477SOL     OW34066   1.358   0.721   0.937 -0.2997 -0.4622 -0.3610
 7477SOL    HW134067   1.392   0.642   0.979  0.7649 -0.5488 -1.3725
 7477SOL    HW234068   1.393   0.789   0.994 -0.5913  0.0545 -0.8030
 7478SOL     OW34069   0.223   1.175   8.995  0.0669 -0.4911  0.0086
 7478SOL    HW134070   0.266   1.224   9.066 -1.4012  0.2988  0.3590
 7478SOL    HW234071   0.285   1.106   8.972  0.5590 -0.2567  0.6404
 7479SOL     OW34072   4.717   2.512   9.176 -0.2486 -0.1973 -0.2070
 7479SOL    HW134073   4.702   2.582   9.239  0.6478  0.9189 -1.2448
 7479SOL    HW234074   0.030   2.557   9.113  0.6186  0.0950  0.7670
 7480SOL     OW34075   1.733   0.484   3.736 -0.0086 -0.7468 -0.3366
 7480SOL    HW134076   1.695   0.496   3.649  0.4405 -1.4552 -0.6271
 7480SOL    HW234077   1.793   0.559   3.730 -2.1558  1.0465  0.4465
 7481SOL     OW34078   1.371   1.972   6.474 -0.1619  0.2165 -0.2158
 7481SOL    HW134079   1.400   1.881   6.462  1.8988  0.7887  0.3853
 7481SOL    HW234080   1.314   1.968   6.551 -0.8515  1.3884 -0.6668
 7482SOL     OW34081   2.703   0.977   7.615 -0.8893  0.3342 -0.3186
 7482SOL    HW134082   2.654   1.053   7.644 -0.5683  0.5730 -0.3993
 7482SOL    HW234083   2.633   0.919   7.586 -0.1071 -1.9658  2.3995
 7483SOL     OW34084   0.817   4.224   7.662 -0.0756  0.2118 -0.1635
 7483SOL    HW134085   0.805   4.307   7.615 -2.1476  0.6084  1.0336
 7483SOL    HW234086   0.768   4.252   7.740  0.0275 -1.3533  0.4647
 7484SOL     OW34087   0.534   4.584   2.474  0.4214  0.0955 -0.1542
 7484SOL    HW134088   0.524   4.666   2.425  2.0864  0.5593  0.2814
 7484SOL    HW234089   0.622   4.601   2.509  0.9379  0.6204 -1.6830
 7485SOL     OW34090   0.181   1.002  11.977  0.0975  0.0505 -0.5829
 7485SOL    HW134091   0.251   0.941  11.998 -0.3303  0.2737  1.4890
 7485SOL    HW234092   0.185   0.990  11.882  3.5378  1.1944 -0.5698
 7486SOL     OW34093   4.311   0.230   7.834 -0.3591  0.1846 -0.5492
 7486SOL    HW134094   4.335   0.171   7.762 -0.5600  2.2132 -2.2635
 7486SOL    HW234095   4.394   0.276   7.844  0.3567 -0.8649 -1.6797
 7487SOL     OW34096   2.257   0.288   6.141  0.1064  0.2437  0.6982
 7487SOL    HW134097   2.319   0.285   6.213 -0.0424  0.6684  0.8422
 7487SOL    HW234098   2.245   0.380   6.117  2.1353 -0.1561 -1.9181
 7488SOL     OW34099   1.667   2.767   6.059  0.6854 -0.2186  0.7244
 7488SOL    HW134100   1.738   2.771   5.996 -0.2593  0.3486 -0.2877
 7488SOL    HW234101   1.602   2.827   6.024  0.1067 -2.5692 -2.2634
 7489SOL     OW34102   3.130   1.385   9.939 -0.3775 -0.1588  0.4084
 7489SOL    HW134103   3.121   1.303   9.892 -1.5315  1.0679 -1.4852
 7489SOL    HW234104   3.225   1.392   9.930 -0.7744  1.9648 -2.1327
 7490SOL     OW34105   3.924   0.983   9.459 -0.1735 -0.4309 -0.4696
 7490SOL    HW134106   3.951   0.942   9.540  0.4593  0.2594 -0.3328
 7490SOL    HW234107   3.994   0.952   9.402 -0.3054 -2.7701  0.6377
 7491SOL     OW34108   0.533   4.311   5.850  0.4886 -0.1399  0.7410
 7491SOL    HW134109   0.543   4.337   5.758 -0.4147  1.2996  1.0497
 7491SOL    HW234110   0.446   4.271   5.844  0.8235 -0.8461  0.5181
 7492SOL     OW34111   2.108   1.041   4.229 -0.2957 -0.7793  0.0009
 7492SOL    HW134112   2.178   1.018   4.291  0.9034 -2.1077 -1.8268
 7492SOL    HW234113   2.138   0.999   4.148 -1.2371 -0.3257 -0.5788
 7493SOL     OW34114   1.304   3.526  11.115  0.1860 -0.1524 -0.7313
 7493SOL    HW134115   1.249   3.560  11.044  0.5315 -2.3896 -2.0786
 7493SOL    HW234116   1.326   3.607  11.161  0.1031 -1.3600  1.4113
 7494SOL     OW34117   1.261   1.287   8.480  0.2876  0.4041 -0.0025
 7494SOL    HW134118   1.277   1.378   8.457 -1.1757  0.0120 -2.5514
 7494SOL    HW234119   1.169   1.289   8.504 -0.2845 -1.9543 -1.9952
 7495SOL     OW34120   3.925   4.378   5.497  0.3237  0.1939 -0.0401
 7495SOL    HW134121   3.936   4.473   5.507 -4.5070  0.6292  1.4788
 7495SOL    HW234122   4.017   4.357   5.486  0.1538  1.2270 -3.5447
 7496SOL     OW34123   2.891   3.688   3.757  0.5108  0.3654  0.5018
 7496SOL    HW134124   2.951   3.619   3.783  0.2363 -0.9970 -2.4737
 7496SOL    HW234125   2.824   3.641   3.708  1.8305 -0.6056 -0.3772
 7497SOL     OW34126   4.170   3.898  12.049 -0.2311 -0.3069 -0.1047
 7497SOL    HW134127   4.080   3.932  12.052 -0.0111  0.3664 -1.2809
 7497SOL    HW234128   4.144   3.806  12.061 -1.9712  0.6638  3.5036
 7498SOL     OW34129   1.271   1.314   7.737  0.4364 -0.1084  0.3005
 7498SOL    HW134130   1.248   1.266   7.816  1.7291 -1.4035 -0.1133
 7498SOL    HW234131   1.194   1.294   7.684  0.4435 -1.2876  0.7387
 7499SOL     OW34132   2.604   3.649   5.421  0.1653 -0.0232  0.1638
 7499SOL    HW134133   2.569   3.627   5.507 -0.7761 -0.6119 -0.3620
 7499SOL    HW234134   2.606   3.561   5.382  0.2983 -0.0264  0.1778
 7500SOL     OW34135   1.415   0.955   6.704 -0.1005  0.0343  0.1238
 7500SOL    HW134136   1.324   0.926   6.693 -0.4698  0.8855  1.0261
 7500SOL    HW234137   1.445   0.900   6.776 -1.0225  0.2179  0.6360
 7501SOL     OW34138   1.464   2.028  12.824  0.3639 -0.1553 -0.3000
 7501SOL    HW134139   1.443   2.057  12.735 -1.6640 -0.5489  0.0680
 7501SOL    HW234140   1.539   2.085  12.842  0.5187 -0.5200  0.1926
 7502SOL     OW34141   4.367   2.519   9.665 -0.0637 -0.3225 -0.6834
 7502SOL    HW134142   4.430   2.474   9.609 -0.8173 -1.4693 -0.5906
 7502SOL    HW234143   4.333   2.590   9.610  1.5010  1.2515  0.3788
 7503SOL     OW34144   1.638   2.725  15.269 -0.0512  0.2899  0.5737
 7503SOL    HW134145   1.692   2.674  15.329  0.2596  0.1036  0.1357
 7503SOL    HW234146   1.552   2.730  15.311  0.4179 -0.3432  1.6130
 7504SOL     OW34147   2.497   3.441  12.686  0.2506 -0.0955 -0.4316
 7504SOL    HW134148   2.563   3.416  12.622 -1.9537 -4.4757 -0.9604
 7504SOL    HW234149   2.436   3.496  12.636 -1.1865 -3.1470 -2.0556
 7505SOL     OW34150   0.661   3.339   8.240 -0.5519  0.2151 -0.2065
 7505SOL    HW134151   0.567   3.353   8.254 -0.4834 -1.6433  2.0377
 7505SOL    HW234152   0.692   3.430   8.244  1.5152 -0.5895  2.1905
 7506SOL     OW34153   4.601   0.906   1.452 -0.0902  0.2629 -0.1027
 7506SOL    HW134154   4.662   0.833   1.462 -0.1567  0.2883  0.4677
 7506SOL    HW234155   4.598   0.921   1.358  3.4646 -0.9902 -0.4066
 7507SOL     OW34156   1.729   4.183   3.641 -0.1195  0.0086  0.3393
 7507SOL    HW134157   1.668   4.134   3.586 -2.1259  2.6328  0.2112
 7507SOL    HW234158   1.803   4.123   3.630 -0.8131 -0.7070 -0.4358
 7508SOL     OW34159   0.081   2.113   1.869 -0.1229 -0.0571  0.3025
 7508SOL    HW134160   0.083   2.049   1.941 -1.1095 -0.0769  0.3044
 7508SOL    HW234161   0.156   2.070   1.828  0.6390 -0.1536  1.7786
 7509SOL     OW34162   2.158   4.246   8.480 -0.9267 -0.2267 -0.0142
 7509SOL    HW134163   2.247   4.220   8.460 -0.5967  1.1028 -0.2797
 7509SOL    HW234164   2.146   4.309   8.409  0.6214 -1.8721 -1.7179
 7510SOL     OW34165   1.732   1.536   2.377 -0.2675 -0.1250 -0.0394
 7510SOL    HW134166   1.776   1.594   2.439 -0.4728  1.1499 -1.0939
 7510SOL    HW234167   1.643   1.531   2.410  0.1955  1.1419  1.3968
 7511SOL     OW34168   3.615   2.886   4.528  0.2181  0.4619 -0.0138
 7511SOL    HW134169   3.627   2.799   4.566  0.2482 -0.3005 -1.7429
 7511SOL    HW234170   3.668   2.943   4.584  0.5485 -0.5769  0.7316
 7512SOL     OW34171   1.002   0.057   5.650  0.2850 -0.9008 -0.6528
 7512SOL    HW134172   0.985   0.144   5.687  0.4611 -1.2691  0.2970
 7512SOL    HW234173   0.933   0.064   5.584  0.4091 -1.5953 -0.8492
 7513SOL     OW34174   1.215   4.516  12.903 -0.2949 -0.0995  0.4146
 7513SOL    HW134175   1.136   4.492  12.854 -0.6898  3.7949 -0.8273
 7513SOL    HW234176   1.275   4.456  12.858  1.4295  0.8442  1.4106
 7514SOL     OW34177   1.157   4.617   8.297 -0.2864 -0.3808 -0.1548
 7514SOL    HW134178   1.087   4.609   8.232 -0.6100  0.5319  0.0809
 7514SOL    HW234179   1.143   4.534   8.343  0.4374 -1.0724 -1.1947
 7515SOL     OW34180   4.648   1.352   5.195 -0.1598 -0.4067 -0.2582
 7515SOL    HW134181   4.672   1.403   5.118  0.5789 -0.1905  0.1100
 7515SOL    HW234182   4.721   1.366   5.256  0.3576 -0.2507 -0.9117
 7516SOL     OW34183   4.638   0.849   5.970  0.3455  0.0705 -0.1663
 7516SOL    HW134184   4.702   0.876   5.904 -0.7584  1.4477 -0.6816
 7516SOL    HW234185   4.597   0.779   5.918 -3.9388  2.0664  0.5755
 7517SOL     OW34186   2.077   2.040   6.637  0.4485  0.1714  0.5748
 7517SOL    HW134187   2.012   2.107   6.615 -0.9997 -0.8212  1.8894
 7517SOL    HW234188   2.043   2.000   6.716 -2.2949 -0.2108 -0.8085
 7518SOL     OW34189   3.119   2.674   9.135 -0.3692 -0.1854  0.1437
 7518SOL    HW134190   3.120   2.613   9.061  0.6416 -2.2567  1.8525
 7518SOL    HW234191   3.192   2.728   9.106  1.2552 -2.9689 -0.9376
 7519SOL     OW34192   0.008   1.775   1.525 -0.0300  0.6163 -0.1868
 7519SOL    HW134193   0.038   1.865   1.516  3.2937 -0.5831 -1.1947
 7519SOL    HW234194   4.674   1.789   1.581  0.1287 -2.9603  0.9720
 7520SOL     OW34195   0.582   3.023   1.667 -0.1430  0.0567 -0.9274
 7520SOL    HW134196   0.504   3.055   1.620 -1.3455 -0.9072  0.4215
 7520SOL    HW234197   0.545   2.983   1.746  1.3122  0.1218 -0.2209
 7521SOL     OW34198   0.281   1.425   6.772  0.0663  0.3023  0.2030
 7521SOL    HW134199   0.251   1.469   6.693 -1.4061  0.3886  0.8058
 7521SOL    HW234200   0.352   1.366   6.745 -0.1350  0.3039 -0.3248
 7522SOL     OW34201   2.276   1.621  10.265 -0.3501  0.4628  0.1937
 7522SOL    HW134202   2.327   1.701  10.277  1.6383 -1.3249  3.7168
 7522SOL    HW234203   2.220   1.627  10.342 -2.4502  0.1108 -1.3032
 7523SOL     OW34204   1.527   0.179   6.443  0.2004  0.0308 -0.3934
 7523SOL    HW134205   1.557   0.116   6.509 -1.2209  0.2417  0.4488
 7523SOL    HW234206   1.469   0.125   6.390 -1.7689  0.5275  1.2582
 7524SOL     OW34207   1.851   3.541   9.397  0.1987 -0.0487  0.0611
 7524SOL    HW134208   1.935   3.577   9.368  0.1582  0.8233  1.0246
 7524SOL    HW234209   1.787   3.608   9.372  2.0629  1.4879 -0.6314
 7525SOL     OW34210   4.638   3.006   3.438 -0.8716  0.1195 -0.3146
 7525SOL    HW134211   4.676   3.073   3.381 -0.4740 -0.7327 -1.0466
 7525SOL    HW234212   4.556   2.988   3.392 -1.3443  0.4748  0.3925
 7526SOL     OW34213   3.627   2.071  10.006  0.0219 -0.1940  0.0940
 7526SOL    HW134214   3.654   2.109  10.090 -0.5563  0.9728 -0.2384
 7526SOL    HW234215   3.695   2.097   9.944  1.3132 -0.2651  1.4975
 7527SOL     OW34216   4.537   3.195   7.305 -0.2791 -0.1563  0.3942
 7527SOL    HW134217   4.603   3.148   7.356 -1.3016 -1.0529  0.9199
 7527SOL    HW234218   4.539   3.279   7.352  3.3231  1.2667 -2.3150
 7528SOL     OW34219   1.511   1.173   1.498  0.5358 -0.1715 -0.0919
 7528SOL    HW134220   1.455   1.241   1.537 -0.5962 -1.2077  0.1080
 7528SOL    HW234221   1.495   1.106   1.564 -0.8885 -1.0454 -1.3164
 7529SOL     OW34222   2.515   4.572   1.864 -0.6986 -0.2076  0.4608
 7529SOL    HW134223   2.552   4.606   1.782  3.9018 -1.2136  2.1132
 7529SOL    HW234224   2.484   4.487   1.832  0.6804 -1.0442  1.3548
 7530SOL     OW34225   2.888   3.766   7.846 -0.2246  0.1887  0.1542
 7530SOL    HW134226   2.914   3.700   7.909  0.4754  0.2877 -0.0330
 7530SOL    HW234227   2.965   3.771   7.790 -0.5948 -0.6746 -0.4439
 7531SOL     OW34228   0.934   1.404   4.967 -0.4843 -0.1530  0.3366
 7531SOL    HW134229   0.954   1.481   4.913 -1.3903 -0.0170  0.1807
 7531SOL    HW234230   0.981   1.410   5.050  1.1094 -0.0840 -0.5752
 7532SOL     OW34231   2.816   1.945   2.639  0.1227 -0.2627 -0.1872
 7532SOL    HW134232   2.730   1.984   2.649 -0.1570 -1.4171  1.9390
 7532SOL    HW234233   2.801   1.852   2.624  0.4463 -0.3971  0.2977
 7533SOL     OW34234   1.307   3.459  17.114 -0.2312  0.2837  0.4814
 7533SOL    HW134235   1.222   3.438  17.077  0.2609  1.4141 -1.2802
 7533SOL    HW234236   1.303   3.554  17.114  1.1239  0.3485  0.2699
 7534SOL     OW34237   2.976   4.438   7.234  0.4964  0.7037  0.0844
 7534SOL    HW134238   2.915   4.385   7.286  0.0546 -1.0968 -2.3009
 7534SOL    HW234239   3.056   4.419   7.283 -0.7339 -1.6278  1.2030
 7535SOL     OW34240   1.419   4.644   8.242  0.3321  0.5489 -0.4402
 7535SOL    HW134241   1.412   4.641   8.147 -0.2454  0.1698 -0.3909
 7535SOL    HW234242   1.327   4.654   8.269 -0.3562 -0.0733 -2.5791
 7536SOL     OW34243   0.945   1.311   6.559  0.1094  0.0330  0.4437
 7536SOL    HW134244   0.925   1.221   6.583 -0.5824 -0.0656 -0.4644
 7536SOL    HW234245   1.039   1.309   6.541 -0.3329 -0.4602 -1.8117
 7537SOL     OW34246   1.064   3.482  12.492 -0.1001  0.4287 -0.1414
 7537SOL    HW134247   1.020   3.446  12.414 -1.1271 -0.9391  1.0680
 7537SOL    HW234248   1.152   3.488  12.455  0.1967  0.0982  0.5170
 7538SOL     OW34249   2.616   1.555  16.242 -0.1166  0.2023 -0.1389
 7538SOL    HW134250   2.651   1.489  16.182  0.2722 -1.1126  1.5614
 7538SOL    HW234251   2.651   1.637  16.205  1.1776 -1.0516 -1.6888
 7539SOL     OW34252   1.708   3.416   5.707 -0.1937 -0.3544  0.5483
 7539SOL    HW134253   1.665   3.463   5.778  1.0611  0.8961  0.4704
 7539SOL    HW234254   1.755   3.496   5.684 -0.4518 -0.1294  0.8107
 7540SOL     OW34255   1.992   0.927  12.196 -0.0314  0.0908  0.5744
 7540SOL    HW134256   2.014   0.855  12.137 -0.4865  0.6602 -0.2827
 7540SOL    HW234257   1.975   0.873  12.273 -1.3770 -2.3461 -1.4339
 7541SOL     OW34258   2.440   2.167   3.600 -0.1506 -0.0009 -0.4292
 7541SOL    HW134259   2.414   2.195   3.513  0.1203 -0.6019 -0.7026
 7541SOL    HW234260   2.390   2.215   3.666  0.5566  0.2288 -0.0531
 7542SOL     OW34261   1.512   1.009   3.104  0.0417  0.6083  0.1540
 7542SOL    HW134262   1.502   0.960   3.022  0.5801  0.6672  0.0518
 7542SOL    HW234263   1.602   0.995   3.135 -0.5709 -2.6496  0.4020
 7543SOL     OW34264   2.344   4.526  15.182 -0.0443 -0.3884  0.3514
 7543SOL    HW134265   2.415   4.588  15.199 -0.7913  0.8110 -0.8800
 7543SOL    HW234266   2.387   4.459  15.130 -1.3832 -0.7037 -0.3546
 7544SOL     OW34267   1.411   3.888  15.430  0.1422  0.1751  0.3036
 7544SOL    HW134268   1.318   3.895  15.450 -0.3871  0.5054 -2.2833
 7544SOL    HW234269   1.434   3.965  15.378  0.8843  0.5814  1.2212
 7545SOL     OW34270   4.720   4.145   1.903 -0.0041  0.4914  0.0229
 7545SOL    HW134271   0.066   4.162   1.933  0.1472 -0.5432  0.1453
 7545SOL    HW234272   4.673   4.161   1.985 -2.6333 -2.1819 -0.9713
 7546SOL     OW34273   0.020   3.724   6.920 -0.2960 -0.1623 -0.8521
 7546SOL    HW134274   4.671   3.745   6.938 -0.1505  1.2041 -1.7597
 7546SOL    HW234275   0.009   3.673   6.840  1.1321  1.2117 -1.9187
 7547SOL     OW34276   3.612   0.055   2.772  0.8765  0.3201 -0.1692
 7547SOL    HW134277   3.624   0.034   2.865 -0.0205  2.7802  0.4967
 7547SOL    HW234278   3.605   4.710   2.735  0.0301  0.7336 -0.9957
 7548SOL     OW34279   0.911   0.255   6.272  0.0200  0.1304 -0.9246
 7548SOL    HW134280   0.949   0.269   6.358 -1.7169 -3.9582  0.4744
 7548SOL    HW234281   0.946   0.322   6.212  0.4567 -0.2238 -1.0612
 7549SOL     OW34282   1.341   0.074  17.701 -0.0963 -0.2794 -0.4426
 7549SOL    HW134283   1.275   0.134  17.667 -0.5742 -0.6450 -0.1528
 7549SOL    HW234284   1.369   0.112   0.017  0.8154 -3.5332  0.7299
 7550SOL     OW34285   1.621   0.791  15.804 -0.1442 -0.3611  0.6625
 7550SOL    HW134286   1.624   0.862  15.868  0.3556 -2.2527  2.7432
 7550SOL    HW234287   1.662   0.721  15.856 -1.2481 -0.5138  1.3311
 7551SOL     OW34288   2.112   1.845   6.457 -0.0886 -0.2678  0.5652
 7551SOL    HW134289   2.082   1.889   6.536  1.7589 -0.2548  1.2501
 7551SOL    HW234290   2.186   1.793   6.490  1.4707  2.2774  1.0612
 7552SOL     OW34291   4.693   1.262  10.048 -0.3619 -0.0422 -0.5242
 7552SOL    HW134292   4.687   1.254  10.143 -0.7707 -0.5907 -0.5922
 7552SOL    HW234293   4.683   1.168  10.032  0.6254 -0.1246 -0.6624
 7553SOL     OW34294   0.965   2.971   1.120 -0.0025  0.3265  0.2243
 7553SOL    HW134295   0.990   2.879   1.110 -0.0783  0.1883  1.3344
 7553SOL    HW234296   0.912   2.969   1.199  0.0521 -0.6962  0.2360
 7554SOL     OW34297   4.160   0.502   6.200 -0.0277  0.1457  0.4288
 7554SOL    HW134298   4.239   0.449   6.203  0.7456  1.0932 -2.3320
 7554SOL    HW234299   4.109   0.470   6.274 -0.4609  2.4975  1.1524
 7555SOL     OW34300   3.382   1.220   6.262  0.2159 -0.2953 -0.5732
 7555SOL    HW134301   3.347   1.260   6.342  0.7680  0.9181 -0.9435
 7555SOL    HW234302   3.398   1.133   6.300  0.0244  0.4169  1.1462
 7556SOL     OW34303   2.298   4.000   8.233 -0.4901  0.3660  0.2081
 7556SOL    HW134304   2.273   3.938   8.301  2.3243 -0.7878  0.2032
 7556SOL    HW234305   2.273   4.078   8.283 -0.1955  2.0167 -2.2304
 7557SOL     OW34306   1.746   3.348  15.812 -0.3680  0.6837 -0.3954
 7557SOL    HW134307   1.709   3.398  15.740 -0.0848 -1.7488 -2.2290
 7557SOL    HW234308   1.737   3.416  15.878 -0.7545 -0.8901  1.1794
 7558SOL     OW34309   3.964   3.580   0.544  0.3932 -0.3541 -0.0729
 7558SOL    HW134310   4.022   3.644   0.584 -0.3258  0.0836  0.2716
 7558SOL    HW234311   3.990   3.517   0.611 -1.9097  1.1651  2.2230
 7559SOL     OW34312   2.086   3.249   8.719  0.0647  0.5588 -0.2870
 7559SOL    HW134313   2.163   3.254   8.775  0.5183  1.8857 -1.0229
 7559SOL    HW234314   2.112   3.267   8.629  0.0648  0.9266 -0.2133
 7560SOL     OW34315   1.028   0.457  10.973  0.3028  0.6221  0.1290
 7560SOL    HW134316   0.975   0.534  10.951 -2.5952 -0.7715  2.2330
 7560SOL    HW234317   1.049   0.466  11.066  2.7368 -1.5687 -0.2241
 7561SOL     OW34318   0.547   0.290  14.130  0.2064 -0.0041  0.2161
 7561SOL    HW134319   0.566   0.345  14.205  0.1538 -1.4738  1.3197
 7561SOL    HW234320   0.459   0.260  14.154  1.1043 -1.9843  1.0145
 7562SOL     OW34321   1.955   1.903   3.437 -0.2669 -0.5189 -0.2309
 7562SOL    HW134322   1.968   1.882   3.344 -2.1163 -0.7917 -0.4348
 7562SOL    HW234323   1.965   1.814   3.472 -1.5259 -0.5316  0.1032
 7563SOL     OW34324   1.383   1.008   8.198 -0.0056  0.6753 -0.1777
 7563SOL    HW134325   1.304   0.982   8.151 -0.1689 -0.8466  0.9531
 7563SOL    HW234326   1.350   0.994   8.287  4.6489 -1.7020  1.1648
 7564SOL     OW34327   0.324   3.908   9.312 -0.4812  0.1890  0.5233
 7564SOL    HW134328   0.344   3.818   9.287 -2.7283  0.6427 -2.9767
 7564SOL    HW234329   0.312   3.886   9.405 -0.0720  0.3335  0.6091
 7565SOL     OW34330   0.142   2.389   3.784  0.2433  0.3557  0.3903
 7565SOL    HW134331   0.194   2.345   3.851 -1.1115 -1.1126  0.4759
 7565SOL    HW234332   0.208   2.438   3.734 -0.6849  0.6408 -0.5709
 7566SOL     OW34333   4.321   1.023   3.333  0.2548 -0.1867  0.5786
 7566SOL    HW134334   4.368   0.986   3.408  0.5834 -3.3057 -1.1708
 7566SOL    HW234335   4.303   0.939   3.290  1.9021  0.7044 -1.8371
 7567SOL     OW34336   3.996   0.716   5.393 -0.1032  0.3644  0.6445
 7567SOL    HW134337   4.046   0.664   5.456  0.2242  0.3731  0.3915
 7567SOL    HW234338   3.979   0.791   5.450 -0.0801  1.5149 -0.8759
 7568SOL     OW34339   2.639   4.563   2.093 -0.1545 -0.4461  0.0176
 7568SOL    HW134340   2.597   4.569   2.008 -0.4671 -0.1727  0.1897
 7568SOL    HW234341   2.562   4.569   2.150  1.4702  0.8024  2.0862
 7569SOL     OW34342   4.395   2.791  14.677  0.1398 -0.2224  0.1218
 7569SOL    HW134343   4.437   2.864  14.631  0.8701 -1.2200 -0.7800
 7569SOL    HW234344   4.306   2.826  14.686 -0.1414 -1.1892  1.0424
 7570SOL     OW34345   2.864   3.563  15.270  0.4463 -0.5525  0.3979
 7570SOL    HW134346   2.951   3.547  15.233  1.3519  2.9846  0.9381
 7570SOL    HW234347   2.870   3.498  15.339  0.4809 -2.0049 -0.9575
 7571SOL     OW34348   3.367   4.176  12.283 -0.0603  0.5066 -0.0849
 7571SOL    HW134349   3.340   4.107  12.344 -1.3701  1.4471  0.4144
 7571SOL    HW234350   3.295   4.239  12.288 -0.4273 -0.0810  2.0967
 7572SOL     OW34351   3.935   1.929   4.007 -0.3762 -0.0870 -0.6581
 7572SOL    HW134352   3.932   2.023   4.021 -0.6474 -0.4451  1.7135
 7572SOL    HW234353   3.903   1.893   4.090 -0.1757  0.2428 -0.4413
 7573SOL     OW34354   2.123   3.437   2.889  0.2739  0.3266 -0.5434
 7573SOL    HW134355   2.218   3.448   2.896  0.1716 -0.7542  2.8670
 7573SOL    HW234356   2.127   3.352   2.846 -0.2312  0.0117  0.0244
 7574SOL     OW34357   3.194   3.393   8.342 -0.3442 -0.2563 -0.5460
 7574SOL    HW134358   3.242   3.422   8.264  1.2860 -1.9665 -0.1680
 7574SOL    HW234359   3.223   3.452   8.412 -1.4596 -0.1546 -0.1699
 7575SOL     OW34360   1.490   0.902   2.511  0.1623 -0.3744  0.1004
 7575SOL    HW134361   1.506   0.855   2.593  2.0678  1.0354  0.5218
 7575SOL    HW234362   1.491   0.832   2.446 -0.1586  1.8800 -2.3030
 7576SOL     OW34363   3.319   1.915   6.783  0.3233  0.4779 -0.8532
 7576SOL    HW134364   3.364   1.987   6.739 -2.4066  2.4751 -0.3763
 7576SOL    HW234365   3.299   1.861   6.706 -0.5020 -0.6323  0.1312
 7577SOL     OW34366   4.132   1.240  11.037 -0.1432 -0.1328 -0.0499
 7577SOL    HW134367   4.142   1.296  11.115 -0.7055 -1.1510  0.7485
 7577SOL    HW234368   4.193   1.167  11.045  1.6269  1.4277  0.5979
 7578SOL     OW34369   2.470   0.307   6.294  0.0940  0.2020  0.6581
 7578SOL    HW134370   2.556   0.277   6.266  0.8251  2.5120  0.4416
 7578SOL    HW234371   2.483   0.331   6.386 -0.5659 -0.0794  0.8236
 7579SOL     OW34372   2.299   4.389   6.270 -0.0708 -0.1823  0.4839
 7579SOL    HW134373   2.339   4.351   6.191  1.1151  2.7384 -0.3581
 7579SOL    HW234374   2.369   4.431   6.320  0.5915 -1.0933  0.3255
 7580SOL     OW34375   0.520   1.799   4.149  0.1095  0.2263  0.0934
 7580SOL    HW134376   0.532   1.825   4.058  1.2641  0.8744  0.4322
 7580SOL    HW234377   0.454   1.732   4.131  0.3728 -0.4369  1.6311
 7581SOL     OW34378   0.202   0.638   2.464  0.1803 -0.2361 -0.0069
 7581SOL    HW134379   0.260   0.642   2.388 -1.4522  1.2570 -1.1477
 7581SOL    HW234380   0.194   0.729   2.493  0.2987  0.6397 -2.7409
 7582SOL     OW34381   2.434   3.964   3.716  0.1249 -0.5244  0.0749
 7582SOL    HW134382   2.369   3.994   3.780  1.9577 -0.0459  1.6915
 7582SOL    HW234383   2.485   4.040   3.687  1.5954 -1.0859  1.1974
 7583SOL     OW34384   0.349   3.008   8.984  1.1446  0.1044  0.6025
 7583SOL    HW134385   0.262   2.994   9.021 -0.0390  0.4207 -2.1441
 7583SOL    HW234386   0.372   3.084   9.038  0.5737  1.6665 -1.3662
 7584SOL     OW34387   2.995   1.031  16.013  0.0367 -0.2893 -0.1951
 7584SOL    HW134388   2.961   1.091  15.947 -1.6362 -0.5228  0.4717
 7584SOL    HW234389   2.946   0.949  16.014 -2.3347  1.1161 -2.0976
 7585SOL     OW34390   1.265   1.223   5.021 -0.0434 -0.6196 -0.3519
 7585SOL    HW134391   1.261   1.149   5.082  0.2662 -1.1012 -0.9058
 7585SOL    HW234392   1.196   1.277   5.059  0.6151  0.1002 -0.1922
 7586SOL     OW34393   3.997   2.404   3.632 -0.6207  0.4960 -0.7938
 7586SOL    HW134394   4.008   2.364   3.546 -0.7451  1.5244 -1.2818
 7586SOL    HW234395   4.082   2.398   3.675 -1.1533  0.4021  0.2573
 7587SOL     OW34396   0.227   4.669   4.432  0.5183  0.8100 -0.8267
 7587SOL    HW134397   0.316   4.637   4.447 -0.1473 -0.5340  0.3135
 7587SOL    HW234398   0.203   4.687   4.523  0.6527  0.0243 -0.6291
 7588SOL     OW34399   2.088   2.401  11.344 -0.2973  0.1352 -0.4429
 7588SOL    HW134400   2.022   2.441  11.287  0.7095  0.2959 -1.4924
 7588SOL    HW234401   2.071   2.308  11.327 -1.1135  0.4160 -1.2069
 7589SOL     OW34402   2.325   4.491  17.315 -0.1240 -0.0744  0.5700
 7589SOL    HW134403   2.311   4.431  17.241  0.3895 -1.1821  1.3580
 7589SOL    HW234404   2.318   4.581  17.285 -0.1227 -0.3357 -0.2117
 7590SOL     OW34405   3.801   4.092  11.600 -0.0232 -0.5386 -0.2002
 7590SOL    HW134406   3.793   4.183  11.629  0.8908 -0.8538  1.0630
 7590SOL    HW234407   3.711   4.072  11.574  0.0086  1.3622 -1.7237
 7591SOL     OW34408   3.171   0.634   8.301  0.6621  0.3048 -0.7104
 7591SOL    HW134409   3.237   0.702   8.317  1.9953 -1.1866  0.0650
 7591SOL    HW234410   3.116   0.624   8.378 -0.9363  2.9193 -1.5037
 7592SOL     OW34411   2.778   4.457  14.794 -0.4156 -0.2490  0.3012
 7592SOL    HW134412   2.766   4.370  14.756  0.7453 -0.3870  0.2538
 7592SOL    HW234413   2.853   4.436  14.850 -0.0722  1.8419  0.6008
 7593SOL     OW34414   0.508   2.523   3.791  0.0874 -0.1788 -0.5096
 7593SOL    HW134415   0.488   2.541   3.882 -0.7669  0.3629 -0.8042
 7593SOL    HW234416   0.423   2.530   3.747 -0.1917  1.0257  0.2116
 7594SOL     OW34417   0.837   3.527   3.741  0.3431  0.3560  0.2604
 7594SOL    HW134418   0.756   3.504   3.695  1.3652 -3.2350  0.2635
 7594SOL    HW234419   0.890   3.449   3.723  0.0593  0.1056  0.5033
 7595SOL     OW34420   0.374   2.405   7.787 -0.4868  0.0631  0.3111
 7595SOL    HW134421   0.425   2.358   7.852 -0.5321 -0.0831  0.2394
 7595SOL    HW234422   0.412   2.493   7.800  0.6923 -0.4035  0.0641
 7596SOL     OW34423   3.597   4.343   0.311  0.0223  0.2830 -0.1821
 7596SOL    HW134424   3.543   4.393   0.251 -0.7855 -1.4998 -0.9241
 7596SOL    HW234425   3.548   4.367   0.390  0.6659  2.1136 -0.3229
 7597SOL     OW34426   4.128   0.153   1.810 -0.2047  0.4221  0.0183
 7597SOL    HW134427   4.217   0.134   1.780 -1.5783  0.5746 -4.1434
 7597SOL    HW234428   4.073   0.145   1.732  0.4529 -0.2784 -0.3784
 7598SOL     OW34429   1.874   3.539   7.446 -0.1047 -0.1380  0.6580
 7598SOL    HW134430   1.958   3.584   7.461 -1.2865  1.5196  2.3014
 7598SOL    HW234431   1.903   3.448   7.442 -0.3879 -0.3530  3.0699
 7599SOL     OW34432   1.252   4.197  14.904 -0.2278 -0.3564  0.1610
 7599SOL    HW134433   1.336   4.228  14.937 -1.0912  1.4635  0.6280
 7599SOL    HW234434   1.278   4.138  14.834 -2.7772  0.7054 -1.6629
 7600SOL     OW34435   1.087   2.044   7.705  0.1184  0.0142 -0.1948
 7600SOL    HW134436   1.085   2.125   7.655  0.7026  0.0363 -0.1845
 7600SOL    HW234437   0.998   2.009   7.705 -0.0345  0.4209  1.1435
 7601SOL     OW34438   3.570   1.668   1.888  0.3184  0.4407  0.3588
 7601SOL    HW134439   3.578   1.573   1.898 -2.4678  0.1276 -0.3092
 7601SOL    HW234440   3.532   1.695   1.973  0.3341 -1.6200  1.0102
 7602SOL     OW34441   1.173   1.653  16.622 -0.3079  0.2317 -0.0801
 7602SOL    HW134442   1.190   1.597  16.545  1.9230  2.3622 -1.1551
 7602SOL    HW234443   1.089   1.694  16.603 -0.1549 -1.1969 -3.9470
 7603SOL     OW34444   4.182   4.271   5.454 -0.3146 -0.2007 -0.7361
 7603SOL    HW134445   4.202   4.192   5.505 -2.7912  0.2291  0.9294
 7603SOL    HW234446   4.237   4.334   5.501 -1.0854  0.5755 -0.8717
 7604SOL     OW34447   1.665   0.404   6.485  0.2739  0.1356  0.0650
 7604SOL    HW134448   1.596   0.339   6.472  1.9220 -1.3391 -1.3145
 7604SOL    HW234449   1.745   0.355   6.465  2.3821  2.7311  1.9766
 7605SOL     OW34450   2.009   1.665  15.183  0.0951 -0.9878 -0.1627
 7605SOL    HW134451   1.994   1.744  15.132  1.1685 -0.1395  0.8300
 7605SOL    HW234452   1.928   1.615  15.174 -0.6576  0.4537 -1.2503
 7606SOL     OW34453   2.420   1.180  17.480 -0.1206 -0.1080 -0.1646
 7606SOL    HW134454   2.509   1.146  17.470 -1.0191 -2.7776  0.8488
 7606SOL    HW234455   2.437   1.243  17.550  2.6422  0.1048 -1.0306
 7607SOL     OW34456   3.995   4.199  15.982 -0.2668  0.7368  0.0862
 7607SOL    HW134457   3.950   4.266  15.931  1.8217  2.0551 -0.0299
 7607SOL    HW234458   3.924   4.136  15.980  1.7040 -1.4741 -0.7675
 7608SOL     OW34459   4.088   4.690   5.271  0.2530  0.0854  0.0132
 7608SOL    HW134460   4.032   4.702   5.347 -0.0630  0.6299 -0.3061
 7608SOL    HW234461   4.024   4.650   5.211 -0.6512 -0.9273  1.6312
 7609SOL     OW34462   1.565   0.611   3.980  0.3589  0.1676  0.4189
 7609SOL    HW134463   1.471   0.613   3.967  0.7078  1.9048 -1.8375
 7609SOL    HW234464   1.605   0.662   3.909 -0.1561  0.7619  0.5550
 7610SOL     OW34465   2.180   2.582   2.528 -0.3061 -0.3103 -0.2169
 7610SOL    HW134466   2.192   2.523   2.453  0.3291  0.0924 -0.4312
 7610SOL    HW234467   2.156   2.524   2.600  0.5733  2.7105  2.5036
 7611SOL     OW34468   3.361   1.268  11.734 -0.5127 -0.0774  0.7793
 7611SOL    HW134469   3.317   1.186  11.710  1.5703 -0.7851 -0.6756
 7611SOL    HW234470   3.304   1.344  11.727  1.1657  1.2006  1.1033
 7612SOL     OW34471   1.515   1.460   1.709 -0.3044 -0.3456  0.4454
 7612SOL    HW134472   1.433   1.411   1.709 -0.2035 -0.5182 -0.9975
 7612SOL    HW234473   1.486   1.536   1.658 -0.5899 -0.2226  0.7947
 7613SOL     OW34474   0.206   3.305   7.554  0.0183 -0.1408 -0.1754
 7613SOL    HW134475   0.240   3.295   7.643  0.2526 -0.7868 -0.3392
 7613SOL    HW234476   0.274   3.259   7.506  1.0813  0.8312  0.4048
 7614SOL     OW34477   3.252   3.761   1.957  0.1831 -0.1958 -0.3184
 7614SOL    HW134478   3.299   3.683   1.928  1.6912  0.9278 -0.8735
 7614SOL    HW234479   3.251   3.727   2.047  1.3711  1.2557  0.2385
 7615SOL     OW34480   1.500   4.289   9.368  0.6745  0.0365  0.4166
 7615SOL    HW134481   1.575   4.271   9.425  0.2956  0.1720  0.9624
 7615SOL    HW234482   1.480   4.379   9.393 -0.3952 -0.6611  2.1056
 7616SOL     OW34483   1.158   2.421  17.704 -0.2726  0.3270  0.3587
 7616SOL    HW134484   1.218   2.382  17.768  0.5891  2.3418  0.7798
 7616SOL    HW234485   1.215   2.432  17.628 -1.2913 -1.7612 -0.7094
 7617SOL     OW34486   3.183   0.778   6.480  0.5097  0.1444  0.5099
 7617SOL    HW134487   3.261   0.821   6.444 -0.1299 -2.1530 -3.6551
 7617SOL    HW234488   3.174   0.706   6.418  0.6917 -1.6912  2.6217
 7618SOL     OW34489   2.662   1.943   3.535  0.1112  0.3463 -0.4168
 7618SOL    HW134490   2.620   1.867   3.495 -0.5020  0.4945 -0.0429
 7618SOL    HW234491   2.589   2.004   3.541  0.2108  0.3619  0.6728
 7619SOL     OW34492   1.105   2.992   1.952  0.6921  0.2623 -0.0497
 7619SOL    HW134493   1.114   3.086   1.966  2.5909 -0.0066  0.5285
 7619SOL    HW234494   1.028   2.993   1.895  0.6026  0.1852  0.0693
 7620SOL     OW34495   0.334   3.428  16.572  0.2283  0.2701 -0.1396
 7620SOL    HW134496   0.269   3.365  16.541  1.6831 -1.1811 -0.2578
 7620SOL    HW234497   0.285   3.508  16.551 -2.0834 -0.4364  2.4427
 7621SOL     OW34498   4.572   4.055   2.562  0.2483  0.1947 -0.6115
 7621SOL    HW134499   4.509   3.984   2.545 -0.2178  0.7445 -1.1602
 7621SOL    HW234500   4.650   4.028   2.515  1.3798  0.5594  1.0733
 7622SOL     OW34501   0.282   1.765   8.891  0.0221  0.4458 -0.7606
 7622SOL    HW134502   0.377   1.760   8.896 -0.0579 -0.2352  0.1443
 7622SOL    HW234503   0.270   1.701   8.820  1.6697  0.5965 -1.1876
 7623SOL     OW34504   2.356   3.800   9.368  0.7023 -0.0096  0.2702
 7623SOL    HW134505   2.438   3.806   9.417  0.9213 -3.3157  0.3156
 7623SOL    HW234506   2.393   3.819   9.282  1.5132 -0.7818  0.4434
 7624SOL     OW34507   2.239   4.162   4.349  0.8358 -0.0784 -1.0687
 7624SOL    HW134508   2.334   4.173   4.354  1.0708 -1.1000 -3.4125
 7624SOL    HW234509   2.216   4.238   4.403  2.8468 -0.2246 -0.0247
 7625SOL     OW34510   0.797   3.078   5.076 -0.1034 -0.2130 -0.0845
 7625SOL    HW134511   0.711   3.114   5.098  0.3270  1.4459 -1.0284
 7625SOL    HW234512   0.790   2.983   5.079  0.7373 -0.3373 -1.8942
 7626SOL     OW34513   4.073   1.611  10.159  0.1580 -0.1308 -0.4324
 7626SOL    HW134514   4.008   1.661  10.109 -0.5332 -1.5123 -0.9478
 7626SOL    HW234515   4.101   1.670  10.228  0.1039 -1.2342  0.5370
 7627SOL     OW34516   4.652   0.032  13.865 -0.2354 -0.0028  0.2525
 7627SOL    HW134517   4.706   4.701  13.836  0.4100  0.6011 -0.0719
 7627SOL    HW234518   4.711   0.108  13.870  0.4359 -0.4534 -0.7902
 7628SOL     OW34519   1.807   0.573  17.694 -0.0522 -0.4513  0.5460
 7628SOL    HW134520   1.815   0.596   0.019 -0.1798 -0.6172  0.5958
 7628SOL    HW234521   1.863   0.644  17.661 -0.8161  0.2858  0.8511
 7629SOL     OW34522   2.913   1.556   6.790  0.8278  0.1697  0.1443
 7629SOL    HW134523   2.897   1.610   6.867  0.5682  0.0774  0.1565
 7629SOL    HW234524   2.849   1.485   6.802  1.8242 -0.1763  3.4780
 7630SOL     OW34525   1.673   2.370   7.813 -0.6733  0.3044  0.5548
 7630SOL    HW134526   1.609   2.424   7.860  0.3143  1.6906  0.3254
 7630SOL    HW234527   1.628   2.290   7.787 -1.1103  0.1603  1.7226
 7631SOL     OW34528   3.322   3.100   9.113  0.0552  0.3484 -0.2089
 7631SOL    HW134529   3.240   3.148   9.098 -0.9614 -1.2654  0.2024
 7631SOL    HW234530   3.390   3.165   9.099  0.2762  0.4522  1.2884
 7632SOL     OW34531   4.290   0.264   2.851 -0.5545  0.5022  0.0595
 7632SOL    HW134532   4.228   0.301   2.915 -0.3366 -0.2547  0.7022
 7632SOL    HW234533   4.245   0.298   2.773 -3.1416 -2.0710  0.4683
 7633SOL     OW34534   1.059   0.335  15.211  0.1978  0.1815 -0.2582
 7633SOL    HW134535   1.034   0.404  15.149  1.5015  1.2659  0.4217
 7633SOL    HW234536   0.976   0.288  15.219  1.5446 -2.2926 -0.9631
 7634SOL     OW34537   3.677   1.341   9.724 -1.0338 -0.4187  0.2422
 7634SOL    HW134538   3.661   1.247   9.737  0.0153 -0.9432 -2.3431
 7634SOL    HW234539   3.593   1.357   9.682 -0.4961  0.4019 -0.5407
 7635SOL     OW34540   0.097   2.939   9.010  0.5883  0.3259  0.7715
 7635SOL    HW134541   0.010   2.961   8.977  0.8233  2.2763  1.4612
 7635SOL    HW234542   0.079   2.958   9.102  0.4926 -1.4182  1.1101
 7636SOL     OW34543   2.140   1.619  13.985 -0.5326 -0.2223 -0.4236
 7636SOL    HW134544   2.235   1.616  13.977 -0.6141  3.0055 -2.4068
 7636SOL    HW234545   2.113   1.711  13.980  2.0190  0.5417  0.2394
 7637SOL     OW34546   1.145   3.687   4.454 -0.4486  0.3774  0.4404
 7637SOL    HW134547   1.169   3.605   4.497 -1.2305  1.9913  3.9247
 7637SOL    HW234548   1.231   3.720   4.430 -0.4928 -0.2139 -0.5675
 7638SOL     OW34549   4.168   2.790   6.308 -0.2864  0.1628  0.1659
 7638SOL    HW134550   4.212   2.832   6.234  0.1554  1.8068  1.3746
 7638SOL    HW234551   4.087   2.841   6.300 -0.5834 -0.2137  0.7437
 7639SOL     OW34552   0.555   1.110   0.900 -0.3184 -0.0299 -0.3203
 7639SOL    HW134553   0.460   1.101   0.902 -0.0905 -2.5461 -1.1728
 7639SOL    HW234554   0.570   1.090   0.807  2.5830  1.2755 -0.1078
 7640SOL     OW34555   4.676   0.731  13.337 -0.2842  0.3908 -0.3591
 7640SOL    HW134556   4.729   0.802  13.372 -0.1676  0.9069 -1.5696
 7640SOL    HW234557   4.742   0.685  13.286  0.2078 -0.5080  1.0957
 7641SOL     OW34558   0.865   2.516   2.207 -0.4939  0.6695 -0.3180
 7641SOL    HW134559   0.901   2.540   2.292 -0.0660 -1.6016  0.1443
 7641SOL    HW234560   0.924   2.564   2.149 -1.2774  0.5977 -1.1794
 7642SOL     OW34561   1.055   3.455   4.198  0.1331 -0.5616  0.3887
 7642SOL    HW134562   1.001   3.531   4.179 -0.5960 -1.2338 -0.2529
 7642SOL    HW234563   1.139   3.495   4.175  0.3140 -1.2824 -0.2418
 7643SOL     OW34564   0.788   4.348   6.618  0.1077 -0.3041 -0.0644
 7643SOL    HW134565   0.795   4.431   6.666  2.0901  1.6329 -3.6451
 7643SOL    HW234566   0.723   4.376   6.554 -0.7436 -1.5109  0.2870
 7644SOL     OW34567   0.828   0.227  15.291 -0.5985 -0.1874  0.2531
 7644SOL    HW134568   0.855   0.136  15.301  2.0531  0.3131 -2.3984
 7644SOL    HW234569   0.833   0.251  15.383 -1.0951  2.6322 -0.4556
 7645SOL     OW34570   0.094   1.510  16.528  0.1719 -0.1383 -0.2493
 7645SOL    HW134571   0.172   1.470  16.568 -0.8374 -0.8167  1.0627
 7645SOL    HW234572   0.037   1.436  16.551 -0.0115 -0.3909 -1.5317
 7646SOL     OW34573   0.488   4.155  15.791  0.3902 -0.0396  0.6989
 7646SOL    HW134574   0.540   4.207  15.730  0.1147  1.1346  1.4707
 7646SOL    HW234575   0.550   4.082  15.795 -0.8751 -1.1295  0.6938
 7647SOL     OW34576   4.542   0.042  12.146 -0.1462  0.3952 -0.2378
 7647SOL    HW134577   4.550   0.111  12.080 -0.2027  1.0468  0.4372
 7647SOL    HW234578   4.622   0.067  12.190 -1.9140  1.0376  2.5852
 7648SOL     OW34579   2.649   4.474   3.474 -0.2088  0.1976  0.3278
 7648SOL    HW134580   2.719   4.445   3.532 -0.9722 -1.9524  0.1937
 7648SOL    HW234581   2.581   4.513   3.528 -0.7760 -3.3194  2.1897
 7649SOL     OW34582   0.926   4.006  15.654 -0.9899 -0.0559  0.0577
 7649SOL    HW134583   0.928   3.912  15.671 -2.3586 -0.4755 -2.0615
 7649SOL    HW234584   0.903   4.047  15.737 -2.1636  2.7150 -1.6288
 7650SOL     OW34585   1.974   0.138   3.001 -0.3320 -0.2607 -0.1142
 7650SOL    HW134586   2.012   0.146   3.089 -1.6617  1.1036  0.3513
 7650SOL    HW234587   1.941   0.227   2.986 -0.2246 -0.2177 -0.0934
 7651SOL     OW34588   1.866   0.098   3.389  0.6079  0.3824  0.0776
 7651SOL    HW134589   1.809   0.055   3.324  0.8949  1.3404 -0.8103
 7651SOL    HW234590   1.928   0.158   3.348  1.4610 -0.3574  0.3084
 7652SOL     OW34591   0.115   4.558   3.113  0.1053 -0.1870 -0.0333
 7652SOL    HW134592   0.075   4.634   3.157  0.0734  0.9947 -2.1259
 7652SOL    HW234593   0.208   4.572   3.132  0.2365 -0.9609 -0.1049
 7653SOL     OW34594   3.081   1.623  14.130 -0.0151  0.1167  0.3854
 7653SOL    HW134595   3.023   1.547  14.125 -0.5142  0.4388  1.2582
 7653SOL    HW234596   3.020   1.675  14.182 -0.3592 -0.9396  1.0319
 7654SOL     OW34597   2.541   3.519   3.588  0.5894  0.3024  0.0826
 7654SOL    HW134598   2.543   3.614   3.603  3.1120 -0.2305  3.0723
 7654SOL    HW234599   2.501   3.495   3.672 -0.5916 -0.0886 -0.5858
 7655SOL     OW34600   0.497   2.207   3.601  0.1434  0.0489 -0.0975
 7655SOL    HW134601   0.534   2.287   3.641 -0.1356  0.3146 -0.3756
 7655SOL    HW234602   0.405   2.230   3.592  0.1628 -0.5910 -1.8397
 7656SOL     OW34603   3.266   0.357   7.903  0.3726 -0.0055 -0.3412
 7656SOL    HW134604   3.199   0.396   7.959  0.3325  0.4977 -0.7439
 7656SOL    HW234605   3.218   0.300   7.844  0.5465  1.3119 -1.7359
 7657SOL     OW34606   3.806   3.134   8.514  0.2202  0.0922 -0.3670
 7657SOL    HW134607   3.886   3.173   8.480  2.0013 -3.2982 -0.0222
 7657SOL    HW234608   3.733   3.188   8.484  2.3172  2.7723 -0.5776
 7658SOL     OW34609   4.581   2.351  17.385  0.1566 -0.7889  0.0344
 7658SOL    HW134610   4.622   2.307  17.311 -0.7759  1.3981 -1.7795
 7658SOL    HW234611   4.504   2.293  17.383  0.4781 -1.2474  0.8660
 7659SOL     OW34612   2.333   0.131   9.904  0.0368 -0.0457 -0.3425
 7659SOL    HW134613   2.401   0.070   9.934  0.5996  0.4381 -0.6334
 7659SOL    HW234614   2.287   0.163   9.982  1.1346  0.3070  0.1576
 7660SOL     OW34615   2.830   3.745   2.915  0.2603 -0.6710  0.3206
 7660SOL    HW134616   2.897   3.683   2.944  2.5471  2.4280  1.6231
 7660SOL    HW234617   2.890   3.820   2.909 -1.1817  0.3276 -1.6207
 7661SOL     OW34618   0.899   3.124   9.232  0.0676  0.2874  0.0542
 7661SOL    HW134619   0.917   3.217   9.243  0.5086  0.3015 -0.8744
 7661SOL    HW234620   0.990   3.095   9.232  0.4639  1.5951 -2.1650
 7662SOL     OW34621   0.229   2.051   9.662 -0.1914  0.1986  0.2846
 7662SOL    HW134622   0.309   2.103   9.665  0.5655 -0.8641 -1.3456
 7662SOL    HW234623   0.208   2.081   9.574  0.0212  0.6334  0.3805
 7663SOL     OW34624   1.373   0.230   6.082 -0.1169 -0.3462 -0.3428
 7663SOL    HW134625   1.372   0.166   6.152  0.8046 -2.2364 -2.0549
 7663SOL    HW234626   1.293   0.208   6.034 -1.2957  2.7681  0.1966
 7664SOL     OW34627   2.835   1.322   7.749  0.2260  0.3928 -0.3721
 7664SOL    HW134628   2.784   1.372   7.685  1.1918 -0.6606 -1.9729
 7664SOL    HW234629   2.915   1.307   7.699 -1.0474  1.5750 -2.7560
 7665SOL     OW34630   0.365   3.232   1.250  0.0780  0.7495  0.7054
 7665SOL    HW134631   0.402   3.278   1.325 -0.4271  0.6891  0.9961
 7665SOL    HW234632   0.431   3.166   1.232 -2.2947 -1.8424  1.4915
 7666SOL     OW34633   3.491   2.084   6.375 -0.5000 -0.1633  0.1480
 7666SOL    HW134634   3.536   2.000   6.360 -0.7005 -0.0623 -0.9898
 7666SOL    HW234635   3.400   2.072   6.350 -0.8864  1.0906  0.9517
 7667SOL     OW34636   2.867   2.748   5.813 -0.0045 -0.3017  0.3522
 7667SOL    HW134637   2.837   2.838   5.822 -2.8484 -1.1944 -0.0298
 7667SOL    HW234638   2.882   2.731   5.720 -1.2272  0.1765  0.0704
 7668SOL     OW34639   1.158   4.034   0.290  0.2054  0.2309  0.0494
 7668SOL    HW134640   1.109   4.070   0.216 -2.3612 -1.6250  0.8458
 7668SOL    HW234641   1.146   4.108   0.350 -1.5165 -0.8416  1.0620
 7669SOL     OW34642   2.707   3.111   7.185 -0.2301 -0.2432  0.0797
 7669SOL    HW134643   2.769   3.042   7.160 -2.8149 -2.8352  0.7891
 7669SOL    HW234644   2.749   3.131   7.268 -1.2710  1.0240  0.2996
 7670SOL     OW34645   3.481   1.308   6.891  0.1040 -0.4882 -0.0615
 7670SOL    HW134646   3.566   1.296   6.933  0.9754 -1.8442 -2.1979
 7670SOL    HW234647   3.468   1.402   6.884  1.5069 -0.2849  0.2190
 7671SOL     OW34648   2.700   0.741  16.029 -0.3395  0.1649  0.1093
 7671SOL    HW134649   2.778   0.723  16.081  0.1580 -2.4046 -1.5547
 7671SOL    HW234650   2.674   0.829  16.057 -2.8136 -0.5984  0.2514
 7672SOL     OW34651   4.689   4.566  15.881  0.2020 -0.0830  0.4932
 7672SOL    HW134652   4.596   4.590  15.878 -0.1799 -1.5691  0.6501
 7672SOL    HW234653   4.702   4.556  15.975  0.3618 -0.6622  0.4111
 7673SOL     OW34654   1.102   3.685   4.883 -0.6462 -0.6598 -0.0269
 7673SOL    HW134655   1.194   3.692   4.907 -0.9178  1.0421  0.5416
 7673SOL    HW234656   1.074   3.616   4.943  0.7088 -0.4551  0.8324
 7674SOL     OW34657   4.132   4.338   6.410  0.4488 -0.4290 -0.3120
 7674SOL    HW134658   4.218   4.306   6.385  0.2229 -0.8321 -0.5605
 7674SOL    HW234659   4.138   4.434   6.403  1.0016 -0.3309  1.3348
 7675SOL     OW34660   4.129   2.288   7.793  0.1651 -0.1577 -0.2188
 7675SOL    HW134661   4.170   2.226   7.853  0.8198 -0.0216 -0.5239
 7675SOL    HW234662   4.041   2.250   7.788 -0.1908  0.5497  0.7795
 7676SOL     OW34663   1.660   3.869  17.706 -0.3871 -0.3656  0.0094
 7676SOL    HW134664   1.720   3.887  17.634 -2.7336  0.1510 -1.7900
 7676SOL    HW234665   1.623   3.784  17.681  1.2515 -0.4961 -2.0206
 7677SOL     OW34666   1.692   1.860   9.206 -0.2963  0.8890 -0.1603
 7677SOL    HW134667   1.693   1.806   9.127  0.7172  0.2561  0.2866
 7677SOL    HW234668   1.613   1.912   9.191  1.2313  2.7278 -1.8429
 7678SOL     OW34669   1.984   0.897   8.218 -0.2072  0.1461  0.0598
 7678SOL    HW134670   1.920   0.854   8.275  2.5167 -0.3973  2.7432
 7678SOL    HW234671   1.991   0.829   8.152  1.3455  0.3074  0.0643
 7679SOL     OW34672   4.327   0.498  12.939  0.0024  0.1643  0.1214
 7679SOL    HW134673   4.332   0.403  12.945 -0.1601  0.1874  0.6129
 7679SOL    HW234674   4.394   0.529  13.000 -1.0268  0.6089  1.0276
 7680SOL     OW34675   3.750   2.038  13.579 -0.9377  0.4154  0.1653
 7680SOL    HW134676   3.780   2.103  13.515  0.5957 -0.4463  0.0110
 7680SOL    HW234677   3.655   2.047  13.574 -1.1145 -1.5885  0.1071
 7681SOL     OW34678   3.343   1.652   7.210  0.6338 -0.2907  0.2992
 7681SOL    HW134679   3.350   1.741   7.245 -3.0721 -0.1803  0.7699
 7681SOL    HW234680   3.316   1.680   7.123  0.6500  1.8090  0.9770
 7682SOL     OW34681   0.233   0.964   9.891  0.4053  0.1933  0.2963
 7682SOL    HW134682   0.202   0.982   9.802 -0.0995 -0.5545  0.3181
 7682SOL    HW234683   0.320   1.002   9.895  0.1412  0.8795 -0.5571
 7683SOL     OW34684   3.959   3.441   2.920  0.0273 -0.1585 -0.0824
 7683SOL    HW134685   3.919   3.375   2.862  1.5934 -1.8563  0.7765
 7683SOL    HW234686   4.037   3.444   2.865 -0.9466 -2.1350 -1.5786
 7684SOL     OW34687   4.274   0.876   8.288  0.2187  0.4156  0.3216
 7684SOL    HW134688   4.331   0.901   8.360  0.3361 -0.3122  0.4806
 7684SOL    HW234689   4.332   0.825   8.231  0.2638 -0.3357  1.0423
 7685SOL     OW34690   2.615   3.334   0.007  0.2531 -0.4540 -0.4690
 7685SOL    HW134691   2.635   3.366   0.095 -0.5970 -0.7393 -0.1734
 7685SOL    HW234692   2.538   3.387  17.753  0.2877 -0.1393  0.1732
 7686SOL     OW34693   1.682   0.385   5.416  0.2347  0.5609  0.6165
 7686SOL    HW134694   1.640   0.419   5.495 -2.8533 -1.7374 -0.0334
 7686SOL    HW234695   1.769   0.422   5.430  0.1588  1.0001 -0.0298
 7687SOL     OW34696   1.150   2.342   2.207  0.3336  0.2283  0.3614
 7687SOL    HW134697   1.114   2.353   2.119 -3.4935  0.1942  1.9388
 7687SOL    HW234698   1.230   2.393   2.189 -0.1012  0.4568 -0.8821
 7688SOL     OW34699   3.060   0.868  11.530  0.3826  0.2864 -0.0125
 7688SOL    HW134700   3.028   0.842  11.617  1.4074  1.4357  0.6985
 7688SOL    HW234701   3.028   0.792  11.481 -0.3836  0.7197 -0.1872
 7689SOL     OW34702   3.628   3.512   7.277  0.0763 -0.2345  0.0115
 7689SOL    HW134703   3.606   3.582   7.216 -0.8948  0.2466  0.9255
 7689SOL    HW234704   3.723   3.521   7.284  0.2577 -1.6090 -0.6917
 7690SOL     OW34705   3.716   4.528  17.255 -0.4762  0.4014  0.0087
 7690SOL    HW134706   3.727   4.435  17.276  0.4206  0.8318  1.4169
 7690SOL    HW234707   3.667   4.555  17.333  1.0890  1.2837  0.6819
 7691SOL     OW34708   4.181   3.114   6.590  0.0984 -0.4340  0.7525
 7691SOL    HW134709   4.178   3.083   6.500  0.8395 -0.0584  0.5997
 7691SOL    HW234710   4.096   3.082   6.622 -0.3643 -1.5037 -1.5758
 7692SOL     OW34711   3.846   2.234   2.818  0.0422  0.2509  0.1243
 7692SOL    HW134712   3.881   2.267   2.900  1.3797  2.9146 -1.5315
 7692SOL    HW234713   3.921   2.201   2.769  1.1674  0.3289  1.8170
 7693SOL     OW34714   4.636   3.178  11.844  0.5117 -0.5095  0.0173
 7693SOL    HW134715   4.690   3.100  11.855 -0.6908 -1.1184  1.6567
 7693SOL    HW234716   4.679   3.210  11.765  1.7119 -0.5365  0.6576
 7694SOL     OW34717   3.584   4.017   3.240  0.0679 -0.2081 -0.0021
 7694SOL    HW134718   3.604   3.976   3.156 -1.4169  3.3644 -2.0698
 7694SOL    HW234719   3.536   4.092   3.208  0.6847  0.1707 -0.0489
 7695SOL     OW34720   3.822   0.573  10.251  0.0693 -0.0814 -0.3221
 7695SOL    HW134721   3.770   0.612  10.181 -0.3480  0.1988  0.1409
 7695SOL    HW234722   3.894   0.635  10.242 -0.3434  0.5763  0.9316
 7696SOL     OW34723   2.338   1.776   8.992 -0.2601  0.3175 -0.0987
 7696SOL    HW134724   2.303   1.863   8.971  0.5734  0.6197 -0.2773
 7696SOL    HW234725   2.360   1.783   9.085  0.2620  1.0038 -0.2722
 7697SOL     OW34726   4.378   3.194  11.273 -0.1633 -0.0301  0.0056
 7697SOL    HW134727   4.295   3.180  11.227 -0.5792  1.3383  0.3569
 7697SOL    HW234728   4.431   3.127  11.228 -1.5141 -1.3261  0.3333
 7698SOL     OW34729   3.944   2.581   7.025  0.0383 -0.2729  0.0528
 7698SOL    HW134730   3.865   2.601   7.075  0.8980 -1.9879  2.1122
 7698SOL    HW234731   3.905   2.547   6.945  0.6353  1.3577 -0.9270
 7699SOL     OW34732   0.789   1.073  10.353 -0.5989  0.0413 -0.0550
 7699SOL    HW134733   0.784   1.099  10.445  0.9873 -0.8177  0.2689
 7699SOL    HW234734   0.825   1.149  10.307 -0.1740 -0.0293  0.1576
 7700SOL     OW34735   4.169   3.918   1.065  0.3539 -0.7013 -0.1074
 7700SOL    HW134736   4.120   3.900   0.985  0.3889 -1.3487  0.0198
 7700SOL    HW234737   4.250   3.876   1.037  1.1536  0.8022 -0.0785
 7701SOL     OW34738   1.615   3.058   4.536  0.6238 -0.2400  0.5226
 7701SOL    HW134739   1.692   3.052   4.480  0.6073 -1.7870  0.6732
 7701SOL    HW234740   1.570   2.984   4.495  2.3505 -0.8339 -0.2855
 7702SOL     OW34741   0.834   3.308  12.426 -0.1014  0.4867  0.3532
 7702SOL    HW134742   0.853   3.224  12.468 -2.4834 -0.5251 -0.5717
 7702SOL    HW234743   0.876   3.287  12.343 -0.5388  1.7078 -0.1772
 7703SOL     OW34744   0.465   1.869   2.818 -0.4972  0.1506  0.3219
 7703SOL    HW134745   0.524   1.927   2.769  0.0019 -0.3097  0.3716
 7703SOL    HW234746   0.401   1.857   2.749  0.6594 -2.6726 -0.2664
 7704SOL     OW34747   3.792   1.570   4.914  0.1681 -0.3584  0.1999
 7704SOL    HW134748   3.788   1.489   4.966  1.0839  0.5443  1.6752
 7704SOL    HW234749   3.734   1.637   4.949 -1.6817 -1.5785 -0.5511
 7705SOL     OW34750   0.323   2.091   4.794  0.0021 -1.1288  0.2456
 7705SOL    HW134751   0.320   2.184   4.773 -2.7029 -0.5811  3.1190
 7705SOL    HW234752   0.328   2.100   4.889  2.3429 -0.1706  0.0362
 7706SOL     OW34753   1.929   4.649   4.827  0.2269 -0.4956 -0.4003
 7706SOL    HW134754   1.964   4.581   4.885  1.3063 -0.7252 -1.3402
 7706SOL    HW234755   1.836   4.630   4.838 -0.0585  0.8876 -0.4243
 7707SOL     OW34756   4.687   0.407   7.804  0.7496  0.2244 -0.5819
 7707SOL    HW134757   0.038   0.386   7.807  0.9086  0.7190 -1.9852
 7707SOL    HW234758   4.696   0.463   7.727  2.1398  0.7890 -0.0127
 7708SOL     OW34759   0.764   0.333   4.507 -0.5906 -0.1796  0.1534
 7708SOL    HW134760   0.709   0.408   4.486  0.9454  0.7539 -0.5657
 7708SOL    HW234761   0.705   0.259   4.491  1.5192 -1.6271 -0.9394
 7709SOL     OW34762   1.627   0.840   2.734 -0.1385 -0.5445  0.3059
 7709SOL    HW134763   1.684   0.811   2.804 -1.1386 -0.7113  1.0547
 7709SOL    HW234764   1.684   0.881   2.669 -2.3137 -0.2595 -1.4402
 7710SOL     OW34765   0.322   2.589  15.371  0.5677 -0.7987 -0.3357
 7710SOL    HW134766   0.287   2.678  15.361  0.3915 -0.8348 -0.0444
 7710SOL    HW234767   0.369   2.599  15.453  0.5518 -1.4672 -0.2464
 7711SOL     OW34768   3.766   0.183   5.313  0.2621  0.8983  0.2934
 7711SOL    HW134769   3.806   0.252   5.366 -1.9848  1.0851  1.7120
 7711SOL    HW234770   3.783   0.219   5.226 -2.5005 -0.9784 -0.9980
 7712SOL     OW34771   2.789   0.389   3.680 -0.0650 -0.5276  0.7328
 7712SOL    HW134772   2.845   0.391   3.758  0.4880 -1.6664  0.3608
 7712SOL    HW234773   2.766   0.297   3.667 -0.7519 -0.2790  0.1875
 7713SOL     OW34774   2.283   0.743   3.056  0.5783 -0.1521 -0.0981
 7713SOL    HW134775   2.377   0.724   3.057  0.6530  0.2420  0.8838
 7713SOL    HW234776   2.281   0.812   2.990  1.3535 -0.8598 -0.8555
 7714SOL     OW34777   2.758   3.128  11.353 -0.7517  0.7160  0.0387
 7714SOL    HW134778   2.715   3.152  11.435 -0.1145 -2.4614  1.2725
 7714SOL    HW234779   2.723   3.041  11.334 -1.5277  0.8708  0.7361
 7715SOL     OW34780   0.873   2.398   4.431  0.7188 -0.2655 -0.2151
 7715SOL    HW134781   0.955   2.429   4.468  0.5774  1.0499 -1.0351
 7715SOL    HW234782   0.899   2.307   4.449  0.3761  0.0050  1.6141
 7716SOL     OW34783   1.544   3.876  13.443  0.2820  0.0047  0.2020
 7716SOL    HW134784   1.627   3.874  13.491  0.7975  2.2892 -0.5992
 7716SOL    HW234785   1.477   3.830  13.494 -0.8940  0.1570 -1.2192
 7717SOL     OW34786   2.363   2.739   4.734 -0.1787  0.1758 -0.0006
 7717SOL    HW134787   2.375   2.808   4.800 -2.2535  0.4458  0.0693
 7717SOL    HW234788   2.310   2.790   4.673  1.2061  2.0666  0.3626
 7718SOL     OW34789   2.863   2.218   3.699 -0.2917 -0.0043  0.5905
 7718SOL    HW134790   2.862   2.199   3.792  1.9467  0.4498  0.7278
 7718SOL    HW234791   2.831   2.308   3.688  1.8826  0.9063  1.6651
 7719SOL     OW34792   3.255   4.528   8.625  0.0177  0.1066 -0.0892
 7719SOL    HW134793   3.347   4.505   8.608  0.1661 -0.8864  2.0368
 7719SOL    HW234794   3.237   4.587   8.552  1.3762  1.1451  0.4232
 7720SOL     OW34795   2.726   3.553   5.809 -0.6174  0.1622 -0.2228
 7720SOL    HW134796   2.667   3.551   5.885  1.2324  1.8393  1.2327
 7720SOL    HW234797   2.664   3.556   5.736 -1.7854 -0.2418  0.7282
 7721SOL     OW34798   0.194   4.287   2.000 -0.4364 -0.0080  0.2209
 7721SOL    HW134799   0.181   4.379   2.024  1.6787  0.0292  1.2756
 7721SOL    HW234800   0.159   4.249   2.081 -0.5067  2.3478  1.2793
 7722SOL     OW34801   3.157   1.912   8.817  0.4158  0.2497  0.6678
 7722SOL    HW134802   3.104   1.860   8.877 -0.0597  0.2107  0.2202
 7722SOL    HW234803   3.132   2.001   8.840 -1.5858  0.4495 -2.2206
 7723SOL     OW34804   1.769   1.614  10.712  0.2846  0.7793  0.1830
 7723SOL    HW134805   1.815   1.556  10.651  0.5397  1.1619  0.0120
 7723SOL    HW234806   1.776   1.571  10.797 -1.7810 -1.1953 -0.6564
 7724SOL     OW34807   4.223   4.598   1.438  0.0562 -0.5281 -0.8580
 7724SOL    HW134808   4.290   4.664   1.454 -0.3904  0.2621 -2.3042
 7724SOL    HW234809   4.173   4.604   1.520  0.1594 -0.7169 -0.7811
 7725SOL     OW34810   0.349   1.518   1.383  0.0280  0.0857 -0.0418
 7725SOL    HW134811   0.381   1.569   1.309  1.8927 -2.4459 -0.9373
 7725SOL    HW234812   0.290   1.453   1.345 -0.8345  0.7070  0.2417
 7726SOL     OW34813   2.593   1.142   2.890 -0.0579  0.0175  0.6308
 7726SOL    HW134814   2.676   1.135   2.938  0.4566 -2.2507 -0.5463
 7726SOL    HW234815   2.617   1.106   2.805 -0.4114 -0.7963  0.8733
 7727SOL     OW34816   0.912   4.336   4.937 -0.1877 -0.0382 -0.3548
 7727SOL    HW134817   0.923   4.310   4.846 -0.1316  2.1312 -0.9594
 7727SOL    HW234818   0.959   4.266   4.984 -0.5654 -1.3796 -1.9879
 7728SOL     OW34819   1.316   3.514   4.564 -0.3256 -0.4602  0.1783
 7728SOL    HW134820   1.411   3.514   4.554 -0.3232  1.0389  0.1978
 7728SOL    HW234821   1.300   3.427   4.526  0.3140 -0.7753  0.6491
 7729SOL     OW34822   0.602   3.334   5.775 -0.3677 -0.2769 -0.0586
 7729SOL    HW134823   0.507   3.325   5.776 -0.4717  0.8905  0.3092
 7729SOL    HW234824   0.618   3.363   5.865 -1.0083 -1.3889  0.4155
 7730SOL     OW34825   1.109   3.418  15.603  0.7260 -1.0606  0.4079
 7730SOL    HW134826   1.146   3.466  15.529 -1.3407 -1.1082 -0.6793
 7730SOL    HW234827   1.154   3.468  15.670  0.8058 -1.3859  0.5929
 7731SOL     OW34828   0.870   3.196   8.157  0.4488 -0.2773  0.6594
 7731SOL    HW134829   0.894   3.256   8.086  0.7750  1.2001  2.0218
 7731SOL    HW234830   0.790   3.238   8.190 -1.5643 -1.8154 -2.2497
 7732SOL     OW34831   2.254   4.741   8.684  0.5311 -0.5946 -0.5597
 7732SOL    HW134832   2.336   0.029   8.644  1.0850 -1.0462  0.2238
 7732SOL    HW234833   2.190   0.061   8.651 -0.4078  0.3383  3.0952
 7733SOL     OW34834   0.936   1.312   8.130  0.3465  0.1346 -0.2280
 7733SOL    HW134835   0.855   1.351   8.096 -0.9741 -0.9106  1.7681
 7733SOL    HW234836   0.964   1.386   8.184  0.2003 -0.5793  0.8117
 7734SOL     OW34837   1.136   3.926   4.155 -0.2273 -0.8001 -0.8741
 7734SOL    HW134838   1.183   3.846   4.179 -0.3770 -0.6910 -0.2318
 7734SOL    HW234839   1.173   3.942   4.068  1.5903  0.4215  0.1089
 7735SOL     OW34840   2.902   4.096   4.233  0.3775  0.1536  0.0414
 7735SOL    HW134841   2.945   4.072   4.315  0.5916 -1.3829 -0.5085
 7735SOL    HW234842   2.881   4.009   4.198 -1.1001 -0.4517  2.4198
 7736SOL     OW34843   4.442   4.521   4.940  0.4764 -0.1438  0.3779
 7736SOL    HW134844   4.474   4.542   4.852  1.4410 -2.2348  0.2502
 7736SOL    HW234845   4.376   4.454   4.925  2.1152 -1.2456 -1.8560
 7737SOL     OW34846   3.134   1.978   1.626  0.1722 -0.2311  0.3552
 7737SOL    HW134847   3.042   2.001   1.638  0.6767  2.1125 -0.2861
 7737SOL    HW234848   3.174   2.048   1.678  1.7753  0.3385 -1.6242
 7738SOL     OW34849   3.343   2.216  13.595 -0.7547  0.0143  0.6682
 7738SOL    HW134850   3.363   2.280  13.527 -2.4239  1.0788  1.1628
 7738SOL    HW234851   3.402   2.145  13.570 -1.7667 -0.5439 -0.1098
 7739SOL     OW34852   3.087   2.678   1.783  0.7518 -0.1819 -0.4635
 7739SOL    HW134853   3.154   2.715   1.840  1.6718 -1.4565 -0.7092
 7739SOL    HW234854   3.032   2.751   1.755 -0.7394 -1.4966 -0.9644
 7740SOL     OW34855   1.955   0.466   1.603 -0.0280  0.2829 -0.4963
 7740SOL    HW134856   1.965   0.412   1.525 -2.0731 -0.5018 -0.2051
 7740SOL    HW234857   1.875   0.424   1.636 -1.6736  1.6625 -2.8121
 7741SOL     OW34858   2.874   2.729  10.428 -0.2965  0.6635  0.0640
 7741SOL    HW134859   2.922   2.673  10.489  1.0579 -0.4120 -1.9859
 7741SOL    HW234860   2.945   2.765  10.374  0.5464 -0.4827  0.4102
 7742SOL     OW34861   1.214   1.927   2.779 -0.9331  0.3225 -0.4988
 7742SOL    HW134862   1.121   1.949   2.791 -1.1911 -0.5436 -0.8552
 7742SOL    HW234863   1.246   2.016   2.769 -1.0702  0.6085  1.7142
 7743SOL     OW34864   4.396   3.156  11.538 -0.7213  0.0670  0.0777
 7743SOL    HW134865   4.381   3.168  11.445  0.4044 -1.4277 -0.3118
 7743SOL    HW234866   4.304   3.153  11.566 -1.0063  0.6160 -0.8251
 7744SOL     OW34867   4.442   2.842   9.349  0.0251 -0.3397 -0.8526
 7744SOL    HW134868   4.506   2.777   9.322 -1.0929 -1.9889  0.4835
 7744SOL    HW234869   4.440   2.899   9.272 -1.2296  0.4507 -0.2297
 7745SOL     OW34870   2.549   0.788  14.194 -0.2283 -0.1475  0.3797
 7745SOL    HW134871   2.527   0.698  14.217  1.0344 -0.2597  1.1615
 7745SOL    HW234872   2.539   0.782  14.099  0.1445  2.9624  0.1452
 7746SOL     OW34873   0.360   3.820   3.707  0.1339 -0.4134 -0.4224
 7746SOL    HW134874   0.339   3.729   3.731 -0.3501 -0.3063 -0.4254
 7746SOL    HW234875   0.435   3.828   3.764 -0.2247  1.7839 -0.2670
 7747SOL     OW34876   4.131   2.623  12.980  0.8796  0.3786  0.1930
 7747SOL    HW134877   4.167   2.632  13.068  1.9556 -3.1454  0.0835
 7747SOL    HW234878   4.043   2.604  13.011  1.0539  0.7238  0.8986
 7748SOL     OW34879   2.913   2.922   4.752  0.6025  0.9316 -0.0018
 7748SOL    HW134880   2.827   2.888   4.778  0.6828  1.5664  1.0537
 7748SOL    HW234881   2.899   3.016   4.761 -0.5416  1.1245 -3.8188
 7749SOL     OW34882   2.470   1.206   8.858  0.3162  0.5231  0.1955
 7749SOL    HW134883   2.534   1.136   8.865 -0.6782 -0.5588 -1.5745
 7749SOL    HW234884   2.495   1.249   8.776  0.4769  0.3717  0.1663
 7750SOL     OW34885   3.290   0.144   6.048  0.4604  0.0186 -0.1177
 7750SOL    HW134886   3.263   0.104   5.966 -1.3792  3.2722 -1.1017
 7750SOL    HW234887   3.359   0.083   6.076  0.2504 -0.5238 -0.7885
 7751SOL     OW34888   2.486   1.681   1.554 -0.1669  0.1282 -0.2006
 7751SOL    HW134889   2.404   1.636   1.575  0.5014 -1.0996 -0.2121
 7751SOL    HW234890   2.478   1.767   1.594  1.6193 -0.2834  1.0407
 7752SOL     OW34891   3.555   0.054   2.052 -0.2850 -0.1803 -0.0711
 7752SOL    HW134892   3.610   4.735   2.004 -1.0980 -0.1968 -0.9742
 7752SOL    HW234893   3.620   0.118   2.083 -0.6661 -0.1393  0.6583
 7753SOL     OW34894   2.216   3.617   3.620  0.1708  0.5480 -0.0982
 7753SOL    HW134895   2.255   3.696   3.580 -0.6252  2.1358  2.3021
 7753SOL    HW234896   2.139   3.605   3.565  1.1607 -2.3182 -0.8440
 7754SOL     OW34897   2.267   0.897   4.022  0.3882 -0.0163  0.4047
 7754SOL    HW134898   2.224   0.815   4.047 -1.8456  1.9126  2.8451
 7754SOL    HW234899   2.223   0.922   3.940 -2.6113 -1.0158  1.7051
 7755SOL     OW34900   0.251   1.206   0.689 -0.2480 -0.3834 -0.1318
 7755SOL    HW134901   0.239   1.165   0.775 -0.7569  2.2110  1.0477
 7755SOL    HW234902   0.276   1.136   0.629  1.0433 -0.0296 -0.0100
 7756SOL     OW34903   4.284   4.689  15.612 -0.1671  0.1169 -0.1726
 7756SOL    HW134904   4.348   4.620  15.592 -1.3873 -0.8973 -0.6151
 7756SOL    HW234905   4.221   4.665  15.544  1.2217  1.4430 -1.9237
 7757SOL     OW34906   3.915   1.282  17.265  0.5372  0.0172 -0.2554
 7757SOL    HW134907   3.999   1.269  17.309 -0.7697 -0.8369  1.9663
 7757SOL    HW234908   3.939   1.303  17.174 -0.0636 -0.6703 -0.5671
 7758SOL     OW34909   0.680   3.739   7.041  0.2638 -0.3101 -0.0480
 7758SOL    HW134910   0.720   3.655   7.063  0.3950  0.2384  1.7891
 7758SOL    HW234911   0.651   3.762   7.129 -1.3721  0.4746 -0.8088
 7759SOL     OW34912   3.145   1.413   2.381 -0.3997 -0.3818  0.3206
 7759SOL    HW134913   3.155   1.319   2.394 -1.8396 -0.7069 -0.9339
 7759SOL    HW234914   3.113   1.433   2.469 -1.2420  0.5636 -0.2021
 7760SOL     OW34915   4.137   2.706  13.246  1.0925 -0.6478  0.1473
 7760SOL    HW134916   4.092   2.707  13.331 -0.7978 -3.2794 -0.8025
 7760SOL    HW234917   4.224   2.682  13.279  1.7336  2.8975  0.9680
 7761SOL     OW34918   4.425   3.303   2.627 -0.4270  0.1394  0.1393
 7761SOL    HW134919   4.516   3.326   2.646 -0.5930 -0.6693  1.9094
 7761SOL    HW234920   4.425   3.208   2.620 -1.8971  0.1956 -0.5011
 7762SOL     OW34921   0.050   3.733   2.923  0.3789 -0.2590 -0.4004
 7762SOL    HW134922   0.065   3.798   2.992  1.6493 -0.0327 -0.8712
 7762SOL    HW234923   0.138   3.725   2.886  0.0221 -0.1388 -1.2662
 7763SOL     OW34924   1.070   3.945   7.523  0.1968  0.2298  0.5333
 7763SOL    HW134925   0.975   3.946   7.531  0.5817  1.0429  4.7619
 7763SOL    HW234926   1.074   4.000   7.445  0.2342  0.6940  0.8650
 7764SOL     OW34927   3.641   3.325   8.396  0.0994 -0.3519  0.2917
 7764SOL    HW134928   3.611   3.416   8.403  0.6624 -0.1226 -0.2823
 7764SOL    HW234929   3.706   3.334   8.326  0.0824  2.1973  0.6167
 7765SOL     OW34930   2.652   3.753  12.737 -0.0934  0.3672 -0.3744
 7765SOL    HW134931   2.558   3.772  12.732 -0.2072  0.0786  0.5265
 7765SOL    HW234932   2.666   3.717  12.825 -0.5862  1.0858 -0.0022
 7766SOL     OW34933   1.996   3.460  12.376 -0.0428 -0.0548  0.3063
 7766SOL    HW134934   1.991   3.432  12.284 -1.2163 -0.4785  0.4952
 7766SOL    HW234935   1.931   3.395  12.403 -1.8048  0.8694 -1.6196
 7767SOL     OW34936   3.973   3.105  11.337 -0.0163 -0.2726  0.2653
 7767SOL    HW134937   4.023   3.172  11.291 -0.9876 -1.0678 -1.9658
 7767SOL    HW234938   3.962   3.038  11.269 -2.9151  1.7099 -1.1895
 7768SOL     OW34939   4.702   2.319   7.481 -0.1791  0.4797 -0.1346
 7768SOL    HW134940   0.054   2.322   7.495 -0.1416 -0.4241 -0.2156
 7768SOL    HW234941   4.687   2.240   7.534 -0.0780  0.2418 -0.4636
 7769SOL     OW34942   3.865   2.488  12.074 -0.4387 -0.3561 -0.0848
 7769SOL    HW134943   3.880   2.410  12.021 -0.5672 -0.0420 -0.5776
 7769SOL    HW234944   3.896   2.557  12.016 -0.8403  0.6099  0.8459
 7770SOL     OW34945   2.164   3.222   1.496 -0.5909  0.2636  0.5084
 7770SOL    HW134946   2.232   3.269   1.447 -2.1356  1.4724 -0.4621
 7770SOL    HW234947   2.142   3.146   1.443  0.9447  0.6983 -0.7846
 7771SOL     OW34948   3.910   1.303   8.442  0.4255 -0.2550  0.2260
 7771SOL    HW134949   3.836   1.327   8.386 -0.3114 -1.9384  0.4762
 7771SOL    HW234950   3.957   1.258   8.371  1.1120 -1.3087  1.3536
 7772SOL     OW34951   2.717   3.395  17.416 -0.1448  0.1667 -0.2406
 7772SOL    HW134952   2.755   3.308  17.428 -0.9685 -0.2145 -0.3654
 7772SOL    HW234953   2.653   3.375  17.346 -2.5300 -1.0680  2.2715
 7773SOL     OW34954   0.464   1.893   9.297  0.5967 -0.4283 -0.4093
 7773SOL    HW134955   0.414   1.837   9.356 -1.0177  0.9933 -0.4187
 7773SOL    HW234956   0.399   1.952   9.259 -0.4009 -1.3118 -0.0793
 7774SOL     OW34957   1.836   4.314  17.636  0.0808  0.3834  0.0128
 7774SOL    HW134958   1.880   4.263  17.568 -0.1280 -0.2808  0.3785
 7774SOL    HW234959   1.745   4.284  17.627 -0.5705  2.3766 -0.0561
 7775SOL     OW34960   1.605   3.134  13.709  0.1224 -0.3019 -0.2803
 7775SOL    HW134961   1.659   3.186  13.649  1.7654 -1.7292 -0.0355
 7775SOL    HW234962   1.666   3.114  13.779  0.8581 -0.0472 -0.8518
 7776SOL     OW34963   2.970   2.997  10.389  0.4255  0.6793  0.1074
 7776SOL    HW134964   3.030   3.071  10.385 -0.8778  1.8164  1.5905
 7776SOL    HW234965   2.947   2.986  10.297  2.5982  1.4276 -0.5155
 7777SOL     OW34966   4.135   1.923   6.617 -0.4397  0.3984  0.6441
 7777SOL    HW134967   4.171   1.965   6.539 -1.4490  1.6771  0.8545
 7777SOL    HW234968   4.064   1.866   6.588  0.6199 -0.5769  0.0250
 7778SOL     OW34969   4.192   0.785   3.260  0.2055  0.0295  0.4592
 7778SOL    HW134970   4.223   0.793   3.170 -0.4151  2.4365  0.4749
 7778SOL    HW234971   4.175   0.691   3.258 -0.8199  0.2566 -0.7452
 7779SOL     OW34972   2.418   3.490   8.794 -0.5350 -0.7106 -0.0654
 7779SOL    HW134973   2.330   3.472   8.759 -0.6005 -0.1316 -0.1943
 7779SOL    HW234974   2.423   3.411   8.848  2.7812  1.4808  2.8267
 7780SOL     OW34975   3.357   2.917   9.321  0.1750 -0.0845  0.1491
 7780SOL    HW134976   3.397   2.970   9.252 -0.2690  0.7903  0.5652
 7780SOL    HW234977   3.276   2.962   9.345 -0.5197 -1.4540  0.3707
 7781SOL     OW34978   0.664   4.153   6.042  0.5102 -0.4211 -0.1860
 7781SOL    HW134979   0.580   4.108   6.031  0.1506 -0.1095  1.2839
 7781SOL    HW234980   0.661   4.220   5.974 -1.5337 -1.1294 -0.7794
 7782SOL     OW34981   3.036   3.917   0.233  0.2712  0.1273  0.0396
 7782SOL    HW134982   3.047   3.975   0.309 -0.2982  0.6545 -0.2868
 7782SOL    HW234983   3.092   3.850   0.273  0.9034  0.6503  0.0271
 7783SOL     OW34984   4.625   2.797   1.631 -0.7175 -0.1501 -0.1355
 7783SOL    HW134985   4.682   2.734   1.674 -1.9689 -0.8372  0.4996
 7783SOL    HW234986   4.618   2.866   1.697 -0.6608 -0.8397  0.5897
 7784SOL     OW34987   3.105   0.288  13.307 -0.1722  0.5471  0.2119
 7784SOL    HW134988   3.086   0.254  13.394 -1.6388  0.3317 -0.1919
 7784SOL    HW234989   3.022   0.328  13.283 -1.1971 -1.7461 -0.1007
 7785SOL     OW34990   4.327   1.309   6.747 -0.0436 -0.1515  0.5652
 7785SOL    HW134991   4.255   1.357   6.705 -0.1068  1.2599  2.3243
 7785SOL    HW234992   4.278   1.235   6.782 -0.9678  0.8790  1.4476
 7786SOL     OW34993   2.068   4.561   8.630  0.6333 -0.1598 -0.0404
 7786SOL    HW134994   2.117   4.633   8.670  0.7894  0.5840 -1.5821
 7786SOL    HW234995   2.108   4.557   8.543 -1.3553  1.1366 -1.0111
 7787SOL     OW34996   2.308   3.125   6.002  0.1109  0.2715  0.0515
 7787SOL    HW134997   2.256   3.044   6.009 -0.2970  0.6509  1.5983
 7787SOL    HW234998   2.253   3.191   5.959  1.2516 -0.1634 -2.0418
 7788SOL     OW34999   3.605   1.272  14.228 -0.7150  0.0223 -0.4993
 7788SOL    HW135000   3.592   1.354  14.275  0.0269  1.7585 -3.3832
 7788SOL    HW235001   3.610   1.303  14.138 -0.5633  0.5790 -0.2946
 7789SOL     OW35002   3.061   2.678   2.333  0.1582 -0.1994  0.2339
 7789SOL    HW135003   3.075   2.687   2.427  0.5036 -0.9212  0.2504
 7789SOL    HW235004   3.027   2.588   2.328 -0.8095  0.1873 -0.1825
 7790SOL     OW35005   1.804   2.533   5.760  0.0494 -0.2225 -0.4681
 7790SOL    HW135006   1.759   2.483   5.828  2.7834  0.8098  2.0629
 7790SOL    HW235007   1.863   2.467   5.724 -0.5199 -0.7396 -0.4611
 7791SOL     OW35008   2.656   3.010   2.721  0.1269  0.2042 -0.1548
 7791SOL    HW135009   2.630   3.016   2.629 -0.7534  0.3386  0.1083
 7791SOL    HW235010   2.581   2.970   2.765 -0.1341 -0.8003 -1.5090
 7792SOL     OW35011   0.321   0.605   1.222  0.1375  0.6084  0.5073
 7792SOL    HW135012   0.278   0.526   1.254 -1.5351  0.3451 -2.3440
 7792SOL    HW235013   0.334   0.652   1.304 -1.0929  0.2384  0.9149
 7793SOL     OW35014   2.669   4.708   3.887 -0.4495 -0.2083 -0.3946
 7793SOL    HW135015   2.652   4.679   3.977  2.1821 -2.0166 -0.4760
 7793SOL    HW235016   2.735   4.644   3.860  2.4132  3.0184 -0.9551
 7794SOL     OW35017   1.005   3.169   6.272  0.4008  0.0928  0.1954
 7794SOL    HW135018   1.017   3.078   6.244  0.0854  0.1395 -0.0795
 7794SOL    HW235019   0.915   3.179   6.244 -0.3849 -1.7897  2.0156
 7795SOL     OW35020   2.743   3.759  14.400  0.5185 -1.2611  0.3675
 7795SOL    HW135021   2.657   3.726  14.426  1.3775 -1.5382  2.8662
 7795SOL    HW235022   2.793   3.752  14.482 -1.4438 -1.5767  1.5475
 7796SOL     OW35023   0.330   2.481  14.919 -0.4180 -0.1385  0.3621
 7796SOL    HW135024   0.308   2.574  14.918  0.8676  0.1700  1.3149
 7796SOL    HW235025   0.291   2.435  14.845 -0.7899  1.4703 -0.4423
 7797SOL     OW35026   0.495   2.774  14.593  0.3063 -0.0106  0.7912
 7797SOL    HW135027   0.527   2.685  14.607  0.1604 -0.1229  0.3977
 7797SOL    HW235028   0.519   2.789  14.502  0.3644 -0.3146  0.7567
 7798SOL     OW35029   4.322   0.711   4.277 -0.7539 -0.8186 -0.2470
 7798SOL    HW135030   4.262   0.745   4.211 -1.1783 -1.1677 -0.0335
 7798SOL    HW235031   4.385   0.671   4.217  1.6633 -0.8620  2.3081
 7799SOL     OW35032   4.016   2.835   7.253 -0.0801  0.1183 -0.2723
 7799SOL    HW135033   4.071   2.907   7.221  1.6533 -1.6740 -1.3300
 7799SOL    HW235034   4.063   2.762   7.212 -0.0448  1.0498 -1.9128
 7800SOL     OW35035   0.522   0.820   2.511  0.0107 -0.1105 -0.4353
 7800SOL    HW135036   0.610   0.827   2.546 -0.8875  0.5061  1.6828
 7800SOL    HW235037   0.497   0.731   2.537  1.6113 -0.3541  0.2142
 7801SOL     OW35038   0.913   0.832   4.281 -0.2147 -0.1785  0.4426
 7801SOL    HW135039   0.964   0.912   4.267  1.8707 -1.4676  0.6944
 7801SOL    HW235040   0.865   0.826   4.198  2.5264  1.3757 -1.2514
 7802SOL     OW35041   4.228   0.859  13.667  0.2950 -0.0366  0.0935
 7802SOL    HW135042   4.197   0.885  13.581  0.1466 -0.4131  0.0366
 7802SOL    HW235043   4.311   0.824  13.634  0.0226 -0.6772  0.0895
 7803SOL     OW35044   1.803   3.951   6.166  0.3337 -0.1264 -0.9794
 7803SOL    HW135045   1.768   3.969   6.079 -2.4221  1.3020  0.4061
 7803SOL    HW235046   1.737   3.990   6.224  1.0556 -2.7536  1.6206
 7804SOL     OW35047   2.909   1.777   9.260 -0.4542  0.1310 -0.0321
 7804SOL    HW135048   2.963   1.828   9.321 -0.6945 -0.0155  0.3069
 7804SOL    HW235049   2.901   1.696   9.311 -4.3594 -0.1022 -1.0220
 7805SOL     OW35050   3.477   0.421   8.238  0.1152  0.1534  0.6011
 7805SOL    HW135051   3.512   0.431   8.327 -0.5262  1.5760  0.7047
 7805SOL    HW235052   3.444   0.511   8.232 -2.6124 -0.8603  0.7268
 7806SOL     OW35053   4.093   3.449  17.708 -0.0239 -0.0791  0.4338
 7806SOL    HW135054   4.079   3.355  17.722 -0.7480 -0.0535 -0.1665
 7806SOL    HW235055   4.189   3.456  17.705 -0.0946  0.9011  0.3667
 7807SOL     OW35056   2.217   1.518   8.543 -0.4990 -0.2064  0.0667
 7807SOL    HW135057   2.230   1.525   8.448  1.3076  1.8279  0.4565
 7807SOL    HW235058   2.227   1.608   8.577  2.6828 -1.5143  2.6578
 7808SOL     OW35059   1.542   2.477   8.697 -0.1770 -0.4671  0.0297
 7808SOL    HW135060   1.576   2.493   8.785  0.0228 -3.5380  0.4797
 7808SOL    HW235061   1.583   2.391   8.687  2.1729  0.5076  1.1533
 7809SOL     OW35062   3.905   0.249   8.057 -0.3976 -0.3871  0.0940
 7809SOL    HW135063   3.954   0.167   8.045  1.0599  0.4562  0.2833
 7809SOL    HW235064   3.821   0.231   8.016 -0.7150 -1.4306  1.1830
 7810SOL     OW35065   2.756   0.733   2.531 -0.1788 -0.2578 -0.3395
 7810SOL    HW135066   2.751   0.693   2.444 -0.7102 -2.4571  0.7081
 7810SOL    HW235067   2.698   0.683   2.589 -0.9341  2.3627  1.1347
 7811SOL     OW35068   0.855   2.121  15.097  0.2132 -0.0224  0.2300
 7811SOL    HW135069   0.904   2.199  15.073  0.2545 -0.5293 -1.3317
 7811SOL    HW235070   0.770   2.149  15.132  0.1751  0.6890 -0.4509
 7812SOL     OW35071   4.123   3.731   1.722 -0.3093 -0.3504 -0.4513
 7812SOL    HW135072   4.164   3.724   1.636 -1.0893  1.2646 -0.9543
 7812SOL    HW235073   4.186   3.791   1.763 -0.8740  0.9104 -1.4505
 7813SOL     OW35074   2.883   2.270   4.747  0.7458  0.0776  0.6548
 7813SOL    HW135075   2.866   2.266   4.841 -0.3328  0.8989  0.4907
 7813SOL    HW235076   2.901   2.364   4.746 -0.9612  0.3702 -3.8423
 7814SOL     OW35077   3.881   1.257   3.221 -0.2623 -0.1834 -0.0536
 7814SOL    HW135078   3.969   1.251   3.258 -1.2496 -0.8511  2.1961
 7814SOL    HW235079   3.900   1.314   3.146 -1.0388 -1.5724 -1.3032
 7815SOL     OW35080   0.060   4.308  15.827 -0.9144 -0.4865 -0.3187
 7815SOL    HW135081   0.026   4.396  15.839  0.5491  0.0651 -0.2430
 7815SOL    HW235082   0.052   4.306  15.732  2.4311  1.9095 -0.6048
 7816SOL     OW35083   2.779   0.933  11.595  0.1910 -0.5064  0.3130
 7816SOL    HW135084   2.698   0.883  11.599  0.3163 -0.8594 -1.6402
 7816SOL    HW235085   2.825   0.890  11.668 -1.7898 -0.7175  1.4226
 7817SOL     OW35086   2.972   3.423   2.520  0.1758 -0.3387  0.6815
 7817SOL    HW135087   2.890   3.375   2.527  0.1824 -0.2681  1.2419
 7817SOL    HW235088   2.977   3.456   2.610 -0.8651  0.8675  0.3008
 7818SOL     OW35089   1.955   2.704   5.072  0.0164  0.1848  0.0055
 7818SOL    HW135090   1.963   2.781   5.129 -1.5337  0.4725 -0.1483
 7818SOL    HW235091   2.039   2.665   5.097  0.2309 -0.3727 -1.6256
 7819SOL     OW35092   3.634   2.064   2.847  0.3062  0.0813 -0.1733
 7819SOL    HW135093   3.708   2.124   2.845  2.2773 -2.3408  0.2096
 7819SOL    HW235094   3.575   2.118   2.900 -0.0052  0.9736 -1.4002
 7820SOL     OW35095   2.224   3.414   7.169  0.2588 -0.0606 -0.2105
 7820SOL    HW135096   2.190   3.426   7.080 -0.7979 -0.8066  0.0918
 7820SOL    HW235097   2.313   3.440   7.148  0.8109 -0.8691  1.1884
 7821SOL     OW35098   3.452   0.898   9.959  0.5833 -0.8627 -0.1162
 7821SOL    HW135099   3.433   0.934  10.045  0.4016  1.7457 -1.2424
 7821SOL    HW235100   3.378   0.842   9.937 -0.7039  0.0250  1.9984
 7822SOL     OW35101   1.008   0.485   6.132 -0.5762 -0.4100  0.7603
 7822SOL    HW135102   1.020   0.576   6.159 -1.5086 -0.3191  0.8716
 7822SOL    HW235103   1.039   0.482   6.041 -0.6660  1.2177  0.6799
 7823SOL     OW35104   1.173   4.512   5.041  0.2938 -0.3165 -0.5007
 7823SOL    HW135105   1.091   4.466   5.020 -0.1531  0.2566 -0.0172
 7823SOL    HW235106   1.164   4.599   5.000  0.3470 -0.5767 -1.0708
 7824SOL     OW35107   2.988   3.305   2.773  0.2085 -0.3945 -0.5579
 7824SOL    HW135108   3.002   3.271   2.861  0.5521  1.3424  0.0513
 7824SOL    HW235109   3.056   3.263   2.720  1.5733 -0.1406  0.9796
 7825SOL     OW35110   2.370   3.461   9.984 -0.1957  0.0183  0.3137
 7825SOL    HW135111   2.338   3.375   9.956  1.6751 -1.0885  1.5586
 7825SOL    HW235112   2.295   3.484  10.039  1.7544 -0.9786  3.3708
 7826SOL     OW35113   2.991   4.435   5.067  0.2829  0.7847  0.0759
 7826SOL    HW135114   3.008   4.493   5.140  0.5953 -0.0228  0.6409
 7826SOL    HW235115   2.898   4.446   5.044  0.5643  0.2657 -1.3580
 7827SOL     OW35116   3.171   0.294   7.119 -0.2284 -0.0422 -0.0257
 7827SOL    HW135117   3.138   0.221   7.066  1.0422 -0.4108 -0.2967
 7827SOL    HW235118   3.090   0.345   7.110  0.1071 -0.0247 -2.8914
 7828SOL     OW35119   3.677   0.291  17.181 -0.1774 -0.4732  0.0426
 7828SOL    HW135120   3.592   0.261  17.215 -1.3882  2.4723 -0.3512
 7828SOL    HW235121   3.655   0.297  17.088  0.0519 -0.8073 -0.0335
 7829SOL     OW35122   2.096   3.926   3.283  0.0274 -0.6529 -0.2790
 7829SOL    HW135123   2.005   3.933   3.254 -0.1683 -1.9177  0.0356
 7829SOL    HW235124   2.138   3.977   3.215 -1.5157  0.3109 -0.5121
 7830SOL     OW35125   3.592   2.146   9.075 -0.6144 -0.4060  0.7121
 7830SOL    HW135126   3.584   2.171   9.167  4.6643  0.5894  0.9381
 7830SOL    HW235127   3.530   2.206   9.034 -0.4555 -0.8877 -0.2313
 7831SOL     OW35128   1.857   1.771   3.968 -0.1669  0.4157  0.6885
 7831SOL    HW135129   1.866   1.821   4.050  2.9387  1.8943 -0.5911
 7831SOL    HW235130   1.855   1.684   4.009  4.4770  0.3721  0.7468
 7832SOL     OW35131   3.553   1.520   6.661 -0.3125 -0.6926  0.0316
 7832SOL    HW135132   3.614   1.485   6.726 -0.0922 -0.3529  0.0023
 7832SOL    HW235133   3.473   1.547   6.707  0.4043 -1.1904  1.5702
 7833SOL     OW35134   2.543   2.238   6.144 -0.0633 -0.0011  1.0490
 7833SOL    HW135135   2.507   2.173   6.084  1.1703  1.9375 -1.7768
 7833SOL    HW235136   2.509   2.203   6.227  2.2909 -1.5021  1.3799
 7834SOL     OW35137   2.034   0.610   3.138  0.0910 -0.0138  0.3169
 7834SOL    HW135138   2.048   0.520   3.108  2.5509 -0.4308  2.7711
 7834SOL    HW235139   2.115   0.647   3.103  1.0822 -1.5055  1.0238
 7835SOL     OW35140   2.151   1.790  16.536  0.1766 -0.3174 -0.4745
 7835SOL    HW135141   2.227   1.812  16.483 -0.7753  1.5552 -1.0613
 7835SOL    HW235142   2.081   1.799  16.471  0.6630  1.9128 -0.6971
 7836SOL     OW35143   3.599   1.940   2.100  0.5248 -0.0067  0.0646
 7836SOL    HW135144   3.568   1.851   2.112  0.8479 -0.0780  0.3521
 7836SOL    HW235145   3.538   1.987   2.043  0.3299  1.4583  1.4531
 7837SOL     OW35146   0.787   1.360   2.266 -0.4161 -0.1724 -0.2921
 7837SOL    HW135147   0.711   1.345   2.323 -0.8431  2.3400 -0.1759
 7837SOL    HW235148   0.859   1.311   2.305  0.3453  1.0463 -0.1556
 7838SOL     OW35149   1.363   2.206   1.186 -0.2253  0.5632 -0.1880
 7838SOL    HW135150   1.400   2.276   1.133 -0.1621  1.4566  1.0476
 7838SOL    HW235151   1.315   2.250   1.256  1.8435  1.7010  0.4913
 7839SOL     OW35152   3.126   0.801   5.478 -0.4689 -0.2380  0.0090
 7839SOL    HW135153   3.206   0.807   5.530  0.6193 -0.7620 -1.6015
 7839SOL    HW235154   3.063   0.806   5.549 -0.6755 -0.2872 -0.1720
 7840SOL     OW35155   3.539   2.149   5.446  0.0360  0.0275  0.0692
 7840SOL    HW135156   3.500   2.221   5.397  0.1562 -0.3445 -0.5705
 7840SOL    HW235157   3.631   2.167   5.428  0.1448 -1.3167 -0.6805
 7841SOL     OW35158   3.166   2.005   3.017 -0.4336  0.4030 -0.1439
 7841SOL    HW135159   3.140   2.096   3.027  0.2346  0.6564 -0.7548
 7841SOL    HW235160   3.158   1.973   3.107 -1.8879 -1.0763 -0.7874
 7842SOL     OW35161   2.916   4.001   1.524 -0.1884 -0.4710 -0.3219
 7842SOL    HW135162   2.944   3.909   1.531  0.8202 -0.4098 -3.8698
 7842SOL    HW235163   3.002   4.043   1.524  0.0655 -0.9891 -1.8676
 7843SOL     OW35164   3.539   0.196  10.755 -0.1337 -0.1580 -0.0846
 7843SOL    HW135165   3.445   0.203  10.766 -0.3645 -2.6974 -0.5016
 7843SOL    HW235166   3.563   0.275  10.706  1.5977 -0.4879  0.2179
 7844SOL     OW35167   0.065   2.418   0.674  0.5138  0.0280 -0.6364
 7844SOL    HW135168   0.000   2.409   0.604  0.2111  1.9861 -0.6019
 7844SOL    HW235169   0.144   2.406   0.622 -1.0027 -1.4512 -2.6103
 7845SOL     OW35170   2.855   3.735   8.565 -0.2328 -0.2726  0.1963
 7845SOL    HW135171   2.914   3.722   8.491  1.9573  0.5789  1.8129
 7845SOL    HW235172   2.919   3.769   8.627  1.8194 -0.0595 -2.0653
 7846SOL     OW35173   4.160   4.040   6.523  0.2401 -0.1702 -0.3712
 7846SOL    HW135174   4.217   4.117   6.522  0.1751 -0.1333 -1.7328
 7846SOL    HW235175   4.116   4.049   6.438  1.5123  0.2482 -0.9988
 7847SOL     OW35176   0.462   3.527  15.853 -0.6525 -0.2097 -0.1088
 7847SOL    HW135177   0.539   3.472  15.847  0.5978  1.6446 -1.2281
 7847SOL    HW235178   0.440   3.518  15.946 -3.3502  0.1620 -0.6945
 7848SOL     OW35179   2.848   3.133   6.030  0.3104 -0.1661 -0.2488
 7848SOL    HW135180   2.837   3.227   6.012 -1.7456 -0.7112 -1.7888
 7848SOL    HW235181   2.755   3.112   6.042 -0.2634  2.0459 -0.7296
 7849SOL     OW35182   0.626   1.156  13.016  0.6089  0.3132  0.3822
 7849SOL    HW135183   0.540   1.141  13.053  1.0961 -2.3216  0.4518
 7849SOL    HW235184   0.621   1.096  12.941  1.3701 -0.7715  1.1934
 7850SOL     OW35185   1.719   0.820  13.552  0.6017  0.2256  0.7143
 7850SOL    HW135186   1.715   0.881  13.625 -0.5626  1.3519 -0.2961
 7850SOL    HW235187   1.698   0.876  13.477  0.8585  1.1846  1.3648
 7851SOL     OW35188   1.226   2.413   6.282  0.3901 -0.0550  0.6082
 7851SOL    HW135189   1.154   2.475   6.269  0.4597 -0.0239  0.3827
 7851SOL    HW235190   1.169   2.337   6.273 -1.6503  1.1484  3.1506
 7852SOL     OW35191   3.636   3.679   3.178  0.5849  0.4211  0.4135
 7852SOL    HW135192   3.715   3.657   3.226  1.0444  0.6935 -0.2151
 7852SOL    HW235193   3.619   3.594   3.137  0.2167 -0.2894  2.0364
 7853SOL     OW35194   3.488   4.496   3.041  0.1273  0.6331 -0.0328
 7853SOL    HW135195   3.414   4.435   3.043  2.0081 -1.6655 -1.4133
 7853SOL    HW235196   3.442   4.578   3.060  0.0684  0.6365 -0.1948
 7854SOL     OW35197   2.352   0.532   1.483  0.7737 -0.0019 -0.1168
 7854SOL    HW135198   2.377   0.493   1.566  0.6349  1.7066  0.7111
 7854SOL    HW235199   2.422   0.594   1.462  1.5224 -0.3588  1.3346
 7855SOL     OW35200   0.360   0.750   5.838 -0.3453 -0.0481  0.2501
 7855SOL    HW135201   0.281   0.700   5.821  0.9107 -0.4813 -4.1484
 7855SOL    HW235202   0.316   0.819   5.888 -0.9228 -0.9976  1.0404
 7856SOL     OW35203   1.945   2.907  17.271 -0.0745 -0.2741  0.2231
 7856SOL    HW135204   1.905   2.981  17.223  2.0566  0.6108 -0.1779
 7856SOL    HW235205   2.038   2.925  17.259 -0.1889  0.4615  0.4412
 7857SOL     OW35206   2.556   4.209   9.369 -0.3813  0.1765  0.4085
 7857SOL    HW135207   2.478   4.153   9.368  0.7563 -1.4051 -1.1511
 7857SOL    HW235208   2.606   4.191   9.289 -0.2448 -0.8164  0.7202
 7858SOL     OW35209   0.484   3.240   0.261  0.1036 -0.2836 -0.6676
 7858SOL    HW135210   0.481   3.161   0.315  1.7451 -0.7463 -1.2597
 7858SOL    HW235211   0.397   3.278   0.273 -0.1092 -1.5718  1.7937
 7859SOL     OW35212   0.789   0.550  15.474  0.2520  0.2240  0.1303
 7859SOL    HW135213   0.855   0.486  15.502 -2.4544 -2.2863  0.7483
 7859SOL    HW235214   0.840   0.630  15.463 -2.0392  1.8079  1.1568
 7860SOL     OW35215   4.336   1.780  13.581 -0.7447  0.1241  0.5032
 7860SOL    HW135216   4.428   1.797  13.602 -1.2534  2.3202  1.0080
 7860SOL    HW235217   4.345   1.712  13.515 -1.3841 -0.4395  1.0116
 7861SOL     OW35218   2.988   1.319   4.976 -0.0992 -0.0040 -0.3102
 7861SOL    HW135219   3.011   1.304   5.068  0.0505  0.9157 -0.2001
 7861SOL    HW235220   2.939   1.401   4.981 -0.3081 -0.1308 -0.3070
 7862SOL     OW35221   3.173   4.689   6.968  1.0709  0.0648 -0.4843
 7862SOL    HW135222   3.213   4.630   7.032 -1.0633  0.3906  1.1376
 7862SOL    HW235223   3.232   0.022   6.968  1.6290 -0.3832  0.6752
 7863SOL     OW35224   2.218   3.236   9.955 -0.3092  0.3306  0.3803
 7863SOL    HW135225   2.178   3.263   9.873  0.1570  1.9438  0.6855
 7863SOL    HW235226   2.137   3.223  10.005 -1.0587 -0.2644 -0.9904
 7864SOL     OW35227   0.889   4.534   8.473  0.0326  0.2997 -0.7016
 7864SOL    HW135228   0.913   4.623   8.446 -2.9187  0.3994 -3.0264
 7864SOL    HW235229   0.975   4.495   8.488 -0.2596  0.0077  0.1463
 7865SOL     OW35230   1.798   1.297  13.758  0.0323 -0.2358 -0.9171
 7865SOL    HW135231   1.881   1.329  13.792  0.0285  0.2857 -1.4066
 7865SOL    HW235232   1.750   1.380  13.754  1.6195  0.7781  1.5407
 7866SOL     OW35233   2.000   1.217   8.550 -0.0645  0.3247  0.2745
 7866SOL    HW135234   1.921   1.187   8.506  0.6930  0.3184 -1.0704
 7866SOL    HW235235   2.070   1.187   8.493 -0.5138  1.2763 -0.7759
 7867SOL     OW35236   0.541   4.530   2.089 -0.6599  0.0146 -0.1443
 7867SOL    HW135237   0.559   4.474   2.164  2.2957 -0.5516 -1.2455
 7867SOL    HW235238   0.450   4.554   2.102 -0.9373 -1.3727  0.4878
 7868SOL     OW35239   2.614   3.501   7.996 -0.2571 -0.4699  0.2005
 7868SOL    HW135240   2.612   3.457   8.081 -2.7405 -0.7453 -0.0011
 7868SOL    HW235241   2.566   3.583   7.992 -0.1042 -0.2886  1.9247
 7869SOL     OW35242   2.511   0.757  16.410  0.0017  0.5958  0.3674
 7869SOL    HW135243   2.448   0.816  16.452 -1.3250 -0.8427  0.3823
 7869SOL    HW235244   2.562   0.818  16.355  0.2063 -1.0865 -1.2982
 7870SOL     OW35245   0.846   3.717   1.420 -0.1482  0.1004 -0.4379
 7870SOL    HW135246   0.845   3.809   1.395 -0.3270  0.3604  0.5267
 7870SOL    HW235247   0.928   3.687   1.382  0.0914  0.1397  0.0512
 7871SOL     OW35248   0.897   0.773   7.893 -0.2434 -0.3235  0.2778
 7871SOL    HW135249   0.991   0.762   7.910 -0.3280 -0.7903  0.4700
 7871SOL    HW235250   0.871   0.732   7.976 -2.1759 -0.5668 -0.4508
 7872SOL     OW35251   2.527   0.617   5.625 -0.0936 -0.0721  0.6090
 7872SOL    HW135252   2.442   0.583   5.652 -0.2785 -0.2659 -0.2373
 7872SOL    HW235253   2.508   0.653   5.539  2.8375 -3.3188 -1.3662
 7873SOL     OW35254   1.359   1.799   2.582 -0.0483  0.0406 -0.1452
 7873SOL    HW135255   1.452   1.806   2.605 -0.0072  2.0557 -0.9529
 7873SOL    HW235256   1.317   1.833   2.661 -0.7618 -2.4794  0.5540
 7874SOL     OW35257   3.579   1.296   6.075 -0.2952  0.4748  0.5275
 7874SOL    HW135258   3.516   1.321   6.006  0.9996  1.5542 -0.2617
 7874SOL    HW235259   3.520   1.303   6.150 -0.3455 -2.3488  0.7590
 7875SOL     OW35260   0.099   2.213   4.609  0.0738 -0.3392  0.4761
 7875SOL    HW135261   0.154   2.147   4.568 -0.4694 -0.6105  0.1838
 7875SOL    HW235262   0.014   2.170   4.601 -0.0126 -0.3041  1.2444
 7876SOL     OW35263   2.870   3.231   2.298 -0.3480 -0.8261 -0.0106
 7876SOL    HW135264   2.944   3.291   2.287  0.0702 -1.2297  0.6296
 7876SOL    HW235265   2.797   3.291   2.311  0.6124  0.3590 -0.1064
 7877SOL     OW35266   2.882   1.867  10.438  0.4814  0.3244 -0.3638
 7877SOL    HW135267   2.844   1.955  10.436 -3.1380 -1.1917  0.4600
 7877SOL    HW235268   2.817   1.806  10.474  0.6647  0.9679  1.0405
 7878SOL     OW35269   0.771   3.479   0.541 -0.1465  0.6885 -0.0608
 7878SOL    HW135270   0.773   3.454   0.449 -2.6950  0.6867 -0.1047
 7878SOL    HW235271   0.817   3.563   0.542  1.3301 -0.1000 -1.8666
 7879SOL     OW35272   1.050   0.930   7.095  0.0204 -0.0337 -0.4684
 7879SOL    HW135273   1.105   0.852   7.095  0.0840  0.0164 -1.6915
 7879SOL    HW235274   1.070   0.970   7.011 -1.2472 -1.2408 -1.3498
 7880SOL     OW35275   3.932   1.151   8.933  0.0139 -0.0242  0.2854
 7880SOL    HW135276   3.890   1.097   8.866 -1.1685  0.1432  0.8946
 7880SOL    HW235277   3.881   1.150   9.014  0.1477 -0.3152  0.3674
 7881SOL     OW35278   2.236   0.836   7.911 -0.1259 -0.2693 -0.0669
 7881SOL    HW135279   2.201   0.923   7.896  2.3619  0.3307 -2.4282
 7881SOL    HW235280   2.316   0.853   7.961 -0.4867 -1.2873  0.8688
 7882SOL     OW35281   2.608   0.824  17.359  0.0468  0.1544 -0.4049
 7882SOL    HW135282   2.618   0.768  17.436 -2.5694  0.4122  0.1330
 7882SOL    HW235283   2.538   0.774  17.316  2.2395 -3.0453 -0.3002
 7883SOL     OW35284   3.438   4.263   7.450 -0.0930 -0.1707  0.4176
 7883SOL    HW135285   3.461   4.225   7.535  1.0951  0.6709  0.4665
 7883SOL    HW235286   3.485   4.195   7.402  0.2859  0.7687 -0.5190
 7884SOL     OW35287   1.202   2.492  11.627  0.2696  0.0300 -0.1921
 7884SOL    HW135288   1.287   2.453  11.606  0.3537  0.6371 -0.9735
 7884SOL    HW235289   1.145   2.420  11.653  0.4910 -0.3034 -0.6206
 7885SOL     OW35290   3.328   1.430   2.693 -0.2588 -0.0075 -0.4514
 7885SOL    HW135291   3.253   1.388   2.735  0.7499 -0.9048  0.4608
 7885SOL    HW235292   3.286   1.502   2.647  0.2294  0.7828  0.3364
 7886SOL     OW35293   2.138   4.366   3.239  0.0016 -0.6097 -0.0271
 7886SOL    HW135294   2.217   4.351   3.187 -0.4681  0.3229 -1.0071
 7886SOL    HW235295   2.135   4.280   3.280 -2.8387 -0.7896 -0.6206
 7887SOL     OW35296   4.225   1.007   2.452 -0.2339  0.1037  0.5503
 7887SOL    HW135297   4.276   0.935   2.490 -0.8671 -1.0713 -0.8240
 7887SOL    HW235298   4.266   1.083   2.494  1.1387  1.1387 -2.5885
 7888SOL     OW35299   1.541   4.729   7.101 -0.3687  0.2620 -0.2507
 7888SOL    HW135300   1.590   4.651   7.076 -0.5478  0.0707 -0.0103
 7888SOL    HW235301   1.600   0.042   7.152  0.8618  0.0693 -1.4542
 7889SOL     OW35302   1.706   0.258   5.166 -0.2809  0.0657 -0.5096
 7889SOL    HW135303   1.742   0.173   5.191 -1.1093  0.2009  1.1753
 7889SOL    HW235304   1.689   0.298   5.251  0.1698 -0.4459 -0.1761
 7890SOL     OW35305   1.372   1.901   5.723 -0.2840  0.2650  0.0875
 7890SOL    HW135306   1.451   1.924   5.675 -0.5952  0.9482 -0.0996
 7890SOL    HW235307   1.328   1.985   5.735 -1.1419  0.0643 -1.5807
 7891SOL     OW35308   0.013   2.265  10.245  0.2754  0.1758 -0.0428
 7891SOL    HW135309   4.741   2.256  10.339 -0.6528  0.4544 -0.1706
 7891SOL    HW235310   0.033   2.171  10.239  0.8776  0.2073  1.6700
 7892SOL     OW35311   1.685   3.031  14.099 -0.2602  0.0678 -0.2054
 7892SOL    HW135312   1.606   3.083  14.113 -0.0343  0.3218  0.1419
 7892SOL    HW235313   1.733   3.085  14.036 -0.0967  1.0898  0.7967
 7893SOL     OW35314   2.965   1.020   2.727 -0.7473 -0.0412  0.1581
 7893SOL    HW135315   2.979   1.044   2.635 -3.2486 -1.6300 -0.6131
 7893SOL    HW235316   3.025   0.947   2.741  0.6827  1.1838  0.5285
 7894SOL     OW35317   1.445   2.337   1.630 -0.1445  0.1552 -0.0144
 7894SOL    HW135318   1.541   2.339   1.636 -0.0442 -1.0190 -1.1966
 7894SOL    HW235319   1.433   2.274   1.702  1.2176 -1.0574 -0.8303
 7895SOL     OW35320   4.129   2.688   4.127 -0.4244  0.0269  0.3554
 7895SOL    HW135321   4.205   2.629   4.130 -1.2129 -1.0185 -0.0098
 7895SOL    HW235322   4.123   2.671   4.033  0.4247  0.3673  0.2398
 7896SOL     OW35323   3.394   4.242  15.065  0.0748 -0.6449 -0.6069
 7896SOL    HW135324   3.324   4.265  15.127 -0.8531 -1.7600 -1.2378
 7896SOL    HW235325   3.451   4.315  15.086 -2.3849  1.7377 -2.1953
 7897SOL     OW35326   1.742   2.076   2.798 -0.0100  0.4414 -0.3544
 7897SOL    HW135327   1.813   2.128   2.760 -0.1816  1.1536  0.2888
 7897SOL    HW235328   1.782   2.040   2.877 -1.1091 -1.5468 -0.7020
 7898SOL     OW35329   4.337   1.630   3.891 -0.2996 -0.8349 -0.1227
 7898SOL    HW135330   4.339   1.596   3.980 -1.6037 -2.7367 -0.8390
 7898SOL    HW235331   4.273   1.698   3.910  0.3422 -0.2023 -0.1895
 7899SOL     OW35332   0.904   2.494   8.225  0.3865  0.2885 -0.3147
 7899SOL    HW135333   0.837   2.552   8.187 -0.2384 -1.1940 -1.4876
 7899SOL    HW235334   0.923   2.537   8.309  0.0805  0.9574 -0.5826
 7900SOL     OW35335   3.989   4.649   8.354  0.4435  0.5154  0.8184
 7900SOL    HW135336   4.081   4.634   8.378  0.1900 -1.0042  0.8120
 7900SOL    HW235337   4.012   4.680   8.266  0.4812 -0.2356  0.5678
 7901SOL     OW35338   1.092   3.137  13.371  0.0920 -0.6024 -0.2532
 7901SOL    HW135339   1.008   3.178  13.347 -0.5467 -0.2852  2.4993
 7901SOL    HW235340   1.069   3.069  13.433 -0.8263 -0.6998 -0.6979
 7902SOL     OW35341   2.931   4.469   0.408 -0.2499 -0.1405  0.3634
 7902SOL    HW135342   2.849   4.511   0.382 -1.0641 -2.7555 -1.3408
 7902SOL    HW235343   2.897   4.460   0.497 -2.2733 -0.7231 -0.4682
 7903SOL     OW35344   0.005   2.469   1.354  0.4668 -0.1765 -0.4328
 7903SOL    HW135345   0.067   2.541   1.359 -0.0503  0.1938  0.5407
 7903SOL    HW235346   0.016   2.437   1.444  1.3807  2.6436  0.4599
 7904SOL     OW35347   3.397   4.127   8.438 -0.1740 -0.1673 -0.0519
 7904SOL    HW135348   3.486   4.099   8.417  0.0691 -0.4613  1.4034
 7904SOL    HW235349   3.413   4.156   8.528  2.1582  0.0990 -0.5564
 7905SOL     OW35350   2.956   2.906  11.342 -0.1871  0.1292  0.1886
 7905SOL    HW135351   2.986   2.922  11.253  1.7258 -0.1664  0.7830
 7905SOL    HW235352   2.941   2.994  11.377  1.0969 -0.1972  1.5637
 7906SOL     OW35353   4.715   3.388  14.928 -0.1777  0.3547  0.3369
 7906SOL    HW135354   4.657   3.381  14.853  3.6237  0.4125 -2.6189
 7906SOL    HW235355   0.037   3.456  14.908  0.9759 -0.5983  0.8096
 7907SOL     OW35356   0.891   0.379   2.640  0.0207 -0.8042 -0.0595
 7907SOL    HW135357   0.809   0.396   2.685  0.4354  1.2973 -0.0971
 7907SOL    HW235358   0.924   0.468   2.624  1.6173 -1.3691  0.0628
 7908SOL     OW35359   0.303   3.637   8.631  0.7372 -0.7443 -0.6141
 7908SOL    HW135360   0.381   3.638   8.687  0.9573 -2.3160 -0.8964
 7908SOL    HW235361   0.256   3.562   8.666 -2.2620  1.5122  0.1302
 7909SOL     OW35362   2.621   3.179  11.563  0.0413 -0.2847 -0.6833
 7909SOL    HW135363   2.563   3.103  11.562 -0.3335 -0.0245  1.7934
 7909SOL    HW235364   2.591   3.209  11.648  0.1460  1.0353 -1.1233
 7910SOL     OW35365   0.873   4.056  17.318  0.3309 -0.4587 -0.7282
 7910SOL    HW135366   0.893   3.999  17.244  0.9590 -0.8575 -0.2558
 7910SOL    HW235367   0.916   4.137  17.294 -0.0066 -0.8147 -2.5116
 7911SOL     OW35368   4.080   2.751  12.735 -0.4010  0.6118 -0.5424
 7911SOL    HW135369   3.991   2.784  12.721  0.1493  1.0049 -3.2002
 7911SOL    HW235370   4.091   2.737  12.829 -1.6608 -1.4693 -0.7098
 7912SOL     OW35371   0.713   2.195   2.846 -0.2502  0.3531 -0.5152
 7912SOL    HW135372   0.772   2.265   2.819  0.0114  0.8677  1.3982
 7912SOL    HW235373   0.736   2.185   2.938 -1.8594 -0.0386 -0.1551
 7913SOL     OW35374   2.999   2.952  13.259 -0.0471 -0.3498  0.4097
 7913SOL    HW135375   2.939   2.909  13.320 -0.0378  0.2266  0.8280
 7913SOL    HW235376   3.083   2.917  13.288 -0.9435  0.4987  4.0269
 7914SOL     OW35377   2.224   3.330   4.238  0.2050 -0.2530 -0.4934
 7914SOL    HW135378   2.180   3.412   4.260  0.0713 -0.1282 -1.2326
 7914SOL    HW235379   2.300   3.353   4.186  1.1476  1.6238  1.6937
 7915SOL     OW35380   4.023   3.482   8.066 -0.2331  0.0047 -0.2324
 7915SOL    HW135381   4.010   3.480   7.971  0.7504  0.2578 -0.3721
 7915SOL    HW235382   4.111   3.446   8.063 -0.6165 -0.8824 -0.7855
 7916SOL     OW35383   2.081   3.399   5.881  0.3450 -0.4487 -0.1561
 7916SOL    HW135384   2.012   3.360   5.935  1.0915 -0.3426  0.8947
 7916SOL    HW235385   2.073   3.339   5.808 -2.4850 -0.7917  0.4439
 7917SOL     OW35386   0.561   1.847   8.276 -0.7501  0.1071 -0.1417
 7917SOL    HW135387   0.567   1.753   8.258 -0.4370  0.1156 -0.0837
 7917SOL    HW235388   0.468   1.866   8.271 -0.8519 -0.4633 -0.4571
 7918SOL     OW35389   2.242   1.521   7.117  0.3883  0.8331 -0.2159
 7918SOL    HW135390   2.173   1.478   7.168  0.9181 -0.8455 -0.9546
 7918SOL    HW235391   2.314   1.458   7.123 -2.1637 -1.9027  1.6829
 7919SOL     OW35392   2.821   4.066   2.175  0.1084 -0.3711 -0.0960
 7919SOL    HW135393   2.834   3.971   2.174  0.1927 -0.3765  1.6773
 7919SOL    HW235394   2.894   4.090   2.118 -2.2671  0.4227 -2.8429
 7920SOL     OW35395   1.261   4.599   1.684  0.2091 -0.1396  0.0166
 7920SOL    HW135396   1.272   4.621   1.591  0.3338  0.1965  0.1109
 7920SOL    HW235397   1.194   4.663   1.708 -0.2460 -0.8535  0.6285
 7921SOL     OW35398   3.701   1.359   7.029  0.7709 -0.0268 -0.2992
 7921SOL    HW135399   3.674   1.421   7.096  0.4519  0.1289 -0.5759
 7921SOL    HW235400   3.762   1.303   7.079 -0.8584  0.6312  2.4094
 7922SOL     OW35401   3.550   2.918   3.621  0.2099  0.3594 -0.0215
 7922SOL    HW135402   3.611   2.875   3.562  0.8997  1.8526 -0.4023
 7922SOL    HW235403   3.520   2.842   3.672  0.4277  1.4285  1.7078
 7923SOL     OW35404   1.279   1.958   8.504 -0.1572  0.0205  0.1211
 7923SOL    HW135405   1.254   2.030   8.447  0.4426 -0.0902 -0.2770
 7923SOL    HW235406   1.367   1.948   8.469  0.3200  0.7363  1.1064
 7924SOL     OW35407   4.124   3.057   8.245  0.5148 -0.2467 -0.1463
 7924SOL    HW135408   4.115   3.041   8.151 -1.7093  2.2501 -0.3625
 7924SOL    HW235409   4.090   2.974   8.277  0.4932  0.2735  1.1842
 7925SOL     OW35410   4.529   2.515   7.560 -0.4163  0.2140 -0.2796
 7925SOL    HW135411   4.545   2.504   7.653 -0.3266  1.3898 -0.1550
 7925SOL    HW235412   4.592   2.450   7.529 -1.5909 -2.4787  2.9543
 7926SOL     OW35413   4.061   3.579   4.730 -0.2854 -0.4533  0.2197
 7926SOL    HW135414   4.048   3.674   4.737  1.9265  0.1498 -3.6127
 7926SOL    HW235415   3.987   3.544   4.779 -1.3986  0.2033 -0.9917
 7927SOL     OW35416   2.761   4.239   3.163  0.6081 -0.4579  0.6013
 7927SOL    HW135417   2.844   4.285   3.176  0.7245 -0.5882  0.3160
 7927SOL    HW235418   2.748   4.261   3.071 -1.2077 -0.8112  0.7738
 7928SOL     OW35419   3.764   3.330   8.726 -0.6445  0.8353  0.6647
 7928SOL    HW135420   3.843   3.276   8.737  1.1768  3.2243 -0.6424
 7928SOL    HW235421   3.786   3.357   8.636 -2.8889  0.2792 -0.0346
 7929SOL     OW35422   0.494   1.368   4.504  0.7563 -0.3543 -0.2695
 7929SOL    HW135423   0.428   1.365   4.572  0.9415 -0.1002 -0.0803
 7929SOL    HW235424   0.448   1.324   4.433  0.6669 -0.2451 -0.2792
 7930SOL     OW35425   2.895   0.801  12.531 -0.6765  0.4200 -0.2059
 7930SOL    HW135426   2.816   0.852  12.511 -1.8666 -1.4086 -0.2193
 7930SOL    HW235427   2.855   0.715  12.542 -0.6423  0.5108  0.6107
 7931SOL     OW35428   3.701   2.331  11.262 -0.3399 -0.5143 -0.8429
 7931SOL    HW135429   3.760   2.310  11.334  0.0939 -1.7530 -1.5648
 7931SOL    HW235430   3.725   2.259  11.204  1.8590  0.6813 -1.4178
 7932SOL     OW35431   2.718   1.220  17.198  0.1046 -0.6669  0.3905
 7932SOL    HW135432   2.675   1.275  17.132 -1.7296 -2.0818  0.3993
 7932SOL    HW235433   2.805   1.260  17.197  1.0946 -2.7628  1.1191
 7933SOL     OW35434   0.864   0.606   1.941  0.2079  0.5432 -0.0903
 7933SOL    HW135435   0.769   0.610   1.942  0.1853  0.0356 -0.4137
 7933SOL    HW235436   0.883   0.699   1.948 -0.8310  0.7007  0.5912
 7934SOL     OW35437   4.689   4.259   4.648 -0.4059  0.4698  0.3381
 7934SOL    HW135438   0.041   4.262   4.661 -0.8507 -2.3208  4.0948
 7934SOL    HW235439   4.672   4.165   4.654  1.7240  0.1984  2.0302
 7935SOL     OW35440   2.379   2.900   1.333 -0.6975 -0.3970  0.3912
 7935SOL    HW135441   2.363   2.992   1.309 -0.9266 -0.0699  1.7507
 7935SOL    HW235442   2.427   2.917   1.414  0.9008  0.0213 -0.6377
 7936SOL     OW35443   2.473   4.085   1.685 -0.8604  0.1758  0.2435
 7936SOL    HW135444   2.398   4.025   1.687 -1.7421  1.3304  1.8227
 7936SOL    HW235445   2.548   4.030   1.665 -0.6587  0.3664  0.4768
 7937SOL     OW35446   2.462   2.490   7.775 -0.0260 -0.3002 -0.2291
 7937SOL    HW135447   2.551   2.516   7.798 -0.4082 -2.0179  3.2693
 7937SOL    HW235448   2.417   2.553   7.832  0.8828 -0.3482  0.5407
 7938SOL     OW35449   4.441   2.267   2.752  0.2498 -0.0535 -0.1465
 7938SOL    HW135450   4.447   2.270   2.656 -0.1614 -1.0659 -0.2014
 7938SOL    HW235451   4.431   2.357   2.782  1.3374 -0.2306  0.7493
 7939SOL     OW35452   1.244   3.380   3.883  0.2073 -0.0387 -0.2427
 7939SOL    HW135453   1.243   3.473   3.860 -0.1452 -0.1316 -0.5920
 7939SOL    HW235454   1.284   3.338   3.806 -1.1474  0.2278 -1.0817
 7940SOL     OW35455   2.905   2.886   1.730  0.1415  0.8706 -0.1573
 7940SOL    HW135456   2.872   2.970   1.695 -0.7236  0.6702  0.1634
 7940SOL    HW235457   2.929   2.918   1.817  0.5545  0.6493 -0.1945
 7941SOL     OW35458   0.418   3.552   4.085 -0.4490 -0.0893  0.2638
 7941SOL    HW135459   0.399   3.582   4.174 -0.3956  1.7583 -0.3562
 7941SOL    HW235460   0.452   3.464   4.100  0.7393  0.4359  0.6266
 7942SOL     OW35461   2.082   1.087   2.592  0.7118  0.1859 -0.4247
 7942SOL    HW135462   2.012   1.042   2.544 -1.3736  2.5196  0.4232
 7942SOL    HW235463   2.144   1.013   2.598 -0.9585 -1.1647  0.2090
 7943SOL     OW35464   4.207   3.596   3.889 -0.2095 -0.1957 -0.0942
 7943SOL    HW135465   4.168   3.612   3.803  1.5107 -0.2927 -0.8839
 7943SOL    HW235466   4.283   3.546   3.860 -0.2317  0.0820 -0.6338
 7944SOL     OW35467   0.329   4.711  10.023 -0.0750  0.0585 -0.7351
 7944SOL    HW135468   0.364   4.726  10.111  0.1873 -0.6100 -0.7242
 7944SOL    HW235469   0.260   0.034  10.027  0.8134  0.9658 -0.4274
 7945SOL     OW35470   3.292   1.119   7.099 -0.0442  0.1568  0.9128
 7945SOL    HW135471   3.208   1.164   7.107 -0.7863 -1.1870  0.5757
 7945SOL    HW235472   3.309   1.141   7.007 -1.0186 -1.1134  0.4298
 7946SOL     OW35473   2.619   0.543  14.668 -0.1902  0.1011 -0.0355
 7946SOL    HW135474   2.684   0.571  14.732  1.5164  0.4952 -1.9361
 7946SOL    HW235475   2.675   0.496  14.606 -0.2452  0.4900 -0.3844
 7947SOL     OW35476   2.892   2.919  14.591 -0.2708 -0.1734  0.3274
 7947SOL    HW135477   2.869   2.999  14.545  0.1119  0.9089  1.9779
 7947SOL    HW235478   2.848   2.924  14.676 -1.4121  2.9628 -0.4547
 7948SOL     OW35479   1.049   4.309   2.824  0.1360 -0.6496 -0.2114
 7948SOL    HW135480   1.110   4.239   2.849  2.6939  1.8023  0.4002
 7948SOL    HW235481   0.977   4.303   2.888 -0.9257  0.6634 -1.2942
 7949SOL     OW35482   1.143   3.025   2.293  0.1332 -0.2408 -0.1036
 7949SOL    HW135483   1.116   3.080   2.366  0.5973 -0.2948  0.1140
 7949SOL    HW235484   1.207   3.082   2.251 -1.6227  0.9014 -1.2235
 7950SOL     OW35485   3.286   1.893  12.843 -0.4992  0.7958  0.1039
 7950SOL    HW135486   3.277   1.798  12.850  1.4369  0.5911 -0.3671
 7950SOL    HW235487   3.213   1.908  12.783 -1.2326  0.6479  0.9470
 7951SOL     OW35488   4.600   3.479   7.364 -0.6615  0.6391 -0.3367
 7951SOL    HW135489   4.547   3.482   7.444  0.7983  2.3906  0.5643
 7951SOL    HW235490   4.692   3.494   7.385 -0.7700  0.5043  0.2266
 7952SOL     OW35491   1.861   4.338   0.997 -0.4073  0.4009  0.1062
 7952SOL    HW135492   1.823   4.352   1.083 -1.3133 -2.1451  0.0995
 7952SOL    HW235493   1.949   4.304   1.013 -0.4207 -0.0984 -0.8731
 7953SOL     OW35494   1.617   1.129  12.145 -0.4749  0.7922  0.1587
 7953SOL    HW135495   1.649   1.161  12.229  0.8086  0.2642 -0.1275
 7953SOL    HW235496   1.674   1.052  12.136  1.2935  2.1896 -0.4484
 7954SOL     OW35497   0.972   1.500   9.015 -0.6997 -0.0072  0.3924
 7954SOL    HW135498   0.916   1.489   8.938  0.4817  2.0514 -0.7866
 7954SOL    HW235499   0.980   1.409   9.042  1.3096 -0.0706 -0.4035
 7955SOL     OW35500   4.569   3.341  10.887  0.1278  0.6485  0.6659
 7955SOL    HW135501   4.642   3.382  10.841 -0.1823 -1.5068 -1.8118
 7955SOL    HW235502   4.495   3.369  10.832 -0.6250 -0.5142  1.0798
 7956SOL     OW35503   0.749   0.715   2.252  0.6018 -0.1755 -0.3961
 7956SOL    HW135504   0.692   0.708   2.176  2.2113  0.5046 -1.6476
 7956SOL    HW235505   0.689   0.694   2.324  0.3493 -1.3499 -0.9495
 7957SOL     OW35506   0.805   1.906   5.451  0.3923  0.1182  0.3846
 7957SOL    HW135507   0.756   1.841   5.501  3.7891 -2.5571  0.2111
 7957SOL    HW235508   0.735   1.968   5.430 -0.5490 -1.2635 -0.6396
 7958SOL     OW35509   2.524   2.901   6.262  0.4642  0.4287 -0.3133
 7958SOL    HW135510   2.524   2.806   6.272 -0.1028  0.5083  0.4068
 7958SOL    HW235511   2.445   2.921   6.312  0.4369  0.5063 -0.3879
 7959SOL     OW35512   4.253   1.815   2.228  0.0855 -0.4749 -0.5258
 7959SOL    HW135513   4.227   1.773   2.146 -1.2961 -3.4106  1.4261
 7959SOL    HW235514   4.165   1.802   2.262  0.0459  0.0131 -0.4413
 7960SOL     OW35515   4.242   2.090   6.901  0.5551  0.3298 -0.3128
 7960SOL    HW135516   4.231   2.184   6.913  0.0905  0.2594 -0.1967
 7960SOL    HW235517   4.190   2.075   6.822  0.3694  0.7328 -0.2647
 7961SOL     OW35518   3.200   2.471   1.985  0.1961 -0.0961 -0.2251
 7961SOL    HW135519   3.254   2.418   2.043  0.1121 -0.7603 -0.7587
 7961SOL    HW235520   3.147   2.402   1.945  1.0983 -0.4498 -0.8001
 7962SOL     OW35521   1.764   3.209   6.237 -0.0649  0.1252 -0.0618
 7962SOL    HW135522   1.792   3.224   6.327 -0.1544 -1.3536  0.2134
 7962SOL    HW235523   1.689   3.150   6.246 -1.5454  2.1292  0.6139
 7963SOL     OW35524   1.017   3.618   5.537 -0.2340  0.3836  0.0971
 7963SOL    HW135525   0.977   3.577   5.614 -0.3379 -0.4028 -0.3746
 7963SOL    HW235526   0.956   3.607   5.465 -1.3357  2.7202  0.6812
 7964SOL     OW35527   1.372   3.274  11.068  0.1282 -0.5728  0.0790
 7964SOL    HW135528   1.465   3.295  11.076 -0.4586  2.1157 -0.1484
 7964SOL    HW235529   1.333   3.359  11.092 -1.6538 -1.6708  1.1035
 7965SOL     OW35530   4.454   0.597  17.694  0.0861 -0.5458  0.2485
 7965SOL    HW135531   4.427   0.506  17.706  1.2055 -0.9346 -0.1817
 7965SOL    HW235532   4.547   0.584  17.673  0.2413  2.4745 -0.9476
 7966SOL     OW35533   4.450   1.150  17.753  0.3128  0.5646 -0.9814
 7966SOL    HW135534   4.396   1.072  17.761 -0.8821  1.5669  0.7584
 7966SOL    HW235535   4.409   1.210   0.048  0.5366 -0.4497  0.1336
 7967SOL     OW35536   0.554   2.106   7.246 -0.3889 -0.3793 -0.0300
 7967SOL    HW135537   0.599   2.030   7.210  1.3863  0.1196  1.1644
 7967SOL    HW235538   0.500   2.130   7.170  0.7825  3.1248  0.2317
 7968SOL     OW35539   1.946   3.380  16.182 -0.4872  0.5208 -0.1359
 7968SOL    HW135540   1.993   3.463  16.191 -0.3337  0.4359 -0.1537
 7968SOL    HW235541   2.014   3.325  16.143 -0.5431  1.1566 -1.1573
 7969SOL     OW35542   4.003   3.087   1.803  0.5899 -0.0652  0.0256
 7969SOL    HW135543   3.974   3.107   1.714 -0.2346  0.6054  0.4463
 7969SOL    HW235544   4.028   2.995   1.792  1.4568  0.4838 -2.4780
 7970SOL     OW35545   0.846   1.813   7.628  0.2908  0.4140  0.1812
 7970SOL    HW135546   0.896   1.732   7.638 -0.3920 -0.1455 -0.9537
 7970SOL    HW235547   0.776   1.790   7.568  1.5220  0.7211 -1.3778
 7971SOL     OW35548   4.158   4.720   2.447  0.1132 -0.5460 -0.2415
 7971SOL    HW135549   4.217   4.671   2.505 -0.4501 -0.8889  0.0495
 7971SOL    HW235550   4.202   0.055   2.414  1.0497  0.2406  2.8642
 7972SOL     OW35551   0.126   0.584   8.852  0.0059 -0.0557  0.4296
 7972SOL    HW135552   0.115   0.495   8.884 -0.5577 -0.1973 -0.1412
 7972SOL    HW235553   0.153   0.634   8.929 -0.6759 -0.2716  0.8058
 7973SOL     OW35554   4.642   4.233   0.978  0.1680  0.1254 -0.6128
 7973SOL    HW135555   4.619   4.175   1.051  3.4643 -0.0860  0.2934
 7973SOL    HW235556   4.602   4.183   0.907  2.0641 -1.7017 -0.4126
 7974SOL     OW35557   2.491   1.850   4.430  0.5564  0.6385  0.2032
 7974SOL    HW135558   2.397   1.844   4.413  0.3335  0.1844  1.6042
 7974SOL    HW235559   2.519   1.868   4.340 -0.8199  1.3906 -0.0744
 7975SOL     OW35560   3.161   1.660   3.213 -0.2058 -0.2343 -0.4294
 7975SOL    HW135561   3.141   1.754   3.214  0.8152 -0.0027 -1.8491
 7975SOL    HW235562   3.252   1.676   3.190 -0.4630  0.4903 -0.9526
 7976SOL     OW35563   0.974   0.336   2.994 -0.1640  0.3298 -0.4617
 7976SOL    HW135564   1.040   0.344   2.924  0.9657  1.2134  0.7045
 7976SOL    HW235565   0.889   0.321   2.953 -0.2220  1.8438 -0.9169
 7977SOL     OW35566   3.932   1.957  10.231 -0.2228 -0.3320  0.3898
 7977SOL    HW135567   3.977   2.024  10.180 -1.8907 -1.3964 -2.4767
 7977SOL    HW235568   3.886   1.910  10.161  0.4944  1.7950 -1.4938
 7978SOL     OW35569   0.550   1.252   5.014 -0.3728 -0.2259 -0.4127
 7978SOL    HW135570   0.618   1.303   5.057 -1.6826 -1.1282  2.7655
 7978SOL    HW235571   0.596   1.230   4.933  2.3736 -1.2298  1.4328
 7979SOL     OW35572   3.575   2.225   3.742  0.9349  0.4890  0.2244
 7979SOL    HW135573   3.663   2.201   3.713  0.4166 -0.3142 -0.6712
 7979SOL    HW235574   3.573   2.181   3.828  1.4560 -2.2286 -1.1536
 7980SOL     OW35575   4.460   0.784   5.102 -0.4969  0.3198  0.0790
 7980SOL    HW135576   4.427   0.756   5.187  1.0274 -0.4213  0.4294
 7980SOL    HW235577   4.377   0.817   5.067 -0.0089 -0.4009 -1.7889
 7981SOL     OW35578   4.584   1.645  16.825  0.0746  0.0969  0.1596
 7981SOL    HW135579   4.656   1.680  16.774  0.4197  2.3621  2.2516
 7981SOL    HW235580   4.601   1.694  16.905 -1.7712  0.9386  0.0346
 7982SOL     OW35581   2.979   1.046   4.816 -0.1096 -0.7231  0.1089
 7982SOL    HW135582   3.038   1.029   4.743 -2.7333 -2.8675 -1.4996
 7982SOL    HW235583   3.035   1.112   4.857  1.0471 -0.7991 -1.3671
 7983SOL     OW35584   4.499   4.534   2.412 -0.7798  0.0093 -0.3316
 7983SOL    HW135585   4.442   4.534   2.488  0.7867 -0.3560  0.8508
 7983SOL    HW235586   4.479   4.445   2.385  0.8029 -0.4198 -0.0738
 7984SOL     OW35587   3.972   0.821   5.124 -0.3156 -0.3591  0.4682
 7984SOL    HW135588   3.889   0.781   5.098  0.9019 -1.0037 -2.3834
 7984SOL    HW235589   3.994   0.780   5.208  0.9646 -0.5049  0.0574
 7985SOL     OW35590   1.510   0.019   2.899  0.3360 -0.2464 -0.5674
 7985SOL    HW135591   1.589   0.014   2.844  0.2848  0.1644 -0.6819
 7985SOL    HW235592   1.507   0.112   2.922 -0.9514 -0.0512 -1.5266
 7986SOL     OW35593   1.867   2.748   6.388  0.0387  0.0694  0.2093
 7986SOL    HW135594   1.912   2.815   6.335 -1.6900  0.5298 -0.6863
 7986SOL    HW235595   1.889   2.669   6.339  2.6507  0.9499 -0.0600
 7987SOL     OW35596   3.829   3.030   0.905  0.2354 -0.1515 -0.2068
 7987SOL    HW135597   3.889   2.956   0.914  1.3767  0.9695  1.4568
 7987SOL    HW235598   3.764   3.004   0.970  1.8927  2.2292  2.4623
 7988SOL     OW35599   1.407   1.558   1.989 -0.3531  0.0246 -0.1855
 7988SOL    HW135600   1.446   1.617   1.925  0.0553 -2.3000 -2.0780
 7988SOL    HW235601   1.353   1.501   1.934 -0.8813 -1.7354  2.1942
 7989SOL     OW35602   4.448   4.340  11.401 -0.5103 -0.4067  0.1733
 7989SOL    HW135603   4.537   4.356  11.433 -1.0661  0.4514  1.3097
 7989SOL    HW235604   4.396   4.389  11.465 -0.4608  0.4279 -0.4305
 7990SOL     OW35605   3.955   3.257  16.038 -0.0222  0.1383  0.4735
 7990SOL    HW135606   3.930   3.333  15.986  2.5222  1.2105  0.8311
 7990SOL    HW235607   4.044   3.244  16.005 -0.9335  0.5497 -2.1907
 7991SOL     OW35608   1.658   3.916   2.801 -0.3683 -1.0594  0.0230
 7991SOL    HW135609   1.653   4.007   2.769  0.5446 -1.8410 -2.3158
 7991SOL    HW235610   1.597   3.881   2.736  1.0699 -0.8676 -1.4178
 7992SOL     OW35611   4.439   0.167  15.495 -0.1679  0.2659  0.7195
 7992SOL    HW135612   4.369   0.232  15.481 -0.7440 -0.4075  0.4649
 7992SOL    HW235613   4.391   0.099  15.542  1.2729 -1.9191 -0.9872
 7993SOL     OW35614   4.278   1.643  10.955  0.2522 -0.7460 -0.1735
 7993SOL    HW135615   4.371   1.632  10.972  0.4777 -1.2203 -1.7109
 7993SOL    HW235616   4.239   1.631  11.041 -2.1875  2.6777 -0.7986
 7994SOL     OW35617   1.135   3.043  16.473 -0.5939 -0.1915 -0.0264
 7994SOL    HW135618   1.193   3.025  16.399  0.6399 -1.2994  1.2061
 7994SOL    HW235619   1.154   3.132  16.502  0.5184 -0.0553 -1.2007
 7995SOL     OW35620   2.775   2.824  15.898  0.2389 -0.1211  0.5381
 7995SOL    HW135621   2.731   2.886  15.957  0.3368  0.5465 -0.0940
 7995SOL    HW235622   2.703   2.805  15.838  0.1035 -1.0964  1.0035
 7996SOL     OW35623   1.168   3.953   8.599  0.5873 -0.5674  0.3300
 7996SOL    HW135624   1.122   4.005   8.533 -0.4079  1.2164  2.4657
 7996SOL    HW235625   1.256   3.951   8.562 -0.5003  0.6227 -2.3111
 7997SOL     OW35626   4.216   3.980   2.996 -0.0050  0.5605 -0.4440
 7997SOL    HW135627   4.178   4.035   2.928 -2.7950  1.0230  1.5285
 7997SOL    HW235628   4.190   4.022   3.078  1.1352  0.5697 -0.0769
 7998SOL     OW35629   4.161   3.861   8.218  0.8667 -0.0404  0.8700
 7998SOL    HW135630   4.099   3.794   8.249 -1.1732  2.1456  1.5469
 7998SOL    HW235631   4.244   3.848   8.263  1.4696  2.7070  0.5816
 7999SOL     OW35632   0.703   2.400   2.006 -0.1079 -0.2435  0.1387
 7999SOL    HW135633   0.649   2.339   2.056 -1.0234  1.1997  0.9332
 7999SOL    HW235634   0.758   2.433   2.077 -2.6522  2.1507  1.0107
 8000SOL     OW35635   0.319   3.087   9.876 -0.3423 -0.7640 -0.4248
 8000SOL    HW135636   0.405   3.054   9.902 -0.9185 -0.9674  1.1952
 8000SOL    HW235637   0.296   3.009   9.826 -2.5428  0.0561 -0.7082
 8001SOL     OW35638   3.716   0.608  15.916 -0.2396 -0.6577 -0.1291
 8001SOL    HW135639   3.795   0.656  15.942 -2.2140  1.8726  1.3112
 8001SOL    HW235640   3.745   0.574  15.832  1.8623  2.9743 -0.8860
 8002SOL     OW35641   0.562   0.660   3.848  0.2050  0.2796 -0.0133
 8002SOL    HW135642   0.527   0.582   3.804  0.9837 -0.0675 -0.0146
 8002SOL    HW235643   0.511   0.723   3.798 -0.3018 -1.2076 -1.3574
 8003SOL     OW35644   4.048   1.953   3.359  0.4712 -0.2507  0.2456
 8003SOL    HW135645   4.012   1.924   3.443 -1.1924  0.6920 -0.1373
 8003SOL    HW235646   4.136   1.916   3.351  0.8672  1.0443 -1.3877
 8004SOL     OW35647   4.294   1.135   4.528  0.2565  0.2341 -0.3085
 8004SOL    HW135648   4.212   1.161   4.571  1.0577  1.5404  0.4242
 8004SOL    HW235649   4.319   1.064   4.587 -0.1376 -0.3946 -0.9023
 8005SOL     OW35650   0.195   0.281   6.148 -0.1532 -0.5829 -0.2670
 8005SOL    HW135651   0.223   0.297   6.058 -0.3510  0.1670 -0.1936
 8005SOL    HW235652   0.268   0.327   6.191  0.1699 -1.1489 -0.2056
 8006SOL     OW35653   2.514   1.055  17.050  0.1936  0.1201 -0.5453
 8006SOL    HW135654   2.488   1.140  17.014 -1.5288 -0.3069 -0.3182
 8006SOL    HW235655   2.592   1.084  17.097 -1.6122  1.5423  1.5305
 8007SOL     OW35656   0.344   0.510   6.544  0.0592 -0.5708  0.1954
 8007SOL    HW135657   0.289   0.563   6.602 -3.1912 -1.7872 -1.8233
 8007SOL    HW235658   0.423   0.505   6.598  0.7737  1.9495 -0.5999
 8008SOL     OW35659   1.296   4.360   2.161 -0.5938 -0.1709  0.3790
 8008SOL    HW135660   1.252   4.411   2.228 -0.5952  0.6588 -0.2560
 8008SOL    HW235661   1.317   4.424   2.093  0.1570 -2.6288 -1.7257
 8009SOL     OW35662   0.306   3.864  16.163  0.2461  0.3104 -0.2260
 8009SOL    HW135663   0.326   3.840  16.073  0.9159  0.1110 -0.0275
 8009SOL    HW235664   0.305   3.959  16.150  1.5020  0.2263 -0.9461
 8010SOL     OW35665   3.387   2.794  12.524  0.1808  0.3774 -0.5436
 8010SOL    HW135666   3.418   2.705  12.506  1.3210  0.4624  1.0243
 8010SOL    HW235667   3.449   2.820  12.592 -1.1742  0.7170  0.5827
 8011SOL     OW35668   0.398   0.011   6.570 -0.1404  0.7330 -0.3397
 8011SOL    HW135669   0.485   0.001   6.533  0.2511 -0.6340  0.9362
 8011SOL    HW235670   0.391   4.662   6.598  0.2852  1.3461  1.7858
 8012SOL     OW35671   1.054   2.455   0.980 -0.0689 -0.2951 -0.0624
 8012SOL    HW135672   1.133   2.449   0.925 -1.3595 -1.8800 -1.7189
 8012SOL    HW235673   1.016   2.368   0.969  3.2246 -2.0464  2.3763
 8013SOL     OW35674   2.223   2.662   9.436  0.2286 -0.2181 -0.1289
 8013SOL    HW135675   2.205   2.699   9.349  1.8364  0.4755 -0.1621
 8013SOL    HW235676   2.240   2.742   9.485 -1.2656  1.1616 -1.8673
 8014SOL     OW35677   2.319   1.632   3.733  0.0235 -0.2491  0.7049
 8014SOL    HW135678   2.247   1.596   3.681 -0.7829  0.7409  1.1492
 8014SOL    HW235679   2.399   1.602   3.690 -1.6661 -2.0336 -1.1880
 8015SOL     OW35680   0.467   3.926   8.744  0.4165 -0.1131  0.3769
 8015SOL    HW135681   0.519   4.001   8.717  0.2782  0.5248  1.9086
 8015SOL    HW235682   0.521   3.849   8.726 -3.5339 -2.3709 -2.1140
 8016SOL     OW35683   2.826   3.201  15.800  0.1592 -0.1484  0.0925
 8016SOL    HW135684   2.879   3.274  15.833  1.5383 -2.1467  2.2801
 8016SOL    HW235685   2.884   3.125  15.792 -1.8267 -1.6393 -0.0257
 8017SOL     OW35686   1.583   1.655   4.965  0.2333 -0.0597  0.0112
 8017SOL    HW135687   1.574   1.632   5.058  0.4162  1.3242  0.3576
 8017SOL    HW235688   1.583   1.562   4.939  2.5571 -0.1875  0.5061
 8018SOL     OW35689   4.541   4.137   5.039 -0.2643 -0.6728 -0.1347
 8018SOL    HW135690   4.508   4.104   4.955  1.9734 -0.8989 -0.9275
 8018SOL    HW235691   4.492   4.092   5.107  1.2037  0.0653  1.4125
 8019SOL     OW35692   3.446   2.581   7.712  0.1933  0.5066 -0.6701
 8019SOL    HW135693   3.494   2.643   7.768  0.0324 -0.8269  0.9356
 8019SOL    HW235694   3.520   2.560   7.655 -0.6828  0.7077 -1.8748
 8020SOL     OW35695   3.886   4.498  14.526 -0.1061  0.4747  0.3056
 8020SOL    HW135696   3.792   4.494  14.507 -0.3264 -0.1549  1.5065
 8020SOL    HW235697   3.882   4.549  14.607  3.2721 -0.3678  1.0140
 8021SOL     OW35698   1.483   3.418  16.360  0.2708 -0.0165 -0.5604
 8021SOL    HW135699   1.541   3.369  16.302 -0.4848 -1.4366 -0.1154
 8021SOL    HW235700   1.458   3.350  16.423 -1.4371  2.1542  1.0688
 8022SOL     OW35701   1.636   0.636   6.307  0.5279  0.1318  0.3349
 8022SOL    HW135702   1.563   0.677   6.355 -0.0874 -0.6629  0.0769
 8022SOL    HW235703   1.644   0.557   6.359  0.1989 -0.9036 -1.1901
 8023SOL     OW35704   2.571   0.281   3.312 -0.0962  0.4521  0.3948
 8023SOL    HW135705   2.491   0.284   3.259  0.6766  1.5569 -0.7083
 8023SOL    HW235706   2.562   0.197   3.356 -1.9849  1.3221  1.6985
 8024SOL     OW35707   1.642   4.494   2.082 -0.1695  0.6812  0.1211
 8024SOL    HW135708   1.550   4.476   2.062 -0.0708 -0.2678  0.5343
 8024SOL    HW235709   1.677   4.542   2.006 -0.4791  0.8690  0.0964
 8025SOL     OW35710   0.018   3.463   9.148 -0.6168 -0.1988 -0.0046
 8025SOL    HW135711   0.074   3.421   9.213 -0.6580  1.1789  0.9226
 8025SOL    HW235712   4.723   3.542   9.188  0.9920  0.6250 -0.1365
 8026SOL     OW35713   4.174   1.126   6.455  0.1858  0.0280  0.2833
 8026SOL    HW135714   4.218   1.061   6.510  0.0758  0.5248  0.9557
 8026SOL    HW235715   4.094   1.076   6.441 -1.0345  2.7022 -2.2984
 8027SOL     OW35716   3.610   2.735   9.120 -0.1356  0.2141 -0.2366
 8027SOL    HW135717   3.647   2.820   9.143  2.3533 -1.4468  2.0091
 8027SOL    HW235718   3.523   2.760   9.089  0.4602 -0.3942 -2.4332
 8028SOL     OW35719   4.094   1.245   2.829  0.0786  0.6197  0.2140
 8028SOL    HW135720   4.140   1.294   2.897 -1.6546  1.8548  0.4995
 8028SOL    HW235721   4.022   1.303   2.802 -1.2103 -0.7262  0.7329
 8029SOL     OW35722   3.924   0.946   6.465  0.4985  0.3320  0.3636
 8029SOL    HW135723   3.922   0.856   6.497  2.3834  0.4071  0.6986
 8029SOL    HW235724   3.863   0.990   6.524 -0.5557 -0.1582 -0.3593
 8030SOL     OW35725   4.227   3.459   8.449  0.6394 -0.3576 -0.9373
 8030SOL    HW135726   4.290   3.530   8.437  2.2886 -1.4672  1.2930
 8030SOL    HW235727   4.179   3.497   8.523  0.9280  0.3669 -1.1207
 8031SOL     OW35728   3.279   3.738   5.313 -0.3573  0.0814  0.1558
 8031SOL    HW135729   3.225   3.815   5.296  0.0234  0.4280  0.5302
 8031SOL    HW235730   3.354   3.774   5.360 -0.5667  1.8137 -0.8524
 8032SOL     OW35731   2.545   1.197   7.665 -0.1445 -0.8057  0.3634
 8032SOL    HW135732   2.525   1.287   7.689 -1.7957 -1.0662 -0.0264
 8032SOL    HW235733   2.477   1.168   7.604  0.8460  0.2993 -1.2791
 8033SOL     OW35734   0.904   3.217   3.751  0.0989  0.5998 -0.9177
 8033SOL    HW135735   0.943   3.247   3.834  3.4653 -2.1398 -1.5256
 8033SOL    HW235736   0.821   3.185   3.789 -0.3512  1.4898 -1.1593
 8034SOL     OW35737   3.841   2.617   8.675  0.3573  0.7170 -0.4191
 8034SOL    HW135738   3.861   2.538   8.625  0.6202  0.5764 -0.0918
 8034SOL    HW235739   3.905   2.597   8.743 -1.3981  0.5653  1.1965
 8035SOL     OW35740   3.683   2.389   1.681 -0.0540 -0.0508 -0.6599
 8035SOL    HW135741   3.752   2.340   1.725  0.6844  2.7342  1.2567
 8035SOL    HW235742   3.694   2.477   1.717  1.1899 -0.4998  0.0514
 8036SOL     OW35743   1.728   1.703  16.640 -0.2532 -0.0635 -0.2330
 8036SOL    HW135744   1.727   1.783  16.587  3.6281  0.8429  1.0384
 8036SOL    HW235745   1.813   1.716  16.681 -0.5035  0.7793  0.0101
 8037SOL     OW35746   0.246   1.392  10.910  0.0792 -0.1061  0.6934
 8037SOL    HW135747   0.280   1.395  10.999  0.0174 -0.2742  0.7222
 8037SOL    HW235748   0.328   1.377  10.863 -0.8363 -2.7539 -0.0725
 8038SOL     OW35749   2.061   1.504   5.391  0.0692 -0.1653 -0.9211
 8038SOL    HW135750   2.009   1.424   5.404  1.1570 -0.8152 -0.4930
 8038SOL    HW235751   1.996   1.558   5.347 -0.4577 -0.4185 -0.4597
 8039SOL     OW35752   1.685   3.575   0.832 -0.9686  0.1558 -0.7734
 8039SOL    HW135753   1.662   3.586   0.924 -0.3009  0.4549 -0.6366
 8039SOL    HW235754   1.601   3.580   0.786  0.5233 -4.8325 -4.0781
 8040SOL     OW35755   4.194   1.677  16.509  0.0762 -0.4845  0.1972
 8040SOL    HW135756   4.202   1.748  16.572  0.1671 -1.6325  1.4617
 8040SOL    HW235757   4.230   1.722  16.432  0.9100 -1.0026  0.2801
 8041SOL     OW35758   0.293   4.219   2.413 -0.2755 -0.5770 -0.1332
 8041SOL    HW135759   0.228   4.197   2.346  0.0727 -0.6145 -0.4639
 8041SOL    HW235760   0.319   4.305   2.379 -0.9461 -0.9767 -1.6757
 8042SOL     OW35761   0.949   0.127  11.126 -0.0869 -0.3895  0.1604
 8042SOL    HW135762   1.033   0.152  11.164 -1.0306  1.3801  1.0572
 8042SOL    HW235763   0.916   0.072  11.197 -1.2790  3.0366  2.2639
 8043SOL     OW35764   1.863   3.267   7.371 -0.2958 -0.1659 -0.0137
 8043SOL    HW135765   1.940   3.213   7.353  0.1751  0.6090 -0.3180
 8043SOL    HW235766   1.823   3.208   7.435 -0.6125  0.4019  0.3165
 8044SOL     OW35767   3.132   0.559   4.679 -0.4102 -0.3005  0.1186
 8044SOL    HW135768   3.217   0.560   4.723  0.0051 -1.1232 -0.6752
 8044SOL    HW235769   3.129   0.475   4.633 -2.6485 -1.5815  2.5756
 8045SOL     OW35770   1.695   1.880  11.668  0.4017  0.1091  0.2405
 8045SOL    HW135771   1.725   1.791  11.684 -1.7116 -0.8831 -1.3221
 8045SOL    HW235772   1.643   1.903  11.745 -1.5310  0.5417 -1.1914
 8046SOL     OW35773   2.657   3.888   7.028 -0.5125 -0.3069 -0.2776
 8046SOL    HW135774   2.566   3.861   7.011 -0.8164 -0.2343  1.2664
 8046SOL    HW235775   2.700   3.849   6.952  1.8161  0.3921  0.7001
 8047SOL     OW35776   3.009   0.107   6.198 -0.5871 -1.1806  0.1845
 8047SOL    HW135777   3.090   0.099   6.147 -0.4730  1.9059 -0.0961
 8047SOL    HW235778   2.966   0.027   6.168  0.2795 -1.6924  0.3036
 8048SOL     OW35779   2.503   0.862   2.380  0.1494 -0.0170 -0.4341
 8048SOL    HW135780   2.543   0.900   2.458  1.6370 -0.8104 -0.8130
 8048SOL    HW235781   2.522   0.931   2.316  0.6351 -2.2913 -2.7306
 8049SOL     OW35782   0.589   3.146   5.319  0.3948  0.0703  0.0697
 8049SOL    HW135783   0.534   3.191   5.255  1.7507 -1.1746 -1.9751
 8049SOL    HW235784   0.526   3.118   5.386 -0.4651 -1.8988 -1.5424
 8050SOL     OW35785   4.594   1.534   0.942 -0.5535  0.4159  0.1300
 8050SOL    HW135786   4.532   1.495   0.881 -0.7421 -0.9748  1.2004
 8050SOL    HW235787   4.670   1.506   0.892 -1.2174 -0.8401 -0.1552
 8051SOL     OW35788   4.217   2.453   4.812  0.4222 -0.0977 -0.3895
 8051SOL    HW135789   4.201   2.498   4.729 -2.4836  0.0353  0.2348
 8051SOL    HW235790   4.307   2.424   4.804 -0.3217 -2.1282 -1.2946
 8052SOL     OW35791   3.766   0.027   7.817 -0.0483  0.1591  0.1358
 8052SOL    HW135792   3.750   4.680   7.788 -3.1229  0.7454 -0.0058
 8052SOL    HW235793   3.768   0.078   7.736 -0.0972 -0.0006  0.0342
 8053SOL     OW35794   1.371   0.277  14.960 -0.5127 -0.5655 -0.7952
 8053SOL    HW135795   1.375   0.358  15.012  0.5750 -0.3480 -1.2086
 8053SOL    HW235796   1.402   0.207  15.018 -1.1189 -1.2120 -1.2571
 8054SOL     OW35797   2.506   4.570   3.075  0.4577 -0.7359 -0.4967
 8054SOL    HW135798   2.510   4.653   3.029 -2.0678 -0.9193 -1.0308
 8054SOL    HW235799   2.539   4.599   3.160  0.3902 -2.3548  0.0812
 8055SOL     OW35800   4.283   4.087   3.947  0.3283  0.3778 -0.5507
 8055SOL    HW135801   4.276   4.018   3.882 -0.4959  0.4962 -0.5788
 8055SOL    HW235802   4.372   4.121   3.933  0.8215 -0.8774 -0.4434
 8056SOL     OW35803   2.742   0.531   5.277 -0.0009  0.1926 -0.6717
 8056SOL    HW135804   2.816   0.568   5.326 -0.1899 -1.0866  0.5672
 8056SOL    HW235805   2.749   0.593   5.204  1.3887 -0.1382 -0.8189
 8057SOL     OW35806   3.282   3.999  14.114  0.9706  0.0496  0.3055
 8057SOL    HW135807   3.377   3.996  14.114  1.0088  1.5938  0.5301
 8057SOL    HW235808   3.270   4.067  14.048 -1.0522 -0.1313  0.4588
 8058SOL     OW35809   1.579   0.176  17.346  0.6626  0.8018 -0.0029
 8058SOL    HW135810   1.535   0.247  17.299  1.1914 -0.4954 -2.4236
 8058SOL    HW235811   1.669   0.200  17.367  0.9186  0.3533 -0.5725
 8059SOL     OW35812   4.422   3.659   8.516  0.8652 -0.0705 -0.4371
 8059SOL    HW135813   4.360   3.711   8.567 -0.9001 -2.8268  0.2356
 8059SOL    HW235814   4.491   3.644   8.581 -0.7723 -1.5798  0.9432
 8060SOL     OW35815   1.035   2.469  14.101 -0.7006 -0.2495  0.1433
 8060SOL    HW135816   1.056   2.492  14.192  0.6916  0.6500 -0.4036
 8060SOL    HW235817   0.974   2.398  14.119 -1.9906  0.9801  0.6430
 8061SOL     OW35818   3.792   1.508  10.282  0.4237 -0.2926  0.6418
 8061SOL    HW135819   3.847   1.532  10.207  0.7007 -2.6139  0.1069
 8061SOL    HW235820   3.733   1.583  10.281  0.6142 -0.1572 -0.9559
 8062SOL     OW35821   1.629   1.337   8.036  0.0905 -0.1455 -0.1091
 8062SOL    HW135822   1.587   1.274   7.977  2.2890 -0.9536 -0.8039
 8062SOL    HW235823   1.591   1.417   8.000  0.1410  0.1913  0.5803
 8063SOL     OW35824   2.550   4.307   3.313 -0.7588  0.5415  0.1410
 8063SOL    HW135825   2.604   4.367   3.365 -0.7902 -1.3294  2.3299
 8063SOL    HW235826   2.622   4.270   3.262 -0.7999  2.3903 -1.2516
 8064SOL     OW35827   3.747   0.054  13.584  0.0524 -0.5863 -0.0351
 8064SOL    HW135828   3.682   0.068  13.652  0.2586 -1.5765  0.3625
 8064SOL    HW235829   3.824   0.030  13.636  0.3960 -1.3455 -0.8998
 8065SOL     OW35830   3.406   0.795   5.346 -0.4184  0.2622  0.2675
 8065SOL    HW135831   3.353   0.842   5.282 -0.8417 -0.2962  0.2092
 8065SOL    HW235832   3.337   0.748   5.393 -0.5275  0.6676  0.5078
 8066SOL     OW35833   0.388   3.597   2.248  0.0811  0.0729 -0.3762
 8066SOL    HW135834   0.389   3.524   2.186  0.4988  0.6833 -1.0922
 8066SOL    HW235835   0.442   3.659   2.199  0.1846 -1.3117 -2.0131
 8067SOL     OW35836   2.991   2.810   6.057 -0.0228 -0.0974 -0.0879
 8067SOL    HW135837   3.038   2.762   5.989 -0.8674 -0.0544 -0.6978
 8067SOL    HW235838   2.903   2.773   6.054 -0.5643  0.9878  2.0404
 8068SOL     OW35839   2.027   4.302   7.390 -0.0135 -0.7225 -0.4962
 8068SOL    HW135840   2.097   4.368   7.389  1.3818 -2.1317  1.5841
 8068SOL    HW235841   1.955   4.365   7.388  0.4162 -0.1587  1.7503
 8069SOL     OW35842   0.704   1.941   7.071  0.4307  0.0761 -0.8852
 8069SOL    HW135843   0.743   2.028   7.070 -0.2190  0.3364 -2.8546
 8069SOL    HW235844   0.676   1.928   6.981 -0.6071  0.6271 -0.6380
 8070SOL     OW35845   1.569   2.174   6.410 -0.1898 -0.6529  0.7301
 8070SOL    HW135846   1.484   2.139   6.437 -0.8721 -0.9952 -1.8562
 8070SOL    HW235847   1.575   2.249   6.468  1.3009  1.0774 -1.6646
 8071SOL     OW35848   2.773   1.821   6.840 -0.7098  0.1719  0.5688
 8071SOL    HW135849   2.802   1.791   6.926 -1.6608 -1.0225  0.4814
 8071SOL    HW235850   2.697   1.763   6.832 -1.1469  0.7157  0.7714
 8072SOL     OW35851   2.450   2.325  15.059 -0.3529 -0.2869 -0.8113
 8072SOL    HW135852   2.381   2.372  15.106  2.2368  2.0261  0.6830
 8072SOL    HW235853   2.497   2.299  15.138  1.6779  2.5113 -1.1057
 8073SOL     OW35854   0.429   3.478   3.342 -0.2042 -0.2623 -0.0832
 8073SOL    HW135855   0.476   3.494   3.260  2.1438  4.0611  2.0904
 8073SOL    HW235856   0.438   3.559   3.392 -0.5230 -0.5165  0.3868
 8074SOL     OW35857   0.159   2.978   8.005 -0.1077  0.7155  0.5856
 8074SOL    HW135858   0.152   3.008   8.096 -0.3433 -0.4449  0.9501
 8074SOL    HW235859   0.133   3.057   7.959  2.8330  1.9510  1.0150
 8075SOL     OW35860   1.922   2.071   8.663  0.2894  0.2752  0.4354
 8075SOL    HW135861   1.994   2.105   8.609 -0.2906 -0.6445 -0.9362
 8075SOL    HW235862   1.909   1.979   8.640 -1.6433  1.0823 -1.7688
 8076SOL     OW35863   1.823   4.342   9.278  0.0054 -0.0415 -0.1445
 8076SOL    HW135864   1.833   4.270   9.342 -0.8096 -0.1864 -0.1708
 8076SOL    HW235865   1.740   4.322   9.235 -0.4534  0.5836  0.4464
 8077SOL     OW35866   0.715   2.684   2.857  0.4096  0.1247 -0.6087
 8077SOL    HW135867   0.667   2.603   2.837 -2.2188  0.9345  2.5942
 8077SOL    HW235868   0.804   2.667   2.827  0.6306 -1.9234  1.2744
 8078SOL     OW35869   0.336   1.665   6.925 -0.7426 -0.5196 -1.0187
 8078SOL    HW135870   0.426   1.687   6.949 -0.3018 -1.1212 -2.1550
 8078SOL    HW235871   0.337   1.574   6.895 -1.7197 -1.0761  0.5889
 8079SOL     OW35872   2.333   2.953   6.974 -0.6265  0.1363  0.0288
 8079SOL    HW135873   2.427   2.937   6.979  0.0212  2.8933 -3.7409
 8079SOL    HW235874   2.335   3.031   7.030 -0.4910  0.2710 -0.1650
 8080SOL     OW35875   4.556   4.116   4.275  0.1592  0.1172  0.3459
 8080SOL    HW135876   4.611   4.128   4.352 -1.0572  1.8315  0.9296
 8080SOL    HW235877   4.528   4.204   4.251 -1.8226 -0.6455 -0.1713
 8081SOL     OW35878   4.349   0.362  17.698  0.4639  0.2254  0.3154
 8081SOL    HW135879   4.260   0.330  17.682  0.4692  1.4239 -1.9832
 8081SOL    HW235880   4.349   0.337   0.023  0.6444 -1.3567 -0.1079
 8082SOL     OW35881   3.212   2.953  10.618 -0.4966  0.3135  0.2236
 8082SOL    HW135882   3.261   2.974  10.539 -1.4696 -0.6657 -0.6522
 8082SOL    HW235883   3.138   3.010  10.595 -0.8433 -0.8271 -1.5679
 8083SOL     OW35884   3.188   1.874   1.055 -0.2229 -0.3657 -0.1916
 8083SOL    HW135885   3.127   1.913   1.117  0.4952  0.9898 -0.3186
 8083SOL    HW235886   3.249   1.946   1.035  0.4807 -1.3576 -1.6573
 8084SOL     OW35887   1.090   0.906   2.558  0.2533 -0.2209 -0.1286
 8084SOL    HW135888   1.037   0.958   2.497  0.4089  0.1203  0.0296
 8084SOL    HW235889   1.067   0.952   2.639  1.5823 -0.1972  0.2209
 8085SOL     OW35890   1.479   4.444   6.722  0.1887 -0.4132 -0.1640
 8085SOL    HW135891   1.514   4.369   6.771 -1.5556  0.5240  2.5234
 8085SOL    HW235892   1.392   4.452   6.761 -0.5909 -3.5056 -1.3018
 8086SOL     OW35893   1.750   2.891   4.313  0.1567  0.1817 -0.9466
 8086SOL    HW135894   1.747   2.798   4.290 -0.0446 -1.0583  4.2692
 8086SOL    HW235895   1.736   2.948   4.237 -0.4630  0.2854 -0.7547
 8087SOL     OW35896   3.916   0.030   7.300  0.2154  0.2880  0.2835
 8087SOL    HW135897   3.855   0.018   7.227  0.9161 -0.5751 -0.1742
 8087SOL    HW235898   3.862   0.004   7.374 -0.5410  1.0683  0.0094
 8088SOL     OW35899   4.571   1.460   6.748  0.6921 -0.1763 -0.3436
 8088SOL    HW135900   4.633   1.401   6.791  0.9919  0.3641 -0.0402
 8088SOL    HW235901   4.486   1.418   6.761  1.2043 -1.8077 -2.3682
 8089SOL     OW35902   4.729   4.094   5.822  0.4089 -0.2386  0.4119
 8089SOL    HW135903   4.725   4.147   5.742 -1.7052  0.7148  1.1748
 8089SOL    HW235904   0.007   4.010   5.781  0.2873 -1.1791  2.3091
 8090SOL     OW35905   1.266   4.027   4.421  0.1769  0.1599  0.1998
 8090SOL    HW135906   1.243   3.993   4.335  1.3078 -1.6899  0.6313
 8090SOL    HW235907   1.226   4.113   4.408  0.6314  0.5778  1.6000
 8091SOL     OW35908   4.203   2.731   0.110 -0.4176  0.3211  0.6285
 8091SOL    HW135909   4.192   2.661   0.046  0.6234 -1.2621  2.1684
 8091SOL    HW235910   4.205   2.687   0.195  0.0697 -0.2389  0.3282
 8092SOL     OW35911   4.074   2.396  14.049  0.0341  0.8170  0.5258
 8092SOL    HW135912   4.055   2.306  14.021  3.1268 -0.1441  1.5139
 8092SOL    HW235913   4.071   2.390  14.144  0.3423  1.5904  0.5795
 8093SOL     OW35914   2.678   2.136  12.829 -0.3001 -0.2538  0.1378
 8093SOL    HW135915   2.715   2.224  12.824 -0.3715 -0.1890  0.6724
 8093SOL    HW235916   2.605   2.157  12.889 -0.2281 -1.3563  0.6177
 8094SOL     OW35917   3.539   1.158   2.206  1.0065  0.4423  0.5872
 8094SOL    HW135918   3.455   1.148   2.252  1.6414  1.5961  2.0149
 8094SOL    HW235919   3.605   1.141   2.272  2.5725  0.9632 -0.8549
 8095SOL     OW35920   1.434   2.567   6.369  0.2036 -0.4075  0.1900
 8095SOL    HW135921   1.373   2.514   6.317  0.2614 -1.8591  1.6168
 8095SOL    HW235922   1.464   2.630   6.304 -1.5458 -0.2535 -0.4772
 8096SOL     OW35923   0.356   1.075   7.894  0.0057  0.1187  0.5203
 8096SOL    HW135924   0.273   1.028   7.884 -0.3698  0.6106  1.2923
 8096SOL    HW235925   0.387   1.090   7.804 -0.9479 -2.4952 -0.2290
 8097SOL     OW35926   2.222   3.348   5.630  0.0824  0.1713  0.2089
 8097SOL    HW135927   2.174   3.411   5.576  1.6317 -0.6581 -2.1113
 8097SOL    HW235928   2.266   3.405   5.693  2.1727 -1.2559  0.0316
 8098SOL     OW35929   2.008   1.229  10.668 -0.4512  0.2188 -0.2283
 8098SOL    HW135930   1.927   1.178  10.676 -0.9041  1.0386  0.4742
 8098SOL    HW235931   2.070   1.156  10.673 -0.4072  0.0200 -3.8656
 8099SOL     OW35932   1.282   1.836   8.157  0.3708  0.2176  0.1485
 8099SOL    HW135933   1.351   1.891   8.193  0.3639  1.0689 -1.0999
 8099SOL    HW235934   1.219   1.827   8.228  2.9412  1.4184  2.5614
 8100SOL     OW35935   1.916   0.626   5.155  0.1771 -0.0027 -0.0450
 8100SOL    HW135936   2.001   0.634   5.198  0.2386  0.9487 -0.3548
 8100SOL    HW235937   1.868   0.565   5.212 -2.4206  1.6212 -0.5147
 8101SOL     OW35938   2.498   3.265  15.801  0.3129 -0.2026 -0.1486
 8101SOL    HW135939   2.568   3.286  15.739  0.9454 -1.5157  0.1242
 8101SOL    HW235940   2.512   3.343  15.856 -0.5394  0.4088 -0.7950
 8102SOL     OW35941   0.547   3.754   5.937 -0.0283 -0.2973  0.3291
 8102SOL    HW135942   0.630   3.721   5.971  0.3179 -0.3414 -0.5646
 8102SOL    HW235943   0.530   3.844   5.966 -0.2090 -0.8009  1.7701
 8103SOL     OW35944   1.079   3.668   1.702  0.1956 -0.4534 -0.6013
 8103SOL    HW135945   1.029   3.741   1.664 -0.5899  0.0836  1.4630
 8103SOL    HW235946   1.029   3.588   1.691 -0.4225  0.0937 -1.8021
 8104SOL     OW35947   4.114   1.383   7.202  0.1289 -0.0310 -0.2593
 8104SOL    HW135948   4.109   1.466   7.249 -1.3654 -0.1824 -0.1374
 8104SOL    HW235949   4.123   1.319   7.273 -0.0268  0.1077 -0.1129
 8105SOL     OW35950   1.843   1.567  17.136  0.0126 -0.2344 -0.0525
 8105SOL    HW135951   1.838   1.618  17.216  0.2283 -1.6709  0.8860
 8105SOL    HW235952   1.871   1.486  17.179  1.9120  0.5044  0.1238
 8106SOL     OW35953   0.001   3.296   3.688 -0.6874  0.3886 -0.3883
 8106SOL    HW135954   0.010   3.319   3.781  1.7218  2.5303 -1.1544
 8106SOL    HW235955   0.029   3.375   3.642 -0.4146  0.6705  0.2552
 8107SOL     OW35956   2.522   1.795   6.318  0.5471  0.3285 -0.2712
 8107SOL    HW135957   2.452   1.806   6.253 -0.2644 -1.2368  0.3226
 8107SOL    HW235958   2.587   1.742   6.271 -1.3625 -0.9219 -1.5779
 8108SOL     OW35959   4.164   2.214   2.741  0.4176  0.4265 -0.0923
 8108SOL    HW135960   4.259   2.212   2.746  0.4646 -0.8015 -1.6344
 8108SOL    HW235961   4.141   2.281   2.677 -1.7911  1.4335  1.7452
 8109SOL     OW35962   2.727   1.319   4.868  0.5583  0.6146 -0.3752
 8109SOL    HW135963   2.797   1.283   4.922  0.4104  0.1902 -0.4642
 8109SOL    HW235964   2.674   1.242   4.850  0.4245  0.1675  2.0536
 8110SOL     OW35965   1.926   3.309   7.717  0.2960  0.0257  0.2845
 8110SOL    HW135966   1.953   3.218   7.727  0.6826  0.0598 -0.4605
 8110SOL    HW235967   2.008   3.349   7.689 -0.8323  1.3623 -1.1708
 8111SOL     OW35968   1.085   3.119  15.660 -0.0082 -0.3516  0.2440
 8111SOL    HW135969   1.147   3.096  15.729  0.9531  0.1855 -0.4393
 8111SOL    HW235970   1.114   3.209  15.646 -0.2496 -0.6370 -2.0789
 8112SOL     OW35971   2.665   4.417   9.497  0.2526  0.1019 -0.2123
 8112SOL    HW135972   2.591   4.364   9.467  1.1411 -1.6669  0.7482
 8112SOL    HW235973   2.735   4.366   9.456  0.9574  0.0348  1.0896
 8113SOL     OW35974   2.117   1.155  12.788 -0.0430  0.1688 -0.1721
 8113SOL    HW135975   2.034   1.195  12.760 -0.3563 -0.7122 -0.4709
 8113SOL    HW235976   2.097   1.147  12.882 -0.0993  0.6750 -0.1377
 8114SOL     OW35977   4.217   3.703  16.465 -0.4692 -0.6439 -0.4014
 8114SOL    HW135978   4.236   3.617  16.427  0.4274 -1.0933  1.0551
 8114SOL    HW235979   4.184   3.759  16.395 -0.6334 -1.4141 -0.9404
 8115SOL     OW35980   4.045   1.703   3.173 -0.3165 -0.2337 -0.4939
 8115SOL    HW135981   3.997   1.786   3.178  1.0160  0.4703  0.3273
 8115SOL    HW235982   4.017   1.668   3.258 -1.4115 -2.7336 -1.8832
 8116SOL     OW35983   1.092   2.222   7.245  0.2753  0.2817 -0.2481
 8116SOL    HW135984   1.044   2.290   7.292 -1.9549 -1.4404 -0.0887
 8116SOL    HW235985   1.067   2.157   7.309 -1.4888 -0.7240 -1.9683
 8117SOL     OW35986   2.763   0.502   0.616  0.1947 -0.0255 -0.6114
 8117SOL    HW135987   2.843   0.545   0.585 -0.4984  0.5237 -1.6043
 8117SOL    HW235988   2.785   0.411   0.596 -2.8943 -0.8621 -0.1563
 8118SOL     OW35989   0.515   1.068   4.507 -0.0707  0.1529  0.1168
 8118SOL    HW135990   0.530   1.149   4.457 -1.3178  0.2621 -0.0741
 8118SOL    HW235991   0.520   0.996   4.444 -0.4561  0.7167 -0.5554
 8119SOL     OW35992   2.591   4.636  15.160 -0.1321  0.6550  0.3429
 8119SOL    HW135993   2.654   4.632  15.088  0.7502  1.2848  1.0880
 8119SOL    HW235994   2.653   4.620  15.231 -1.3930  0.7000  1.4439
 8120SOL     OW35995   0.147   3.897  10.963 -0.0278 -0.5961  0.0869
 8120SOL    HW135996   0.066   3.948  10.967  1.7618  2.2260  0.0546
 8120SOL    HW235997   0.143   3.877  10.869  1.4241  1.2967 -0.3888
 8121SOL     OW35998   0.677   3.191  12.236  0.6246 -0.1020 -0.3152
 8121SOL    HW135999   0.708   3.249  12.305 -0.9644  0.6653 -0.2571
 8121SOL    HW236000   0.763   3.169  12.200 -0.1350 -1.1144 -1.5147
 8122SOL     OW36001   0.769   3.458   2.603  0.2901  0.3137 -0.4616
 8122SOL    HW136002   0.742   3.539   2.647 -0.1688 -0.2525  0.3099
 8122SOL    HW236003   0.863   3.468   2.620  0.0606 -1.6555  2.1243
 8123SOL     OW36004   0.422   3.423   9.666  0.0091 -0.0060  0.2382
 8123SOL    HW136005   0.452   3.449   9.753 -0.7395 -1.2914  0.8849
 8123SOL    HW236006   0.425   3.506   9.617 -1.0056  0.5470  1.1138
 8124SOL     OW36007   1.204   2.129   4.956 -0.1031 -0.2381 -0.4734
 8124SOL    HW136008   1.161   2.091   5.032  0.7427 -1.2731 -0.5156
 8124SOL    HW236009   1.125   2.171   4.922  0.2621  1.0930  0.3290
 8125SOL     OW36010   0.958   2.426   6.204 -0.1466  0.1860  0.2017
 8125SOL    HW136011   0.929   2.462   6.288  0.3372 -3.0102  1.7376
 8125SOL    HW236012   0.897   2.473   6.147  0.1248 -2.6618 -2.4693
 8126SOL     OW36013   3.190   1.973   7.810 -0.1066  0.0181  0.4582
 8126SOL    HW136014   3.122   1.949   7.747 -0.4388 -1.5259  1.4107
 8126SOL    HW236015   3.249   1.899   7.828 -2.0654 -1.7518 -0.4015
 8127SOL     OW36016   1.497   1.530  12.383 -0.1730 -0.6768 -0.4883
 8127SOL    HW136017   1.482   1.547  12.290  1.0401  1.6445 -0.2638
 8127SOL    HW236018   1.543   1.607  12.417 -0.4229 -0.5982 -0.3292
 8128SOL     OW36019   1.971   3.507   4.431 -0.3687 -0.8029 -0.2772
 8128SOL    HW136020   1.973   3.424   4.480 -1.6230 -0.0796  1.0064
 8128SOL    HW236021   1.959   3.476   4.341  1.2843 -1.3690 -0.3057
 8129SOL     OW36022   2.253   1.873   0.697  0.5567 -0.6099 -0.2473
 8129SOL    HW136023   2.270   1.882   0.603 -1.7553 -2.3700 -0.8556
 8129SOL    HW236024   2.202   1.792   0.701  0.1295 -0.3466 -0.3241
 8130SOL     OW36025   2.763   0.520   5.957  0.0328 -0.4189  0.2119
 8130SOL    HW136026   2.710   0.580   6.009 -0.6531 -1.0485  0.2335
 8130SOL    HW236027   2.852   0.532   5.989  0.5126 -2.2664 -0.4423
 8131SOL     OW36028   1.414   1.043   7.267  0.3349  0.6496 -0.2549
 8131SOL    HW136029   1.478   1.106   7.236  2.4648 -2.1910 -1.6664
 8131SOL    HW236030   1.455   1.005   7.345  0.7362  0.2027 -0.6901
 8132SOL     OW36031   3.536   0.467  16.463  0.1679 -0.0137 -0.0504
 8132SOL    HW136032   3.552   0.542  16.520 -1.3718  0.0472  0.2900
 8132SOL    HW236033   3.549   0.393  16.523 -0.3792  0.3987  0.5733
 8133SOL     OW36034   1.903   1.690   9.851 -0.0100  0.0943  0.0377
 8133SOL    HW136035   1.872   1.639   9.776 -0.6473 -1.4500  1.3609
 8133SOL    HW236036   1.845   1.766   9.847 -2.7575 -1.8673  2.3703
 8134SOL     OW36037   3.235   3.325  16.563 -0.4446 -0.3330  0.1159
 8134SOL    HW136038   3.245   3.411  16.523  0.3784  0.1696  1.3867
 8134SOL    HW236039   3.322   3.288  16.545 -0.5155  0.5886 -2.0632
 8135SOL     OW36040   4.225   0.188   5.129  0.3276  0.7015 -0.1476
 8135SOL    HW136041   4.180   0.146   5.203 -2.1253  1.3641 -1.2479
 8135SOL    HW236042   4.192   0.278   5.137 -0.3829  0.5691 -1.5368
 8136SOL     OW36043   3.392   1.833   1.766  0.1931 -0.5435 -0.2696
 8136SOL    HW136044   3.352   1.794   1.688 -1.5219  0.3260  0.1827
 8136SOL    HW236045   3.462   1.770   1.784 -1.5032 -2.2448  0.3042
 8137SOL     OW36046   4.024   2.459  13.474  0.2708 -0.4044  0.6087
 8137SOL    HW136047   4.093   2.408  13.517 -0.8863  0.9053  4.0788
 8137SOL    HW236048   4.032   2.543  13.520 -3.0814 -0.3228  1.0265
 8138SOL     OW36049   2.193   1.262   3.269  0.0727 -0.0977 -0.2083
 8138SOL    HW136050   2.134   1.306   3.208  1.1529 -0.2182 -1.3309
 8138SOL    HW236051   2.160   1.294   3.354  0.1355 -1.9205  0.4875
 8139SOL     OW36052   4.090   4.363   3.560 -0.0695 -0.7504 -0.0092
 8139SOL    HW136053   4.074   4.437   3.619  2.6066 -0.6582  0.5734
 8139SOL    HW236054   4.088   4.294   3.627 -0.7914  2.4761  3.3359
 8140SOL     OW36055   0.033   0.438   3.165  0.0839 -0.1823 -0.0689
 8140SOL    HW136056   0.047   0.383   3.088  0.6895  0.1493 -0.1913
 8140SOL    HW236057   4.691   0.472   3.135  0.2138 -0.7758 -1.1307
 8141SOL     OW36058   4.701   3.736   1.318 -0.4229 -0.7878  0.5051
 8141SOL    HW136059   4.729   3.820   1.353  0.6091 -1.2419  0.7625
 8141SOL    HW236060   4.657   3.712   1.400  0.1860  1.1610  1.3944
 8142SOL     OW36061   0.884   0.795   7.448  0.2246  0.1847  0.0292
 8142SOL    HW136062   0.840   0.846   7.380  0.7248  0.1475 -0.3263
 8142SOL    HW236063   0.905   0.721   7.390  1.3955  0.8103 -0.3598
 8143SOL     OW36064   1.375   3.043  16.355 -0.7161  0.2145  0.5829
 8143SOL    HW136065   1.406   2.962  16.316 -1.8474  1.3949 -2.8011
 8143SOL    HW236066   1.382   3.099  16.278  3.0452  0.0787  0.8242
 8144SOL     OW36067   0.631   0.298   6.727  0.2571  0.1565 -0.4227
 8144SOL    HW136068   0.631   0.209   6.763 -1.6765  1.0653  1.8573
 8144SOL    HW236069   0.631   0.279   6.633 -2.1522 -0.1781 -0.3681
 8145SOL     OW36070   2.714   4.195   4.859 -0.6354 -0.1935 -0.1551
 8145SOL    HW136071   2.626   4.199   4.824  0.4436 -1.0198 -2.9369
 8145SOL    HW236072   2.706   4.226   4.949  1.9072 -0.0013  0.0166
 8146SOL     OW36073   3.792   0.040   4.898 -0.2133  0.7272  0.3406
 8146SOL    HW136074   3.850   4.716   4.863 -0.2977 -0.3699  2.2929
 8146SOL    HW236075   3.764   0.083   4.817 -1.9030  0.7780  0.9442
 8147SOL     OW36076   1.003   0.073   4.881  0.4161  0.2452  0.1262
 8147SOL    HW136077   1.028   0.157   4.842 -0.9511  0.6020  0.0444
 8147SOL    HW236078   0.991   0.097   4.973  1.3676  2.9359 -0.4430
 8148SOL     OW36079   3.690   1.769   3.465  0.2169 -0.0748  0.2818
 8148SOL    HW136080   3.701   1.844   3.407 -2.1387  0.5881  0.6947
 8148SOL    HW236081   3.615   1.732   3.418  0.2881  0.8599 -0.5872
 8149SOL     OW36082   1.208   3.826  17.443  0.1838 -0.0235 -0.3209
 8149SOL    HW136083   1.150   3.842  17.369  0.9897  0.6214 -0.8143
 8149SOL    HW236084   1.251   3.911  17.454  1.2297 -0.9029  2.4122
 8150SOL     OW36085   2.636   1.784   7.191  0.1075 -0.1151  0.2837
 8150SOL    HW136086   2.639   1.875   7.220 -0.8740 -0.0898  0.2961
 8150SOL    HW236087   2.580   1.745   7.258 -0.6493  1.0500  0.3096
 8151SOL     OW36088   4.067   2.218   6.681  0.0379  0.9207  0.5789
 8151SOL    HW136089   4.123   2.295   6.677  2.5707 -0.9902 -0.6433
 8151SOL    HW236090   4.009   2.230   6.606 -0.9533  1.0997  1.3683
 8152SOL     OW36091   1.205   3.467   0.755  0.0984 -0.1121  0.4013
 8152SOL    HW136092   1.256   3.398   0.797  0.2772  0.4644  1.1157
 8152SOL    HW236093   1.113   3.440   0.760  0.1466 -0.0829  1.4505
 8153SOL     OW36094   2.725   3.088   1.666 -0.8263  0.2298 -0.1322
 8153SOL    HW136095   2.677   3.120   1.742 -1.2553 -2.2004  0.6063
 8153SOL    HW236096   2.746   3.170   1.619 -1.1448  0.9596  1.0120
 8154SOL     OW36097   1.586   4.145   1.895 -0.0760  0.0534 -0.0788
 8154SOL    HW136098   1.506   4.114   1.936 -1.1110  1.4593 -1.0673
 8154SOL    HW236099   1.625   4.186   1.973 -3.1462  2.4570  0.1864
 8155SOL     OW36100   1.112   2.236  11.721 -0.5083 -0.5324 -0.0373
 8155SOL    HW136101   1.173   2.203  11.788 -0.4357  2.3684  1.3348
 8155SOL    HW236102   1.042   2.170  11.720 -0.9546 -0.0204 -2.2502
 8156SOL     OW36103   2.415   2.412   5.984  0.4487 -0.0058 -0.1085
 8156SOL    HW136104   2.450   2.371   6.063  1.3331  2.2183  0.6640
 8156SOL    HW236105   2.395   2.342   5.921  0.0446 -0.5649  0.6310
 8157SOL     OW36106   3.907   1.865  11.090 -0.0354  0.4236  0.4079
 8157SOL    HW136107   3.882   1.774  11.078 -1.4706  1.1685 -2.2754
 8157SOL    HW236108   3.993   1.861  11.049  1.2709 -0.4944  3.2807
 8158SOL     OW36109   1.322   3.882   7.784  0.1474 -0.1243 -0.4185
 8158SOL    HW136110   1.374   3.876   7.704  1.7690  1.4396  0.5116
 8158SOL    HW236111   1.371   3.848   7.859  1.2721 -0.5719 -1.3615
 8159SOL     OW36112   3.887   2.795   7.850  0.3803  0.1709  0.0606
 8159SOL    HW136113   3.847   2.711   7.827  1.6999 -0.9816  1.9387
 8159SOL    HW236114   3.913   2.815   7.760  0.1697  1.1764  0.2151
 8160SOL     OW36115   4.309   1.833  11.211  0.2734  0.2337  0.2756
 8160SOL    HW136116   4.369   1.842  11.285 -1.8573 -0.0350  2.0154
 8160SOL    HW236117   4.293   1.740  11.197  0.4422  0.0307  1.4993
 8161SOL     OW36118   0.093   3.905   6.521 -0.3191  0.2433 -0.5792
 8161SOL    HW136119   0.140   3.822   6.511  1.0957  0.7248  2.1602
 8161SOL    HW236120   0.051   3.899   6.607  0.8488  0.1221 -0.0146
 8162SOL     OW36121   3.358   2.325   2.166  0.0807 -0.2080 -0.4881
 8162SOL    HW136122   3.296   2.266   2.208 -0.5324  0.5376 -0.3564
 8162SOL    HW236123   3.403   2.372   2.236 -0.0698 -0.5281 -0.1806
 8163SOL     OW36124   0.862   3.437   8.769  0.0974  0.7162 -0.3175
 8163SOL    HW136125   0.833   3.439   8.677  1.7844 -1.6436 -0.9224
 8163SOL    HW236126   0.956   3.449   8.757  0.0050  0.8010 -0.9954
 8164SOL     OW36127   2.816   3.418   7.434  0.1206 -0.3250 -0.2438
 8164SOL    HW136128   2.759   3.465   7.494 -1.8278 -0.5431 -1.9139
 8164SOL    HW236129   2.893   3.473   7.446  0.0009 -0.0070 -0.8885
 8165SOL     OW36130   3.048   2.064  14.341 -0.0447  0.9586  0.4911
 8165SOL    HW136131   3.116   2.130  14.347  1.9174 -1.0995  1.0290
 8165SOL    HW236132   3.098   1.986  14.365 -1.1641  0.4017  1.0219
 8166SOL     OW36133   3.903   0.455   7.827 -0.0218  0.2781  0.3764
 8166SOL    HW136134   3.953   0.402   7.889 -1.4006 -0.1290  1.1657
 8166SOL    HW236135   3.908   0.546   7.858  0.7781  0.5877 -0.6945
 8167SOL     OW36136   3.037   1.695   6.297  0.4646 -0.2895 -0.1233
 8167SOL    HW136137   2.975   1.622   6.294  1.2922 -0.9447 -1.0743
 8167SOL    HW236138   2.994   1.762   6.243  1.0700 -0.9457 -1.4086
 8168SOL     OW36139   2.438   4.503   3.643  0.1944 -0.5682 -0.3765
 8168SOL    HW136140   2.439   4.449   3.722 -0.3360 -0.4632 -0.2973
 8168SOL    HW236141   2.425   4.586   3.689  0.3469  0.4649 -2.2009
 8169SOL     OW36142   4.553   0.781   0.960  0.3227  0.2489  0.6338
 8169SOL    HW136143   4.518   0.779   0.871 -0.0478 -0.2857  0.7910
 8169SOL    HW236144   4.475   0.772   1.016 -0.2101  2.0629  0.1995
 8170SOL     OW36145   3.635   4.168   6.851  0.3550 -0.9051  0.0923
 8170SOL    HW136146   3.597   4.216   6.777  0.1402 -1.2625 -0.0300
 8170SOL    HW236147   3.699   4.117   6.802  1.9081 -1.5777  2.8341
 8171SOL     OW36148   3.311   2.579   7.384 -0.4813 -0.2405  0.3429
 8171SOL    HW136149   3.248   2.571   7.455 -1.3028 -1.5445 -0.5268
 8171SOL    HW236150   3.372   2.510   7.407 -0.8487 -0.6129  0.1921
 8172SOL     OW36151   3.691   4.644   5.303 -0.0207  0.3671  0.1685
 8172SOL    HW136152   3.696   4.737   5.326  1.9352  0.0846  0.9098
 8172SOL    HW236153   3.775   4.626   5.260  0.2255 -1.0908  1.2678
 8173SOL     OW36154   0.976   3.158   0.248  0.4320 -0.2313 -0.0137
 8173SOL    HW136155   0.897   3.203   0.278  0.3261 -0.1429 -0.4307
 8173SOL    HW236156   1.036   3.190   0.316  0.7385 -0.1061 -0.3431
 8174SOL     OW36157   2.603   3.390   9.891 -0.4333 -0.1631 -0.0815
 8174SOL    HW136158   2.670   3.456   9.911 -2.1372  0.2524  4.2747
 8174SOL    HW236159   2.519   3.434   9.906 -0.9908 -1.7529  1.4217
 8175SOL     OW36160   0.914   1.218   2.951 -0.0777  0.2772 -0.7873
 8175SOL    HW136161   0.841   1.280   2.948 -0.2279  0.1007 -0.7966
 8175SOL    HW236162   0.983   1.283   2.961 -0.5225  0.8100 -1.1501
 8176SOL     OW36163   0.656   1.618   2.572  0.2471  0.6833 -0.0392
 8176SOL    HW136164   0.718   1.564   2.620 -0.1350 -0.3390 -0.7086
 8176SOL    HW236165   0.632   1.564   2.497 -0.8589  2.9874 -1.3616
 8177SOL     OW36166   0.561   2.930   7.715  0.1832  0.5436  0.4134
 8177SOL    HW136167   0.528   2.916   7.804  1.0560  3.2217  1.1427
 8177SOL    HW236168   0.635   2.989   7.727  0.9197 -0.2995 -0.0230
 8178SOL     OW36169   3.516   1.013   4.184  0.4032  0.0494  0.7856
 8178SOL    HW136170   3.472   1.098   4.177 -1.8672 -1.0908  1.1765
 8178SOL    HW236171   3.538   1.010   4.277 -0.1606  0.5868  0.9371
 8179SOL     OW36172   4.408   1.885   0.414 -0.1848 -0.2545 -0.8576
 8179SOL    HW136173   4.396   1.887   0.509  0.1103 -0.8795 -0.8019
 8179SOL    HW236174   4.497   1.917   0.406 -0.0560  0.1031  2.2839
 8180SOL     OW36175   0.748   0.052  13.950  0.5129  0.2865 -0.5111
 8180SOL    HW136176   0.719   0.016  14.034  1.3207 -2.7163 -1.5248
 8180SOL    HW236177   0.766   4.714  13.902 -0.8998  0.8849 -2.0358
 8181SOL     OW36178   4.227   2.976  14.878  0.2313 -0.6575 -0.5504
 8181SOL    HW136179   4.303   2.962  14.935 -0.2553  2.0372  0.7067
 8181SOL    HW236180   4.263   3.034  14.811 -0.9994  2.8531  1.8900
 8182SOL     OW36181   0.813   2.723   3.676  0.0349  0.2248  0.5358
 8182SOL    HW136182   0.755   2.674   3.735  1.2647 -0.6886  0.9782
 8182SOL    HW236183   0.756   2.741   3.601 -0.8970 -3.8411  0.2460
 8183SOL     OW36184   4.159   4.192  11.115  0.1362  0.0584  0.1806
 8183SOL    HW136185   4.150   4.285  11.098 -2.6134 -0.0612  0.8772
 8183SOL    HW236186   4.084   4.168  11.171  1.8622  0.2337  2.5759
 8184SOL     OW36187   4.326   0.765   3.554 -0.0029  0.0218  0.5161
 8184SOL    HW136188   4.231   0.773   3.549  0.0410 -0.7337 -1.4493
 8184SOL    HW236189   4.358   0.837   3.609  1.7704 -0.2887 -0.1103
 8185SOL     OW36190   0.418   3.540  12.135 -1.0920 -0.2392 -0.3908
 8185SOL    HW136191   0.365   3.589  12.198  0.8677  0.2004  0.8929
 8185SOL    HW236192   0.364   3.464  12.111 -0.6587 -1.1130  1.3534
 8186SOL     OW36193   1.039   0.641   6.421  1.0857 -0.6732 -0.2481
 8186SOL    HW136194   0.959   0.603   6.458  0.1552  1.9459  0.4205
 8186SOL    HW236195   1.021   0.728   6.387 -0.1485 -2.0571 -3.1510
 8187SOL     OW36196   1.082   4.122   7.289  0.5566 -0.0627  0.0150
 8187SOL    HW136197   1.057   4.060   7.220  0.1271 -2.3579  2.2340
 8187SOL    HW236198   1.026   4.198   7.272  0.9786  0.4244  0.8340
 8188SOL     OW36199   0.069   2.226  15.977 -0.1487  0.5906  0.0608
 8188SOL    HW136200   0.114   2.275  15.908  1.8961  0.9822  1.6702
 8188SOL    HW236201   0.003   2.290  16.005 -0.8466  0.4369 -1.2261
 8189SOL     OW36202   1.680   1.049   4.713  0.3642 -0.3455  0.4374
 8189SOL    HW136203   1.628   0.981   4.672  1.9519  0.0140 -2.1988
 8189SOL    HW236204   1.768   1.020   4.689  1.0735  1.7527  0.4558
 8190SOL     OW36205   4.263   3.387  14.596 -0.1344  0.0324 -0.2516
 8190SOL    HW136206   4.318   3.451  14.552 -0.1896 -0.0426 -0.4277
 8190SOL    HW236207   4.183   3.381  14.543 -0.4412  2.1154 -0.0175
 8191SOL     OW36208   2.792   4.376   7.974  0.2307  0.0768 -0.5553
 8191SOL    HW136209   2.722   4.421   7.927 -0.2310 -0.1708 -0.0955
 8191SOL    HW236210   2.859   4.435   7.941  0.6652 -0.0062  0.1784
 8192SOL     OW36211   3.480   1.283  13.479 -0.5963 -0.6353  0.1150
 8192SOL    HW136212   3.418   1.211  13.493  0.4833 -1.5595  0.1510
 8192SOL    HW236213   3.440   1.343  13.417  0.0705  0.6631  0.9593
 8193SOL     OW36214   0.368   1.780   4.844  0.0212 -0.0541 -0.1724
 8193SOL    HW136215   0.352   1.872   4.821 -0.2689 -0.2824 -0.8683
 8193SOL    HW236216   0.401   1.800   4.932 -1.2041  4.7094 -0.7906
 8194SOL     OW36217   1.481   4.508   3.035  0.0008  0.0932 -0.4111
 8194SOL    HW136218   1.407   4.512   3.095 -0.1581 -0.3232 -0.5831
 8194SOL    HW236219   1.499   4.601   3.021  2.5562 -0.1065  1.5723
 8195SOL     OW36220   1.875   4.455  16.153 -0.7865 -0.3614  0.8756
 8195SOL    HW136221   1.937   4.528  16.163 -0.5970 -0.5408  1.0251
 8195SOL    HW236222   1.878   4.407  16.236 -0.9900 -1.7640  0.0697
 8196SOL     OW36223   2.957   0.299   5.921 -0.2044  0.7125 -0.0525
 8196SOL    HW136224   2.868   0.272   5.900  0.5606 -1.8384 -0.0961
 8196SOL    HW236225   3.015   0.240   5.871  0.4979  1.9841 -0.7333
 8197SOL     OW36226   1.981   2.087   3.656  0.4872  0.0197 -0.4632
 8197SOL    HW136227   1.955   2.044   3.574  2.5980  0.8795 -1.5751
 8197SOL    HW236228   2.019   2.011   3.700  1.0559  1.4948  1.5374
 8198SOL     OW36229   0.174   1.039  12.740 -0.2007  0.4575 -0.4897
 8198SOL    HW136230   0.098   1.010  12.690 -0.4248  0.0002  0.1061
 8198SOL    HW236231   0.220   1.102  12.685  0.5848  0.5525  0.2752
 8199SOL     OW36232   1.490   3.368   3.456 -0.4450 -0.9438  0.2850
 8199SOL    HW136233   1.520   3.459   3.461 -0.8200 -0.7417 -1.0048
 8199SOL    HW236234   1.516   3.342   3.367 -3.0327 -1.7278 -0.2465
 8200SOL     OW36235   3.946   1.640   3.438 -0.6060 -0.4080  0.1813
 8200SOL    HW136236   3.903   1.555   3.441 -0.4662 -0.5866 -2.3509
 8200SOL    HW236237   3.880   1.689   3.487  1.1397  2.6021 -0.5189
 8201SOL     OW36238   3.042   2.834   7.426  0.4513 -0.1062  0.3519
 8201SOL    HW136239   3.029   2.743   7.398 -0.9922  0.6785 -1.5443
 8201SOL    HW236240   3.125   2.846   7.470 -0.2753  1.7696  1.2126
 8202SOL     OW36241   4.423   0.709   2.383  0.3936 -0.0716 -0.2414
 8202SOL    HW136242   4.458   0.624   2.357  0.1554 -0.2387 -0.0214
 8202SOL    HW236243   4.472   0.767   2.324 -0.8315  1.4793  0.2430
 8203SOL     OW36244   1.904   3.213   6.472 -0.1582 -0.1969 -0.4477
 8203SOL    HW136245   1.989   3.170   6.478  0.2694  0.7020 -0.0795
 8203SOL    HW236246   1.939   3.302   6.475  1.5817 -0.9259  1.3460
 8204SOL     OW36247   0.306   4.447   8.468  0.4026  0.1977 -0.0342
 8204SOL    HW136248   0.240   4.393   8.513  0.3593  0.8927  0.7390
 8204SOL    HW236249   0.289   4.534   8.504 -2.5820 -0.3165 -0.1395
 8205SOL     OW36250   3.917   3.523   2.266 -0.3624  0.6972  1.2367
 8205SOL    HW136251   3.924   3.459   2.337 -0.3675 -0.4666  0.1960
 8205SOL    HW236252   4.007   3.550   2.285 -0.0682 -0.4126  1.4461
 8206SOL     OW36253   0.104   0.973   7.806  0.0141 -0.1231  0.1288
 8206SOL    HW136254   0.088   1.033   7.733  0.5370 -0.5411 -0.3159
 8206SOL    HW236255   0.014   0.953   7.832  0.9962 -3.7985  0.6905
 8207SOL     OW36256   3.228   4.031   3.305 -0.8244  0.7924 -0.6247
 8207SOL    HW136257   3.294   4.100   3.313  0.0155 -0.4297  2.9513
 8207SOL    HW236258   3.143   4.075   3.316 -1.0388 -0.6882  3.6160
 8208SOL     OW36259   1.274   1.793   7.436  0.4887 -0.0806 -0.4658
 8208SOL    HW136260   1.316   1.792   7.350  0.5098  0.4074 -0.4648
 8208SOL    HW236261   1.246   1.704   7.455 -0.9566  0.6376  0.7416
 8209SOL     OW36262   2.270   0.969   4.413  0.1536 -0.5485  0.7544
 8209SOL    HW136263   2.337   0.903   4.429 -0.4276 -1.4648 -0.5552
 8209SOL    HW236264   2.313   1.045   4.452  0.1949 -0.9408  1.4674
 8210SOL     OW36265   0.204   0.808   5.006 -0.2399  0.2038 -0.0079
 8210SOL    HW136266   0.245   0.876   4.952 -1.9523  1.3465  0.1459
 8210SOL    HW236267   0.110   0.819   4.995 -0.1549 -0.2860 -1.2428
 8211SOL     OW36268   2.425   1.866  10.294  0.5602 -0.6082  0.1203
 8211SOL    HW136269   2.393   1.847  10.382  0.2138 -1.7063 -0.2486
 8211SOL    HW236270   2.408   1.960  10.282 -0.0514 -0.7093  0.1847
 8212SOL     OW36271   2.376   4.707   6.586 -0.2486 -0.1554 -0.2240
 8212SOL    HW136272   2.345   4.691   6.675 -0.8253  0.6204 -0.2808
 8212SOL    HW236273   2.430   4.629   6.575  0.3354  0.3729 -1.1158
 8213SOL     OW36274   3.317   2.136  14.283  0.0361 -0.2614  0.3169
 8213SOL    HW136275   3.336   2.158  14.375 -0.7263 -1.7225  0.8299
 8213SOL    HW236276   3.402   2.129  14.241 -0.0869  3.5044 -0.6038
 8214SOL     OW36277   0.960   0.160   9.874 -0.0126  0.3311  0.0909
 8214SOL    HW136278   0.971   0.087   9.935 -0.7269  0.8457  0.8375
 8214SOL    HW236279   1.037   0.203   9.911 -1.3838  1.0938  2.0579
 8215SOL     OW36280   2.037   3.145   8.459 -0.1300  0.3206 -0.3324
 8215SOL    HW136281   2.071   3.094   8.532 -1.3376 -1.3092 -0.9038
 8215SOL    HW236282   2.113   3.153   8.401  0.1098 -0.9204 -0.1906
 8216SOL     OW36283   0.005   3.756  11.299  0.0516 -0.3146 -0.3788
 8216SOL    HW136284   4.664   3.717  11.326 -0.1779 -0.9434 -2.0186
 8216SOL    HW236285   0.037   3.694  11.234 -2.3890  0.0469 -1.9255
 8217SOL     OW36286   3.343   1.621   1.602  0.5941 -0.3121  0.9268
 8217SOL    HW136287   3.395   1.600   1.525 -0.5689  2.5361 -0.6111
 8217SOL    HW236288   3.327   1.529   1.624  1.5602 -0.3468  1.4943
 8218SOL     OW36289   4.331   2.775   3.496  0.2260 -0.7585 -0.2282
 8218SOL    HW136290   4.361   2.754   3.584 -0.2452 -2.0377 -0.3643
 8218SOL    HW236291   4.312   2.686   3.466 -3.1018 -0.0958 -0.1373
 8219SOL     OW36292   4.119   0.047   4.871 -0.3490 -0.7994 -0.0355
 8219SOL    HW136293   4.183   0.074   4.805 -0.9396 -0.5320 -0.5081
 8219SOL    HW236294   4.125   0.115   4.938  1.0087  0.6599 -1.6224
 8220SOL     OW36295   0.216   2.575   6.761  0.1427 -0.2603  0.2696
 8220SOL    HW136296   0.186   2.629   6.688  0.8796 -0.9055 -0.5223
 8220SOL    HW236297   0.161   2.499   6.743 -0.5904 -0.0440  1.6084
 8221SOL     OW36298   3.570   2.996   5.677 -0.2593 -0.5474  0.1323
 8221SOL    HW136299   3.484   2.984   5.636 -0.0655 -1.1157 -0.1120
 8221SOL    HW236300   3.574   2.920   5.736  0.5895 -1.0342 -0.5433
 8222SOL     OW36301   0.573   2.160   4.297 -0.0281 -0.0739 -0.3763
 8222SOL    HW136302   0.638   2.127   4.235  3.9383  2.1009  2.6452
 8222SOL    HW236303   0.498   2.106   4.272 -0.5066  1.0485 -1.3439
 8223SOL     OW36304   0.101   1.979   8.960 -0.3158  0.1144 -0.0421
 8223SOL    HW136305   0.188   1.944   8.974  1.4241  2.5925 -4.6859
 8223SOL    HW236306   0.100   2.044   9.031  0.4349 -0.1440  0.2032
 8224SOL     OW36307   0.934   3.072  16.650 -0.3709  0.0190 -0.0615
 8224SOL    HW136308   0.891   2.986  16.648 -2.4516  1.0698 -1.1085
 8224SOL    HW236309   1.018   3.043  16.616 -2.0385 -1.5708 -2.7919
 8225SOL     OW36310   3.832   0.078   3.273  0.8517 -0.7672  0.1153
 8225SOL    HW136311   3.771   0.133   3.322 -0.6531 -1.1670 -1.3472
 8225SOL    HW236312   3.782   4.740   3.271 -1.7768  0.8896 -0.8394
 8226SOL     OW36313   3.387   4.114  11.749  0.2849  0.5259 -0.2835
 8226SOL    HW136314   3.329   4.176  11.705  1.1297  2.2131  1.0277
 8226SOL    HW236315   3.447   4.084  11.680 -0.0619 -0.0385 -0.3447
 8227SOL     OW36316   1.514   1.392   4.911 -0.5176  0.3281 -0.4170
 8227SOL    HW136317   1.485   1.305   4.885  2.0910 -0.3766 -0.9794
 8227SOL    HW236318   1.510   1.373   5.004 -0.6789 -0.8074 -0.6621
 8228SOL     OW36319   2.778   3.950  14.206  0.8737 -0.0165  0.1868
 8228SOL    HW136320   2.697   3.961  14.155  0.9317 -0.7391 -0.0558
 8228SOL    HW236321   2.748   3.884  14.268  0.0333  0.6785  0.5178
 8229SOL     OW36322   3.435   0.496   4.948  0.0716  0.4182 -0.3696
 8229SOL    HW136323   3.451   0.484   5.042 -3.0520  1.9484  0.3607
 8229SOL    HW236324   3.396   0.581   4.928 -0.6481  0.0901 -0.3796
 8230SOL     OW36325   3.471   2.268   2.992  0.4175  0.7591 -0.4029
 8230SOL    HW136326   3.423   2.251   3.074  2.6075 -0.1250  0.7094
 8230SOL    HW236327   3.398   2.293   2.935  0.6611  1.3135 -0.4671
 8231SOL     OW36328   0.887   1.126   0.041  0.1039  0.5126 -0.1781
 8231SOL    HW136329   0.952   1.191   0.014  0.7993 -0.0195  0.2046
 8231SOL    HW236330   0.824   1.174   0.094 -1.9076 -2.7049  0.4045
 8232SOL     OW36331   2.436   4.021   7.932 -0.3072  0.2491 -0.0402
 8232SOL    HW136332   2.470   4.007   8.021  2.0153  0.3863 -0.9079
 8232SOL    HW236333   2.514   3.999   7.881 -0.3447  0.0718 -0.0223
 8233SOL     OW36334   3.966   2.192   8.851 -0.3193 -0.2199 -0.3429
 8233SOL    HW136335   3.935   2.241   8.927  1.1246 -0.2855  0.2866
 8233SOL    HW236336   3.930   2.104   8.858 -0.1747 -0.4102 -1.8612
 8234SOL     OW36337   2.690   2.464  14.490  0.0411 -0.2674 -0.0040
 8234SOL    HW136338   2.717   2.468  14.398 -1.4209 -0.7095 -0.4551
 8234SOL    HW236339   2.773   2.438  14.529  0.8010  1.0065 -0.8100
 8235SOL     OW36340   0.682   4.100   3.225 -0.2657 -0.3296  0.0350
 8235SOL    HW136341   0.752   4.049   3.265 -0.0874 -0.1467 -0.0434
 8235SOL    HW236342   0.601   4.059   3.255 -0.4871  1.5607  2.0908
 8236SOL     OW36343   3.052   1.518   3.857  0.1408 -0.0546  0.6850
 8236SOL    HW136344   3.131   1.488   3.902 -0.6840  0.4012  2.4448
 8236SOL    HW236345   2.986   1.466   3.901  0.1994 -0.8841 -0.2103
 8237SOL     OW36346   4.051   4.280  12.976  0.1932 -0.4092  0.0450
 8237SOL    HW136347   4.145   4.267  12.984  0.1367 -1.5723 -1.1098
 8237SOL    HW236348   4.019   4.210  13.033  0.7415 -0.1271  0.6897
 8238SOL     OW36349   1.791   3.642  15.498 -0.0467 -0.6615  0.3275
 8238SOL    HW136350   1.731   3.711  15.527 -2.1005 -1.2559 -2.4603
 8238SOL    HW236351   1.796   3.663  15.404 -4.1573  0.5592  0.3731
 8239SOL     OW36352   0.961   0.131   3.193 -0.1369  0.3448 -0.0599
 8239SOL    HW136353   1.006   0.200   3.143  1.8023 -1.0344 -0.2311
 8239SOL    HW236354   0.992   0.049   3.153 -1.4904 -0.7351  1.0916
 8240SOL     OW36355   1.017   1.802   1.949 -0.1574  0.4531  0.0850
 8240SOL    HW136356   1.015   1.706   1.944  0.6006  0.5018 -1.1945
 8240SOL    HW236357   0.926   1.824   1.972 -1.2265 -3.4398 -0.2889
 8241SOL     OW36358   4.719   2.168   5.846 -0.4246 -0.0692 -1.0473
 8241SOL    HW136359   4.667   2.237   5.887  1.3499  0.4901  0.2667
 8241SOL    HW236360   4.682   2.168   5.757  0.0097  2.1104 -1.2349
 8242SOL     OW36361   3.611   1.675   3.921 -0.4656  0.2492 -0.6852
 8242SOL    HW136362   3.608   1.764   3.886  0.4877  0.5667  0.0536
 8242SOL    HW236363   3.670   1.626   3.864 -1.1327  0.5032 -1.6038
 8243SOL     OW36364   3.218   4.052   2.648  0.3444 -0.2624  0.2035
 8243SOL    HW136365   3.246   4.141   2.626  1.0936 -0.8185 -1.0858
 8243SOL    HW236366   3.301   4.005   2.661  0.3359 -0.4568 -0.4772
 8244SOL     OW36367   3.047   1.194   4.388  0.6279  0.5499 -0.0788
 8244SOL    HW136368   3.096   1.235   4.460 -0.0365  0.3214  0.4947
 8244SOL    HW236369   3.096   1.112   4.389  1.3455  0.9763  0.4792
 8245SOL     OW36370   2.862   0.646   7.971  0.9416 -0.2823 -1.0146
 8245SOL    HW136371   2.843   0.693   7.890 -0.8498 -0.7155 -0.8379
 8245SOL    HW236372   2.781   0.601   7.993  0.8965  1.0151  1.4651
 8246SOL     OW36373   0.151   2.176  17.273 -0.3832  0.3642 -0.0484
 8246SOL    HW136374   0.236   2.195  17.312  0.5887 -0.9085 -1.5338
 8246SOL    HW236375   0.117   2.265  17.260 -0.8095  0.0830 -0.8464
 8247SOL     OW36376   0.382   0.626   7.947 -0.5098 -0.3752 -0.2281
 8247SOL    HW136377   0.309   0.682   7.920 -0.3011 -0.0505 -0.1261
 8247SOL    HW236378   0.431   0.677   8.011 -0.8777 -1.9403  1.2963
 8248SOL     OW36379   1.958   0.872   0.440  0.3191 -0.2568  0.1287
 8248SOL    HW136380   2.011   0.794   0.455 -1.0581 -1.2194 -0.0229
 8248SOL    HW236381   2.030   0.936   0.444 -1.1372  1.6232 -3.0274
 8249SOL     OW36382   1.236   2.127   7.960 -0.2701  0.3252  0.1270
 8249SOL    HW136383   1.162   2.075   7.993  0.0499 -1.7616 -2.3865
 8249SOL    HW236384   1.214   2.121   7.867 -1.2222 -2.7508  0.5526
 8250SOL     OW36385   2.735   3.839   8.991  0.1042  0.0725  0.5513
 8250SOL    HW136386   2.822   3.806   8.970  1.2361  1.6992  2.6388
 8250SOL    HW236387   2.716   3.891   8.913  0.2011 -2.2745 -1.0425
 8251SOL     OW36388   3.012   0.825   8.132  0.2714 -1.2668  0.1836
 8251SOL    HW136389   3.032   0.778   8.213 -1.2320  2.1535  2.5460
 8251SOL    HW236390   2.956   0.767   8.082  0.1980  0.4323 -1.6970
 8252SOL     OW36391   0.225   1.535   8.647 -0.5167  0.1456  0.5038
 8252SOL    HW136392   0.274   1.603   8.601 -0.6247 -1.3313 -1.8006
 8252SOL    HW236393   0.245   1.460   8.590  0.3494  0.6676  0.1118
 8253SOL     OW36394   1.724   3.600   8.734 -1.0061  0.8345  0.5534
 8253SOL    HW136395   1.675   3.518   8.729  0.3442  0.2269 -3.0619
 8253SOL    HW236396   1.686   3.641   8.811  0.3130  1.3281  0.9430
 8254SOL     OW36397   3.335   1.701  10.881 -0.0044 -0.8953 -0.5765
 8254SOL    HW136398   3.330   1.616  10.925 -1.1962 -0.5422 -0.0319
 8254SOL    HW236399   3.422   1.732  10.907  1.4671 -2.7082 -3.4248
 8255SOL     OW36400   2.259   0.917   0.706 -0.1052 -0.2351 -0.3824
 8255SOL    HW136401   2.207   0.838   0.720 -0.6111  0.4894  1.8045
 8255SOL    HW236402   2.223   0.953   0.625  0.2102  0.0477 -0.3969
 8256SOL     OW36403   4.699   1.326   9.448 -0.3904 -0.2968 -0.3301
 8256SOL    HW136404   4.637   1.389   9.412 -1.7872 -1.8758 -0.6818
 8256SOL    HW236405   4.730   1.376   9.524 -1.3479 -1.8843  1.0984
 8257SOL     OW36406   3.125   4.143   3.661 -0.8520  0.1196 -0.4572
 8257SOL    HW136407   3.191   4.212   3.655  0.7774 -1.2699  1.7342
 8257SOL    HW236408   3.044   4.177   3.623 -0.3168  1.5669 -0.3416
 8258SOL     OW36409   3.823   4.733   4.022 -0.9727 -0.6673 -0.1567
 8258SOL    HW136410   3.908   0.026   3.996 -0.9957 -0.0433  0.6169
 8258SOL    HW236411   3.833   0.004   4.116 -1.9973 -1.8302  0.1241
 8259SOL     OW36412   3.038   4.137   2.007  0.1716  0.2923  0.6801
 8259SOL    HW136413   3.115   4.091   1.973  0.2425  0.2590  0.8841
 8259SOL    HW236414   2.998   4.164   1.925  1.2181  1.5428  0.5775
 8260SOL     OW36415   1.793   3.167   9.022  0.2376 -0.1751  0.1082
 8260SOL    HW136416   1.735   3.216   9.081  0.6789  0.9373 -0.3667
 8260SOL    HW236417   1.764   3.208   8.940  1.4352  1.1999  0.3702
 8261SOL     OW36418   2.521   2.168   8.678 -0.0078 -0.0083 -0.2217
 8261SOL    HW136419   2.604   2.206   8.707 -0.4777  0.1049  0.9690
 8261SOL    HW236420   2.517   2.092   8.736  1.1506 -0.1022 -0.2612
 8262SOL     OW36421   0.291   1.544   7.857  0.1243  0.1875 -0.0543
 8262SOL    HW136422   0.373   1.586   7.830 -0.7532  0.7488 -1.8192
 8262SOL    HW236423   0.292   1.540   7.952 -1.3802 -1.8835 -0.1314
 8263SOL     OW36424   2.541   1.476   3.615 -0.1394 -0.3050 -0.5087
 8263SOL    HW136425   2.634   1.494   3.604  0.2621 -1.9091  0.2430
 8263SOL    HW236426   2.543   1.408   3.682  1.5400  1.0064  0.7763
 8264SOL     OW36427   4.733   1.287   7.302 -0.0161  0.2536 -0.3304
 8264SOL    HW136428   4.659   1.322   7.352 -1.3445 -0.8532 -1.5116
 8264SOL    HW236429   4.734   1.354   7.234 -1.2758  0.6646  0.0522
 8265SOL     OW36430   0.568   1.220   3.934 -0.0792 -0.5261  0.5145
 8265SOL    HW136431   0.659   1.218   3.904 -0.5306  0.0579 -0.8879
 8265SOL    HW236432   0.562   1.289   4.000  0.8225  0.0068  0.0414
 8266SOL     OW36433   2.786   0.391  14.519  0.0479 -0.4395 -0.0182
 8266SOL    HW136434   2.764   0.345  14.439  1.8194  0.8884 -1.2740
 8266SOL    HW236435   2.849   0.330  14.557 -0.4060  0.6462  2.4745
 8267SOL     OW36436   0.242   4.366   5.403  0.2856 -0.1777 -0.5730
 8267SOL    HW136437   0.253   4.272   5.387  0.2917 -0.1157 -0.9269
 8267SOL    HW236438   0.316   4.391   5.348  2.5119  1.5529  3.1516
 8268SOL     OW36439   1.658   4.177   5.542 -0.6062 -0.2706 -0.5590
 8268SOL    HW136440   1.577   4.227   5.538 -1.3799 -1.5039 -0.4156
 8268SOL    HW236441   1.719   4.224   5.486 -1.0770 -0.4226 -1.2008
 8269SOL     OW36442   4.404   1.136  12.666 -0.3729  0.1879 -0.1455
 8269SOL    HW136443   4.333   1.199  12.679 -1.4753 -1.0991 -0.0511
 8269SOL    HW236444   4.475   1.173  12.720  0.1703  1.3228 -1.6231
 8270SOL     OW36445   2.833   2.896  16.869  0.0491  0.0729 -0.0634
 8270SOL    HW136446   2.800   2.985  16.866 -2.7557 -1.0540 -2.0717
 8270SOL    HW236447   2.826   2.879  16.963 -1.7677  1.0992 -0.0219
 8271SOL     OW36448   2.101   3.571   2.549 -0.2864  0.1702 -0.2665
 8271SOL    HW136449   2.121   3.478   2.539  2.5980  0.7510  0.1210
 8271SOL    HW236450   2.153   3.616   2.482 -0.1032  0.0650 -0.1965
 8272SOL     OW36451   2.990   3.118   8.105  0.2366 -0.1343 -0.5907
 8272SOL    HW136452   2.928   3.155   8.042  1.1474 -0.3373 -1.6013
 8272SOL    HW236453   2.959   3.147   8.191  0.0458 -0.1835 -0.6438
 8273SOL     OW36454   2.854   1.949   7.828  0.0384 -0.2897 -0.0211
 8273SOL    HW136455   2.908   2.027   7.816 -1.2842  0.1072 -3.4444
 8273SOL    HW236456   2.768   1.979   7.798  0.0392 -0.3973 -0.1347
 8274SOL     OW36457   1.272   2.536   9.201  0.4727  0.2846 -0.1829
 8274SOL    HW136458   1.234   2.569   9.281 -0.8378 -2.2008  0.2359
 8274SOL    HW236459   1.346   2.487   9.237  0.0023 -0.4205 -0.1691
 8275SOL     OW36460   0.507   2.249   2.124 -0.3126 -0.0272 -0.1483
 8275SOL    HW136461   0.531   2.266   2.215 -1.0701  2.8405 -0.4699
 8275SOL    HW236462   0.423   2.208   2.142 -0.1705 -0.1144  0.3085
 8276SOL     OW36463   0.819   4.387   1.243 -0.3935  0.2411  0.5167
 8276SOL    HW136464   0.796   4.345   1.160  0.0021  0.4336  0.3082
 8276SOL    HW236465   0.781   4.330   1.310  0.5850 -2.4967 -1.2434
 8277SOL     OW36466   3.396   1.793  15.745  0.3555  0.1869  0.5107
 8277SOL    HW136467   3.313   1.801  15.791 -0.8090 -0.0052 -1.5867
 8277SOL    HW236468   3.458   1.768  15.813 -0.7205 -2.4455  0.5171
 8278SOL     OW36469   1.324   1.347  12.308 -0.4066  0.3178 -0.0806
 8278SOL    HW136470   1.388   1.402  12.355  0.9528 -0.2921 -1.2073
 8278SOL    HW236471   1.354   1.262  12.340  0.0853  0.0855 -1.1618
 8279SOL     OW36472   0.791   1.726   3.287  0.5096 -0.3501 -0.4821
 8279SOL    HW136473   0.776   1.818   3.311  3.9821  0.4062 -1.1663
 8279SOL    HW236474   0.840   1.741   3.206 -2.3270  0.2430 -2.0843
 8280SOL     OW36475   1.471   2.248   8.106  0.0079  0.0263  0.8064
 8280SOL    HW136476   1.418   2.170   8.090 -1.0808  0.8629  0.2973
 8280SOL    HW236477   1.407   2.316   8.128 -0.5088  0.2260 -1.2462
 8281SOL     OW36478   1.006   3.755   8.668 -0.3205  0.2323  0.2751
 8281SOL    HW136479   1.019   3.726   8.578 -3.9398  0.0059 -0.1847
 8281SOL    HW236480   1.064   3.830   8.656 -2.9233  2.3759  1.0393
 8282SOL     OW36481   1.373   2.225   4.031  0.0689 -0.3978  0.2209
 8282SOL    HW136482   1.285   2.191   4.048  0.9350 -2.6288  0.1870
 8282SOL    HW236483   1.424   2.153   3.994  1.4962  1.7440 -2.0327
 8283SOL     OW36484   4.375   2.317  16.711  0.3839 -0.0818 -0.0647
 8283SOL    HW136485   4.440   2.248  16.723 -0.3100 -0.6608  0.3589
 8283SOL    HW236486   4.436   2.389  16.695  1.0555 -0.3547  1.2842
 8284SOL     OW36487   4.712   2.743   9.311  0.1701  0.0346 -0.5477
 8284SOL    HW136488   0.019   2.728   9.391  0.6204 -0.8128 -0.9832
 8284SOL    HW236489   4.718   2.837   9.293 -2.1433 -0.0011 -1.5485
 8285SOL     OW36490   0.200   1.875  10.421  0.0402 -0.0544  0.6830
 8285SOL    HW136491   0.113   1.901  10.451  0.3371  0.8401  0.7619
 8285SOL    HW236492   0.241   1.855  10.505  2.4157 -0.0566 -0.5054
 8286SOL     OW36493   4.210   4.635   8.525  0.5967 -0.1036 -1.0977
 8286SOL    HW136494   4.272   4.563   8.532 -0.7209 -1.2676 -1.2360
 8286SOL    HW236495   4.256   4.708   8.567  0.4174 -0.2236 -0.6844
 8287SOL     OW36496   2.777   0.309   3.152 -0.1134  0.7196  0.0531
 8287SOL    HW136497   2.795   0.402   3.167 -1.5630  1.4336 -2.6118
 8287SOL    HW236498   2.713   0.288   3.220  1.6498  1.9646  2.0935
 8288SOL     OW36499   1.067   0.511   1.669 -0.2758 -0.0330 -0.0538
 8288SOL    HW136500   1.098   0.589   1.716 -1.9510  2.4244 -3.0018
 8288SOL    HW236501   1.108   0.520   1.583  0.8434  0.2237  0.5082
 8289SOL     OW36502   1.410   3.298   6.521  0.3684 -0.2656 -0.4043
 8289SOL    HW136503   1.490   3.251   6.547  2.2335  3.2187  0.2543
 8289SOL    HW236504   1.347   3.227   6.531  1.7900 -1.5520 -0.5018
 8290SOL     OW36505   3.356   0.333   7.565  0.0422 -0.2937  0.6235
 8290SOL    HW136506   3.287   0.329   7.499 -0.2244  1.0772  0.8197
 8290SOL    HW236507   3.315   0.284   7.636 -0.6564  0.5772  0.8125
 8291SOL     OW36508   4.615   1.447   2.846  0.4223 -0.1788  0.2987
 8291SOL    HW136509   4.565   1.369   2.867  2.8339 -1.8857 -0.3146
 8291SOL    HW236510   4.666   1.461   2.926  2.1165 -2.9069 -0.3073
 8292SOL     OW36511   1.941   4.457  11.499 -0.1921  0.2970  0.1371
 8292SOL    HW136512   1.988   4.412  11.429 -0.0145 -0.7604  0.9397
 8292SOL    HW236513   1.864   4.476  11.446 -0.1079  1.6040  0.4707
 8293SOL     OW36514   3.157   2.293  12.527 -0.0234  0.3663  0.0408
 8293SOL    HW136515   3.223   2.337  12.473  0.3541 -0.6303 -0.3148
 8293SOL    HW236516   3.225   2.239  12.566 -1.2578 -0.0800  1.5726
 8294SOL     OW36517   0.882   3.956   5.651  0.2282 -0.8608  0.3714
 8294SOL    HW136518   0.880   3.977   5.558 -1.6740  0.3102  0.6878
 8294SOL    HW236519   0.886   4.036   5.705  0.3688 -0.2051 -0.6164
 8295SOL     OW36520   3.642   3.578   8.794  0.6555 -0.1439  0.2114
 8295SOL    HW136521   3.711   3.609   8.735  0.0069  0.7426 -0.0715
 8295SOL    HW236522   3.680   3.491   8.810  1.4109  0.2792  0.7153
 8296SOL     OW36523   4.397   2.084   6.219  0.5798  0.0589  0.2144
 8296SOL    HW136524   4.488   2.102   6.245  0.7006  0.6131 -0.5834
 8296SOL    HW236525   4.368   2.007   6.267  0.8299  0.0064  0.2800
 8297SOL     OW36526   2.259   4.728   0.396  0.4692  0.6305 -0.7177
 8297SOL    HW136527   2.285   4.690   0.312 -1.0190 -0.7970 -0.5333
 8297SOL    HW236528   2.187   4.672   0.424  0.1997  0.2841 -2.0983
 8298SOL     OW36529   2.380   3.833   1.379 -0.2135  0.1644 -0.3844
 8298SOL    HW136530   2.315   3.764   1.391 -0.3922  1.0214  3.6237
 8298SOL    HW236531   2.394   3.823   1.285  1.3162  0.8353 -0.2178
 8299SOL     OW36532   3.088   4.461   8.317  0.0245 -0.2184  0.2550
 8299SOL    HW136533   3.044   4.428   8.238  1.3287  0.1319 -0.6099
 8299SOL    HW236534   3.035   4.539   8.333 -1.9376 -1.8036  1.5455
 8300SOL     OW36535   4.698   0.669   4.450  0.1946  0.5684  0.6534
 8300SOL    HW136536   4.684   0.689   4.358 -0.2949 -2.3137  0.0932
 8300SOL    HW236537   4.606   0.663   4.476  0.2989 -0.3479  0.8052
 8301SOL     OW36538   0.315   4.218   6.138  0.5546  0.2034  0.0454
 8301SOL    HW136539   0.303   4.306   6.175  2.8916  0.5031  0.0726
 8301SOL    HW236540   0.269   4.160   6.199 -0.0558  0.0730 -0.5356
 8302SOL     OW36541   1.447   2.317   3.183 -0.2483 -0.0158 -0.4749
 8302SOL    HW136542   1.512   2.261   3.141 -0.6677 -0.7292 -0.1754
 8302SOL    HW236543   1.449   2.292   3.275 -2.7894  1.0217 -0.1138
 8303SOL     OW36544   0.011   0.182   4.256  0.6287 -0.3413 -0.8853
 8303SOL    HW136545   0.094   0.135   4.253  1.5823  1.3042 -0.0198
 8303SOL    HW236546   0.021   0.225   4.171 -0.8429  1.1473 -0.3049
 8304SOL     OW36547   3.539   1.179   8.127 -0.0026 -0.2064 -0.2242
 8304SOL    HW136548   3.557   1.094   8.087 -0.9476 -0.2869 -0.4765
 8304SOL    HW236549   3.456   1.205   8.086  2.4134  0.3702 -4.6740
 8305SOL     OW36550   2.902   0.530   3.469  0.3728  1.0686  0.2688
 8305SOL    HW136551   2.964   0.484   3.527 -0.5563 -0.2505  0.2092
 8305SOL    HW236552   2.820   0.508   3.513  2.1453 -0.6265  2.7714
 8306SOL     OW36553   3.020   2.870   3.874  0.1665  0.0935  0.6974
 8306SOL    HW136554   3.055   2.889   3.787  2.1530 -0.2049  1.4350
 8306SOL    HW236555   3.102   2.876   3.924  1.0614 -0.6407 -0.6916
 8307SOL     OW36556   1.231   2.523   3.700  0.1701 -0.3883 -0.1315
 8307SOL    HW136557   1.230   2.614   3.728 -1.5071  0.1654 -2.0573
 8307SOL    HW236558   1.145   2.516   3.660  0.7922 -2.3141 -1.1462
 8308SOL     OW36559   4.337   2.445  11.084  0.3800  0.2827  0.2143
 8308SOL    HW136560   4.266   2.381  11.085  0.7317 -0.1117 -0.4409
 8308SOL    HW236561   4.408   2.384  11.071  0.1297  0.5715 -2.5539
 8309SOL     OW36562   3.969   1.946   7.712  0.8558  0.2971 -0.1298
 8309SOL    HW136563   4.023   1.967   7.636 -0.1372  2.9296 -0.1132
 8309SOL    HW236564   3.934   2.031   7.736  2.2426  0.1293  2.3885
 8310SOL     OW36565   2.682   1.902  16.391  0.5995 -0.5285  0.3786
 8310SOL    HW136566   2.674   1.932  16.301 -0.5554  0.2978  0.7536
 8310SOL    HW236567   2.746   1.961  16.431  1.6237 -0.3165 -1.5832
 8311SOL     OW36568   0.056   1.906   7.475  0.0719 -0.3908  0.3037
 8311SOL    HW136569   4.727   1.954   7.434 -0.2066 -0.2369  0.9681
 8311SOL    HW236570   0.050   1.826   7.422 -0.4735  0.3780 -0.8082
 8312SOL     OW36571   3.662   1.694  15.616  0.1757  0.5586  0.3258
 8312SOL    HW136572   3.582   1.733  15.652 -0.2079  0.0811 -0.0091
 8312SOL    HW236573   3.638   1.710  15.525  0.4349  1.7671  0.4695
 8313SOL     OW36574   3.295   2.576   3.987 -0.1779  0.2136  0.2151
 8313SOL    HW136575   3.223   2.551   3.929  0.2675 -0.6029  0.0206
 8313SOL    HW236576   3.285   2.498   4.041 -3.1006 -0.1367 -0.8392
 8314SOL     OW36577   2.163   2.598   2.984 -0.0179 -0.5046  0.1165
 8314SOL    HW136578   2.244   2.609   3.034 -1.0467  0.5647  1.5454
 8314SOL    HW236579   2.140   2.680   2.941 -0.7894 -0.2121  1.1226
 8315SOL     OW36580   1.839   0.785   7.581 -0.0193  0.2357 -0.2778
 8315SOL    HW136581   1.783   0.803   7.505  0.3584 -1.2155 -0.8928
 8315SOL    HW236582   1.906   0.728   7.543  0.4212  1.1151 -0.8282
 8316SOL     OW36583   4.439   1.147   9.275  0.0817  1.4320  0.2148
 8316SOL    HW136584   4.520   1.098   9.257 -0.8741 -0.3517  0.6904
 8316SOL    HW236585   4.374   1.086   9.239  0.4610  1.0620  0.1453
 8317SOL     OW36586   0.301   0.910  11.499 -0.2763 -0.0316 -0.0531
 8317SOL    HW136587   0.210   0.882  11.500  0.1311 -1.2594  2.5824
 8317SOL    HW236588   0.296   0.968  11.423  2.2108  0.7267  0.3549
 8318SOL     OW36589   2.617   4.174   6.983  0.0598  0.3746  0.1392
 8318SOL    HW136590   2.625   4.079   6.997 -0.1789  0.4938  1.0717
 8318SOL    HW236591   2.526   4.202   6.982 -0.2694 -0.7140 -1.8604
 8319SOL     OW36592   4.668   2.029   0.341  0.5132 -0.3181 -0.7341
 8319SOL    HW136593   4.698   1.977   0.266  0.8814  2.1419 -2.2825
 8319SOL    HW236594   0.008   2.032   0.389 -0.1527 -0.5384  0.4170
 8320SOL     OW36595   0.064   3.672   6.365  0.1399  0.3742 -0.0710
 8320SOL    HW136596   4.726   3.722   6.375 -1.3132 -2.3539  1.9705
 8320SOL    HW236597   0.060   3.603   6.432  3.5074 -1.3357 -1.6025
 8321SOL     OW36598   1.166   1.692   6.755 -0.4910  0.4918 -0.2693
 8321SOL    HW136599   1.092   1.632   6.762  0.7019 -0.9881 -0.3556
 8321SOL    HW236600   1.204   1.698   6.842 -1.3816 -0.7942  0.2177
 8322SOL     OW36601   1.737   3.921   1.792 -0.2402 -0.4496 -0.2665
 8322SOL    HW136602   1.703   3.987   1.732 -0.1568  0.2914  0.5049
 8322SOL    HW236603   1.745   3.964   1.877 -1.1731  0.6300 -0.7196
 8323SOL     OW36604   0.158   1.369   1.188 -0.7318 -0.1323 -0.5781
 8323SOL    HW136605   0.219   1.371   1.115 -1.2322  0.5865 -0.9739
 8323SOL    HW236606   0.089   1.432   1.167 -0.6011  1.0867  2.6202
 8324SOL     OW36607   0.645   3.298  15.515 -0.0326  0.7395  0.2570
 8324SOL    HW136608   0.571   3.341  15.558 -1.1255  1.7595 -2.5956
 8324SOL    HW236609   0.710   3.300  15.585 -2.8295  2.6560  2.8454
 8325SOL     OW36610   3.335   4.286   2.510  0.2664 -0.3530  0.6413
 8325SOL    HW136611   3.257   4.333   2.541  1.3318  1.7511  0.0952
 8325SOL    HW236612   3.299   4.252   2.429  1.9074  0.2377 -0.3283
 8326SOL     OW36613   0.021   1.860   7.746  0.4425  0.2304 -0.4536
 8326SOL    HW136614   0.049   1.873   7.655  1.7926 -1.4271 -0.2609
 8326SOL    HW236615   4.685   1.915   7.752 -0.4833 -0.9254 -1.8892
 8327SOL     OW36616   4.259   0.215  17.157 -0.4988  0.4200 -0.3174
 8327SOL    HW136617   4.164   0.227  17.155 -0.3418  1.6298 -0.1050
 8327SOL    HW236618   4.259   0.121  17.176 -0.1998  1.1233  3.2743
 8328SOL     OW36619   3.149   0.181   6.430  0.2796 -0.0499  0.6592
 8328SOL    HW136620   3.090   0.143   6.364 -1.2130 -2.6360  3.5039
 8328SOL    HW236621   3.160   0.103   6.485  0.4418  0.2708  1.0739
 8329SOL     OW36622   0.235   2.291   5.504 -0.0857 -0.1169 -0.0728
 8329SOL    HW136623   0.194   2.312   5.420  1.3695  0.9080 -0.5305
 8329SOL    HW236624   0.300   2.361   5.510 -0.3150  0.1322 -0.4626
 8330SOL     OW36625   0.971   3.990   7.081  0.4019  0.1229 -0.6265
 8330SOL    HW136626   0.898   3.989   7.143 -0.0684  1.1798 -1.1720
 8330SOL    HW236627   0.947   3.932   7.009 -2.1705 -1.5429  1.5936
 8331SOL     OW36628   1.498   2.409   1.073  0.3445  0.4059 -0.0840
 8331SOL    HW136629   1.591   2.387   1.075  0.3484  0.7445  3.2232
 8331SOL    HW236630   1.518   2.503   1.078 -1.4603  0.7387  0.8999
 8332SOL     OW36631   1.876   0.870   9.132 -0.1926 -0.0782  0.0038
 8332SOL    HW136632   1.917   0.956   9.118 -1.1470  0.2770 -0.5681
 8332SOL    HW236633   1.939   0.849   9.201  0.2368  0.5322 -0.1985
 8333SOL     OW36634   2.845   4.119   1.767 -0.0707  0.2126  0.1206
 8333SOL    HW136635   2.872   4.058   1.699  0.5175  2.3233 -1.5646
 8333SOL    HW236636   2.841   4.049   1.831 -0.7200  0.6394  0.5525
 8334SOL     OW36637   2.785   0.725   6.437  0.2031  0.3017  0.8223
 8334SOL    HW136638   2.852   0.679   6.386 -0.5723  0.7727 -0.6376
 8334SOL    HW236639   2.830   0.809   6.433 -1.5088  1.1403 -0.9183
 8335SOL     OW36640   0.550   1.383   2.794  0.3329 -0.0732  0.0019
 8335SOL    HW136641   0.553   1.351   2.704  1.1927  0.3659 -0.1218
 8335SOL    HW236642   0.464   1.423   2.786  1.5658  2.7573  1.0618
 8336SOL     OW36643   1.185   3.948   3.040  0.2695 -0.2984  0.7223
 8336SOL    HW136644   1.093   3.935   3.017  0.1262  1.4543  0.3105
 8336SOL    HW236645   1.162   3.969   3.131  1.2016 -3.5396  1.6797
 8337SOL     OW36646   0.007   2.029   2.763 -0.0805 -0.1696  0.8890
 8337SOL    HW136647   0.021   2.054   2.672  0.6452 -1.5563  0.6238
 8337SOL    HW236648   0.044   2.108   2.802  0.6169  0.6560 -1.4713
 8338SOL     OW36649   3.586   3.140   4.766 -0.0520 -0.0566  0.4668
 8338SOL    HW136650   3.664   3.085   4.763 -1.4451 -2.1266  2.4567
 8338SOL    HW236651   3.595   3.204   4.837  1.0229  0.7959 -0.4379
 8339SOL     OW36652   4.210   0.776   7.029 -0.4216 -0.2794  0.3613
 8339SOL    HW136653   4.282   0.839   7.025 -0.1236 -0.8158 -2.5799
 8339SOL    HW236654   4.205   0.771   7.124 -1.1404  1.2587  0.4012
 8340SOL     OW36655   2.524   0.503   8.783  0.1374  0.3104  0.2631
 8340SOL    HW136656   2.531   0.582   8.730  0.1513 -0.0656 -0.2926
 8340SOL    HW236657   2.517   0.535   8.873  0.9646 -1.5429  0.9774
 8341SOL     OW36658   3.686   1.480   8.623  0.5084  0.6342  0.3677
 8341SOL    HW136659   3.650   1.514   8.541  0.4260  0.8928  0.5111
 8341SOL    HW236660   3.763   1.535   8.639  0.0329  0.2810  4.0102
 8342SOL     OW36661   1.798   0.880  14.183  0.4612 -0.0321 -0.0021
 8342SOL    HW136662   1.761   0.964  14.208 -0.5503 -0.6036  0.4526
 8342SOL    HW236663   1.716   0.847  14.145 -0.8857  1.2373  1.8272
 8343SOL     OW36664   0.564   2.248   2.384 -0.0541  0.3640 -0.1372
 8343SOL    HW136665   0.658   2.234   2.392 -0.3510 -0.6237  1.7383
 8343SOL    HW236666   0.544   2.213   2.471  1.3383 -1.0862 -0.4044
 8344SOL     OW36667   3.352   0.166   3.365 -0.0259 -0.5082 -0.3939
 8344SOL    HW136668   3.288   0.237   3.352  0.1153 -0.2407  0.3927
 8344SOL    HW236669   3.433   0.206   3.333 -0.2127  0.7290  0.6513
 8345SOL     OW36670   4.182   3.447   8.899  0.2451  0.1393 -0.0442
 8345SOL    HW136671   4.178   3.383   8.828 -0.0323 -0.8054  0.8235
 8345SOL    HW236672   4.249   3.505   8.863  2.3550 -3.3854 -1.8314
 8346SOL     OW36673   3.622   3.480   8.093 -0.0975 -0.8372 -0.2177
 8346SOL    HW136674   3.564   3.408   8.116 -1.6110  0.0358 -1.3114
 8346SOL    HW236675   3.573   3.513   8.018 -0.0033 -1.1760 -0.4286
 8347SOL     OW36676   3.244   0.591  11.339  0.7320  0.4729 -0.1489
 8347SOL    HW136677   3.170   0.605  11.398  1.2772 -0.7506  0.8503
 8347SOL    HW236678   3.198   0.536  11.275 -1.7376 -0.5733  2.4924
 8348SOL     OW36679   3.006   2.777   3.176  0.3655 -0.6378 -0.1981
 8348SOL    HW136680   3.048   2.832   3.110 -2.1361  0.5844 -0.7903
 8348SOL    HW236681   2.920   2.777   3.135 -0.2964  0.9912  1.1611
 8349SOL     OW36682   3.902   1.974   3.113  0.0235  0.3089 -0.4080
 8349SOL    HW136683   3.940   1.991   3.199 -0.7993  0.5250 -0.0787
 8349SOL    HW236684   3.977   1.996   3.059 -0.3499  2.4000 -0.0596
 8350SOL     OW36685   3.136   2.006  13.592  0.2106 -0.5606  0.1142
 8350SOL    HW136686   3.169   1.927  13.549  0.9561  0.0940 -0.5169
 8350SOL    HW236687   3.194   2.077  13.564  0.2457 -0.6751 -0.1024
 8351SOL     OW36688   0.131   2.878  10.516  0.3107  0.2908  0.1415
 8351SOL    HW136689   0.188   2.802  10.513 -1.8214 -1.2589 -0.4609
 8351SOL    HW236690   0.051   2.845  10.475  0.5494  2.1134 -1.8041
 8352SOL     OW36691   3.978   2.981  12.353 -0.1613  0.3456  0.7802
 8352SOL    HW136692   3.987   3.043  12.426 -4.6571  1.3902  0.4029
 8352SOL    HW236693   3.883   2.992  12.345 -0.2207 -2.4509 -2.5030
 8353SOL     OW36694   2.673   4.546   7.758 -0.3382  0.3355 -0.6399
 8353SOL    HW136695   2.644   4.526   7.669 -0.3067  3.4477 -1.3282
 8353SOL    HW236696   2.708   4.633   7.741  0.5034 -0.3898 -2.6462
 8354SOL     OW36697   1.765   2.419  14.521  0.2634 -0.2890  0.2488
 8354SOL    HW136698   1.672   2.443  14.519 -0.0616 -1.5494  0.3177
 8354SOL    HW236699   1.797   2.484  14.459 -0.2056  0.1069  0.4201
 8355SOL     OW36700   1.310   1.293  12.023 -0.1804  0.5145 -0.0166
 8355SOL    HW136701   1.230   1.240  12.024  0.0376  0.1996  0.9460
 8355SOL    HW236702   1.311   1.306  12.118  0.1110  2.0304 -0.2285
 8356SOL     OW36703   2.271   3.870   4.495 -0.0353 -0.1866  0.0137
 8356SOL    HW136704   2.347   3.914   4.532 -1.1563  2.8004 -1.1895
 8356SOL    HW236705   2.307   3.810   4.429  1.9933 -1.7545  2.5837
 8357SOL     OW36706   2.400   1.038   5.121 -0.4583  0.3662 -0.4196
 8357SOL    HW136707   2.316   1.010   5.160 -1.2004  2.1942 -0.7259
 8357SOL    HW236708   2.368   1.118   5.080  0.0957  1.0037  0.3919
 8358SOL     OW36709   1.332   1.632   5.188 -0.3209 -0.1851  0.1104
 8358SOL    HW136710   1.411   1.672   5.225  1.8491 -3.7585 -0.7454
 8358SOL    HW236711   1.312   1.698   5.121  2.6440  0.2765 -0.2828
 8359SOL     OW36712   2.787   3.756  14.676 -0.3517  0.3163  0.2481
 8359SOL    HW136713   2.717   3.774  14.739 -2.7525 -2.0661 -1.7214
 8359SOL    HW236714   2.819   3.846  14.673 -1.0404  0.6626  3.6083
 8360SOL     OW36715   2.962   1.343  11.314  0.2806  0.0692  0.8737
 8360SOL    HW136716   2.926   1.315  11.230  0.3768 -1.5871  1.3910
 8360SOL    HW236717   2.923   1.268  11.359  0.8739 -1.0258 -0.4429
 8361SOL     OW36718   1.385   1.567   2.397 -0.1922 -0.0969 -0.0036
 8361SOL    HW136719   1.444   1.509   2.445  0.5998  0.7688  0.0589
 8361SOL    HW236720   1.351   1.625   2.465  0.1218 -1.5400  1.3879
 8362SOL     OW36721   1.983   1.016  14.548  0.0219  0.1180 -0.2738
 8362SOL    HW136722   1.983   0.938  14.492 -1.0339 -0.8160  1.0210
 8362SOL    HW236723   1.917   1.075  14.512 -1.9490 -2.6619 -1.2403
 8363SOL     OW36724   1.457   3.835   1.826  0.5450 -0.2209  0.2596
 8363SOL    HW136725   1.416   3.899   1.768 -0.6384 -0.2601  1.0452
 8363SOL    HW236726   1.546   3.828   1.794  0.0669  0.1136 -1.1442
 8364SOL     OW36727   3.542   1.857   8.005  0.1722 -0.1517 -0.3692
 8364SOL    HW136728   3.615   1.816   7.959  1.1072 -0.2126  1.1512
 8364SOL    HW236729   3.470   1.799   7.980  1.1170 -1.6264  0.3563
 8365SOL     OW36730   0.719   2.734   3.126  0.0636 -0.9286 -0.1108
 8365SOL    HW136731   0.751   2.704   3.041 -0.0296  0.4478 -0.6303
 8365SOL    HW236732   0.733   2.657   3.181  0.6721 -1.8219 -1.5081
 8366SOL     OW36733   3.162   0.309  17.197 -0.2902  0.6732 -0.6874
 8366SOL    HW136734   3.146   0.376  17.130  0.4539  0.0699 -1.4758
 8366SOL    HW236735   3.074   0.284  17.222  0.0710  0.4116  0.3128
 8367SOL     OW36736   4.496   0.626   5.871 -0.3992 -0.3030 -0.2444
 8367SOL    HW136737   4.427   0.561   5.859  1.4433 -2.1278 -0.9460
 8367SOL    HW236738   4.552   0.570   5.926  0.3157 -0.1433 -0.8127
 8368SOL     OW36739   1.798   0.848   8.585  0.3527 -0.0760  0.4614
 8368SOL    HW136740   1.788   0.789   8.510  0.8304 -2.4114  2.2501
 8368SOL    HW236741   1.805   0.933   8.541  0.7066 -0.1147  0.4438
 8369SOL     OW36742   4.715   4.366   5.960  0.2250 -0.8128 -0.0592
 8369SOL    HW136743   4.648   4.331   6.018 -2.1850  0.4828 -2.0868
 8369SOL    HW236744   4.710   4.297   5.893  1.6683 -0.0880 -0.9240
 8370SOL     OW36745   4.303   2.644   6.499 -0.2282 -0.4098 -0.2972
 8370SOL    HW136746   4.327   2.730   6.534  1.1863  0.4249 -3.3134
 8370SOL    HW236747   4.239   2.673   6.434  0.4497  1.2492 -0.2238
 8371SOL     OW36748   2.762   3.979  15.532 -0.2392 -0.5661 -0.0040
 8371SOL    HW136749   2.777   3.888  15.507  0.7135 -1.0456  2.3703
 8371SOL    HW236750   2.839   4.030  15.505  0.6622 -1.1257  1.5295
 8372SOL     OW36751   0.492   3.050   9.303 -0.0480 -0.1292  0.0152
 8372SOL    HW136752   0.451   2.964   9.310  0.9223 -0.5916 -0.1298
 8372SOL    HW236753   0.455   3.094   9.380 -1.6646 -0.5519 -0.5040
 8373SOL     OW36754   1.369   3.711   6.139  0.2204  0.6095  0.2969
 8373SOL    HW136755   1.292   3.701   6.084  0.1870 -0.3687  0.5201
 8373SOL    HW236756   1.352   3.650   6.211  1.0768  0.7512  0.6245
 8374SOL     OW36757   1.674   4.000   8.639 -0.5237 -0.3149 -0.3554
 8374SOL    HW136758   1.682   3.923   8.582  1.0768 -0.1110 -0.4069
 8374SOL    HW236759   1.756   4.001   8.689  0.0252 -1.0191 -1.2330
 8375SOL     OW36760   4.520   0.252   4.796 -0.0231 -0.8534 -0.1424
 8375SOL    HW136761   4.456   0.257   4.867  1.4843  0.9877  1.0957
 8375SOL    HW236762   4.592   0.300   4.837  0.0627 -1.5405  0.5079
 8376SOL     OW36763   2.373   3.090   6.668  0.1111 -0.4625  0.2056
 8376SOL    HW136764   2.376   3.154   6.739 -0.3482  1.0593 -1.1440
 8376SOL    HW236765   2.458   3.050   6.684  0.8522  1.4468  1.0517
 8377SOL     OW36766   2.382   1.223   8.000 -0.3767 -0.1139  0.3817
 8377SOL    HW136767   2.389   1.162   8.074  2.1932  0.4572  0.6124
 8377SOL    HW236768   2.329   1.180   7.933 -0.5391  1.2508 -0.3669
 8378SOL     OW36769   2.857   4.376   0.115 -0.2746 -0.0125  0.2084
 8378SOL    HW136770   2.897   4.406   0.197 -1.3035  1.5377  0.1502
 8378SOL    HW236771   2.925   4.317   0.084 -0.5687  0.1195 -0.6897
 8379SOL     OW36772   2.552   4.371   6.568  0.2313 -0.6767  0.0417
 8379SOL    HW136773   2.592   4.411   6.645  1.7942 -2.0905 -0.0122
 8379SOL    HW236774   2.634   4.350   6.522 -0.6985 -1.5609 -1.2313
 8380SOL     OW36775   3.948   2.821  10.922 -0.5689  0.0244  0.1489
 8380SOL    HW136776   3.867   2.781  10.891 -0.5712  1.2191 -1.3946
 8380SOL    HW236777   4.010   2.756  10.890 -0.5592  0.9333 -1.6950
 8381SOL     OW36778   4.443   3.289   8.478 -0.0892  0.2179  0.3894
 8381SOL    HW136779   4.455   3.211   8.424  2.7266  1.9562 -1.5350
 8381SOL    HW236780   4.367   3.334   8.442  0.1552  0.7254  0.5049
 8382SOL     OW36781   2.279   0.372   2.787 -0.1823  0.2286 -0.5273
 8382SOL    HW136782   2.330   0.318   2.727  0.3645  1.4701 -1.1711
 8382SOL    HW236783   2.339   0.382   2.861  0.2857  0.5117 -0.9541
 8383SOL     OW36784   4.112   4.601   1.679 -0.2982 -0.0672 -0.2576
 8383SOL    HW136785   4.112   4.602   1.775 -0.3038 -1.0938 -0.2491
 8383SOL    HW236786   4.035   4.649   1.650  0.9111  1.3001 -1.2499
 8384SOL     OW36787   1.897   4.177   2.206 -0.0974  0.0111 -0.5294
 8384SOL    HW136788   1.860   4.130   2.131 -3.2735  2.5525 -0.5702
 8384SOL    HW236789   1.922   4.105   2.263 -1.6750 -0.8552 -0.9146
 8385SOL     OW36790   0.246   3.659  14.151 -0.0242  0.0473  0.0967
 8385SOL    HW136791   0.208   3.745  14.134 -1.5504 -0.5144  0.7176
 8385SOL    HW236792   0.230   3.619  14.066  1.9923 -0.4160 -0.0781
 8386SOL     OW36793   4.276   2.340  12.362 -0.4182  0.3990  0.2720
 8386SOL    HW136794   4.287   2.258  12.410  2.0231  1.6461  1.8204
 8386SOL    HW236795   4.194   2.316  12.320 -0.4911 -0.3329  0.8513
 8387SOL     OW36796   0.550   2.712   2.421 -0.3269  0.1227  0.1304
 8387SOL    HW136797   0.510   2.635   2.379 -1.1977  1.1072 -0.8390
 8387SOL    HW236798   0.594   2.667   2.493 -2.6924 -0.8322  0.9795
 8388SOL     OW36799   1.848   2.372   8.362  0.5049  0.7955 -0.0861
 8388SOL    HW136800   1.761   2.403   8.383 -0.6477 -1.0945 -1.9722
 8388SOL    HW236801   1.899   2.451   8.378  1.3011  0.3225 -0.2466
 8389SOL     OW36802   2.457   1.168   2.058 -0.3763  0.2322  0.3206
 8389SOL    HW136803   2.366   1.194   2.073 -0.9674 -0.0784 -2.6260
 8389SOL    HW236804   2.450   1.074   2.039  1.2761  0.4222 -1.2592
 8390SOL     OW36805   2.430   2.114  17.284 -0.4900 -0.3590 -1.0997
 8390SOL    HW136806   2.477   2.063  17.218  1.0786  0.1923 -0.4168
 8390SOL    HW236807   2.387   2.177  17.226 -0.0612 -0.9553 -2.0625
 8391SOL     OW36808   1.488   2.009   5.054 -0.2407 -0.6022  0.4031
 8391SOL    HW136809   1.416   2.063   5.023 -2.8016 -4.3924 -0.2345
 8391SOL    HW236810   1.567   2.025   5.003 -1.4926  3.3759 -0.2819
 8392SOL     OW36811   4.115   1.885   7.409  0.8247  0.3559  0.1729
 8392SOL    HW136812   4.177   1.942   7.455 -0.8492  1.4499  1.0577
 8392SOL    HW236813   4.045   1.942   7.379  0.8814  0.0729 -0.4856
 8393SOL     OW36814   3.911   1.211   3.805  0.1301 -0.2246  0.4641
 8393SOL    HW136815   3.839   1.210   3.743  1.0924  1.5603 -0.6930
 8393SOL    HW236816   3.870   1.211   3.892 -1.1300 -0.1964 -0.1322
 8394SOL     OW36817   2.917   3.372   7.802 -0.3880 -0.6237 -0.1382
 8394SOL    HW136818   2.863   3.294   7.816 -0.0700 -0.5086  1.7787
 8394SOL    HW236819   2.987   3.336   7.747  1.4648  2.1894  0.3987
 8395SOL     OW36820   0.541   4.558  16.227  0.3828  0.4954 -0.1639
 8395SOL    HW136821   0.487   4.498  16.279 -0.3176  1.8255  0.6350
 8395SOL    HW236822   0.546   4.616  16.303 -0.1638 -0.5656  0.6931
 8396SOL     OW36823   3.049   2.548   3.304 -0.0687  0.0166  0.2601
 8396SOL    HW136824   2.954   2.541   3.290  0.1528  0.1680 -1.3003
 8396SOL    HW236825   3.056   2.634   3.262 -0.5945  0.7995  1.7815
 8397SOL     OW36826   4.541   1.736   4.490 -0.3381 -0.0958 -0.0422
 8397SOL    HW136827   4.457   1.715   4.529 -0.3028  1.0789  0.6516
 8397SOL    HW236828   4.564   1.674   4.421 -2.9132  0.8966 -1.7857
 8398SOL     OW36829   2.710   0.517   4.013  0.2582 -0.4693 -0.2390
 8398SOL    HW136830   2.640   0.499   4.076  0.3473 -2.8971 -0.8326
 8398SOL    HW236831   2.774   0.496   4.081 -0.0025 -0.6572 -0.0502
 8399SOL     OW36832   3.070   1.881   2.778 -0.5985 -0.2698 -0.0708
 8399SOL    HW136833   2.987   1.903   2.736 -1.8950 -1.3509  1.9040
 8399SOL    HW236834   3.070   1.941   2.852 -2.2406 -0.2336 -0.0973
 8400SOL     OW36835   1.770   1.463   1.795  0.0157  0.2092 -0.4559
 8400SOL    HW136836   1.675   1.473   1.786  0.1422  1.8047  0.0709
 8400SOL    HW236837   1.778   1.511   1.877  3.0306 -0.4466 -0.3566
 8401SOL     OW36838   4.215   2.049   9.500  0.1956 -0.3168 -0.1576
 8401SOL    HW136839   4.302   2.032   9.536  0.1713 -1.9462 -0.8633
 8401SOL    HW236840   4.231   2.117   9.435  0.7160  1.4367  1.8417
 8402SOL     OW36841   1.880   1.334   4.833  0.0292 -0.2037  0.3235
 8402SOL    HW136842   1.799   1.383   4.819 -0.8109 -0.8909  2.7334
 8402SOL    HW236843   1.894   1.275   4.759 -0.3818  1.4996 -1.1015
 8403SOL     OW36844   3.887   1.807  10.467  0.5166  0.0478  0.0058
 8403SOL    HW136845   3.794   1.812  10.488  0.3804 -0.3783 -0.4766
 8403SOL    HW236846   3.894   1.846  10.380  0.1851  1.1078  0.4570
 8404SOL     OW36847   4.179   1.515   6.122 -0.5749  0.5750 -0.3004
 8404SOL    HW136848   4.117   1.581   6.154  0.8235  2.0022 -0.5437
 8404SOL    HW236849   4.160   1.432   6.165  1.0595  0.2919 -0.1112
 8405SOL     OW36850   3.272   0.074   3.769 -0.1988 -0.2727 -0.1484
 8405SOL    HW136851   3.180   0.050   3.765 -0.4789  0.6079  1.1846
 8405SOL    HW236852   3.306   0.028   3.692  2.7184  0.0019  0.9596
 8406SOL     OW36853   4.489   4.373   5.302  0.0569 -0.3010 -0.0314
 8406SOL    HW136854   4.430   4.321   5.356  0.3301 -1.4562 -0.8432
 8406SOL    HW236855   4.425   4.388   5.232  1.2189  0.7444 -0.8845
 8407SOL     OW36856   2.209   4.152   4.073 -0.3151  0.5244  0.5208
 8407SOL    HW136857   2.219   4.057   4.069  1.3031  0.7163  0.2833
 8407SOL    HW236858   2.218   4.172   4.167  0.1370 -1.3183  0.8572
 8408SOL     OW36859   3.856   2.537  11.147 -0.2137 -0.2945  0.1840
 8408SOL    HW136860   3.788   2.508  11.209 -0.1099  0.8918  0.8553
 8408SOL    HW236861   3.869   2.459  11.093  1.5718 -1.2035  1.9212
 8409SOL     OW36862   4.585   1.149   5.007  0.0261 -0.7736 -0.1007
 8409SOL    HW136863   4.592   1.191   5.093  0.0111 -2.2225  0.6058
 8409SOL    HW236864   4.664   1.173   4.958  0.3038  0.1188  0.7752
 8410SOL     OW36865   2.889   3.083   2.017 -0.0807 -0.3608  0.0776
 8410SOL    HW136866   2.962   3.022   2.017 -1.4863 -2.0210  1.2913
 8410SOL    HW236867   2.881   3.111   2.108 -2.0521 -1.3714  0.2134
 8411SOL     OW36868   0.468   1.131  17.364 -0.2455  0.5852 -0.2353
 8411SOL    HW136869   0.457   1.219  17.330 -1.1798 -0.0758 -1.6523
 8411SOL    HW236870   0.545   1.139  17.420  0.9671 -0.4356 -1.7586
 8412SOL     OW36871   0.688   0.143  16.467  0.8787  0.4001 -0.4890
 8412SOL    HW136872   0.626   0.084  16.426 -1.4601  1.7834  1.0484
 8412SOL    HW236873   0.643   0.226  16.453 -0.6421 -0.4596 -0.7483
 8413SOL     OW36874   4.386   0.708  13.225  0.4684  0.5922  0.1985
 8413SOL    HW136875   4.447   0.698  13.298  0.9692 -0.5350 -0.3728
 8413SOL    HW236876   4.413   0.628  13.181  1.6905  0.5063  1.1093
 8414SOL     OW36877   4.255   1.376   2.256 -0.0749 -0.2895  0.7547
 8414SOL    HW136878   4.179   1.415   2.300  0.6283  2.6083 -0.6017
 8414SOL    HW236879   4.325   1.389   2.320  0.7956  0.6883 -0.4247
 8415SOL     OW36880   3.691   4.489   2.356  0.1583  0.2381  0.0959
 8415SOL    HW136881   3.599   4.484   2.331 -0.3240 -0.1848  1.9280
 8415SOL    HW236882   3.712   4.582   2.344 -0.6252  0.2896 -0.8359
 8416SOL     OW36883   0.709   3.478   7.372  0.5736 -0.0484  0.1187
 8416SOL    HW136884   0.760   3.508   7.296 -0.2304  1.3573  0.1392
 8416SOL    HW236885   0.776   3.431   7.421 -0.4781 -1.1137  0.5388
 8417SOL     OW36886   0.721   3.078   5.666  0.4091  0.3884  0.1713
 8417SOL    HW136887   0.720   3.044   5.756 -0.9348  1.9353  0.7435
 8417SOL    HW236888   0.703   3.169   5.690  1.4064  0.9332 -1.1402
 8418SOL     OW36889   4.462   3.487   3.865 -0.3528 -0.6339 -0.5278
 8418SOL    HW136890   4.531   3.427   3.894  0.4104  0.3838 -0.2413
 8418SOL    HW236891   4.505   3.542   3.800 -0.9325 -0.0589 -0.4233
 8419SOL     OW36892   3.052   4.493  14.891  0.2512  0.0971  0.3527
 8419SOL    HW136893   2.996   4.545  14.949  1.4225  0.7595  0.8755
 8419SOL    HW236894   3.110   4.559  14.854 -0.6270  0.0565 -1.0997
 8420SOL     OW36895   4.175   0.449   5.246  0.0418 -0.4364  0.6849
 8420SOL    HW136896   4.102   0.473   5.189 -0.0378  0.9207  1.3542
 8420SOL    HW236897   4.145   0.501   5.321 -2.1249 -0.2491 -0.2976
 8421SOL     OW36898   1.051   4.202   3.173  0.6628  0.2179 -0.3009
 8421SOL    HW136899   1.144   4.206   3.197  0.5407  1.4312 -0.0196
 8421SOL    HW236900   1.006   4.216   3.257 -1.9277 -1.4998 -1.4005
 8422SOL     OW36901   0.948   1.786   0.314  0.0281 -0.0717 -0.4897
 8422SOL    HW136902   0.896   1.746   0.244 -1.3101 -0.1876  0.5620
 8422SOL    HW236903   0.882   1.852   0.338 -0.6164 -1.3377  1.2434
 8423SOL     OW36904   0.724   1.444  17.475 -0.1523 -0.0322 -0.3513
 8423SOL    HW136905   0.782   1.377  17.440  0.0771 -0.5582  1.0610
 8423SOL    HW236906   0.669   1.445  17.396 -1.2887 -0.0582  0.4328
 8424SOL     OW36907   2.614   0.466   6.568 -0.0150  0.0895  0.4106
 8424SOL    HW136908   2.654   0.529   6.628 -0.4422 -0.1593  0.9590
 8424SOL    HW236909   2.543   0.518   6.530 -0.4721 -1.9371 -1.5175
 8425SOL     OW36910   3.373   3.218   9.677 -0.5203 -0.5595 -0.1172
 8425SOL    HW136911   3.344   3.133   9.710  3.2552 -1.8997 -0.3516
 8425SOL    HW236912   3.422   3.256   9.750 -0.4977  0.9015 -0.8848
 8426SOL     OW36913   1.875   1.058  17.730  0.6711  0.6203  0.3133
 8426SOL    HW136914   1.946   1.091  17.675 -0.7977  0.4690 -1.6994
 8426SOL    HW236915   1.918   0.995   0.020  2.1807  1.7454  0.4211
 8427SOL     OW36916   3.268   1.710  10.408 -0.4046 -0.7953  0.4316
 8427SOL    HW136917   3.299   1.762  10.482 -2.3320 -0.1470  0.7677
 8427SOL    HW236918   3.356   1.685  10.379 -1.0810 -0.6310 -1.8040
 8428SOL     OW36919   3.423   0.472   4.476 -0.5475  0.0954 -0.4098
 8428SOL    HW136920   3.506   0.483   4.522 -1.9514 -0.7887  2.2920
 8428SOL    HW236921   3.427   0.382   4.443 -1.1913 -0.2310  0.4262
 8429SOL     OW36922   0.335   2.922   6.099 -0.7035  0.2248 -0.2612
 8429SOL    HW136923   0.292   2.950   6.018  0.4453  3.6263  0.3326
 8429SOL    HW236924   0.414   2.976   6.102 -0.3550 -0.2331 -1.3237
 8430SOL     OW36925   2.638   2.467   2.662  0.0736 -0.2322  0.3785
 8430SOL    HW136926   2.698   2.432   2.728  3.5434  0.8337 -2.2039
 8430SOL    HW236927   2.705   2.501   2.603  0.5894 -0.1847  0.9905
 8431SOL     OW36928   4.628   0.495   2.416  0.1313 -0.1178 -0.1827
 8431SOL    HW136929   4.566   0.432   2.379 -1.7427  1.3692  0.4220
 8431SOL    HW236930   4.666   0.445   2.488  0.3943  0.2964 -0.0317
 8432SOL     OW36931   1.508   1.924  16.976  0.6104 -0.2977 -0.0836
 8432SOL    HW136932   1.591   1.879  16.994  0.1049 -1.9550 -1.8124
 8432SOL    HW236933   1.506   1.995  17.039  2.4781 -1.0480  0.8389
 8433SOL     OW36934   1.792   3.029   9.955  0.2679  0.2330  1.1843
 8433SOL    HW136935   1.822   2.939   9.954  3.9121  1.4790 -2.5019
 8433SOL    HW236936   1.782   3.039  10.050  1.0131  0.2825  1.2577
 8434SOL     OW36937   0.546   2.112   5.151  1.0608 -0.7665 -0.0855
 8434SOL    HW136938   0.464   2.105   5.200 -0.1045  1.2464 -1.7679
 8434SOL    HW236939   0.553   2.020   5.126  0.1667 -0.4788 -1.3807
 8435SOL     OW36940   4.593   1.955   2.206  0.3742  0.6952 -0.4736
 8435SOL    HW136941   4.651   2.032   2.208  0.1107  0.8755  0.2132
 8435SOL    HW236942   4.512   1.973   2.159  1.2270 -0.8578 -2.5233
 8436SOL     OW36943   0.830   3.525   9.339  0.5023  0.1096 -0.3532
 8436SOL    HW136944   0.761   3.482   9.389 -1.2960  1.5595 -1.5699
 8436SOL    HW236945   0.901   3.468   9.368  1.1658  1.8287  1.3850
 8437SOL     OW36946   2.727   4.584  15.389 -0.1490  0.3418 -0.3855
 8437SOL    HW136947   2.760   4.500  15.420 -1.5043 -0.2617 -0.5321
 8437SOL    HW236948   2.807   4.616  15.349  0.2359 -2.2388 -1.6681
 8438SOL     OW36949   2.715   1.705   8.267  0.1832  0.4331 -0.3476
 8438SOL    HW136950   2.716   1.650   8.188  0.4533  0.8042 -0.6062
 8438SOL    HW236951   2.778   1.764   8.225 -1.2586  2.6441  0.6143
 8439SOL     OW36952   4.416   3.844   6.568  0.0336 -0.1796 -0.2601
 8439SOL    HW136953   4.334   3.892   6.564 -0.5028 -1.1530 -0.9212
 8439SOL    HW236954   4.386   3.769   6.620  2.6903 -0.5224  0.7625
 8440SOL     OW36955   2.192   3.642  12.508  0.4218 -0.7585 -0.3034
 8440SOL    HW136956   2.145   3.721  12.479  1.0847  0.1133  1.0116
 8440SOL    HW236957   2.143   3.571  12.466  0.2498 -0.2744 -0.9306
 8441SOL     OW36958   2.694   4.368   2.932  0.3407  0.0428  0.2058
 8441SOL    HW136959   2.655   4.445   2.974  0.5771 -0.3457  1.1290
 8441SOL    HW236960   2.745   4.409   2.862 -0.2179 -1.9881 -1.3845
 8442SOL     OW36961   3.907   2.207  11.990  0.0344 -0.2475 -0.0930
 8442SOL    HW136962   3.860   2.208  11.907 -1.4354 -0.2701  0.7455
 8442SOL    HW236963   3.992   2.178  11.957 -0.6355 -0.7611 -1.3503
 8443SOL     OW36964   4.725   1.885   5.869 -0.3064 -0.5890 -0.0785
 8443SOL    HW136965   0.073   1.870   5.895  0.2752  1.4569 -0.9431
 8443SOL    HW236966   4.723   1.981   5.869 -0.6215 -0.5843 -3.6540
 8444SOL     OW36967   3.701   3.971   7.656 -0.1562 -0.6658  0.2377
 8444SOL    HW136968   3.781   4.011   7.687  0.3567 -0.7876 -0.9260
 8444SOL    HW236969   3.710   3.896   7.715 -1.3844  0.3425  1.6964
 8445SOL     OW36970   4.460   0.391  14.288 -0.0504  0.2781 -0.4990
 8445SOL    HW136971   4.389   0.421  14.344 -0.5997 -0.3428 -0.8576
 8445SOL    HW236972   4.418   0.406  14.203  1.9158  0.6182 -1.4341
 8446SOL     OW36973   2.892   4.641   8.215 -0.6363 -0.3892 -0.2050
 8446SOL    HW136974   2.973   4.679   8.183 -0.4472  0.0905  0.8475
 8446SOL    HW236975   2.826   4.690   8.166 -1.9697 -0.3237  1.6227
 8447SOL     OW36976   2.718   2.055   1.874  0.4357 -0.5787 -0.0170
 8447SOL    HW136977   2.704   1.974   1.923  0.2630  0.6160  1.9096
 8447SOL    HW236978   2.737   2.121   1.941  0.7378 -0.5298 -0.1489
 8448SOL     OW36979   2.069   3.049   7.709 -0.1597 -0.3004 -0.4512
 8448SOL    HW136980   2.028   2.964   7.729 -0.2438 -0.2392 -0.3657
 8448SOL    HW236981   2.159   3.036   7.739 -0.3171 -0.2825  0.0286
 8449SOL     OW36982   4.129   0.488  15.962 -0.1506 -0.2042  0.5942
 8449SOL    HW136983   4.083   0.572  15.957  0.3657 -0.1141 -2.8706
 8449SOL    HW236984   4.152   0.487  16.054 -0.0081  2.4286  0.5678
 8450SOL     OW36985   1.478   0.580   5.924  0.4288 -0.2580 -0.1719
 8450SOL    HW136986   1.539   0.514   5.889 -0.2925 -0.1030 -1.7118
 8450SOL    HW236987   1.446   0.534   6.002  1.8739 -0.4893  0.2973
 8451SOL     OW36988   0.704   3.761   5.325 -0.4678 -0.5629 -0.1614
 8451SOL    HW136989   0.786   3.785   5.281  0.3296 -0.5060  1.3616
 8451SOL    HW236990   0.710   3.666   5.321 -0.3347 -0.5951  0.8552
 8452SOL     OW36991   4.397   3.769   5.253 -0.5016 -0.0033 -0.4383
 8452SOL    HW136992   4.355   3.724   5.179  0.0211 -1.3291  0.0683
 8452SOL    HW236993   4.459   3.705   5.288 -0.3478  2.2237  3.3545
 8453SOL     OW36994   2.318   0.743   7.597  0.3627 -0.4876  0.7122
 8453SOL    HW136995   2.260   0.670   7.617 -0.3868  0.4315  1.9553
 8453SOL    HW236996   2.291   0.808   7.663 -0.1320  1.1314 -1.0812
 8454SOL     OW36997   0.736   2.457   8.738  0.3137  0.5027 -0.3894
 8454SOL    HW136998   0.708   2.381   8.789 -0.1228  0.9804  0.0770
 8454SOL    HW236999   0.832   2.450   8.731  0.4930  2.8322 -0.2320
 8455SOL     OW37000   1.405   1.553   6.273  0.2970  0.4617 -0.1687
 8455SOL    HW137001   1.459   1.585   6.200 -0.1296  0.2840 -0.5641
 8455SOL    HW237002   1.470   1.511   6.330  0.6103 -0.6250 -1.3152
 8456SOL     OW37003   3.520   4.370   6.666  0.4070  0.0940 -0.1356
 8456SOL    HW137004   3.429   4.389   6.643  0.0099 -0.2638  1.1363
 8456SOL    HW237005   3.556   4.361   6.577 -0.6543 -1.1869 -0.4206
 8457SOL     OW37006   2.653   4.158  14.974 -0.1165 -0.0777  0.2276
 8457SOL    HW137007   2.706   4.228  14.937 -0.4261  2.2233  4.1058
 8457SOL    HW237008   2.724   4.102  15.005 -0.2082 -0.4923 -0.3177
 8458SOL     OW37009   3.451   4.067  13.614  0.0183  0.0313  0.9173
 8458SOL    HW137010   3.417   4.148  13.651  0.1818 -0.3561  1.9223
 8458SOL    HW237011   3.367   4.021  13.618  1.1071 -2.0595  0.0922
 8459SOL     OW37012   0.896   2.199   1.010 -0.1837 -0.4398 -0.2132
 8459SOL    HW137013   0.954   2.174   1.082  0.0082 -1.4620 -0.7120
 8459SOL    HW237014   0.911   2.134   0.940 -0.4680  0.8584 -1.4886
 8460SOL     OW37015   0.107   4.617   9.290  0.5348  0.4094  0.2757
 8460SOL    HW137016   0.174   4.666   9.243  1.0217  0.8570  1.4256
 8460SOL    HW237017   0.037   4.613   9.225  0.1548 -0.7345  0.7450
 8461SOL     OW37018   1.764   0.714   8.328 -0.0281  0.2808  0.5576
 8461SOL    HW137019   1.800   0.634   8.288 -0.4868  0.0744  0.5622
 8461SOL    HW237020   1.718   0.753   8.253 -1.4973 -0.0106  1.3127
 8462SOL     OW37021   2.212   3.726   7.975 -0.3524  0.3291 -0.6246
 8462SOL    HW137022   2.188   3.634   7.991  1.9521  0.1376  1.7909
 8462SOL    HW237023   2.217   3.763   8.063  1.7241 -0.8960 -0.2277
 8463SOL     OW37024   3.734   4.452   5.728  0.3291  0.6034  0.0169
 8463SOL    HW137025   3.735   4.469   5.822  0.8213  0.8301 -0.0333
 8463SOL    HW237026   3.821   4.414   5.720  0.4300  0.6693  0.8498
 8464SOL     OW37027   3.374   3.443   7.962  0.0554  0.2732  0.1973
 8464SOL    HW137028   3.307   3.374   7.961 -0.0990  0.4447 -0.7247
 8464SOL    HW237029   3.376   3.475   7.872  0.0535 -0.2833 -0.0014
 8465SOL     OW37030   4.429   1.298   6.473  0.0972  0.0880  0.1087
 8465SOL    HW137031   4.412   1.274   6.564  0.9646 -0.3052  0.1633
 8465SOL    HW237032   4.337   1.320   6.455  0.6128  0.8887 -1.5630
 8466SOL     OW37033   3.338   3.870   3.479  0.4749 -0.2604 -0.0417
 8466SOL    HW137034   3.287   3.915   3.411  2.1662  0.8984 -0.5515
 8466SOL    HW237035   3.266   3.841   3.536 -0.6972 -0.6140 -1.6901
 8467SOL     OW37036   4.712   0.732   0.290 -0.3459 -0.2790 -0.0283
 8467SOL    HW137037   0.065   0.725   0.287 -0.1373  2.3608  0.4749
 8467SOL    HW237038   4.678   0.643   0.304 -1.0110 -0.1726 -0.9825
 8468SOL     OW37039   2.601   2.149   2.687  0.2585 -0.5658  0.2823
 8468SOL    HW137040   2.591   2.189   2.601  0.4763  1.1079  1.0508
 8468SOL    HW237041   2.531   2.192   2.736 -0.3809  0.1928 -1.2984
 8469SOL     OW37042   3.743   1.983   1.744  0.3368  0.3442 -0.1848
 8469SOL    HW137043   3.808   1.949   1.682  0.1466 -0.9463  0.3273
 8469SOL    HW237044   3.787   2.065   1.766  1.2746 -0.2019 -0.0471
 8470SOL     OW37045   4.511   4.741  10.078 -0.2638  0.8553  0.0853
 8470SOL    HW137046   4.529   0.012  10.171 -0.8774  1.0984  0.1638
 8470SOL    HW237047   4.444   4.676  10.095  1.0336 -0.4230  0.3332
 8471SOL     OW37048   4.597   2.170  17.127 -0.2249 -0.1239 -0.1188
 8471SOL    HW137049   4.672   2.228  17.120 -1.0996  1.0110 -0.0740
 8471SOL    HW237050   4.622   2.102  17.065  0.7223  0.4338 -0.3509
 8472SOL     OW37051   0.462   1.377  11.090 -0.1846  0.9281 -0.6158
 8472SOL    HW137052   0.473   1.468  11.118 -1.5077  1.2185 -1.0628
 8472SOL    HW237053   0.540   1.335  11.129  0.3942  1.8299 -0.8141
 8473SOL     OW37054   2.333   3.834   1.673  0.9658  0.6899  0.3499
 8473SOL    HW137055   2.246   3.794   1.669  0.7088  1.0566  2.3209
 8473SOL    HW237056   2.372   3.804   1.591 -1.6627  0.4315 -0.7927
 8474SOL     OW37057   1.889   3.557   9.031  0.3048  0.5458  0.2085
 8474SOL    HW137058   1.835   3.480   9.012  0.6019  0.6768 -1.1411
 8474SOL    HW237059   1.936   3.535   9.112 -2.8878 -0.7863  1.7209
 8475SOL     OW37060   0.002   2.836   7.623  0.5861 -0.2661  0.0111
 8475SOL    HW137061   0.056   2.818   7.699  1.3873 -1.0098 -0.7262
 8475SOL    HW237062   4.659   2.818   7.662 -0.6471  1.2770 -1.9899
 8476SOL     OW37063   4.093   4.326   5.864  0.1970  0.2588 -0.6857
 8476SOL    HW137064   4.117   4.267   5.793 -0.7283  0.7429 -1.4088
 8476SOL    HW237065   4.168   4.338   5.922  0.1663 -0.1962 -0.5521
 8477SOL     OW37066   2.929   3.009   2.761 -0.1115  0.2244 -0.1400
 8477SOL    HW137067   2.835   3.024   2.752 -0.5752 -2.0072  0.9695
 8477SOL    HW237068   2.950   3.013   2.667 -2.9061 -1.1726 -0.8260
 8478SOL     OW37069   3.671   3.762   4.462 -0.7628  0.4203  0.8117
 8478SOL    HW137070   3.715   3.681   4.435 -0.4013  0.8905 -0.0087
 8478SOL    HW237071   3.634   3.791   4.378  0.2029 -0.5920  0.0352
 8479SOL     OW37072   0.123   1.541   4.511  0.5239 -0.3728 -0.2845
 8479SOL    HW137073   0.117   1.450   4.480  0.5784 -0.6126  0.4036
 8479SOL    HW237074   0.188   1.537   4.582  0.7425 -1.1363 -0.5230
 8480SOL     OW37075   1.270   2.804  17.736  0.0087  0.4916 -0.3289
 8480SOL    HW137076   1.291   2.811   0.062  2.3721  4.0852 -1.1356
 8480SOL    HW237077   1.174   2.806  17.732 -0.0175  0.5637  0.2642
 8481SOL     OW37078   1.791   1.215  14.142 -0.4875 -0.2458 -0.5238
 8481SOL    HW137079   1.717   1.199  14.083 -0.8657 -4.5083  1.0527
 8481SOL    HW237080   1.830   1.294  14.106 -4.9465  1.5445 -1.4578
 8482SOL     OW37081   2.099   1.176  17.194 -0.0777  0.6413 -0.0296
 8482SOL    HW137082   2.016   1.216  17.220 -0.4692 -0.8533  1.0240
 8482SOL    HW237083   2.154   1.250  17.221  0.6968 -1.0366  2.9346
 8483SOL     OW37084   0.968   2.047   4.493 -0.0748  0.5063 -0.2149
 8483SOL    HW137085   0.981   2.066   4.400  2.0013 -1.1606 -0.2560
 8483SOL    HW237086   1.057   2.063   4.525 -0.1854  2.3181 -0.7972
 8484SOL     OW37087   3.621   3.695   7.073  0.3110 -0.1124  0.6257
 8484SOL    HW137088   3.639   3.764   7.136  1.6232 -0.8594  1.0773
 8484SOL    HW237089   3.619   3.738   6.987  1.8494  1.3749  1.3301
 8485SOL     OW37090   3.979   0.359   7.565  0.5523 -0.0097 -0.3181
 8485SOL    HW137091   3.953   0.403   7.646 -1.4120  0.9279 -1.4564
 8485SOL    HW237092   4.073   0.376   7.571  0.2602  1.9624 -1.4670
 8486SOL     OW37093   3.458   3.159   3.922 -0.0298 -0.3235 -0.1594
 8486SOL    HW137094   3.494   3.236   3.879  0.2541  0.8006  2.1098
 8486SOL    HW237095   3.389   3.131   3.861 -1.9142  1.6140  1.0726
 8487SOL     OW37096   0.573   1.323   2.525 -0.0940  0.2516  0.3123
 8487SOL    HW137097   0.530   1.248   2.485  3.0312 -0.4443 -1.6966
 8487SOL    HW237098   0.665   1.296   2.524  0.1720  1.1286  1.0960
 8488SOL     OW37099   3.528   2.855   6.551  0.1117 -0.1755 -0.4315
 8488SOL    HW137100   3.491   2.943   6.555 -3.3494 -1.5880 -1.5315
 8488SOL    HW237101   3.545   2.849   6.457 -0.9192 -0.7535 -0.5791
 8489SOL     OW37102   0.752   0.332   1.765 -0.3906  0.4637 -0.1773
 8489SOL    HW137103   0.821   0.384   1.724  0.3100  0.4713  1.0017
 8489SOL    HW237104   0.718   0.292   1.685 -0.8321  3.1051 -1.2960
 8490SOL     OW37105   1.938   1.920   2.406 -0.4228  0.5871  0.1631
 8490SOL    HW137106   1.927   2.015   2.401 -0.7633  0.6811  2.6857
 8490SOL    HW237107   1.919   1.897   2.315 -1.0284  1.9277 -0.0595
 8491SOL     OW37108   0.279   3.357   4.991 -0.3573  0.2864 -0.3241
 8491SOL    HW137109   0.235   3.282   5.031 -1.0848  0.3762 -0.9604
 8491SOL    HW237110   0.259   3.350   4.897  3.5115 -0.7640 -1.0772
 8492SOL     OW37111   0.542   3.752   3.910 -0.2308  0.4457 -0.1485
 8492SOL    HW137112   0.548   3.696   3.988  3.9586  2.3739  0.8990
 8492SOL    HW237113   0.631   3.738   3.877 -0.6710  0.1568 -1.2129
 8493SOL     OW37114   4.614   3.545   9.752  0.0235  0.1756 -0.5715
 8493SOL    HW137115   4.666   3.579   9.825 -2.2235  1.9319  0.2010
 8493SOL    HW237116   4.643   3.609   9.686  1.8720  0.6531  0.7056
 8494SOL     OW37117   1.971   2.477   9.631  0.4655  0.2814 -0.1493
 8494SOL    HW137118   1.897   2.426   9.598  1.2267 -0.2134 -1.0581
 8494SOL    HW237119   1.961   2.471   9.726 -0.5384 -0.4684 -0.3044
 8495SOL     OW37120   1.732   1.850   3.737 -0.1512 -0.1172 -0.4911
 8495SOL    HW137121   1.734   1.943   3.757 -0.6590 -0.1839 -0.1460
 8495SOL    HW237122   1.761   1.805   3.816 -0.2444  1.6829  0.5515
 8496SOL     OW37123   1.969   1.401   2.399  0.1699  0.6755  0.4640
 8496SOL    HW137124   1.963   1.316   2.355 -1.4992  0.9431  0.1572
 8496SOL    HW237125   1.876   1.423   2.389  0.1603  0.5626  0.3158
 8497SOL     OW37126   2.228   4.697   1.780 -0.1765  0.5723 -0.3927
 8497SOL    HW137127   2.196   4.651   1.857  0.4145 -1.1687 -1.1812
 8497SOL    HW237128   2.323   4.692   1.785 -0.4337 -1.6610  2.4763
 8498SOL     OW37129   1.170   3.913  14.341 -0.1035 -0.3474  0.1217
 8498SOL    HW137130   1.240   3.867  14.387  0.2460  1.5855  1.5177
 8498SOL    HW237131   1.229   3.986  14.321 -2.1883  1.1473 -0.6116
 8499SOL     OW37132   2.098   1.516   3.619  0.1731 -0.1965  0.1513
 8499SOL    HW137133   2.053   1.441   3.579 -1.1707  0.0238  1.2616
 8499SOL    HW237134   2.049   1.593   3.593 -1.9752 -1.7670 -0.4575
 8500SOL     OW37135   4.438   2.649   1.473 -0.4676 -0.0980  0.0644
 8500SOL    HW137136   4.508   2.711   1.494 -0.4419  0.4966 -1.8258
 8500SOL    HW237137   4.422   2.611   1.560  0.3576  2.4513  1.3332
 8501SOL     OW37138   2.784   4.274   2.617 -0.0839 -0.3477 -0.8762
 8501SOL    HW137139   2.754   4.364   2.624  0.2853 -0.3438  0.7431
 8501SOL    HW237140   2.723   4.245   2.550 -0.9831 -0.0535 -0.1866
 8502SOL     OW37141   2.628   1.689   1.037  0.1073  0.3665 -0.1268
 8502SOL    HW137142   2.589   1.727   0.958  0.2896 -0.5537 -0.6597
 8502SOL    HW237143   2.608   1.600   1.010  3.5700 -0.8513  1.3236
 8503SOL     OW37144   0.702   4.569   6.753  0.0208 -0.0562  0.2450
 8503SOL    HW137145   0.693   4.588   6.846 -1.0210  1.4596 -0.1653
 8503SOL    HW237146   0.610   4.555   6.731 -0.2203  0.5619  0.8386
 8504SOL     OW37147   3.860   4.664   1.593 -0.8483 -0.0029 -0.2728
 8504SOL    HW137148   3.793   4.598   1.611  0.8694 -1.2225  1.7373
 8504SOL    HW237149   3.818   0.007   1.586  3.2610  2.1458  1.2556
 8505SOL     OW37150   3.999   2.201   7.521  0.5522 -0.3576  0.0985
 8505SOL    HW137151   4.088   2.179   7.552 -0.1210 -1.4975  1.2459
 8505SOL    HW237152   3.997   2.295   7.502 -1.8343 -0.3037  0.7457
 8506SOL     OW37153   0.929   1.626   4.522  0.4343  0.0968 -0.4000
 8506SOL    HW137154   0.855   1.594   4.575 -0.8052  1.4718 -1.2752
 8506SOL    HW237155   0.995   1.608   4.589 -0.2857  1.0251  0.5713
 8507SOL     OW37156   3.198   1.047   1.871  0.5249 -0.2338 -0.2555
 8507SOL    HW137157   3.104   1.035   1.887  0.4406  1.1696  0.2819
 8507SOL    HW237158   3.199   1.018   1.779 -1.0203 -1.7498  0.2074
 8508SOL     OW37159   2.251   4.537  11.171  0.3544 -0.4022  0.0574
 8508SOL    HW137160   2.230   4.622  11.208 -1.7724 -1.0292  0.3099
 8508SOL    HW237161   2.272   4.561  11.081 -0.0768  0.3319  0.1542
 8509SOL     OW37162   0.498   0.482   1.733 -0.0207 -0.1441 -0.3092
 8509SOL    HW137163   0.482   0.521   1.647  0.3851  0.4315 -0.1243
 8509SOL    HW237164   0.591   0.500   1.746 -0.1055  1.0853 -1.4583
 8510SOL     OW37165   4.274   1.878   4.427  0.4596  0.1641 -0.0283
 8510SOL    HW137166   4.236   1.956   4.387 -1.8564 -1.0771 -0.2582
 8510SOL    HW237167   4.242   1.884   4.518  0.9785 -2.4421  0.3158
 8511SOL     OW37168   2.893   1.864  14.774 -0.6663 -0.8933  0.6228
 8511SOL    HW137169   2.802   1.862  14.804 -0.1197  0.8014  2.4103
 8511SOL    HW237170   2.900   1.937  14.713  0.3100 -1.7965 -0.3267
 8512SOL     OW37171   4.738   2.927  10.983 -0.3860 -0.3296 -0.3723
 8512SOL    HW137172   0.020   3.011  10.944 -0.4794 -0.4256 -0.6380
 8512SOL    HW237173   4.668   2.950  11.044 -0.7163  1.6499 -1.4762
 8513SOL     OW37174   1.173   0.270   2.672  0.2694 -0.0506 -1.0159
 8513SOL    HW137175   1.122   0.341   2.633  0.6683  0.7005 -0.1697
 8513SOL    HW237176   1.257   0.290   2.631 -0.2745  2.0272 -1.1222
 8514SOL     OW37177   2.568   2.492   6.530  0.5145  0.2582  0.0955
 8514SOL    HW137178   2.659   2.519   6.546  0.5563  1.0630 -1.5684
 8514SOL    HW237179   2.572   2.417   6.590 -4.1301 -0.6784 -0.7904
 8515SOL     OW37180   2.173   1.316   0.466 -0.4541  0.5640 -0.2389
 8515SOL    HW137181   2.245   1.373   0.494  0.3403  0.3512 -1.8355
 8515SOL    HW237182   2.101   1.346   0.521 -0.7232 -0.0183 -0.2840
 8516SOL     OW37183   0.876   0.513   0.988 -0.2510  0.0019 -0.2897
 8516SOL    HW137184   0.918   0.594   1.016 -1.5974  0.7066 -0.2881
 8516SOL    HW237185   0.936   0.455   1.035 -0.4563 -1.6588 -2.0983
 8517SOL     OW37186   1.623   4.672   4.074 -0.3113 -0.0260 -0.4370
 8517SOL    HW137187   1.575   4.720   4.006 -1.3135  0.1246  0.3751
 8517SOL    HW237188   1.639   4.594   4.022 -0.3058  0.7734 -1.6393
 8518SOL     OW37189   4.492   1.714  11.992 -0.2988 -0.0469 -0.2157
 8518SOL    HW137190   4.431   1.776  11.952  0.7697  0.9607 -0.2856
 8518SOL    HW237191   4.490   1.642  11.929  1.1244 -1.2358  1.0929
 8519SOL     OW37192   0.839   3.128  14.598  0.4281  0.2157 -0.1086
 8519SOL    HW137193   0.871   3.136  14.688 -2.1197 -3.4207  1.1087
 8519SOL    HW237194   0.869   3.209  14.556  0.7682 -0.5464 -1.3546
 8520SOL     OW37195   0.360   3.447  16.093 -0.2301 -0.3445  0.3037
 8520SOL    HW137196   0.300   3.374  16.108 -0.5496 -0.2616 -0.5485
 8520SOL    HW237197   0.386   3.477  16.180 -0.8852 -0.5872  0.5780
 8521SOL     OW37198   0.983   2.764  15.134  0.4669 -0.3052  0.2874
 8521SOL    HW137199   0.974   2.825  15.060  0.7851 -1.0049 -0.3318
 8521SOL    HW237200   0.892   2.739  15.153  0.4190  2.2906  3.4294
 8522SOL     OW37201   0.712   1.505  12.669 -0.8984 -0.0683 -0.3482
 8522SOL    HW137202   0.647   1.509  12.739  1.7114 -1.8281  2.2025
 8522SOL    HW237203   0.787   1.465  12.714 -1.3351 -0.4357  0.0518
 8523SOL     OW37204   4.432   2.490   7.226  0.8201  0.3643  0.6058
 8523SOL    HW137205   4.365   2.533   7.173  1.2428  0.9306  0.5312
 8523SOL    HW237206   4.501   2.555   7.220  0.1617  0.9455 -0.6226
 8524SOL     OW37207   0.843   1.032   3.153 -0.9574 -0.1611 -0.2800
 8524SOL    HW137208   0.759   0.993   3.130 -2.2015  2.5990 -0.3910
 8524SOL    HW237209   0.863   1.069   3.067 -1.5226 -0.6323 -0.6142
 8525SOL     OW37210   1.523   3.160   2.058 -0.5619  0.1839  0.1313
 8525SOL    HW137211   1.615   3.158   2.031 -0.7069 -1.4074 -0.2787
 8525SOL    HW237212   1.505   3.070   2.032  0.1185 -0.4357  1.7444
 8526SOL     OW37213   2.485   3.713   3.154  1.2201  0.2983 -0.0777
 8526SOL    HW137214   2.474   3.779   3.223  1.0115  0.9108 -0.6884
 8526SOL    HW237215   2.538   3.645   3.194 -2.0026 -0.6285  2.5556
 8527SOL     OW37216   3.045   4.318   8.067  0.4868  0.5418  0.2479
 8527SOL    HW137217   2.961   4.297   8.026  0.5413 -0.5817  0.7125
 8527SOL    HW237218   3.077   4.233   8.096 -2.5397 -1.3138 -1.8572
 8528SOL     OW37219   0.808   1.159   5.534 -0.3981  0.1410 -0.4122
 8528SOL    HW137220   0.892   1.193   5.566 -0.4914 -0.8721  0.9063
 8528SOL    HW237221   0.839   1.155   5.444 -0.2123  2.7541 -0.4809
 8529SOL     OW37222   1.009   0.492  12.151 -0.1490  0.0883 -0.5131
 8529SOL    HW137223   1.038   0.453  12.233  1.2357 -2.7234 -2.3333
 8529SOL    HW237224   1.002   0.409  12.104  0.4787  0.4574 -1.2482
 8530SOL     OW37225   0.818   0.520   6.555  0.0076 -0.1953 -0.0321
 8530SOL    HW137226   0.775   0.436   6.543  1.4301 -0.6581 -1.9159
 8530SOL    HW237227   0.904   0.488   6.582 -0.6176 -1.2376  0.7549
 8531SOL     OW37228   3.532   2.267   5.047 -0.2111 -0.3504 -0.5294
 8531SOL    HW137229   3.520   2.294   5.138  1.4287 -0.6459 -0.2181
 8531SOL    HW237230   3.520   2.172   5.052  1.1655 -0.5148 -0.3890
 8532SOL     OW37231   3.361   1.576  14.103  0.0359  0.1678  0.0144
 8532SOL    HW137232   3.337   1.624  14.024  1.1862  1.4085  0.4108
 8532SOL    HW237233   3.271   1.584  14.134 -0.2396 -1.0596 -0.4524
 8533SOL     OW37234   0.152   4.691   4.690  0.0950  0.2423  0.5860
 8533SOL    HW137235   0.104   0.022   4.727  0.8555  0.3867  1.3073
 8533SOL    HW237236   0.100   4.615   4.717 -0.7255 -0.2762 -2.4744
 8534SOL     OW37237   1.602   3.696   7.268  0.8260  0.0575  0.6689
 8534SOL    HW137238   1.629   3.787   7.275  3.6445 -0.7206  0.0950
 8534SOL    HW237239   1.676   3.658   7.221  0.4204 -0.0823  0.1481
 8535SOL     OW37240   0.296   2.291  13.426  0.4044  0.3371  0.5261
 8535SOL    HW137241   0.322   2.255  13.341 -0.1202  0.7817  0.1852
 8535SOL    HW237242   0.362   2.358  13.439  0.7946  0.8461 -4.1676
 8536SOL     OW37243   1.869   1.722  11.439  0.1157  0.7331  0.5903
 8536SOL    HW137244   1.784   1.743  11.401 -0.3598  0.0698  1.2991
 8536SOL    HW237245   1.839   1.652  11.497 -0.4866  1.8023  1.5680
 8537SOL     OW37246   1.090   1.375   0.755 -0.4590  0.4195 -0.3888
 8537SOL    HW137247   1.138   1.320   0.693 -0.1809  0.1963  0.0276
 8537SOL    HW237248   1.082   1.317   0.831 -1.5326 -0.2954 -1.0544
 8538SOL     OW37249   2.155   1.777  11.432 -0.1162 -0.2603  0.5795
 8538SOL    HW137250   2.177   1.790  11.340 -1.0181  1.0291  0.5467
 8538SOL    HW237251   2.076   1.723  11.424  1.0178 -1.7621 -0.6178
 8539SOL     OW37252   3.742   0.178   1.474  0.4962 -0.1850  0.1024
 8539SOL    HW137253   3.718   0.223   1.393 -0.4797 -3.4600 -1.4444
 8539SOL    HW237254   3.661   0.192   1.521 -0.2754  1.0721 -1.6079
 8540SOL     OW37255   4.254   0.122  10.804 -0.3267 -0.1711 -1.0281
 8540SOL    HW137256   4.326   0.070  10.839 -0.3196  0.7614  0.3366
 8540SOL    HW237257   4.267   0.203  10.853 -2.7160 -0.9720  0.9107
 8541SOL     OW37258   3.938   3.777   2.999  0.4819 -0.1792 -0.0207
 8541SOL    HW137259   3.944   3.683   2.980  0.6870 -0.5158  1.7461
 8541SOL    HW237260   4.030   3.804   3.001  0.0935  0.9425  1.5606
 8542SOL     OW37261   1.650   3.790   6.849 -0.4872 -0.1840  0.5228
 8542SOL    HW137262   1.613   3.870   6.811 -1.9202 -1.1596 -0.1399
 8542SOL    HW237263   1.606   3.811   6.932 -0.9466 -0.7227  0.4184
 8543SOL     OW37264   3.639   1.234   3.716 -0.1631 -0.3404 -0.5967
 8543SOL    HW137265   3.573   1.302   3.704  0.6458  0.6631  0.6621
 8543SOL    HW237266   3.634   1.246   3.811  0.7022  0.2941 -0.6301
 8544SOL     OW37267   3.828   4.724   3.647  0.0220  0.0565 -0.6174
 8544SOL    HW137268   3.821   4.654   3.711  1.2591 -0.7608 -1.3980
 8544SOL    HW237269   3.760   4.690   3.589 -0.4995  0.7506 -0.4195
 8545SOL     OW37270   4.254   0.745  12.763 -0.8875  0.2489 -0.0678
 8545SOL    HW137271   4.184   0.809  12.750 -0.0839  0.8657 -1.4513
 8545SOL    HW237272   4.208   0.673  12.805  0.2466 -0.5359 -0.1600
 8546SOL     OW37273   1.709   4.030   4.413 -0.3573 -0.7348  0.2535
 8546SOL    HW137274   1.663   4.113   4.400 -3.0280 -2.4640 -1.2781
 8546SOL    HW237275   1.797   4.065   4.427 -1.2802  1.4289  0.7004
 8547SOL     OW37276   0.798   3.706  13.126 -0.0590  0.0305 -0.0148
 8547SOL    HW137277   0.886   3.727  13.157  0.5678 -2.3737 -0.1792
 8547SOL    HW237278   0.819   3.634  13.067 -1.2206  0.3186 -0.7923
 8548SOL     OW37279   2.624   2.048  14.713 -0.3301 -0.2791 -0.0313
 8548SOL    HW137280   2.655   2.081  14.797  0.0710 -0.1384 -0.2382
 8548SOL    HW237281   2.699   2.048  14.654  0.0739  1.2596  0.4905
 8549SOL     OW37282   4.048   1.209   5.460  0.1869  0.0974 -0.5384
 8549SOL    HW137283   4.141   1.189   5.465  0.0968 -0.1301  0.1940
 8549SOL    HW237284   4.024   1.221   5.552  4.0929 -1.4107  0.6758
 8550SOL     OW37285   3.024   1.721   7.833 -0.1770 -0.2191  0.0240
 8550SOL    HW137286   2.980   1.806   7.834  1.7186  0.7656 -0.0514
 8550SOL    HW237287   2.983   1.679   7.757  0.4337  1.8734 -1.4583
 8551SOL     OW37288   4.634   3.384   9.507 -0.1341  0.5016 -0.1380
 8551SOL    HW137289   4.541   3.398   9.493 -0.4428 -1.9870 -0.4790
 8551SOL    HW237290   4.651   3.438   9.585 -0.4200  0.5249 -0.0930
 8552SOL     OW37291   0.257   0.557   4.329  0.7655 -0.2466 -0.0539
 8552SOL    HW137292   0.208   0.479   4.302 -0.3610 -0.8287  3.6838
 8552SOL    HW237293   0.325   0.557   4.261  1.7732 -0.5100  0.9463
 8553SOL     OW37294   0.919   3.901   4.929 -0.3076  0.1875  0.4145
 8553SOL    HW137295   0.972   3.981   4.924 -0.1057 -0.0303 -0.8177
 8553SOL    HW237296   0.975   3.839   4.883  0.5806 -0.6482  2.5896
 8554SOL     OW37297   1.184   3.397   7.472  0.3043  0.5551 -0.1124
 8554SOL    HW137298   1.205   3.487   7.494  0.1718  0.1672  1.5867
 8554SOL    HW237299   1.273   3.361   7.467 -0.1400 -0.6461  0.6687
 8555SOL     OW37300   0.010   4.416  15.296  0.1260  0.4727  0.0026
 8555SOL    HW137301   4.682   4.479  15.309  0.5536  0.9226  0.1579
 8555SOL    HW237302   4.711   4.342  15.251 -1.2228 -0.0812  2.1694
 8556SOL     OW37303   1.005   0.160   5.140  0.2604 -0.1647 -0.8916
 8556SOL    HW137304   0.955   0.107   5.201 -1.2425  0.8106 -1.2375
 8556SOL    HW237305   1.044   0.235   5.185  2.6276 -0.1652 -2.9391
 8557SOL     OW37306   4.439   3.015   7.948 -0.1492  0.2046 -0.3680
 8557SOL    HW137307   4.494   2.979   7.879  2.9596  0.8518  1.7493
 8557SOL    HW237308   4.487   2.987   8.026  0.5534  1.4199 -0.3548
 8558SOL     OW37309   1.974   4.499   5.856  0.5240  0.2117  0.3662
 8558SOL    HW137310   2.057   4.456   5.838  1.2454  1.3678  0.9869
 8558SOL    HW237311   1.914   4.428   5.880  0.1714  0.1320 -0.7186
 8559SOL     OW37312   2.612   4.249   5.910 -0.1936 -0.2648  0.2712
 8559SOL    HW137313   2.591   4.310   5.840  0.3936  1.8857  1.9615
 8559SOL    HW237314   2.700   4.274   5.938 -0.7834  1.6343  0.3924
 8560SOL     OW37315   2.056   3.943   7.881 -0.3301 -0.4485 -0.5180
 8560SOL    HW137316   2.109   3.866   7.902 -1.0055 -0.4398  1.2656
 8560SOL    HW237317   2.000   3.905   7.812 -1.2703 -0.4851  0.2584
 8561SOL     OW37318   2.262   4.632  11.944  0.0773  0.2413 -0.7948
 8561SOL    HW137319   2.227   4.625  12.033 -1.5507  1.5193 -1.3303
 8561SOL    HW237320   2.194   4.598  11.885  0.9081  0.1180 -1.6736
 8562SOL     OW37321   2.716   0.294   8.717  0.2455  0.1813 -0.0058
 8562SOL    HW137322   2.666   0.373   8.735  0.1452  0.3085 -0.8437
 8562SOL    HW237323   2.761   0.291   8.802 -0.0103 -1.7464  0.0681
 8563SOL     OW37324   1.830   2.182   9.430  0.0290 -0.2229 -0.0570
 8563SOL    HW137325   1.780   2.179   9.349 -1.8989 -1.5363  1.1851
 8563SOL    HW237326   1.789   2.247   9.489  0.1296 -0.7380  0.5789
 8564SOL     OW37327   2.911   1.382   2.030  0.3385  0.0377  0.1322
 8564SOL    HW137328   2.979   1.442   2.061 -0.9427  2.2441 -1.3086
 8564SOL    HW237329   2.859   1.446   1.981 -2.8046 -1.2965  1.7286
 8565SOL     OW37330   3.530   2.218   9.764  0.3525  0.2222 -0.8423
 8565SOL    HW137331   3.521   2.181   9.851  0.2629 -0.5922 -1.1916
 8565SOL    HW237332   3.438   2.229   9.740  0.2925  1.7028  0.1104
 8566SOL     OW37333   0.100   3.593  17.417  0.1902  0.1690 -0.2200
 8566SOL    HW137334   0.068   3.510  17.452 -0.3006  1.1889  1.7113
 8566SOL    HW237335   0.182   3.592  17.466 -0.1866 -0.4818  0.3956
 8567SOL     OW37336   0.539   2.329   5.416  0.7777  0.3212 -0.5141
 8567SOL    HW137337   0.545   2.234   5.402 -1.7729  0.4013 -2.2114
 8567SOL    HW237338   0.529   2.361   5.326  0.2017 -0.0491 -0.5803
 8568SOL     OW37339   3.795   3.943   5.347 -0.0340  0.8943 -0.3608
 8568SOL    HW137340   3.848   3.984   5.414  1.1326 -3.9481  1.6662
 8568SOL    HW237341   3.822   3.997   5.272 -0.1568  2.5659  0.8000
 8569SOL     OW37342   3.164   2.751  17.465  0.2342 -0.1043  0.7170
 8569SOL    HW137343   3.238   2.703  17.428  0.2243  0.3800  0.0560
 8569SOL    HW237344   3.095   2.709  17.414 -1.4042  3.2352  0.2073
 8570SOL     OW37345   0.957   1.902  12.065 -0.0306  0.4489 -0.5130
 8570SOL    HW137346   0.922   1.990  12.051  0.4057  0.8616  1.0572
 8570SOL    HW237347   0.880   1.856  12.098  1.3362 -2.0015 -0.7139
 8571SOL     OW37348   1.380   1.947   1.296  0.2966 -0.2215 -0.4574
 8571SOL    HW137349   1.344   1.948   1.385  0.0476 -1.9901 -0.5235
 8571SOL    HW237350   1.389   2.040   1.279  2.1528 -0.1295  0.9704
 8572SOL     OW37351   1.761   4.608   4.325 -0.1572  0.1296 -0.4274
 8572SOL    HW137352   1.782   4.518   4.299  1.3481  1.1073 -2.5841
 8572SOL    HW237353   1.699   4.632   4.257 -0.8497 -0.1164  0.1129
 8573SOL     OW37354   2.638   0.080   7.558  1.1879 -0.2079  0.3398
 8573SOL    HW137355   2.719   0.044   7.594  0.2990 -1.8162  0.7317
 8573SOL    HW237356   2.618   0.042   7.472  1.7194 -0.8783  0.5106
 8574SOL     OW37357   2.047   2.904   7.325 -0.1866  0.7935  0.4235
 8574SOL    HW137358   2.088   2.965   7.265  1.2915  0.3046  0.9472
 8574SOL    HW237359   2.119   2.877   7.381 -0.6368 -0.4646  0.4144
 8575SOL     OW37360   3.902   2.973  10.319 -0.3071 -0.1229  0.4011
 8575SOL    HW137361   3.867   2.887  10.296 -0.2969  0.6305 -2.4629
 8575SOL    HW237362   3.952   2.987  10.238 -0.6347  0.0460  0.2276
 8576SOL     OW37363   0.872   0.842   5.563  0.3233 -0.3087 -0.2973
 8576SOL    HW137364   0.826   0.913   5.607 -0.1888  0.4211 -2.0223
 8576SOL    HW237365   0.877   0.880   5.475 -2.8040 -2.9883 -1.6176
 8577SOL     OW37366   4.528   3.331  13.509  0.3744  0.5642  0.4094
 8577SOL    HW137367   4.448   3.281  13.520  1.7631 -1.4064  1.4276
 8577SOL    HW237368   4.501   3.387  13.435 -0.0713 -0.5455 -0.2731
 8578SOL     OW37369   4.314   3.691   6.772  0.0371 -0.0881 -0.2196
 8578SOL    HW137370   4.356   3.746   6.839 -0.5969 -0.3651  0.4061
 8578SOL    HW237371   4.366   3.613   6.794 -1.7489 -1.5899 -1.3445
 8579SOL     OW37372   4.530   0.600   6.268 -0.3167  0.1524  0.7882
 8579SOL    HW137373   4.612   0.646   6.288 -0.4418 -0.0961  1.8703
 8579SOL    HW237374   4.470   0.670   6.243 -0.3728  0.0584  0.6621
 8580SOL     OW37375   0.470   0.020   1.708  0.6319 -0.3291 -0.0843
 8580SOL    HW137376   0.477   0.115   1.693  1.7132 -0.7700 -2.4527
 8580SOL    HW237377   0.450   4.721   1.624  1.1544 -0.9553  0.1003
 8581SOL     OW37378   0.645   4.301  11.698 -0.1947 -0.6492 -0.4633
 8581SOL    HW137379   0.675   4.257  11.618  2.6588 -1.1838  0.8933
 8581SOL    HW237380   0.731   4.335  11.721 -1.0696  0.1765  1.6127
 8582SOL     OW37381   2.417   4.080   2.477  0.4647  0.1032 -0.1273
 8582SOL    HW137382   2.503   4.119   2.461  0.6887  0.1480  1.1756
 8582SOL    HW237383   2.421   4.066   2.571 -0.4681  1.3406  0.0899
 8583SOL     OW37384   0.541   1.438   9.002  0.1022  0.0871  0.4096
 8583SOL    HW137385   0.605   1.370   8.980 -1.8484 -2.0642  1.3810
 8583SOL    HW237386   0.466   1.403   8.955  0.1081 -0.0031  0.4675
 8584SOL     OW37387   1.616   2.390  13.691 -0.1374 -0.4562  0.1808
 8584SOL    HW137388   1.597   2.461  13.630  0.6388  1.0000  1.6411
 8584SOL    HW237389   1.565   2.417  13.768 -1.0629  0.6930 -0.8482
 8585SOL     OW37390   3.279   1.210   3.437  0.0505  0.1265 -0.1502
 8585SOL    HW137391   3.362   1.176   3.470  1.1686  1.1131 -1.9860
 8585SOL    HW237392   3.233   1.246   3.513  0.4840 -0.1012  0.2209
 8586SOL     OW37393   3.007   1.520   2.992 -0.1266  0.3956  0.1453
 8586SOL    HW137394   3.018   1.572   3.072 -1.9046 -0.0600  0.6751
 8586SOL    HW237395   2.938   1.568   2.947 -0.1056  0.9422  0.6835
 8587SOL     OW37396   0.889   3.690  15.548  0.4499 -0.2867  0.3677
 8587SOL    HW137397   0.817   3.632  15.521 -1.6295  1.2483  2.6197
 8587SOL    HW237398   0.965   3.643  15.513  1.6320  2.9232 -1.3122
 8588SOL     OW37399   1.839   1.702   4.825 -0.3574  0.7156  0.5085
 8588SOL    HW137400   1.869   1.750   4.902 -0.4486 -0.6477  1.4028
 8588SOL    HW237401   1.751   1.679   4.856 -0.1400 -0.8986 -0.0490
 8589SOL     OW37402   1.014   1.088   4.291 -0.1618 -0.1545 -0.1139
 8589SOL    HW137403   0.931   1.135   4.300  0.4768  0.8619  0.4420
 8589SOL    HW237404   1.060   1.126   4.366 -1.3303  0.6088  0.2191
 8590SOL     OW37405   2.174   2.871   4.454  0.2722  0.2630  0.2661
 8590SOL    HW137406   2.196   2.930   4.382 -0.7841  0.2584 -0.0633
 8590SOL    HW237407   2.086   2.902   4.473 -0.9648 -1.9738 -1.7486
 8591SOL     OW37408   4.041   0.848   9.705 -0.0644 -0.0393  0.7420
 8591SOL    HW137409   4.130   0.874   9.730  1.1416 -1.8229 -1.6022
 8591SOL    HW237410   4.045   0.752   9.705  2.8872  0.0723 -0.2981
 8592SOL     OW37411   4.493   1.684   2.383 -0.0880  0.0901  0.3466
 8592SOL    HW137412   4.564   1.748   2.374 -2.5603  2.6442 -1.1130
 8592SOL    HW237413   4.421   1.730   2.339  0.5849  1.4789  0.6966
 8593SOL     OW37414   3.076   4.341   2.574 -0.2335  0.2031 -0.3037
 8593SOL    HW137415   2.998   4.317   2.625  0.0652 -0.6353 -0.2546
 8593SOL    HW237416   3.037   4.357   2.489 -1.3828  0.2088  0.2204
 8594SOL     OW37417   1.910   2.279   7.418  0.0163 -0.7918  0.0916
 8594SOL    HW137418   1.859   2.360   7.424 -0.6851 -1.1413 -1.2201
 8594SOL    HW237419   1.887   2.233   7.498  0.1530  1.4212  1.3995
 8595SOL     OW37420   1.733   1.195   1.308  0.2809 -0.2018  0.0496
 8595SOL    HW137421   1.661   1.205   1.370  1.3266 -1.8130  1.5332
 8595SOL    HW237422   1.810   1.192   1.366 -0.0373 -1.7392  0.4188
 8596SOL     OW37423   2.058   4.004   6.243 -0.3845 -0.2254 -0.0464
 8596SOL    HW137424   2.112   3.965   6.174  0.0115  2.8853 -1.4960
 8596SOL    HW237425   1.968   3.988   6.213 -0.4638  0.3037 -0.0874
 8597SOL     OW37426   0.988   3.347   9.420 -0.5070  0.1215 -0.0179
 8597SOL    HW137427   1.077   3.324   9.446  0.0146 -0.6992 -2.5164
 8597SOL    HW237428   0.956   3.276   9.476 -2.1471  2.7212  2.3026
 8598SOL     OW37429   0.514   3.064   8.778  0.3090  0.2201 -0.1109
 8598SOL    HW137430   0.460   3.035   8.851  2.1611  0.8033  1.4748
 8598SOL    HW237431   0.520   3.158   8.796 -0.3563  0.4210 -0.8999
 8599SOL     OW37432   1.053   3.469   2.533  0.1604  0.2393 -0.1630
 8599SOL    HW137433   1.034   3.387   2.486  0.0203  0.1566  0.0372
 8599SOL    HW237434   1.091   3.432   2.613 -0.3867  0.5359  0.2280
 8600SOL     OW37435   1.664   2.840  15.042 -0.3001  0.0707 -0.7196
 8600SOL    HW137436   1.667   2.782  15.118  0.8247  1.1000  0.0134
 8600SOL    HW237437   1.606   2.908  15.076 -2.5541 -1.9778 -0.4323
 8601SOL     OW37438   0.604   1.139   1.713  0.1620 -0.3730 -0.0774
 8601SOL    HW137439   0.610   1.074   1.783  1.5700 -1.6640 -1.3920
 8601SOL    HW237440   0.542   1.200   1.754  2.1204 -0.0476  2.4327
 8602SOL     OW37441   0.051   0.060   7.247  0.3992 -0.2622  0.7015
 8602SOL    HW137442   0.145   0.041   7.240  0.4943 -0.0991  1.5515
 8602SOL    HW237443   0.058   0.156   7.240 -2.1113  0.0938  3.3338
 8603SOL     OW37444   2.288   2.620   1.431  0.2848  0.0511  0.5179
 8603SOL    HW137445   2.370   2.581   1.461 -0.0345 -1.6642 -0.8326
 8603SOL    HW237446   2.315   2.711   1.421  1.8356 -0.2937  1.7150
 8604SOL     OW37447   0.206   2.009  11.372  0.3290 -0.4766  0.8031
 8604SOL    HW137448   0.169   2.025  11.459 -2.0696  0.8708 -0.4512
 8604SOL    HW237449   0.154   2.066  11.315  1.8568  1.1097  1.0114
 8605SOL     OW37450   3.181   2.116   2.595  0.2194 -0.4976  0.1544
 8605SOL    HW137451   3.154   2.031   2.630 -0.7627 -0.1023  0.3660
 8605SOL    HW237452   3.109   2.174   2.620  0.4609  0.3648 -1.1158
 8606SOL     OW37453   3.989   0.558   3.523  0.5912  0.2315  0.4509
 8606SOL    HW137454   4.007   0.533   3.614  1.8382 -1.8432 -0.3788
 8606SOL    HW237455   4.003   0.652   3.536  1.5573  0.2159 -0.4427
 8607SOL     OW37456   3.949   0.496   5.093  0.1748  0.1152  0.0986
 8607SOL    HW137457   3.871   0.549   5.104 -0.2259 -0.3053 -0.7282
 8607SOL    HW237458   3.990   0.532   5.014  0.4236 -2.5396 -0.9997
 8608SOL     OW37459   3.140   4.681   7.517 -0.4688  0.8918 -0.8773
 8608SOL    HW137460   3.151   4.604   7.461  1.0589  0.5890 -0.1527
 8608SOL    HW237461   3.166   0.006   7.455  0.6664  1.6581  0.4605
 8609SOL     OW37462   1.853   0.108   0.146 -0.3397  0.5186  0.1067
 8609SOL    HW137463   1.848   0.189   0.095 -0.8505  0.8847  0.7342
 8609SOL    HW237464   1.944   0.085   0.130  0.1119  1.1874  1.7071
 8610SOL     OW37465   0.876   3.834   6.880 -0.1156  0.2959  0.2153
 8610SOL    HW137466   0.829   3.783   6.947 -0.7637 -0.1728 -0.5863
 8610SOL    HW237467   0.926   3.766   6.836 -0.8224  0.7772 -1.3121
 8611SOL     OW37468   2.921   4.653  15.066 -0.5607  0.1042  0.2345
 8611SOL    HW137469   2.883   4.740  15.050  2.6074  1.3783 -0.2006
 8611SOL    HW237470   2.958   4.666  15.153 -0.4165  1.4536 -0.0235
 8612SOL     OW37471   4.066   4.273   3.868 -0.1258  0.2775  0.1041
 8612SOL    HW137472   4.132   4.204   3.870  0.2583  0.5828 -2.5136
 8612SOL    HW237473   4.113   4.337   3.922 -1.1138  1.3211 -0.2609
 8613SOL     OW37474   2.490   0.996   3.111  0.1025  0.5624  0.3136
 8613SOL    HW137475   2.522   1.028   3.026 -0.8907  0.9618  0.0831
 8613SOL    HW237476   2.543   1.058   3.160 -0.8887  1.1124  0.6935
 8614SOL     OW37477   2.102   2.899   4.057 -0.1364  0.2452  0.0684
 8614SOL    HW137478   2.157   2.916   3.980  0.3925 -0.8126  0.2066
 8614SOL    HW237479   2.156   2.950   4.117 -0.9043  0.6930  0.3705
 8615SOL     OW37480   2.162   3.208  13.627  0.3514 -0.5116  0.4422
 8615SOL    HW137481   2.174   3.204  13.722 -0.7648  0.1431  0.6136
 8615SOL    HW237482   2.070   3.232  13.618  0.1538 -1.2285  0.5449
 8616SOL     OW37483   1.478   3.841   7.570  0.6606 -0.0796  0.4516
 8616SOL    HW137484   1.544   3.795   7.518  0.5882  2.0818 -1.5161
 8616SOL    HW237485   1.451   3.900   7.500 -1.8743 -2.1819 -0.3052
 8617SOL     OW37486   3.801   2.116  11.105  0.3678 -0.1017 -0.4214
 8617SOL    HW137487   3.713   2.088  11.081 -0.1092  0.7937  0.2962
 8617SOL    HW237488   3.842   2.030  11.092  0.3346  0.1315 -2.0600
 8618SOL     OW37489   2.332   2.429  11.513 -0.8810 -0.1923  0.3381
 8618SOL    HW137490   2.237   2.428  11.509 -0.8392 -0.2373 -0.8086
 8618SOL    HW237491   2.350   2.399  11.602  0.0037  2.8179  1.1495
 8619SOL     OW37492   2.890   2.933  10.141  0.0270  0.2260  0.3186
 8619SOL    HW137493   2.827   2.947  10.070  0.5728  1.0338 -0.0009
 8619SOL    HW237494   2.904   2.838  10.134 -0.2904  0.1823  0.3025
 8620SOL     OW37495   1.283   3.610   9.447 -0.1064 -0.0687  0.0485
 8620SOL    HW137496   1.316   3.652   9.367 -0.2448  0.0719  0.0652
 8620SOL    HW237497   1.207   3.665   9.465 -1.0275 -0.5990 -2.1786
 8621SOL     OW37498   3.208   4.355   3.091 -0.2002  0.2842 -0.1085
 8621SOL    HW137499   3.147   4.302   3.040  1.0558  0.7199 -2.0704
 8621SOL    HW237500   3.148   4.388   3.157  0.8014  2.2650 -0.1929
 8622SOL     OW37501   4.270   4.027   3.432  0.0635 -0.3121 -0.3247
 8622SOL    HW137502   4.226   4.076   3.363  2.0788  0.6470 -0.9193
 8622SOL    HW237503   4.199   3.974   3.469 -1.5371  2.1068  0.0840
 8623SOL     OW37504   0.868   2.228   6.608 -0.0737  0.3989  0.2182
 8623SOL    HW137505   0.954   2.241   6.567  0.4344  2.1283  1.8245
 8623SOL    HW237506   0.823   2.288   6.548 -0.4300 -0.8349 -0.7607
 8624SOL     OW37507   1.628   2.041   6.158  0.5004 -0.4576  0.5748
 8624SOL    HW137508   1.588   2.091   6.087  2.0221 -0.3655 -0.2169
 8624SOL    HW237509   1.578   2.083   6.228  0.3359  0.3458 -0.0282
 8625SOL     OW37510   3.012   3.907   4.720 -0.4745 -0.6711 -0.1805
 8625SOL    HW137511   3.089   3.877   4.769 -2.3000  0.8522  3.6617
 8625SOL    HW237512   2.961   3.943   4.793  0.7497 -1.6696  1.1699
 8626SOL     OW37513   4.051   2.318   9.453  0.4770 -0.6159  0.1374
 8626SOL    HW137514   3.974   2.283   9.409 -1.0723  2.2780  0.5435
 8626SOL    HW237515   4.060   2.266   9.533  1.8475  0.5574  0.7516
 8627SOL     OW37516   4.037   3.841   3.411 -0.4902  0.2988  0.4404
 8627SOL    HW137517   3.986   3.906   3.363 -0.2330  0.6556  0.6559
 8627SOL    HW237518   3.971   3.773   3.400  2.4978 -2.4712 -0.5138
 8628SOL     OW37519   2.699   3.300   8.783  1.1009 -0.4320  0.9891
 8628SOL    HW137520   2.620   3.251   8.759  0.4079  1.5271 -0.8037
 8628SOL    HW237521   2.754   3.227   8.810  0.7303 -0.5843  1.3415
 8629SOL     OW37522   1.091   3.364  16.940  0.0339  0.8879  0.1967
 8629SOL    HW137523   1.074   3.387  16.849 -2.2955 -1.5519  0.0201
 8629SOL    HW237524   1.042   3.282  16.951 -0.4393  1.2326  0.6393
 8630SOL     OW37525   4.737   1.309   6.439 -0.4785 -0.6917 -0.1724
 8630SOL    HW137526   4.641   1.304   6.440 -0.4524 -1.4266 -2.7800
 8630SOL    HW237527   0.004   1.382   6.501 -0.9011  0.6964 -1.7301
 8631SOL     OW37528   3.145   0.341  14.407  0.0527  0.7283 -0.2514
 8631SOL    HW137529   3.119   0.400  14.336  0.8634 -0.3800 -1.4886
 8631SOL    HW237530   3.196   0.407  14.453 -0.8084  2.2580 -1.4943
 8632SOL     OW37531   1.992   0.367   2.516 -0.4514  0.6906 -0.0215
 8632SOL    HW137532   1.944   0.445   2.544 -2.0053  0.0310 -0.8504
 8632SOL    HW237533   1.936   0.297   2.549  0.2288 -1.7173 -4.0036
 8633SOL     OW37534   3.463   0.889   7.148 -0.2022 -0.3620 -0.0894
 8633SOL    HW137535   3.486   0.918   7.060  2.1807  0.3086  0.7453
 8633SOL    HW237536   3.385   0.942   7.168 -1.2865 -1.4662 -1.4731
 8634SOL     OW37537   4.309   0.788   2.611  0.0407 -0.0840 -0.1393
 8634SOL    HW137538   4.346   0.765   2.526 -1.3869 -2.9333  0.0433
 8634SOL    HW237539   4.383   0.754   2.663 -0.5340 -1.0145  0.0658
 8635SOL     OW37540   1.961   1.808  10.675 -0.1261 -0.0887  0.1263
 8635SOL    HW137541   1.883   1.753  10.665 -0.5268  0.5659 -0.3829
 8635SOL    HW237542   1.955   1.835  10.767  0.6070 -0.2602  0.2240
 8636SOL     OW37543   0.962   4.634   1.948  0.6946 -0.7053 -0.5348
 8636SOL    HW137544   0.951   4.542   1.974 -0.2283 -0.9480 -1.8603
 8636SOL    HW237545   0.870   4.655   1.934  0.7792  0.7131  0.9362
 8637SOL     OW37546   3.855   0.323   8.577  0.2217  0.2047  0.7369
 8637SOL    HW137547   3.833   0.347   8.487 -0.0488  1.3884  1.1177
 8637SOL    HW237548   3.895   0.237   8.566  1.6722  1.1067 -1.1046
 8638SOL     OW37549   2.855   0.460   2.480 -0.2683  0.6595 -0.4217
 8638SOL    HW137550   2.932   0.404   2.489  0.2902  1.6781  0.9670
 8638SOL    HW237551   2.854   0.468   2.384  0.2921 -2.8818 -0.7353
 8639SOL     OW37552   1.714   1.463   7.679 -0.3012 -0.4714 -0.1147
 8639SOL    HW137553   1.665   1.462   7.761 -1.1151  0.2668 -0.6020
 8639SOL    HW237554   1.798   1.501   7.705 -2.6136  3.4669  1.5644
 8640SOL     OW37555   2.967   3.642  13.151 -0.2155  0.1993 -0.4229
 8640SOL    HW137556   2.906   3.715  13.162  0.1324  0.3538  0.4309
 8640SOL    HW237557   3.051   3.685  13.166 -0.3091  0.1149  0.3177
 8641SOL     OW37558   3.953   4.578   1.340 -0.3118  0.0235  0.1135
 8641SOL    HW137559   3.899   4.565   1.419 -3.1789  2.4095 -1.4690
 8641SOL    HW237560   4.040   4.595   1.377  0.1349  1.6593 -1.7341
 8642SOL     OW37561   4.726   0.715   4.146  0.1458 -0.4739  0.0642
 8642SOL    HW137562   4.662   0.782   4.122 -0.0075 -0.8079 -0.4720
 8642SOL    HW237563   0.058   0.769   4.118 -1.4715  1.2993 -0.8528
 8643SOL     OW37564   0.426   4.433   3.459  0.1043 -0.6830 -0.3866
 8643SOL    HW137565   0.475   4.514   3.443  0.4808 -0.9675 -0.6966
 8643SOL    HW237566   0.398   4.416   3.369 -0.5618 -1.3538 -0.0511
 8644SOL     OW37567   2.257   2.238   8.726 -0.0021  0.1115 -0.3079
 8644SOL    HW137568   2.350   2.220   8.715  0.0502 -0.1665  0.5728
 8644SOL    HW237569   2.224   2.200   8.645 -0.4592 -0.8478  0.3351
 8645SOL     OW37570   0.452   2.677   6.111 -0.1933 -0.5119 -0.6466
 8645SOL    HW137571   0.388   2.635   6.053 -0.3026  0.6920 -1.4019
 8645SOL    HW237572   0.411   2.764   6.122 -1.9044 -1.2898 -0.8006
 8646SOL     OW37573   2.581   4.119   8.275  0.2480  0.6432 -0.0859
 8646SOL    HW137574   2.652   4.106   8.213  0.6921 -0.2833  0.6227
 8646SOL    HW237575   2.607   4.054   8.341  0.5575  0.4073 -0.4451
 8647SOL     OW37576   4.462   2.530   4.603  0.1157 -0.2679 -0.0865
 8647SOL    HW137577   4.376   2.567   4.584  0.6280  0.9071 -0.1416
 8647SOL    HW237578   4.512   2.612   4.602  0.1317 -0.2798 -0.3219
 8648SOL     OW37579   3.046   1.620   5.905  0.0300 -0.2688  0.0208
 8648SOL    HW137580   3.021   1.699   5.953 -0.7333 -1.0244  0.8757
 8648SOL    HW237581   2.972   1.564   5.929 -1.5331  1.7972  0.0217
 8649SOL     OW37582   0.320   3.025   5.186  0.0093  0.0738  0.4972
 8649SOL    HW137583   0.395   2.975   5.155  0.1989 -0.5979  2.0495
 8649SOL    HW237584   0.297   3.048   5.096 -0.8441  1.6069  1.0991
 8650SOL     OW37585   1.580   3.773  15.639  0.6122 -0.3555  0.1979
 8650SOL    HW137586   1.536   3.853  15.609  1.3212  0.4752  1.3641
 8650SOL    HW237587   1.638   3.809  15.707 -0.6759  0.3154  0.9359
 8651SOL     OW37588   1.725   2.175   5.658 -0.1336  0.1600  0.4001
 8651SOL    HW137589   1.714   2.242   5.590 -0.7254 -0.0705  0.2686
 8651SOL    HW237590   1.757   2.226   5.733 -3.3025  0.1776  1.7676
 8652SOL     OW37591   2.363   1.514  16.369 -0.9054 -0.6121  0.0090
 8652SOL    HW137592   2.335   1.605  16.361  0.5184 -0.3144 -1.6139
 8652SOL    HW237593   2.432   1.514  16.303 -2.1988 -2.4490 -1.3214
 8653SOL     OW37594   4.395   2.811   9.853  0.1458  0.4808 -0.1694
 8653SOL    HW137595   4.433   2.834   9.768 -0.5369 -1.3641 -0.9660
 8653SOL    HW237596   4.450   2.740   9.887 -0.2876  0.6859  0.9688
 8654SOL     OW37597   3.985   1.813   1.225 -0.4570 -0.6554  0.2056
 8654SOL    HW137598   4.052   1.815   1.156 -1.3373 -0.9374 -0.6580
 8654SOL    HW237599   4.018   1.881   1.284 -2.1763  0.4436 -0.0922
 8655SOL     OW37600   0.531   1.699   7.903 -0.1927  0.2371  0.2592
 8655SOL    HW137601   0.611   1.668   7.947 -1.9881 -2.9430  1.3103
 8655SOL    HW237602   0.575   1.774   7.864  1.2673  0.0674  1.5441
 8656SOL     OW37603   3.288   0.632   6.965 -0.4578  0.0407  0.0608
 8656SOL    HW137604   3.338   0.686   6.904 -0.9405 -0.2037 -0.5592
 8656SOL    HW237605   3.242   0.577   6.901 -0.8546 -0.3112  0.6560
 8657SOL     OW37606   0.664   1.392  16.485  0.6425 -0.1295 -0.3634
 8657SOL    HW137607   0.632   1.476  16.454  0.9341 -0.3282 -1.2027
 8657SOL    HW237608   0.706   1.411  16.570  0.3663  2.0403 -0.7222
 8658SOL     OW37609   0.464   0.711  12.858 -0.1699  0.2362 -0.2434
 8658SOL    HW137610   0.450   0.718  12.764  0.7035 -0.6006 -0.4414
 8658SOL    HW237611   0.391   0.767  12.881  1.2176  1.8619  0.1847
 8659SOL     OW37612   0.717   1.373   5.214 -0.2821  0.0775  0.1458
 8659SOL    HW137613   0.660   1.367   5.290 -0.7541 -2.1090 -0.3785
 8659SOL    HW237614   0.798   1.358   5.263 -0.4467 -1.1514  0.0608
 8660SOL     OW37615   0.773   0.850   2.664  0.1093 -0.2477 -0.3924
 8660SOL    HW137616   0.778   0.825   2.756  1.0444 -0.0770 -0.4006
 8660SOL    HW237617   0.822   0.932   2.669 -0.0033 -0.0736 -2.1523
 8661SOL     OW37618   3.307   2.142   3.695 -0.2023 -0.1867 -0.5056
 8661SOL    HW137619   3.391   2.161   3.737 -0.2776  2.9604 -1.7213
 8661SOL    HW237620   3.266   2.080   3.755  0.3055  0.1831  0.2225
 8662SOL     OW37621   3.908   3.744  13.009  0.2412  0.3902 -0.5313
 8662SOL    HW137622   3.842   3.777  13.070  0.0329  0.8798 -1.0177
 8662SOL    HW237623   3.989   3.765  13.055  0.3375  1.6645 -1.2732
 8663SOL     OW37624   1.651   2.229   8.711 -0.3018 -0.6108 -0.8665
 8663SOL    HW137625   1.740   2.203   8.733 -0.3010 -0.2183 -0.3930
 8663SOL    HW237626   1.609   2.161   8.763  0.5922  0.1124  0.8424
 8664SOL     OW37627   3.679   0.881  11.850  0.1404  0.0580 -0.5802
 8664SOL    HW137628   3.624   0.959  11.850 -0.3087 -0.2561  0.1445
 8664SOL    HW237629   3.604   0.824  11.867  1.1239 -0.8817  0.5888
 8665SOL     OW37630   2.695   0.744   4.543  0.2326 -0.1746  0.1447
 8665SOL    HW137631   2.700   0.833   4.580 -2.0518  0.2296 -0.5556
 8665SOL    HW237632   2.762   0.693   4.589  2.9729  1.3257 -2.1913
 8666SOL     OW37633   2.062   3.270   9.068  0.3364 -0.0100  0.6952
 8666SOL    HW137634   2.076   3.336   9.000 -1.5634 -0.4051 -0.0768
 8666SOL    HW237635   1.977   3.230   9.051  0.3370  0.2530  0.0568
 8667SOL     OW37636   3.372   0.335  14.565 -0.5435 -0.4369  0.7985
 8667SOL    HW137637   3.322   0.282  14.504  3.4088 -1.5486 -1.4843
 8667SOL    HW237638   3.404   0.411  14.517 -2.5106  0.4735  0.9731
 8668SOL     OW37639   3.958   2.172   4.642 -0.0811  0.0429  0.0690
 8668SOL    HW137640   3.907   2.165   4.723  1.6134 -0.3164  1.1086
 8668SOL    HW237641   3.997   2.084   4.638  0.0715  0.0905  0.5216
 8669SOL     OW37642   3.608   2.233   5.935 -0.3965 -0.0948 -0.1624
 8669SOL    HW137643   3.615   2.194   5.847  0.8480 -1.7375  0.6681
 8669SOL    HW237644   3.678   2.194   5.987 -0.9234  1.7572  1.9075
 8670SOL     OW37645   2.887   1.571  17.063  0.7110  0.4285  0.2145
 8670SOL    HW137646   2.876   1.476  17.063 -4.4487  1.0741 -2.0705
 8670SOL    HW237647   2.974   1.576  17.105 -0.4014  0.3117  2.5370
 8671SOL     OW37648   4.230   0.214   9.025  0.1969  0.3356  0.0836
 8671SOL    HW137649   4.181   0.274   8.968 -0.2391  1.0669  1.2307
 8671SOL    HW237650   4.267   0.160   8.955  0.7748  1.4302 -0.4496
 8672SOL     OW37651   2.503   4.247   4.382 -0.2973  0.0496  0.3717
 8672SOL    HW137652   2.565   4.256   4.309  0.3842 -0.4887  0.8862
 8672SOL    HW237653   2.538   4.310   4.444  0.1298  0.4424 -0.2780
 8673SOL     OW37654   3.474   2.012   6.986 -0.4034  0.0680 -0.0391
 8673SOL    HW137655   3.398   1.981   6.936 -1.5153  0.8106  1.2038
 8673SOL    HW237656   3.547   1.989   6.928 -0.4593 -2.9315  1.1069
 8674SOL     OW37657   2.408   1.820  16.401 -0.5060 -0.6759  0.1450
 8674SOL    HW137658   2.387   1.780  16.317  2.4135 -1.1386 -0.3583
 8674SOL    HW237659   2.495   1.854  16.382 -0.6710 -0.5240 -0.3231
 8675SOL     OW37660   3.291   4.104  15.909  0.4079  0.2508 -0.0514
 8675SOL    HW137661   3.308   4.184  15.960 -1.6009  0.0344  0.9384
 8675SOL    HW237662   3.239   4.057  15.974 -0.3527 -0.8009 -1.4361
 8676SOL     OW37663   0.970   2.853  11.073  0.0072 -0.0263  0.2459
 8676SOL    HW137664   0.877   2.851  11.053 -0.7372  1.1788  3.6168
 8676SOL    HW237665   0.982   2.936  11.118  0.9126 -0.1038  0.1612
 8677SOL     OW37666   2.168   1.801   7.065 -0.1268  0.1076 -0.1253
 8677SOL    HW137667   2.208   1.719   7.092  1.3829  1.4470  1.7265
 8677SOL    HW237668   2.101   1.817   7.132 -2.7284 -1.1346 -2.4200
 8678SOL     OW37669   2.558   1.326   5.437 -0.0402 -0.1001  0.4474
 8678SOL    HW137670   2.557   1.420   5.419 -1.7789 -0.2228 -0.1597
 8678SOL    HW237671   2.591   1.292   5.354  1.4612  0.1858  0.9376
 8679SOL     OW37672   1.012   4.431  10.657  0.1115  0.1932 -0.5829
 8679SOL    HW137673   0.973   4.472  10.580 -1.0745 -0.1090 -0.1407
 8679SOL    HW237674   1.083   4.494  10.674  0.8349 -0.9951  0.8227
 8680SOL     OW37675   0.488   4.373  13.206  0.0557  0.0825  0.3068
 8680SOL    HW137676   0.570   4.328  13.228  0.7512  1.7492  1.1810
 8680SOL    HW237677   0.525   4.462  13.199 -1.9287  1.0389  2.0637
 8681SOL     OW37678   3.752   2.800   6.706  0.0811 -0.3947  0.0280
 8681SOL    HW137679   3.668   2.828   6.669  0.5830 -0.6018 -1.2694
 8681SOL    HW237680   3.817   2.849   6.656  0.0623  0.2291  0.6238
 8682SOL     OW37681   4.698   1.105  16.220  0.1348 -0.4091  0.5742
 8682SOL    HW137682   4.666   1.115  16.309 -1.5881 -1.6456  0.1035
 8682SOL    HW237683   0.012   1.182  16.217  1.4897 -1.3429  1.8197
 8683SOL     OW37684   2.359   0.747   3.744 -0.3351  0.3399 -0.3037
 8683SOL    HW137685   2.417   0.823   3.752 -0.8327  0.7061 -0.1803
 8683SOL    HW237686   2.409   0.679   3.789  1.9814  1.7003 -0.8512
 8684SOL     OW37687   2.157   0.691   4.148 -0.0741  0.0576  0.2839
 8684SOL    HW137688   2.168   0.691   4.243  2.6986 -1.5938 -0.0395
 8684SOL    HW237689   2.085   0.630   4.137  0.6092 -0.6609 -0.1911
 8685SOL     OW37690   4.044   1.811  12.193  0.4154  0.2693  0.2211
 8685SOL    HW137691   3.966   1.867  12.187  0.5580  0.3676 -0.8251
 8685SOL    HW237692   4.113   1.872  12.218 -0.4367  1.1027  0.5471
 8686SOL     OW37693   4.468   0.112  16.201 -0.1257 -1.4141  0.2106
 8686SOL    HW137694   4.432   0.166  16.129  0.7054 -0.1006  0.7865
 8686SOL    HW237695   4.389   0.083  16.247  0.2108  0.2333  1.8038
 8687SOL     OW37696   4.316   0.224   3.269 -0.3498  0.5974 -0.2473
 8687SOL    HW137697   4.221   0.223   3.257 -0.2999 -0.8203 -0.5114
 8687SOL    HW237698   4.329   0.132   3.292 -1.7596  0.0053 -1.8409
 8688SOL     OW37699   1.240   4.125   7.706 -0.1412 -0.1762  0.0817
 8688SOL    HW137700   1.178   4.107   7.636  2.7519 -0.9545 -2.2695
 8688SOL    HW237701   1.274   4.039   7.730 -2.6052 -1.0202  0.5400
 8689SOL     OW37702   4.428   3.850  11.150 -0.6252 -0.2309  0.0114
 8689SOL    HW137703   4.474   3.781  11.200  0.9520  0.0353 -1.0881
 8689SOL    HW237704   4.460   3.924  11.202  2.6316 -0.8695 -1.0530
 8690SOL     OW37705   4.547   1.137   1.821  0.4210  0.4379 -0.4290
 8690SOL    HW137706   4.571   1.121   1.730  2.7935 -2.3287  0.6813
 8690SOL    HW237707   4.516   1.050   1.845  0.4905  0.7161  0.6812
 8691SOL     OW37708   2.446   1.900  15.269  0.6714 -0.6851  0.6610
 8691SOL    HW137709   2.362   1.933  15.301  0.9852  0.5590  0.2162
 8691SOL    HW237710   2.417   1.821  15.223  1.1270 -0.9250  0.7890
 8692SOL     OW37711   2.248   4.436   2.651  0.1235 -1.0990 -0.0958
 8692SOL    HW137712   2.183   4.385   2.603 -1.5887  1.5257 -0.5798
 8692SOL    HW237713   2.307   4.371   2.688 -1.1234 -1.6010  0.9912
 8693SOL     OW37714   3.062   2.195   8.408 -0.0236 -0.5047 -0.4795
 8693SOL    HW137715   3.143   2.178   8.359  1.2662 -0.6059  1.7144
 8693SOL    HW237716   3.096   2.215   8.495 -1.8994 -0.1490  0.1652
 8694SOL     OW37717   3.704   0.186   6.847 -0.4661  0.3674 -0.1783
 8694SOL    HW137718   3.707   0.175   6.942 -0.3549  0.9071 -0.1179
 8694SOL    HW237719   3.718   0.096   6.819 -2.9016 -0.0242 -0.1070
 8695SOL     OW37720   3.978   0.335  15.800  0.1445  0.4479 -0.0066
 8695SOL    HW137721   3.899   0.385  15.777  1.1010  1.7535 -0.4850
 8695SOL    HW237722   4.044   0.404  15.803  1.5972 -0.9072 -0.9394
 8696SOL     OW37723   1.645   1.563   6.099  0.2820 -0.2620  0.5311
 8696SOL    HW137724   1.715   1.501   6.079  0.0616 -0.7904  1.4006
 8696SOL    HW237725   1.686   1.648   6.086  0.0077 -0.3443 -0.8589
 8697SOL     OW37726   2.723   4.741  10.800  0.1304  0.5462  0.4026
 8697SOL    HW137727   2.657   4.715  10.737  0.5271  1.5084 -0.4035
 8697SOL    HW237728   2.713   0.093  10.794 -0.5555  0.4370 -0.0760
 8698SOL     OW37729   4.246   4.332   4.910  0.2823  0.0037  0.0942
 8698SOL    HW137730   4.276   4.309   4.822  1.5181 -0.2596  0.5766
 8698SOL    HW237731   4.165   4.281   4.908 -0.6428  1.5315 -1.5777
 8699SOL     OW37732   0.855   4.269   3.007  0.4352  0.2630  0.1690
 8699SOL    HW137733   0.920   4.234   3.068  1.6772 -1.7153 -2.3197
 8699SOL    HW237734   0.797   4.305   3.074 -0.9713 -0.3889 -0.7212
 8700SOL     OW37735   2.549   1.512   8.425  0.3295  0.7528 -0.2996
 8700SOL    HW137736   2.607   1.569   8.375  0.1926 -0.5169 -1.9389
 8700SOL    HW237737   2.475   1.507   8.364 -0.0619 -0.2261  0.2560
 8701SOL     OW37738   0.088   2.264   9.489 -1.1346 -0.0539 -0.5570
 8701SOL    HW137739   0.147   2.288   9.417 -0.8783 -1.3632 -0.7875
 8701SOL    HW237740   0.120   2.318   9.561 -3.7833 -0.6203  1.0541
 8702SOL     OW37741   0.621   1.934   0.961 -0.2241 -0.0202 -0.3358
 8702SOL    HW137742   0.607   1.975   0.875  1.6595  0.6753 -0.2993
 8702SOL    HW237743   0.615   2.009   1.021  2.1712  0.1968 -0.3628
 8703SOL     OW37744   0.179   3.782  10.661  0.2488 -0.9691  0.1304
 8703SOL    HW137745   0.220   3.846  10.602 -0.7499 -0.9280 -0.5097
 8703SOL    HW237746   0.094   3.769  10.620 -0.6147 -1.5410  2.0827
 8704SOL     OW37747   3.453   1.989   4.739 -0.7045  0.4471  1.0407
 8704SOL    HW137748   3.536   1.959   4.775  0.1692  1.7405  0.1117
 8704SOL    HW237749   3.462   2.084   4.730 -1.4835  0.3915 -0.3135
 8705SOL     OW37750   0.505   2.657   5.256  0.2154 -0.0234 -0.4459
 8705SOL    HW137751   0.442   2.671   5.326  0.7940  0.7997 -0.0910
 8705SOL    HW237752   0.502   2.737   5.203  1.5725  1.6278  1.9905
 8706SOL     OW37753   0.679   2.874   8.897 -0.0261  0.1620  0.1692
 8706SOL    HW137754   0.635   2.945   8.851 -1.9425 -0.1626  1.5245
 8706SOL    HW237755   0.771   2.902   8.898 -0.8604  2.8577 -0.5786
 8707SOL     OW37756   3.794   2.433  13.990  0.3830 -0.2276 -0.0169
 8707SOL    HW137757   3.882   2.418  13.955 -0.3774 -3.2616 -0.6593
 8707SOL    HW237758   3.753   2.468  13.911 -1.2015 -0.8747  0.5149
 8708SOL     OW37759   4.305   3.346   6.265 -0.0946 -0.3082 -0.3610
 8708SOL    HW137760   4.212   3.326   6.275 -0.2238  0.1876 -0.6023
 8708SOL    HW237761   4.313   3.410   6.335  0.7803  0.6459 -1.3340
 8709SOL     OW37762   2.331   3.850  14.071  0.9234  0.4072  1.1866
 8709SOL    HW137763   2.239   3.843  14.096 -0.4671 -0.7821 -4.2427
 8709SOL    HW237764   2.381   3.859  14.152  1.2894 -1.3756  1.1629
 8710SOL     OW37765   1.236   0.263  10.928  0.2522 -0.4620 -0.5902
 8710SOL    HW137766   1.160   0.321  10.927  1.5880  1.3065  0.5095
 8710SOL    HW237767   1.224   0.243  11.020 -0.7040 -3.2139 -1.3109
 8711SOL     OW37768   3.688   1.317  10.401  0.2142  0.3201  0.6937
 8711SOL    HW137769   3.609   1.315  10.348  0.2211 -0.8121  0.7266
 8711SOL    HW237770   3.725   1.396  10.361 -0.2243  0.1481 -0.0367
 8712SOL     OW37771   1.830   0.712   4.538 -0.4265 -0.1331 -0.6517
 8712SOL    HW137772   1.829   0.763   4.457  0.2448 -0.8804 -1.1305
 8712SOL    HW237773   1.785   0.637   4.500  0.2276 -0.9706  0.2243
 8713SOL     OW37774   0.973   4.477   7.879 -0.3606 -0.3947 -0.1599
 8713SOL    HW137775   1.050   4.425   7.900 -1.0800 -0.8087  1.3822
 8713SOL    HW237776   0.925   4.401   7.849 -1.2706 -0.5523  1.7243
 8714SOL     OW37777   2.559   1.405   2.693 -0.5448 -0.1608  0.1175
 8714SOL    HW137778   2.493   1.377   2.757 -1.3929 -0.6761 -0.9943
 8714SOL    HW237779   2.512   1.472   2.644 -1.0806 -0.0335  0.8087
 8715SOL     OW37780   4.209   3.065   2.834  0.0208  0.4469 -0.2012
 8715SOL    HW137781   4.295   3.108   2.834 -1.0300  2.5892  2.0378
 8715SOL    HW237782   4.245   2.977   2.821 -1.2172 -0.0842 -0.0170
 8716SOL     OW37783   1.022   3.580   0.080 -0.2369  0.4780 -0.2867
 8716SOL    HW137784   0.927   3.572   0.084 -0.2376  1.6183  1.9491
 8716SOL    HW237785   1.023   3.665   0.036  0.3546  0.0884 -1.0232
 8717SOL     OW37786   2.368   3.766   1.939  0.0590 -0.0733 -0.1002
 8717SOL    HW137787   2.355   3.785   1.846  0.6635  1.2039  0.0689
 8717SOL    HW237788   2.388   3.854   1.971  2.0694  0.4718 -2.8206
 8718SOL     OW37789   1.675   1.452   4.693  0.1567 -0.3414  0.2492
 8718SOL    HW137790   1.640   1.512   4.627  1.2322 -1.3823 -1.2768
 8718SOL    HW237791   1.600   1.446   4.751  0.5487 -2.0050  0.5841
 8719SOL     OW37792   0.511   4.252   3.854 -0.4542 -0.2015 -0.1800
 8719SOL    HW137793   0.436   4.222   3.802  0.3552 -1.4396 -0.6190
 8719SOL    HW237794   0.570   4.248   3.779  0.8133  0.2306  0.8024
 8720SOL     OW37795   2.244   1.288  11.746  0.3254  0.7052 -0.1218
 8720SOL    HW137796   2.233   1.374  11.786  1.3776  0.7668  0.0314
 8720SOL    HW237797   2.273   1.239  11.823  0.8398  2.4777  0.8007
 8721SOL     OW37798   4.189   2.563  17.666  0.1431  0.1052  0.0107
 8721SOL    HW137799   4.119   2.589  17.607  0.9534  2.0577 -0.0921
 8721SOL    HW237800   4.228   2.493  17.614 -2.2991 -1.6392  0.5403
 8722SOL     OW37801   3.019   1.055   7.810 -0.2295 -0.1441  0.1076
 8722SOL    HW137802   3.007   1.090   7.898 -0.1947 -2.4478  1.0267
 8722SOL    HW237803   3.086   0.988   7.821  1.3087  1.1837 -1.1655
 8723SOL     OW37804   0.375   1.153   6.395  0.8493 -0.1368  0.4339
 8723SOL    HW137805   0.444   1.171   6.331  0.2035  3.1230  0.6604
 8723SOL    HW237806   0.411   1.075   6.437  2.1344 -0.0663 -0.5234
 8724SOL     OW37807   0.311   3.554   7.911  0.1120 -0.3262 -0.1259
 8724SOL    HW137808   0.239   3.596   7.957 -0.5514 -1.4001 -0.1885
 8724SOL    HW237809   0.375   3.626   7.914  0.8701 -0.8598 -3.8245
 8725SOL     OW37810   0.061   4.254  15.544  0.2705 -1.1203 -0.8654
 8725SOL    HW137811   0.142   4.202  15.534  0.9609  0.0936 -1.4971
 8725SOL    HW237812   0.069   4.323  15.479 -2.0606  0.0091  0.0579
 8726SOL     OW37813   1.677   4.682   0.048  0.6876  0.0536 -0.6729
 8726SOL    HW137814   1.722   0.003   0.103  2.6199 -2.3188  0.5092
 8726SOL    HW237815   1.652   4.733  17.738  2.1395 -2.4058 -2.7605
 8727SOL     OW37816   0.448   0.880   9.140 -0.5929 -0.2605 -0.3521
 8727SOL    HW137817   0.506   0.956   9.132 -1.1116  0.2861  1.1688
 8727SOL    HW237818   0.474   0.851   9.227 -0.5999 -0.0408 -0.2779
 8728SOL     OW37819   0.751   0.738   2.916 -0.0826  0.7374 -0.2004
 8728SOL    HW137820   0.707   0.795   2.979  2.1187  0.4658  1.6158
 8728SOL    HW237821   0.794   0.678   2.978  0.7944  2.2942  0.6963
 8729SOL     OW37822   3.866   2.801   1.969  0.0445  0.3872  0.1137
 8729SOL    HW137823   3.927   2.779   2.040  0.0430  2.4072  0.7591
 8729SOL    HW237824   3.842   2.887   2.004  1.1397  0.5328  0.4931
 8730SOL     OW37825   3.515   1.492   5.048  0.2372 -0.1623  0.0523
 8730SOL    HW137826   3.465   1.489   5.130  2.2904 -0.8626  1.2746
 8730SOL    HW237827   3.587   1.430   5.057 -1.0348 -1.6324 -0.1034
 8731SOL     OW37828   2.674   4.274  17.460  0.0399 -0.3492  1.0009
 8731SOL    HW137829   2.716   4.240  17.538  2.8783  2.3494  0.6568
 8731SOL    HW237830   2.649   4.195  17.412  2.1048 -1.0971  1.1574
 8732SOL     OW37831   3.887   4.026   9.255 -0.3740 -0.7366 -0.5859
 8732SOL    HW137832   3.981   4.030   9.239  0.0308 -0.2616  1.8198
 8732SOL    HW237833   3.842   4.102   9.218  3.0581  1.1866 -0.8378
 8733SOL     OW37834   1.056   1.239   2.249 -0.2875  0.0373  0.2173
 8733SOL    HW137835   1.142   1.198   2.244  0.1773  1.2943 -2.5714
 8733SOL    HW237836   1.013   1.191   2.178  0.7332  0.7106 -0.8709
 8734SOL     OW37837   3.360   1.977   5.347  0.3955 -0.6737 -0.2673
 8734SOL    HW137838   3.443   2.008   5.383 -1.1007  0.2116  2.4726
 8734SOL    HW237839   3.334   2.049   5.290  0.6712  0.6682  1.2874
 8735SOL     OW37840   1.178   4.294   4.316 -0.1636 -0.0998  0.1908
 8735SOL    HW137841   1.086   4.314   4.331 -0.0298 -0.1422  1.0469
 8735SOL    HW237842   1.208   4.361   4.254  0.8917 -0.8496 -0.1264
 8736SOL     OW37843   0.001   1.722   2.185 -0.3089  0.0147 -0.5832
 8736SOL    HW137844   0.082   1.766   2.210 -1.1433  0.3292  1.5688
 8736SOL    HW237845   4.685   1.798   2.188  0.6306  0.7362 -0.5011
 8737SOL     OW37846   3.357   2.518   5.147 -0.1325 -0.0417 -0.0720
 8737SOL    HW137847   3.356   2.468   5.065  1.0176  0.8195 -0.6037
 8737SOL    HW237848   3.398   2.458   5.210 -0.2304  0.0978  0.1259
 8738SOL     OW37849   4.504   4.728   8.604 -0.1019 -0.1342 -0.1640
 8738SOL    HW137850   4.538   4.639   8.611 -0.3585 -0.2534 -0.4067
 8738SOL    HW237851   4.571   0.026   8.548 -1.6456  0.6482 -1.4439
 8739SOL     OW37852   0.191   2.960  11.701  0.1928 -0.1296 -0.0036
 8739SOL    HW137853   0.194   2.864  11.703  0.9347 -0.1472 -1.7030
 8739SOL    HW237854   0.153   2.980  11.786  1.4893  0.7987  0.3622
 8740SOL     OW37855   0.889   3.216   1.027 -0.4129  0.3894  0.3234
 8740SOL    HW137856   0.933   3.260   1.099  1.3811  2.4798 -2.0306
 8740SOL    HW237857   0.912   3.125   1.042 -2.5341 -0.4996 -1.7729
 8741SOL     OW37858   2.849   4.252   9.395 -0.4625  0.0225  0.1675
 8741SOL    HW137859   2.941   4.246   9.369  0.1506 -0.0286  2.2733
 8741SOL    HW237860   2.818   4.167   9.366  0.5692 -0.1739 -0.3506
 8742SOL     OW37861   1.326   3.492   0.408  0.0972 -0.5585  0.6251
 8742SOL    HW137862   1.242   3.532   0.384 -0.5891 -0.8949  2.4605
 8742SOL    HW237863   1.311   3.398   0.407  2.0131 -0.8683 -0.0183
 8743SOL     OW37864   1.403   2.687  15.432 -0.6280  0.1476  0.3133
 8743SOL    HW137865   1.407   2.635  15.512 -1.9065 -1.1756 -0.4760
 8743SOL    HW237866   1.335   2.752  15.448 -1.8982 -0.9709 -0.6042
 8744SOL     OW37867   3.294   0.902   8.964  0.0650 -0.1042 -0.5292
 8744SOL    HW137868   3.225   0.908   8.898 -0.2307 -2.5358 -0.4261
 8744SOL    HW237869   3.359   0.968   8.940  2.0091 -2.4731 -1.7690
 8745SOL     OW37870   2.018   0.908   0.159  0.6626  0.3604 -0.3039
 8745SOL    HW137871   2.016   0.914   0.255 -0.8522  1.7401 -0.4127
 8745SOL    HW237872   2.106   0.875   0.141  1.8997  4.1892 -1.1722
 8746SOL     OW37873   0.193   3.173   5.606  0.1391  0.6171 -0.2597
 8746SOL    HW137874   0.098   3.164   5.612  0.1839 -0.6030 -1.2037
 8746SOL    HW237875   0.219   3.223   5.683 -1.2645 -1.1401  1.3494
 8747SOL     OW37876   3.947   0.073  15.934 -0.7205  0.0015 -0.3037
 8747SOL    HW137877   3.926   0.099  16.023  1.3581  0.7587 -0.0332
 8747SOL    HW237878   3.967   0.161  15.902  0.0274  0.5075  1.5275
 8748SOL     OW37879   0.731   1.316   0.399  0.4599 -0.1007  0.0841
 8748SOL    HW137880   0.664   1.334   0.466 -1.9443  1.1879 -2.6590
 8748SOL    HW237881   0.676   1.317   0.321  0.8251 -0.0951 -0.1670
 8749SOL     OW37882   4.482   2.357   3.152  0.1475 -0.0788  0.6224
 8749SOL    HW137883   4.550   2.297   3.122  1.8987  2.2851 -0.1066
 8749SOL    HW237884   4.502   2.447   3.128  0.4957 -0.4336 -0.4193
 8750SOL     OW37885   0.483   3.727   6.861 -0.4631 -0.0935  0.2254
 8750SOL    HW137886   0.572   3.716   6.894 -0.1317  1.1137 -0.2694
 8750SOL    HW237887   0.441   3.642   6.872 -0.0124 -0.4359 -0.6428
 8751SOL     OW37888   3.980   0.091   8.551 -0.3495  0.5264  0.2667
 8751SOL    HW137889   4.029   0.012   8.526  1.6373  1.5127  1.0974
 8751SOL    HW237890   3.946   0.064   8.636  0.7491 -1.6238  0.0479
 8752SOL     OW37891   0.175   4.524  17.731  1.0426  0.1625  0.4334
 8752SOL    HW137892   0.211   4.490  17.649 -0.0325  1.0008 -0.3835
 8752SOL    HW237893   0.138   4.445   0.002  1.4791 -0.2522  0.0116
 8753SOL     OW37894   4.398   1.253   5.742 -0.1225  0.4465 -0.2603
 8753SOL    HW137895   4.412   1.348   5.741  0.7599  0.3610  2.6417
 8753SOL    HW237896   4.397   1.231   5.835  0.4734  1.4284 -0.0172
 8754SOL     OW37897   1.747   2.608   4.236  0.2643 -0.3047 -0.0524
 8754SOL    HW137898   1.737   2.553   4.159  0.0191  0.3832 -0.5198
 8754SOL    HW237899   1.808   2.564   4.295  0.5098 -1.3274 -1.0705
 8755SOL     OW37900   1.662   3.956   9.045 -0.7274  0.8213  0.0208
 8755SOL    HW137901   1.629   3.996   9.125  2.3609  2.2547  0.5842
 8755SOL    HW237902   1.681   4.036   8.996 -0.1525  0.9836  0.5038
 8756SOL     OW37903   1.579   1.594  16.135  0.3982  0.4309 -0.1075
 8756SOL    HW137904   1.646   1.528  16.116 -1.4172 -0.6098 -2.9238
 8756SOL    HW237905   1.505   1.565  16.082  0.0559  1.3397 -0.1138
 8757SOL     OW37906   3.697   2.551   2.064 -0.1994  0.2457 -0.1149
 8757SOL    HW137907   3.661   2.464   2.048  1.8943 -0.0837 -3.0378
 8757SOL    HW237908   3.790   2.538   2.077 -0.2794 -0.3176 -0.1197
 8758SOL     OW37909   2.327   1.597   3.279 -0.7890  0.6215  0.5231
 8758SOL    HW137910   2.277   1.673   3.253  0.3978  0.7489 -1.3605
 8758SOL    HW237911   2.279   1.531   3.229  1.8862 -1.0907  0.2028
 8759SOL     OW37912   0.014   4.484   2.348 -0.4619 -0.1032 -0.1508
 8759SOL    HW137913   0.045   4.573   2.329  0.2857 -0.3794 -0.1856
 8759SOL    HW237914   4.677   4.507   2.396  0.2488 -2.4640  2.1137
 8760SOL     OW37915   1.881   2.356   2.651  0.4619 -0.2422 -0.2447
 8760SOL    HW137916   1.833   2.379   2.731 -0.6779 -0.7670 -0.7787
 8760SOL    HW237917   1.965   2.325   2.684  0.9190  0.1302 -1.0837
 8761SOL     OW37918   0.733   3.256   3.442  0.1957  0.8415 -0.5633
 8761SOL    HW137919   0.690   3.340   3.459 -0.9415 -0.4460  2.9645
 8761SOL    HW237920   0.710   3.205   3.521 -0.9896 -0.1265 -1.5245
 8762SOL     OW37921   0.038   4.713  15.684  0.3187 -0.0611 -0.2715
 8762SOL    HW137922   0.022   0.051  15.732 -2.1826  0.2170 -1.5768
 8762SOL    HW237923   0.011   4.645  15.746  3.6009 -0.1226  1.0650
 8763SOL     OW37924   3.913   1.878  13.792  0.4820  0.4666  0.1545
 8763SOL    HW137925   3.838   1.837  13.834 -0.7181  0.1989 -2.2211
 8763SOL    HW237926   3.869   1.927  13.722  0.8444  0.2512 -0.2303
 8764SOL     OW37927   2.005   2.332   9.208 -0.0208 -0.5525  0.0888
 8764SOL    HW137928   2.009   2.334   9.303 -0.3498 -1.5281  0.1228
 8764SOL    HW237929   2.096   2.347   9.183 -0.6535 -0.0881 -2.0024
 8765SOL     OW37930   4.082   3.530   4.130  0.5060 -0.2167  0.6701
 8765SOL    HW137931   4.096   3.590   4.056  0.9584  1.4464  2.0948
 8765SOL    HW237932   4.073   3.596   4.199 -0.9367  1.7365 -1.3551
 8766SOL     OW37933   3.026   1.933   7.565 -0.2835  0.2075 -0.0738
 8766SOL    HW137934   2.960   1.988   7.525 -1.7497 -2.0150 -0.6955
 8766SOL    HW237935   3.106   1.940   7.512  0.6156  0.7072  1.3441
 8767SOL     OW37936   4.496   0.607   4.657  0.0392  0.3165 -0.3593
 8767SOL    HW137937   4.483   0.701   4.665  0.3179  0.4799 -1.8300
 8767SOL    HW237938   4.455   0.570   4.735  3.3501 -1.1547  0.6823
 8768SOL     OW37939   1.639   3.534   6.988 -0.4814  0.2290  0.2833
 8768SOL    HW137940   1.646   3.609   6.929 -0.4311  0.2383  0.3007
 8768SOL    HW237941   1.612   3.466   6.927 -0.1002  0.3821 -0.0527
 8769SOL     OW37942   2.200   3.527   9.648 -0.0249  0.0927 -0.3146
 8769SOL    HW137943   2.158   3.611   9.631 -2.6930 -1.1817  0.0069
 8769SOL    HW237944   2.237   3.542   9.735  2.3919 -0.8114 -1.1833
 8770SOL     OW37945   4.674   2.261   3.946 -0.3372 -0.0373  0.0986
 8770SOL    HW137946   4.723   2.217   4.015  2.9992  0.6918 -1.8068
 8770SOL    HW237947   4.738   2.319   3.904 -0.2474 -0.9088 -0.9765
 8771SOL     OW37948   0.501   4.177  16.123 -0.6259 -0.2875  0.2228
 8771SOL    HW137949   0.411   4.188  16.155 -0.9020 -1.1037 -0.2495
 8771SOL    HW237950   0.475   4.148  16.036 -1.5493  2.3687 -0.3761
 8772SOL     OW37951   2.971   1.939  10.708  0.3132 -0.0916 -0.3984
 8772SOL    HW137952   2.914   1.865  10.726 -0.4503  0.3214 -1.1329
 8772SOL    HW237953   2.989   1.939  10.614  2.1440 -0.9744 -0.0472
 8773SOL     OW37954   3.235   1.205   2.558 -0.2330 -0.4817 -0.2303
 8773SOL    HW137955   3.310   1.156   2.592 -0.5899 -0.8099  0.0741
 8773SOL    HW237956   3.235   1.270   2.628  1.0207 -1.2991  0.5431
 8774SOL     OW37957   2.763   0.916   5.273 -0.6818  0.8521 -0.4039
 8774SOL    HW137958   2.843   0.867   5.254  0.0582  1.5035  1.0205
 8774SOL    HW237959   2.700   0.864   5.224 -1.3649 -0.3439  1.7368
 8775SOL     OW37960   1.449   2.924  13.815  0.1304  0.1287 -0.2244
 8775SOL    HW137961   1.500   2.976  13.753  1.3884  1.9135  2.2676
 8775SOL    HW237962   1.417   2.987  13.880  0.4787 -0.3109  0.3771
 8776SOL     OW37963   1.563   2.871   3.646 -0.0617 -0.0135 -0.3251
 8776SOL    HW137964   1.532   2.793   3.692  1.6974 -0.0480  0.7936
 8776SOL    HW237965   1.572   2.923   3.726 -2.6115  1.6558 -1.1170
 8777SOL     OW37966   3.747   1.275   6.483 -0.4909  0.1675  0.0991
 8777SOL    HW137967   3.776   1.245   6.569 -2.0793 -1.8746 -0.0899
 8777SOL    HW237968   3.719   1.188   6.454  1.5377 -0.2590 -0.6328
 8778SOL     OW37969   0.550   1.421  17.275  0.2575 -0.4687 -0.1970
 8778SOL    HW137970   0.521   1.506  17.307  0.7809 -0.7155  0.9467
 8778SOL    HW237971   0.476   1.383  17.227 -0.7020 -0.1661  1.0487
 8779SOL     OW37972   3.703   3.942  14.882 -0.0123  0.3733 -0.7313
 8779SOL    HW137973   3.659   4.025  14.865  1.0157  0.8810 -0.9304
 8779SOL    HW237974   3.739   3.922  14.795  1.5188 -0.6061  0.1179
 8780SOL     OW37975   1.096   4.731  16.921  0.2185  0.9742  1.1151
 8780SOL    HW137976   1.164   4.741  16.855  1.1068  1.3239  2.0829
 8780SOL    HW237977   1.032   0.056  16.896  1.9735  1.4859 -2.0073
 8781SOL     OW37978   2.440   1.070   5.536  0.6563 -0.3372 -0.2098
 8781SOL    HW137979   2.351   1.045   5.512  0.6192 -0.7962  0.4077
 8781SOL    HW237980   2.444   1.154   5.490  0.6982  0.5636  1.4199
 8782SOL     OW37981   2.562   3.710   9.535  0.4253 -0.2880 -0.6755
 8782SOL    HW137982   2.485   3.707   9.591  0.3218 -0.3721 -0.8240
 8782SOL    HW237983   2.639   3.688   9.587  0.1908  0.2020 -0.1238
 8783SOL     OW37984   2.684   1.113  15.657 -0.2959  0.0997  0.0272
 8783SOL    HW137985   2.698   1.076  15.570  1.0809  1.9382 -0.5563
 8783SOL    HW237986   2.742   1.066  15.717  1.3768  2.6448  0.4278
 8784SOL     OW37987   3.512   0.801   2.156  0.3429  0.5842 -0.5374
 8784SOL    HW137988   3.514   0.886   2.112  1.0535  0.8603  0.0237
 8784SOL    HW237989   3.420   0.776   2.156 -0.3103  2.9525 -2.7406
 8785SOL     OW37990   4.199   2.936  10.240  0.0672  0.0656  0.0281
 8785SOL    HW137991   4.175   3.029  10.246  2.5027  0.7332 -0.5476
 8785SOL    HW237992   4.272   2.941  10.179 -0.3147  0.5030 -0.3934
 8786SOL     OW37993   3.613   1.484   2.690 -0.1573  0.2862 -0.3290
 8786SOL    HW137994   3.536   1.431   2.713 -0.2573  0.3873 -0.4268
 8786SOL    HW237995   3.566   1.566   2.675  0.1485  0.8253  1.5967
 8787SOL     OW37996   3.706   4.424  12.110 -0.6902 -0.6662  0.2597
 8787SOL    HW137997   3.669   4.366  12.044  0.3031 -0.6393 -0.3123
 8787SOL    HW237998   3.676   4.510  12.079  1.9924 -0.0632 -0.6484
 8788SOL     OW37999   0.319   2.745   5.461  0.0365  0.2900  0.3201
 8788SOL    HW138000   0.330   2.834   5.495 -0.4537  0.1189  0.9268
 8788SOL    HW238001   0.228   2.739   5.488  0.1216 -3.3257 -0.1473
 8789SOL     OW38002   3.516   1.084  12.598 -0.4787  0.4049  0.4466
 8789SOL    HW138003   3.471   1.018  12.543 -0.5266  0.6196  0.2278
 8789SOL    HW238004   3.576   1.117  12.531 -0.8798 -0.4342 -0.3457
 8790SOL     OW38005   2.426   4.488   9.677 -0.2567 -0.2220  0.6161
 8790SOL    HW138006   2.507   4.492   9.626 -1.8737  0.1752 -1.9187
 8790SOL    HW238007   2.354   4.491   9.614 -1.7913 -0.0101  2.3720
 8791SOL     OW38008   2.599   4.290   0.164 -0.0614  0.6252  0.5083
 8791SOL    HW138009   2.578   4.240   0.085 -1.7648  3.0284 -0.5481
 8791SOL    HW238010   2.689   4.319   0.148  0.4178 -0.2767  1.6463
 8792SOL     OW38011   0.005   3.932   1.744 -0.2278  0.1482 -0.5698
 8792SOL    HW138012   0.040   3.865   1.802  0.5055 -0.2458 -1.4509
 8792SOL    HW238013   4.741   4.009   1.801  0.4105 -1.1563  1.2419
 8793SOL     OW38014   1.334   2.371   6.834  0.6441 -0.2054 -0.8082
 8793SOL    HW138015   1.291   2.287   6.848 -1.0423  0.7847 -0.1031
 8793SOL    HW238016   1.422   2.348   6.865 -0.1659 -0.0400  1.6050
 8794SOL     OW38017   1.328   3.846   8.880 -0.5345  0.0346 -0.7703
 8794SOL    HW138018   1.234   3.831   8.891 -0.5297 -0.2462 -1.1295
 8794SOL    HW238019   1.326   3.928   8.930  0.6128 -0.1864 -0.3717
 8795SOL     OW38020   1.573   2.124   7.683 -0.7537 -0.4192  0.8366
 8795SOL    HW138021   1.494   2.071   7.691 -0.1557 -1.3388  0.6380
 8795SOL    HW238022   1.595   2.093   7.596 -2.1777  4.1736 -1.1358
 8796SOL     OW38023   3.979   2.550   8.247 -0.6125  0.1456  0.0993
 8796SOL    HW138024   4.025   2.548   8.163 -3.1910 -0.1481 -1.3027
 8796SOL    HW238025   4.012   2.471   8.291 -0.1641  0.0460 -0.4234
 8797SOL     OW38026   1.028   0.060  10.136  0.1821  0.5384 -0.3205
 8797SOL    HW138027   1.084   0.138  10.137  0.1636  0.5392  1.1581
 8797SOL    HW238028   0.999   0.068  10.227  2.4696 -0.7615  0.5422
 8798SOL     OW38029   2.077   1.804  16.814  0.2411 -0.0781 -0.8841
 8798SOL    HW138030   2.122   1.873  16.862  2.3551 -1.2492 -1.1824
 8798SOL    HW238031   2.134   1.791  16.738  0.5579  1.7589 -0.9606
 8799SOL     OW38032   2.798   0.921   6.031  0.2158 -0.2662 -0.0632
 8799SOL    HW138033   2.719   0.915   6.085 -0.7289  0.7680 -1.3359
 8799SOL    HW238034   2.763   0.877   5.953 -1.0013 -0.8483  0.8039
 8800SOL     OW38035   3.971   0.729   7.738  0.2402  0.6839  0.2991
 8800SOL    HW138036   3.925   0.775   7.809 -1.9381 -0.1466 -0.5486
 8800SOL    HW238037   4.040   0.793   7.721  0.8914 -0.4592 -1.3994
 8801SOL     OW38038   4.405   0.371   6.256 -0.1535 -0.6665  0.0161
 8801SOL    HW138039   4.449   0.325   6.328 -0.6427  1.2708  1.5399
 8801SOL    HW238040   4.442   0.459   6.261  1.8854 -1.3143 -3.5121
 8802SOL     OW38041   1.380   0.477   6.177 -0.5478 -0.1712  0.8639
 8802SOL    HW138042   1.371   0.390   6.139  1.0050 -0.6597  1.6193
 8802SOL    HW238043   1.463   0.474   6.225 -1.4023 -1.0333  2.3051
 8803SOL     OW38044   2.491   1.704   7.410 -0.0573 -0.1544 -0.4649
 8803SOL    HW138045   2.518   1.613   7.392  3.1839  0.9100 -1.0011
 8803SOL    HW238046   2.513   1.709   7.503 -1.5090  0.9348 -0.1859
 8804SOL     OW38047   4.089   3.394  10.334  0.2350 -0.5637 -0.6792
 8804SOL    HW138048   4.007   3.391  10.383  2.8811 -1.9572  3.6821
 8804SOL    HW238049   4.068   3.419  10.244 -1.0899 -1.7270 -0.6848
 8805SOL     OW38050   3.944   1.810   4.278  0.2013  0.3276 -0.1352
 8805SOL    HW138051   3.851   1.800   4.256 -0.0078 -0.3031  1.0222
 8805SOL    HW238052   3.951   1.883   4.340  2.4956  0.8651 -1.0453
 8806SOL     OW38053   2.800   2.067   7.015 -0.3962 -0.1843  0.0341
 8806SOL    HW138054   2.858   2.134   6.979 -2.3556  1.2076 -0.5391
 8806SOL    HW238055   2.787   2.014   6.937  0.0301 -0.2275 -0.0107
 8807SOL     OW38056   2.652   0.270   5.304  0.0474  0.1865 -0.0963
 8807SOL    HW138057   2.686   0.360   5.298  0.8013 -0.1349 -0.5637
 8807SOL    HW238058   2.571   0.290   5.351 -0.8272  0.8413 -1.9038
 8808SOL     OW38059   1.500   3.781   8.258 -0.2106 -0.4872  0.3656
 8808SOL    HW138060   1.549   3.818   8.331 -1.7759  1.6238  0.3624
 8808SOL    HW238061   1.550   3.704   8.233 -0.7502 -1.1333  1.2955
 8809SOL     OW38062   2.861   1.116   2.241 -0.1460 -0.0681 -0.5520
 8809SOL    HW138063   2.822   1.129   2.328  0.3056  0.2162 -0.3895
 8809SOL    HW238064   2.897   1.201   2.215  0.6406 -0.3606 -0.4074
 8810SOL     OW38065   4.374   3.480  10.773 -0.3920  0.7310  0.0059
 8810SOL    HW138066   4.310   3.454  10.707  0.4653 -0.8054 -0.2181
 8810SOL    HW238067   4.421   3.552  10.730  2.1113 -1.4785 -1.0530
 8811SOL     OW38068   3.134   0.190  15.388  0.1464  0.0761 -0.5252
 8811SOL    HW138069   3.138   0.219  15.297 -0.0341  1.8102  0.0067
 8811SOL    HW238070   3.108   0.269  15.436  2.5108  0.4199  0.1752
 8812SOL     OW38071   2.544   2.284   2.185 -0.1320 -0.6478  0.5242
 8812SOL    HW138072   2.622   2.298   2.131 -1.6529 -1.5089 -1.8891
 8812SOL    HW238073   2.572   2.214   2.244  1.1825  0.2646  0.9973
 8813SOL     OW38074   3.694   0.310  15.931  0.8508  0.0293 -0.4298
 8813SOL    HW138075   3.662   0.352  16.011  0.5315  1.0533 -1.1026
 8813SOL    HW238076   3.790   0.307  15.938  0.9598  1.8050 -1.1518
 8814SOL     OW38077   1.427   4.292  15.088 -0.2142 -0.7488 -0.0620
 8814SOL    HW138078   1.464   4.258  15.169 -0.0419  0.0872  0.2016
 8814SOL    HW238079   1.493   4.356  15.061  0.0093 -0.9861 -0.0777
 8815SOL     OW38080   0.465   0.792  12.588 -0.1980 -0.7216  0.2093
 8815SOL    HW138081   0.547   0.840  12.575 -0.8330 -0.2092 -1.8337
 8815SOL    HW238082   0.402   0.829  12.526 -0.8008  0.4510  1.5020
 8816SOL     OW38083   2.625   2.269   9.280 -0.6505 -0.0275  0.1936
 8816SOL    HW138084   2.580   2.214   9.343 -0.5866 -1.4709 -1.0087
 8816SOL    HW238085   2.713   2.236   9.296 -0.5156  0.8046  1.1530
 8817SOL     OW38086   4.287   2.284  15.304 -0.3601  0.2645 -0.5713
 8817SOL    HW138087   4.270   2.377  15.316 -2.6176 -0.2098 -0.0410
 8817SOL    HW238088   4.241   2.276  15.220 -1.8768 -0.3387  0.3163
 8818SOL     OW38089   0.038   2.315   9.856  0.3787 -0.0421 -0.0464
 8818SOL    HW138090   0.074   2.378   9.920 -0.0319 -0.0951  0.2367
 8818SOL    HW238091   0.111   2.318   9.794  2.6318 -0.6050  2.5422
 8819SOL     OW38092   2.496   0.380   5.894  0.4469 -0.8602  0.2198
 8819SOL    HW138093   2.434   0.428   5.839  2.1918  0.6778 -0.4120
 8819SOL    HW238094   2.531   0.454   5.945  0.6631  0.2226 -1.4985
 8820SOL     OW38095   4.051   4.365   1.240 -0.3580  0.0893 -0.0497
 8820SOL    HW138096   4.000   4.295   1.281 -0.1374  0.3266  0.6325
 8820SOL    HW238097   4.003   4.441   1.271 -0.8375 -0.3169  0.2137
 8821SOL     OW38098   4.382   1.116  10.339 -0.0411 -0.0204  0.6603
 8821SOL    HW138099   4.345   1.076  10.418 -1.4717 -1.7101 -0.8915
 8821SOL    HW238100   4.433   1.052  10.289  1.2977  1.5907 -0.0213
 8822SOL     OW38101   0.856   1.753  14.671  0.0098  0.0856  0.7948
 8822SOL    HW138102   0.825   1.814  14.738  0.2841 -1.0721  1.9892
 8822SOL    HW238103   0.922   1.704  14.721  0.0092 -0.2004  0.5160
 8823SOL     OW38104   3.118   2.076   6.040  0.1972  0.3031  0.0947
 8823SOL    HW138105   3.208   2.090   6.011  1.3785 -2.1455  2.5696
 8823SOL    HW238106   3.086   2.166   6.043  1.9394  0.8407  2.4638
 8824SOL     OW38107   3.966   2.499  12.553  0.2704  0.8613 -0.5896
 8824SOL    HW138108   4.041   2.502  12.612 -2.1134  0.2089  2.4233
 8824SOL    HW238109   3.986   2.580  12.506 -1.4269  1.9388  0.5335
 8825SOL     OW38110   2.601   0.387   4.902  0.5675 -0.4627  0.3554
 8825SOL    HW138111   2.516   0.379   4.945  0.0715  1.9420 -0.1410
 8825SOL    HW238112   2.595   0.473   4.859  0.7884 -0.9577 -0.6468
 8826SOL     OW38113   4.023   3.110  12.609  0.0292 -0.3918  0.4134
 8826SOL    HW138114   4.094   3.095  12.672  0.3288 -2.1058 -0.3323
 8826SOL    HW238115   4.027   3.206  12.605 -1.1980 -0.4426 -1.8021
 8827SOL     OW38116   2.154   2.286  12.355 -0.0279  0.0529 -0.1387
 8827SOL    HW138117   2.163   2.249  12.443 -0.8289  1.1388  0.3920
 8827SOL    HW238118   2.245   2.277  12.326  0.7800  0.3805  2.3552
 8828SOL     OW38119   4.107   0.594   4.888 -0.3452 -0.2492  0.2698
 8828SOL    HW138120   4.203   0.592   4.895 -0.4982  0.9706  2.7278
 8828SOL    HW238121   4.104   0.683   4.856 -1.8665 -0.0274  1.0233
 8829SOL     OW38122   3.264   4.711   7.866 -0.1359  0.4305  0.1782
 8829SOL    HW138123   3.242   0.045   7.814  1.5099  0.0490 -1.0513
 8829SOL    HW238124   3.357   4.723   7.884 -0.4069 -0.0745  1.9267
 8830SOL     OW38125   0.203   2.326  14.123  0.2659 -0.2806  0.3944
 8830SOL    HW138126   0.297   2.330  14.142  0.1196  0.7911  0.8947
 8830SOL    HW238127   0.208   2.267  14.048  2.2641 -0.6517  0.8205
 8831SOL     OW38128   0.304   4.435  15.352  0.1096 -0.0213 -0.1777
 8831SOL    HW138129   0.210   4.431  15.333  0.0146  0.7927  0.1612
 8831SOL    HW238130   0.301   4.515  15.404  3.2174 -0.2247  0.2809
 8832SOL     OW38131   2.120   1.182  17.593  0.2421 -0.2466  0.1985
 8832SOL    HW138132   2.092   1.262  17.636 -1.4542  0.2567 -1.7875
 8832SOL    HW238133   2.167   1.219  17.518 -0.4633  0.5963  0.1647
 8833SOL     OW38134   0.006   3.710  17.653  0.3898  0.3453 -0.1632
 8833SOL    HW138135   0.035   3.738  17.566  4.3723 -0.8914  0.7413
 8833SOL    HW238136   0.074   3.752  17.706 -1.3050  0.2832  2.0782
 8834SOL     OW38137   3.334   1.025   3.208 -0.3191  0.1886 -0.1750
 8834SOL    HW138138   3.348   1.113   3.245 -0.9119 -0.1343  0.8271
 8834SOL    HW238139   3.408   0.976   3.243 -0.7521  1.3201  2.3463
 8835SOL     OW38140   0.974   3.759   2.795  0.2389  0.0882  0.2489
 8835SOL    HW138141   1.003   3.707   2.870  0.9834 -1.1522 -0.8970
 8835SOL    HW238142   0.880   3.744   2.800  0.5437 -1.8743  0.0340
 8836SOL     OW38143   3.332   3.322  10.062 -0.0200  0.0608 -0.7038
 8836SOL    HW138144   3.380   3.378  10.123 -1.2630  0.4117 -0.0649
 8836SOL    HW238145   3.404   3.282  10.012  1.6422  0.0992  1.6721
 8837SOL     OW38146   2.139   1.202   7.052  0.1467  0.2115 -0.5184
 8837SOL    HW138147   2.204   1.201   6.982  0.6713 -0.7702 -0.0184
 8837SOL    HW238148   2.084   1.126   7.037  0.0313  0.4440 -1.2460
 8838SOL     OW38149   4.376   1.452   7.166 -0.1088  0.1608  0.2171
 8838SOL    HW138150   4.308   1.389   7.192  1.1358 -1.6128 -0.8721
 8838SOL    HW238151   4.324   1.521   7.125 -2.2607 -1.4023  0.2889
 8839SOL     OW38152   1.015   0.022   9.235 -0.4676 -0.6193  0.2926
 8839SOL    HW138153   0.999   0.090   9.300  0.5201  0.0124 -0.1351
 8839SOL    HW238154   0.978   0.070   9.161  1.7727  0.6165 -0.0245
 8840SOL     OW38155   4.036   4.382   0.724  0.0646 -0.8536 -0.3273
 8840SOL    HW138156   4.024   4.445   0.653  2.6327  0.1057  0.0844
 8840SOL    HW238157   4.095   4.312   0.694  1.5195  1.2636 -2.4224
 8841SOL     OW38158   2.715   3.025   5.099 -0.3141 -0.4378  0.4892
 8841SOL    HW138159   2.782   2.992   5.159 -1.1223 -2.4056  0.2995
 8841SOL    HW238160   2.639   2.992   5.147  0.4514 -3.2921 -0.2894
 8842SOL     OW38161   0.989   1.598   1.637 -0.0621 -0.5257  0.3373
 8842SOL    HW138162   0.945   1.660   1.694 -0.4776 -0.9204  0.4412
 8842SOL    HW238163   1.049   1.654   1.588 -0.0966 -0.4017  0.4393
 8843SOL     OW38164   1.860   4.303   7.671 -0.9315  0.1464 -0.2644
 8843SOL    HW138165   1.934   4.252   7.639  1.3732  3.1128  0.3155
 8843SOL    HW238166   1.854   4.377   7.611 -1.5470 -0.9885 -1.5945
 8844SOL     OW38167   2.108   1.343  16.810 -0.3717  0.4062 -0.2326
 8844SOL    HW138168   2.133   1.418  16.758  1.4675  0.3510  0.5725
 8844SOL    HW238169   2.172   1.339  16.882 -1.0413 -3.4183  0.1917
 8845SOL     OW38170   4.296   3.310   2.362 -0.0068 -0.8084  0.0150
 8845SOL    HW138171   4.242   3.285   2.437 -1.3857 -0.2408 -0.7989
 8845SOL    HW238172   4.352   3.373   2.408 -0.1286  0.7938 -2.0439
 8846SOL     OW38173   0.189   4.244   4.196  0.5043  0.5636 -0.1541
 8846SOL    HW138174   0.218   4.318   4.143 -0.0156  1.2272  0.4747
 8846SOL    HW238175   0.148   4.299   4.263  0.5903 -0.4815  0.7591
 8847SOL     OW38176   4.254   0.182  15.744  0.7474 -0.3746  0.9409
 8847SOL    HW138177   4.265   0.093  15.712  1.0787 -0.1745  0.5168
 8847SOL    HW238178   4.158   0.191  15.752  0.8960 -0.5124  3.0872
 8848SOL     OW38179   1.408   0.223  14.694 -0.1565  0.6042 -0.1989
 8848SOL    HW138180   1.352   0.225  14.772  0.0846 -1.4181  0.0324
 8848SOL    HW238181   1.457   0.304  14.710  0.8108  0.2650 -1.5167
 8849SOL     OW38182   4.614   0.015   4.532  0.6112 -0.1436 -0.4692
 8849SOL    HW138183   4.635   0.022   4.439  1.4069 -0.7195 -0.3420
 8849SOL    HW238184   4.535   0.067   4.540  1.4309  1.0846 -0.3571
 8850SOL     OW38185   4.101   3.874   5.891 -1.0034  0.0211  0.2752
 8850SOL    HW138186   4.098   3.844   5.981 -2.1162  0.6407  0.4478
 8850SOL    HW238187   4.168   3.814   5.858 -2.6263 -0.4398 -2.2293
 8851SOL     OW38188   4.458   2.212  10.381  0.6353 -0.4006  0.4489
 8851SOL    HW138189   4.419   2.285  10.431  0.3511 -1.1405  1.2994
 8851SOL    HW238190   4.550   2.234  10.392  0.0796  2.2083 -0.0297
 8852SOL     OW38191   2.543   2.988  10.539 -0.0549  0.4085  0.6237
 8852SOL    HW138192   2.565   2.937  10.461 -0.9837  2.2970 -0.8905
 8852SOL    HW238193   2.634   2.993  10.567 -0.1509  0.5846  0.9063
 8853SOL     OW38194   3.555   4.174   5.690 -0.1727  0.2358  0.7619
 8853SOL    HW138195   3.620   4.242   5.673 -1.6205  1.3604 -0.3019
 8853SOL    HW238196   3.516   4.174   5.603 -0.8842 -0.0257  1.0798
 8854SOL     OW38197   3.441   0.018  17.122  0.3322  0.3635 -0.0045
 8854SOL    HW138198   3.416   0.039  17.212 -1.1142 -0.5143 -0.1931
 8854SOL    HW238199   3.459   4.667  17.129 -2.6214 -0.1883  0.1944
 8855SOL     OW38200   1.556   0.920   5.988  0.0895  0.1078  0.4943
 8855SOL    HW138201   1.479   0.904   5.935 -0.0384  1.6654  0.1988
 8855SOL    HW238202   1.535   0.999   6.039  0.8460  0.4368  0.2984
 8856SOL     OW38203   4.268   3.851  11.741 -0.2094 -0.3201  0.6874
 8856SOL    HW138204   4.193   3.883  11.691 -0.2274 -2.2406 -0.5247
 8856SOL    HW238205   4.229   3.837  11.827 -0.2316  0.2798  0.7739
 8857SOL     OW38206   1.521   3.473   9.355  0.0586 -0.3778  0.2584
 8857SOL    HW138207   1.583   3.544   9.341  0.3450 -0.2552  2.0812
 8857SOL    HW238208   1.456   3.516   9.412  1.6637  2.1055  0.2218
 8858SOL     OW38209   2.432   1.001  13.493  0.1944 -0.3738 -0.3646
 8858SOL    HW138210   2.454   1.048  13.412 -0.2854 -2.3476 -1.6346
 8858SOL    HW238211   2.338   1.014  13.479 -0.0760 -1.1895  0.6838
 8859SOL     OW38212   1.657   3.177   6.635  0.8716  0.5270  0.5782
 8859SOL    HW138213   1.749   3.203   6.641  1.7476 -2.4807  0.4513
 8859SOL    HW238214   1.654   3.082   6.623  1.4805  0.6411 -0.5601
 8860SOL     OW38215   3.261   2.195  15.810  0.0521  0.4686 -0.6327
 8860SOL    HW138216   3.220   2.281  15.802  0.3417  0.4810 -2.0688
 8860SOL    HW238217   3.354   2.218  15.812  0.2016 -0.3346  1.1286
 8861SOL     OW38218   3.872   0.755  11.730  0.6263 -0.1747  0.7067
 8861SOL    HW138219   3.828   0.685  11.681  1.5888 -1.0926  1.1661
 8861SOL    HW238220   3.803   0.803  11.775 -0.5377 -0.0867 -1.1726
 8862SOL     OW38221   2.148   0.667   2.154  0.3362  0.3422  0.0005
 8862SOL    HW138222   2.119   0.758   2.160 -2.1395 -0.3935 -0.8438
 8862SOL    HW238223   2.062   0.626   2.146  0.0518  1.3923 -2.0926
 8863SOL     OW38224   4.269   1.761  10.578  0.4130  0.2805 -0.8043
 8863SOL    HW138225   4.204   1.695  10.599  0.3484  0.7752  0.5455
 8863SOL    HW238226   4.345   1.704  10.593 -2.3423 -2.8995  0.8814
 8864SOL     OW38227   3.136   3.210  15.853  0.2532 -0.0903 -0.2119
 8864SOL    HW138228   3.108   3.155  15.925  1.2660  0.1709  0.3830
 8864SOL    HW238229   3.096   3.158  15.783 -0.3900 -0.5698  0.5257
 8865SOL     OW38230   3.532   0.009   7.976  0.0499 -0.5276  0.2077
 8865SOL    HW138231   3.534   0.100   8.005 -0.8452 -0.4408  0.0007
 8865SOL    HW238232   3.600   0.002   7.909  0.2044 -1.4839  0.4615
 8866SOL     OW38233   0.145   3.431  14.337 -0.0320 -0.0079  0.1811
 8866SOL    HW138234   0.196   3.379  14.398  0.0083 -1.3454 -0.9849
 8866SOL    HW238235   0.160   3.523  14.359 -0.2758 -0.3058  1.5946
 8867SOL     OW38236   1.678   0.296  14.542 -0.2981  0.3711  0.4928
 8867SOL    HW138237   1.772   0.300  14.556 -0.4360  1.6359  1.0727
 8867SOL    HW238238   1.649   0.381  14.575 -0.2856  1.3983 -2.2001
 8868SOL     OW38239   2.109   3.296   1.129  0.6197  0.3534  0.2554
 8868SOL    HW138240   2.128   3.213   1.087 -1.9676  0.0297 -0.2841
 8868SOL    HW238241   2.026   3.267   1.167  0.0778 -0.9936 -1.9842
 8869SOL     OW38242   2.874   4.517   3.663  0.3724  0.2835  0.1362
 8869SOL    HW138243   2.810   4.490   3.728  0.8161 -0.4020  0.2901
 8869SOL    HW238244   2.959   4.507   3.707 -0.9294 -1.2017  2.2706
 8870SOL     OW38245   0.677   3.328  12.782 -0.2732 -0.0989  0.3663
 8870SOL    HW138246   0.671   3.418  12.751 -0.3212  0.2985  1.5490
 8870SOL    HW238247   0.771   3.320  12.763 -0.7903 -1.6075 -1.6053
 8871SOL     OW38248   3.341   2.700   6.197 -0.5676 -0.5088 -0.0734
 8871SOL    HW138249   3.399   2.767   6.233 -1.5443  0.0382  0.4834
 8871SOL    HW238250   3.328   2.732   6.107 -0.9959 -3.8540 -1.1989
 8872SOL     OW38251   1.051   4.496  17.467 -0.6230  0.2348 -0.6054
 8872SOL    HW138252   0.997   4.539  17.401  0.9598  1.6606 -0.9566
 8872SOL    HW238253   1.041   4.561  17.536  0.4652 -1.1676  0.8814
 8873SOL     OW38254   1.869   3.123   2.907  0.7483  0.0247 -0.2706
 8873SOL    HW138255   1.780   3.125   2.874 -0.5716 -3.2300  3.1504
 8873SOL    HW238256   1.915   3.175   2.841 -0.5938 -1.1220 -2.1040
 8874SOL     OW38257   2.729   3.765   2.550  0.6141 -0.2444  0.0613
 8874SOL    HW138258   2.640   3.733   2.566  0.4077  1.0125  1.4241
 8874SOL    HW238259   2.737   3.838   2.612 -0.5519 -0.4530  0.4726
 8875SOL     OW38260   0.302   0.807   2.931  0.2912  0.1075  0.6419
 8875SOL    HW138261   0.354   0.745   2.879 -1.3662 -1.0163  0.3443
 8875SOL    HW238262   0.293   0.759   3.013 -1.7499 -1.3062 -0.4026
 8876SOL     OW38263   1.870   4.181   8.329 -0.1697 -0.0840  0.0344
 8876SOL    HW138264   1.892   4.158   8.239  1.5408  3.1368 -0.3635
 8876SOL    HW238265   1.940   4.135   8.375 -0.2917 -0.6573 -0.3509
 8877SOL     OW38266   1.633   1.787   8.589  0.4593  0.2493 -0.1228
 8877SOL    HW138267   1.616   1.867   8.538 -3.4119 -2.4599 -3.0677
 8877SOL    HW238268   1.609   1.716   8.529 -0.2464  2.0646 -2.0083
 8878SOL     OW38269   0.809   4.713   5.285  0.2907 -0.4094 -0.3747
 8878SOL    HW138270   0.736   4.740   5.229 -1.5670 -2.1413  1.1799
 8878SOL    HW238271   0.840   4.649   5.221  1.3890  1.4933 -1.7640
 8879SOL     OW38272   0.159   3.388   9.379  0.3232 -0.0775 -0.1253
 8879SOL    HW138273   0.065   3.373   9.386  0.1365  1.4292  0.5618
 8879SOL    HW238274   0.177   3.439   9.458 -0.7349 -1.8035  1.2165
 8880SOL     OW38275   0.273   4.046   4.001  0.0277  0.7202  0.3868
 8880SOL    HW138276   0.321   4.090   3.931  0.0842 -1.3130 -0.8666
 8880SOL    HW238277   0.236   4.123   4.042  1.4536  2.3086 -1.2978
 8881SOL     OW38278   0.749   3.500  14.437  0.7914  0.3120 -0.0949
 8881SOL    HW138279   0.807   3.425  14.424 -0.4365 -0.4782 -0.9568
 8881SOL    HW238280   0.705   3.475  14.518 -0.7293 -1.4017 -1.4509
 8882SOL     OW38281   0.545   2.359   4.942  0.3214  0.0368 -0.4750
 8882SOL    HW138282   0.618   2.379   5.000  0.4319 -0.4285 -0.4558
 8882SOL    HW238283   0.502   2.281   4.977 -1.2258  1.3252  0.4808
 8883SOL     OW38284   2.729   3.810   7.300 -0.0687  0.2519 -0.3891
 8883SOL    HW138285   2.643   3.785   7.333  0.0704 -0.6923 -0.7616
 8883SOL    HW238286   2.717   3.847   7.213 -0.7392  0.1494 -0.3384
 8884SOL     OW38287   3.230   2.519   9.706  0.1057  0.2664  0.1885
 8884SOL    HW138288   3.288   2.591   9.682  1.1729  0.0605  2.1729
 8884SOL    HW238289   3.256   2.512   9.798  4.3574 -1.7263 -1.1811
 8885SOL     OW38290   4.720   2.382   8.559 -0.0149  0.9099  0.0266
 8885SOL    HW138291   4.737   2.314   8.493 -1.3935  0.4975  0.0985
 8885SOL    HW238292   0.035   2.449   8.522 -0.2697 -0.4734 -2.8823
 8886SOL     OW38293   2.682   0.657   7.135  0.5465  0.3510  0.2747
 8886SOL    HW138294   2.753   0.674   7.197  0.1522  2.9177  0.0187
 8886SOL    HW238295   2.731   0.641   7.054  0.8820 -0.8568  0.7182
 8887SOL     OW38296   1.130   1.729   4.302 -0.4718  0.2661  0.1661
 8887SOL    HW138297   1.090   1.665   4.244 -0.7525 -0.4457  1.1552
 8887SOL    HW238298   1.086   1.702   4.382 -0.9081  3.0151  0.8585
 8888SOL     OW38299   4.381   1.830   8.370 -0.4972  0.1609  0.2424
 8888SOL    HW138300   4.359   1.823   8.463 -1.0819  0.3843  0.1221
 8888SOL    HW238301   4.441   1.757   8.354 -2.5158 -0.8559 -2.6857
 8889SOL     OW38302   0.129   4.265  10.779 -0.3139  0.3466 -0.7088
 8889SOL    HW138303   0.114   4.217  10.697 -0.0729 -2.1665  0.7286
 8889SOL    HW238304   0.223   4.270  10.767 -0.2195  1.3281  0.5015
 8890SOL     OW38305   3.950   2.458   2.324 -0.5080 -0.0079  0.7655
 8890SOL    HW138306   3.883   2.391   2.310 -1.3167  0.8876  0.3628
 8890SOL    HW238307   3.971   2.485   2.235  1.0984  0.1359  1.1957
 8891SOL     OW38308   1.749   4.521   0.773 -0.1287 -0.1730 -0.5749
 8891SOL    HW138309   1.797   4.450   0.815  0.3211 -0.2916 -1.2924
 8891SOL    HW238310   1.782   4.528   0.683  1.9904 -2.6951  0.0040
 8892SOL     OW38311   0.249   2.700   5.892  0.0242 -0.3420 -0.4242
 8892SOL    HW138312   0.279   2.618   5.853  3.2449  0.1685  0.8943
 8892SOL    HW238313   0.183   2.737   5.833 -0.0855 -2.0893 -1.3771
 8893SOL     OW38314   3.188   4.632   8.860  0.1175 -0.0265 -0.1324
 8893SOL    HW138315   3.201   4.573   8.785  0.2622  0.9025 -0.8376
 8893SOL    HW238316   3.094   4.642   8.870 -0.3887 -3.6229 -1.3980
 8894SOL     OW38317   1.190   2.661   8.123 -0.0248 -0.1910 -0.9119
 8894SOL    HW138318   1.177   2.689   8.032 -0.5934 -0.3002 -0.8623
 8894SOL    HW238319   1.108   2.667   8.172 -0.8535  1.1735 -2.4867
 8895SOL     OW38320   0.595   4.462   1.568  0.6018  0.4718 -0.2359
 8895SOL    HW138321   0.511   4.415   1.565  1.2504 -0.7049  0.1181
 8895SOL    HW238322   0.563   4.547   1.539  0.1366  0.6616  0.8015
 8896SOL     OW38323   3.371   4.684   5.079 -0.0410  0.0928  0.0382
 8896SOL    HW138324   3.406   0.030   5.077 -2.2784  1.0151  1.9732
 8896SOL    HW238325   3.443   4.634   5.041  0.6478  0.3447  1.0082
 8897SOL     OW38326   0.836   2.045   1.654  0.1957  0.5369  0.0080
 8897SOL    HW138327   0.861   2.120   1.707 -1.0251  0.3650  0.8397
 8897SOL    HW238328   0.899   2.055   1.583 -1.6106 -0.5759 -1.7774
 8898SOL     OW38329   1.087   4.233  17.523  0.1760 -0.2690 -0.5175
 8898SOL    HW138330   1.100   4.321  17.489 -1.7927  1.1339  2.3827
 8898SOL    HW238331   1.156   4.184  17.479  0.6814  0.6337 -0.7329
 8899SOL     OW38332   2.772   2.704   8.455 -0.1647 -0.2708 -0.1549
 8899SOL    HW138333   2.721   2.639   8.502 -2.0123  1.3143  0.0450
 8899SOL    HW238334   2.750   2.685   8.364  0.8131  0.7303 -0.6087
 8900SOL     OW38335   2.448   1.982  12.312 -0.1359 -0.2002 -0.4720
 8900SOL    HW138336   2.411   2.070  12.313 -0.2119 -0.2344  0.1450
 8900SOL    HW238337   2.507   1.989  12.387  0.4436  0.8817 -1.0247
 8901SOL     OW38338   3.499   2.956  13.986 -0.5671 -0.1372  0.8879
 8901SOL    HW138339   3.510   2.862  13.974  0.2231  0.0275  0.3034
 8901SOL    HW238340   3.589   2.979  14.009 -0.9017  1.8473  0.1511
 8902SOL     OW38341   3.244   1.363   3.942 -0.4244  0.6175  0.2984
 8902SOL    HW138342   3.174   1.299   3.933 -0.2820  0.3123  1.4182
 8902SOL    HW238343   3.275   1.358   4.032 -2.1060 -1.5118  0.7476
 8903SOL     OW38344   4.522   2.278  14.479 -0.6071 -0.4670  0.0728
 8903SOL    HW138345   4.537   2.190  14.445  0.6983 -0.4215  0.5573
 8903SOL    HW238346   4.492   2.259  14.568 -1.1541  1.8131  0.3763
 8904SOL     OW38347   1.924   3.762   5.165 -0.2592 -0.3732 -0.0668
 8904SOL    HW138348   1.963   3.793   5.083  2.4026  0.8595  1.6582
 8904SOL    HW238349   1.999   3.748   5.223 -0.3288  0.9362  0.3328
 8905SOL     OW38350   0.977   4.296  13.286  0.5673 -0.2236  0.3337
 8905SOL    HW138351   1.038   4.273  13.356 -0.5085 -1.1883  0.9692
 8905SOL    HW238352   1.023   4.362  13.235  0.8344 -1.5066 -1.0843
 8906SOL     OW38353   4.728   4.553  14.355  0.0379 -0.4752 -0.2986
 8906SOL    HW138354   4.714   4.574  14.263  0.4632  1.6463  0.1339
 8906SOL    HW238355   4.740   4.459  14.337 -2.3447 -0.8451 -0.0651
 8907SOL     OW38356   3.442   4.151   4.268 -0.2683  0.5282 -0.4018
 8907SOL    HW138357   3.365   4.147   4.211 -0.8510  1.5108  0.2951
 8907SOL    HW238358   3.465   4.244   4.258 -0.4764  0.4731 -1.3133
 8908SOL     OW38359   2.910   1.530  16.067 -0.2004 -0.0521  0.2345
 8908SOL    HW138360   2.922   1.614  16.023  1.5383  0.0553  0.9142
 8908SOL    HW238361   2.989   1.535  16.121 -0.2709 -0.2050  0.3521
 8909SOL     OW38362   4.509   2.887   9.617 -0.3135  0.2820  0.2578
 8909SOL    HW138363   4.474   2.882   9.529  2.0197  0.3021 -0.6803
 8909SOL    HW238364   4.544   2.975   9.610 -0.6063  0.4488  0.8898
 8910SOL     OW38365   3.480   0.866   1.804 -0.3348 -0.1331  0.4950
 8910SOL    HW138366   3.471   0.951   1.762  0.4400  0.5184  1.6543
 8910SOL    HW238367   3.533   0.898   1.877  0.4130  0.7771 -0.4475
 8911SOL     OW38368   2.191   4.021  12.725  0.0877 -0.0213  0.0800
 8911SOL    HW138369   2.258   4.082  12.758  0.2013  1.2681 -2.5093
 8911SOL    HW238370   2.149   4.072  12.655 -0.4238 -0.2558  0.2225
 8912SOL     OW38371   3.821   3.650   3.858  0.0220 -1.0571  0.2111
 8912SOL    HW138372   3.854   3.561   3.859  0.1455 -1.0019  1.1009
 8912SOL    HW238373   3.743   3.647   3.802  0.4147 -0.7104 -0.3649
 8913SOL     OW38374   1.198   1.595   8.829  1.0894 -0.0464  0.6047
 8913SOL    HW138375   1.121   1.616   8.881  0.7498 -0.5770  0.3132
 8913SOL    HW238376   1.191   1.655   8.754 -0.7181  0.1555  0.9298
 8914SOL     OW38377   4.626   3.637   9.330 -0.2833  0.1112  0.1305
 8914SOL    HW138378   4.538   3.652   9.366 -0.2879  2.1868 -0.7226
 8914SOL    HW238379   4.683   3.678   9.395  2.3951 -2.3311 -0.7088
 8915SOL     OW38380   4.705   3.299   2.525  0.2629 -0.3798 -0.1069
 8915SOL    HW138381   0.027   3.360   2.562 -1.1915  1.1666 -0.1622
 8915SOL    HW238382   4.740   3.283   2.437  1.3888 -0.7703  0.4116
 8916SOL     OW38383   3.992   4.488   4.101  0.1454 -0.0063 -0.1390
 8916SOL    HW138384   3.999   4.481   4.196 -1.9739  0.5824  0.0646
 8916SOL    HW238385   4.034   4.573   4.091  0.9111 -0.0662  2.8143
 8917SOL     OW38386   2.615   2.469   5.781 -0.4825 -0.2644 -0.3741
 8917SOL    HW138387   2.552   2.452   5.851  0.8764  1.2454  1.1926
 8917SOL    HW238388   2.623   2.564   5.790 -0.6932 -0.5140  2.3637
 8918SOL     OW38389   1.471   4.741   1.350  0.2597 -0.2961  0.5417
 8918SOL    HW138390   1.410   4.670   1.371 -1.8759  0.4860 -3.2240
 8918SOL    HW238391   1.557   4.705   1.373 -0.0047 -0.6931  0.9222
 8919SOL     OW38392   4.490   4.530  16.848 -0.4028 -0.2096 -0.0421
 8919SOL    HW138393   4.458   4.487  16.927  0.0066  1.7246  1.1761
 8919SOL    HW238394   4.467   4.479  16.770  0.0127 -0.8583  0.2537
 8920SOL     OW38395   3.349   3.644  11.253  0.4672  0.1837  0.4729
 8920SOL    HW138396   3.338   3.643  11.158  1.8055 -1.6365  0.3305
 8920SOL    HW238397   3.344   3.551  11.278 -1.6214  0.2880  0.4062
 8921SOL     OW38398   2.379   3.000   1.980  0.7673  0.3467  0.3437
 8921SOL    HW138399   2.460   3.044   1.952  0.1377  1.1736 -0.1743
 8921SOL    HW238400   2.325   3.008   1.901  0.1409 -1.8117  0.5571
 8922SOL     OW38401   2.777   2.545   5.429 -0.4806  0.1369 -0.5543
 8922SOL    HW138402   2.766   2.458   5.466 -1.5065  1.2752  1.8394
 8922SOL    HW238403   2.798   2.529   5.337  0.2533  0.0573 -0.3723
 8923SOL     OW38404   0.284   4.691  16.621  0.1812  0.1057 -0.1140
 8923SOL    HW138405   0.301   4.650  16.706  3.0831  0.8236 -0.3534
 8923SOL    HW238406   0.199   4.730  16.641 -0.5328 -0.1945 -2.5865
 8924SOL     OW38407   2.734   4.432   8.287  0.3702  0.6577 -0.0501
 8924SOL    HW138408   2.703   4.395   8.205 -1.5643  1.8808  0.0996
 8924SOL    HW238409   2.790   4.505   8.259 -1.5617  1.6909 -1.2444
 8925SOL     OW38410   2.282   1.772  12.276  0.7523  0.2367  0.4221
 8925SOL    HW138411   2.293   1.760  12.181  2.6148  0.0781  0.6547
 8925SOL    HW238412   2.370   1.805  12.297  0.3502  0.5011  1.6701
 8926SOL     OW38413   1.901   2.467   7.955  0.2102  0.4553 -0.2840
 8926SOL    HW138414   1.941   2.503   7.876 -0.5217  0.3233 -0.7172
 8926SOL    HW238415   1.826   2.427   7.911 -1.4712  3.5946 -0.2649
 8927SOL     OW38416   3.994   1.785   6.354 -0.1163 -0.0867 -0.1291
 8927SOL    HW138417   4.035   1.839   6.287  2.1309 -0.5086  0.9180
 8927SOL    HW238418   3.924   1.734   6.313  0.6413 -0.4880 -0.9227
 8928SOL     OW38419   3.063   3.597   3.429  0.2028  0.1961  0.5187
 8928SOL    HW138420   3.102   3.526   3.480  1.2504 -0.3595 -1.0248
 8928SOL    HW238421   3.070   3.668   3.492 -2.3939  1.0894 -0.2025
 8929SOL     OW38422   3.235   4.057  11.504  0.4527  0.4560  0.3273
 8929SOL    HW138423   3.306   4.119  11.523  0.0033  1.3463 -0.9446
 8929SOL    HW238424   3.283   3.985  11.461  2.3703 -0.7517  4.4344
 8930SOL     OW38425   4.671   4.566  11.102 -0.3383 -0.3170 -0.2131
 8930SOL    HW138426   4.612   4.615  11.044 -1.3024  3.2546  3.7557
 8930SOL    HW238427   4.689   4.485  11.056  1.6470  0.4728 -0.8233
 8931SOL     OW38428   3.188   2.864   3.528  0.3305  0.2230 -0.4867
 8931SOL    HW138429   3.231   2.932   3.580  0.8131 -1.1247  0.8907
 8931SOL    HW238430   3.178   2.908   3.444  0.2401 -0.7798 -1.0076
 8932SOL     OW38431   3.393   0.089   6.959 -0.5394 -0.0138  0.0334
 8932SOL    HW138432   3.419   0.180   6.951 -1.0098 -0.0212 -1.6209
 8932SOL    HW238433   3.475   0.041   6.969  1.0153  2.3192 -1.6186
 8933SOL     OW38434   1.541   4.247  17.488  0.7013  0.5975 -0.1055
 8933SOL    HW138435   1.537   4.309  17.415 -0.1709  0.3046 -0.3104
 8933SOL    HW238436   1.526   4.309  17.559 -0.8218 -1.1868  1.1337
 8934SOL     OW38437   4.669   4.210  15.149 -0.4796  0.2305  0.0634
 8934SOL    HW138438   4.732   4.172  15.089 -0.3539 -0.2793  0.5231
 8934SOL    HW238439   4.607   4.252  15.090  0.6289 -2.6811 -3.1286
 8935SOL     OW38440   1.826   2.677   3.482  0.6152 -0.6910  0.0976
 8935SOL    HW138441   1.900   2.666   3.541  0.2445 -1.0378  0.5025
 8935SOL    HW238442   1.764   2.720   3.543  1.2203  0.1286  0.1376
 8936SOL     OW38443   0.389   2.505   1.400 -0.1009  0.6701 -0.2344
 8936SOL    HW138444   0.450   2.568   1.439 -0.5047  0.4088  0.8017
 8936SOL    HW238445   0.445   2.478   1.327  1.8775  0.8466  1.2035
 8937SOL     OW38446   3.480   3.720   2.838 -0.0331  0.1617  0.1912
 8937SOL    HW138447   3.429   3.677   2.769 -0.0901  1.2771 -0.4629
 8937SOL    HW238448   3.474   3.812   2.812  0.3904  0.5540  1.4900
 8938SOL     OW38449   4.153   4.687   3.284 -0.1091  0.1547 -0.5227
 8938SOL    HW138450   4.097   0.021   3.286  0.2123  0.4122 -1.2207
 8938SOL    HW238451   4.207   4.691   3.205 -1.2283 -0.9222 -1.3439
 8939SOL     OW38452   0.941   3.252  12.978 -0.1252  0.0826 -0.4484
 8939SOL    HW138453   0.929   3.246  12.883 -0.8537  0.9357 -0.4026
 8939SOL    HW238454   0.878   3.184  13.000  1.3991 -1.3372 -0.4573
 8940SOL     OW38455   0.183   1.220   2.674 -0.1304  0.2385 -0.1515
 8940SOL    HW138456   0.122   1.147   2.663 -0.4511  0.5265 -0.3090
 8940SOL    HW238457   0.245   1.181   2.735 -1.9894  0.7839  2.1249
 8941SOL     OW38458   2.403   0.706  17.244 -0.3254  0.1309  0.4354
 8941SOL    HW138459   2.345   0.779  17.225  0.4605  0.5128 -0.4887
 8941SOL    HW238460   2.354   0.627  17.222  0.4202  0.2172 -1.5443
 8942SOL     OW38461   0.256   3.961   2.071  0.3488  0.1847  0.5119
 8942SOL    HW138462   0.324   3.959   2.138  2.0895  2.3722 -1.1691
 8942SOL    HW238463   0.306   4.011   2.006  0.4531 -0.7585 -0.1378
 8943SOL     OW38464   4.358   1.374  10.406  0.7937  0.4369  0.1081
 8943SOL    HW138465   4.377   1.283  10.384  1.7628  0.9485 -1.1169
 8943SOL    HW238466   4.272   1.376  10.363  0.5377 -3.1537  0.4262
 8944SOL     OW38467   0.801   1.158   3.406 -0.3533  0.1653 -0.4345
 8944SOL    HW138468   0.722   1.180   3.356 -0.9637 -2.3935 -0.5805
 8944SOL    HW238469   0.833   1.102   3.335  0.6623  1.6583 -1.1640
 8945SOL     OW38470   1.259   3.029  17.447  0.0736  0.3727 -0.0421
 8945SOL    HW138471   1.277   3.118  17.417 -0.5919  1.2089  2.0439
 8945SOL    HW238472   1.338   2.975  17.438 -0.7092 -0.7267 -0.2598
 8946SOL     OW38473   2.587   2.249   6.637 -0.3053  0.3380  0.7632
 8946SOL    HW138474   2.665   2.204   6.605 -0.5783  0.9852 -0.8232
 8946SOL    HW238475   2.521   2.195   6.594 -0.3208  2.1852 -1.5614
 8947SOL     OW38476   1.266   2.940   5.723  0.3404 -0.0652 -0.0366
 8947SOL    HW138477   1.195   3.004   5.728  0.0199 -0.5311  1.5877
 8947SOL    HW238478   1.221   2.885   5.658 -2.0144  0.6769  0.9450
 8948SOL     OW38479   2.283   3.559   5.026 -0.3519 -0.2333 -0.7119
 8948SOL    HW138480   2.371   3.524   5.019  0.6849  2.0595  0.9008
 8948SOL    HW238481   2.253   3.550   4.936  0.3038 -0.3760 -0.9097
 8949SOL     OW38482   1.841   2.216   6.288 -0.9356 -0.0411  0.0640
 8949SOL    HW138483   1.836   2.240   6.380  1.4122  0.0569  0.1627
 8949SOL    HW238484   1.750   2.198   6.265 -0.4147  0.0269 -2.1198
 8950SOL     OW38485   0.273   2.170   8.222  0.5154  0.6480  0.2494
 8950SOL    HW138486   0.328   2.236   8.264 -0.6467 -0.5140  3.6378
 8950SOL    HW238487   0.267   2.201   8.132  0.7526  2.3644  0.8193
 8951SOL     OW38488   3.757   3.998   4.565 -0.4998  0.4072 -0.2777
 8951SOL    HW138489   3.728   3.911   4.538  1.1853 -0.5633  1.0388
 8951SOL    HW238490   3.833   4.016   4.509  1.3807  1.5739  2.6089
 8952SOL     OW38491   3.277   1.997  10.906 -0.3447  0.6524  0.0345
 8952SOL    HW138492   3.226   2.015  10.985 -0.0090 -2.8900  1.0454
 8952SOL    HW238493   3.270   1.902  10.897 -0.8780  0.8511 -1.8211
 8953SOL     OW38494   3.925   4.674   2.657  0.1455 -0.2671 -0.5199
 8953SOL    HW138495   3.904   0.025   2.656 -0.6839 -0.4380  0.9381
 8953SOL    HW238496   3.972   4.667   2.574  1.8405 -0.0978  0.4212
 8954SOL     OW38497   2.739   3.922   6.272  0.6299  1.1087  0.0506
 8954SOL    HW138498   2.685   3.998   6.250 -0.9964  0.2497  1.0609
 8954SOL    HW238499   2.696   3.883   6.348  2.8918 -2.4053 -0.4644
 8955SOL     OW38500   4.685   1.991  10.480 -0.2840 -0.1151  0.1314
 8955SOL    HW138501   4.677   2.021  10.570  0.4116  1.3719 -0.2989
 8955SOL    HW238502   4.606   2.026  10.438 -0.7261 -1.8936 -0.5508
 8956SOL     OW38503   2.244   1.542   6.111 -0.1226 -0.6727  0.2657
 8956SOL    HW138504   2.323   1.597   6.107 -1.3384  0.8858 -2.7106
 8956SOL    HW238505   2.181   1.597   6.156  3.6192  3.4104  0.4813
 8957SOL     OW38506   0.570   2.056   1.933  0.2891 -0.1122  0.0835
 8957SOL    HW138507   0.522   2.093   2.008  2.1258  0.5946  0.9060
 8957SOL    HW238508   0.537   2.110   1.861 -0.3002 -0.0555  0.3907
 8958SOL     OW38509   3.989   1.412   4.411 -0.1555 -0.8011  0.6995
 8958SOL    HW138510   4.059   1.475   4.429 -1.8782  1.2056  0.3771
 8958SOL    HW238511   3.946   1.438   4.330 -1.2200 -3.3144  0.4381
 8959SOL     OW38512   2.345   0.731   8.348  0.1266  0.8743  0.3086
 8959SOL    HW138513   2.257   0.701   8.325  0.0030 -0.0603  2.0030
 8959SOL    HW238514   2.342   0.727   8.444 -1.6260 -0.9906  0.1811
 8960SOL     OW38515   0.396   1.791   4.519  0.3153  0.2814  0.1262
 8960SOL    HW138516   0.327   1.775   4.454  0.6363  2.3024 -0.7204
 8960SOL    HW238517   0.386   1.719   4.581 -0.1745 -1.4915 -1.9833
 8961SOL     OW38518   1.183   3.326   6.147 -0.3209  0.6551 -0.1949
 8961SOL    HW138519   1.126   3.254   6.175 -2.8743  2.2601 -1.1949
 8961SOL    HW238520   1.222   3.290   6.068  2.6327  1.3423  0.9461
 8962SOL     OW38521   4.249   1.165  11.935  0.6428  0.2858 -0.2150
 8962SOL    HW138522   4.158   1.182  11.958  1.2913  2.1162  1.0308
 8962SOL    HW238523   4.295   1.166  12.019  1.6305  3.2752 -0.7757
 8963SOL     OW38524   2.935   1.053  15.463  0.3395 -0.2352 -0.1933
 8963SOL    HW138525   2.992   0.979  15.483  0.8591  0.2444  0.0831
 8963SOL    HW238526   2.966   1.129  15.512  0.0204 -0.5459  0.4992
 8964SOL     OW38527   2.568   0.572   8.038 -0.1547 -0.5497  0.3559
 8964SOL    HW138528   2.505   0.598   7.970  0.9135 -0.2465 -0.5230
 8964SOL    HW238529   2.528   0.486   8.049  0.7876 -1.3660 -2.5392
 8965SOL     OW38530   0.672   2.579   9.376  0.2776  0.0942 -0.2436
 8965SOL    HW138531   0.612   2.612   9.442  0.1500  1.2752 -0.9528
 8965SOL    HW238532   0.690   2.654   9.319 -2.0379  1.3190  0.6232
 8966SOL     OW38533   3.760   1.839  15.265 -0.1612 -0.2641 -0.7814
 8966SOL    HW138534   3.695   1.781  15.304 -0.4947  2.3201  2.5521
 8966SOL    HW238535   3.821   1.775  15.230 -0.9291 -0.6563 -1.3966
 8967SOL     OW38536   1.357   0.543   4.519 -0.2132  0.0750 -0.1744
 8967SOL    HW138537   1.327   0.632   4.504 -0.3943  0.6608  3.6651
 8967SOL    HW238538   1.284   0.505   4.569 -0.0576 -0.0198 -0.0198
 8968SOL     OW38539   3.003   3.845  14.084 -0.3985 -0.2859  0.2782
 8968SOL    HW138540   2.917   3.845  14.127 -0.0581 -1.6565  0.9316
 8968SOL    HW238541   3.017   3.939  14.073 -0.1133 -0.4186 -0.4810
 8969SOL     OW38542   1.451   2.833  16.204  0.0001  0.5953  0.0315
 8969SOL    HW138543   1.391   2.759  16.218  0.0700  0.8067  1.4134
 8969SOL    HW238544   1.484   2.821  16.115  0.2071  0.3527  0.1399
 8970SOL     OW38545   2.380   2.729   5.654 -0.1714  0.1747 -0.2743
 8970SOL    HW138546   2.433   2.742   5.732  0.7078 -2.6401 -0.4075
 8970SOL    HW238547   2.292   2.710   5.687  0.2371  1.6579  1.6613
 8971SOL     OW38548   3.003   1.783  14.511 -0.2613 -0.3719  0.0708
 8971SOL    HW138549   3.058   1.708  14.535 -0.7971 -1.7638 -3.0595
 8971SOL    HW238550   2.949   1.796  14.589  1.4298 -1.0246  1.3769
 8972SOL     OW38551   1.277   2.738   5.089  0.1781  0.2842  0.4060
 8972SOL    HW138552   1.313   2.750   5.177  1.1573 -2.5694  0.3925
 8972SOL    HW238553   1.353   2.702   5.042 -0.0396 -1.5101  1.4302
 8973SOL     OW38554   3.566   3.531   2.457  0.5244  0.2187 -0.6361
 8973SOL    HW138555   3.500   3.541   2.525  0.5329 -1.2808 -0.4133
 8973SOL    HW238556   3.628   3.604   2.461  0.2913  0.2416  2.2815
 8974SOL     OW38557   4.223   4.131  13.931  0.2177  0.2711  0.1792
 8974SOL    HW138558   4.225   4.188  14.008  0.0844  0.2020  0.2338
 8974SOL    HW238559   4.317   4.117  13.922  0.5342  2.9952 -0.9539
 8975SOL     OW38560   2.863   1.932  11.784  0.4552  0.6786 -0.3383
 8975SOL    HW138561   2.865   2.012  11.837 -1.9293  0.9943 -0.6892
 8975SOL    HW238562   2.792   1.948  11.722  0.1383  1.1717  0.1442
 8976SOL     OW38563   0.004   2.942  11.915  0.4221 -0.2151 -0.2347
 8976SOL    HW138564   0.012   2.915  12.007  1.7870  0.4969 -0.1363
 8976SOL    HW238565   4.734   2.860  11.867 -1.7787  0.3506 -0.5985
 8977SOL     OW38566   1.115   0.724   3.114  0.0169  0.2636  0.1344
 8977SOL    HW138567   1.086   0.672   3.039 -0.1507  1.6847 -0.7981
 8977SOL    HW238568   1.181   0.665   3.149 -0.6439 -0.3215  0.4020
 8978SOL     OW38569   4.558   2.982   6.183  0.6360 -0.0044  0.3018
 8978SOL    HW138570   4.540   3.059   6.129  1.7953  1.2178  1.6633
 8978SOL    HW238571   4.652   2.979   6.166  0.7831  0.4942  1.0617
 8979SOL     OW38572   3.588   0.643   5.233  0.5086  0.0120  0.4750
 8979SOL    HW138573   3.532   0.716   5.260 -1.1723 -1.0730 -0.1472
 8979SOL    HW238574   3.576   0.579   5.304  1.1376 -1.6338 -0.9102
 8980SOL     OW38575   2.998   0.490  12.099 -0.0526  1.1365 -0.4668
 8980SOL    HW138576   2.993   0.583  12.119 -0.3243  1.2876 -1.2476
 8980SOL    HW238577   3.091   0.483  12.079 -0.0650  0.6029 -0.3499
 8981SOL     OW38578   3.427   4.322  13.696  0.4162  0.2772  0.0105
 8981SOL    HW138579   3.510   4.336  13.650  0.1770 -0.8016 -0.7423
 8981SOL    HW238580   3.383   4.406  13.686  0.3996  0.7165  3.8345
 8982SOL     OW38581   1.020   2.908   3.645 -0.0179 -0.2755 -0.9354
 8982SOL    HW138582   0.997   2.954   3.564  3.0091  2.3314 -0.2983
 8982SOL    HW238583   0.938   2.861   3.659 -0.8530  0.6077 -2.9365
 8983SOL     OW38584   4.482   2.004   0.835 -0.0615  0.1554 -0.1453
 8983SOL    HW138585   4.412   1.956   0.790  0.1542 -0.3790  0.0889
 8983SOL    HW238586   4.483   2.085   0.784  1.4196  1.8203  2.5731
 8984SOL     OW38587   0.720   1.628   5.117  0.2710 -0.4654 -0.9498
 8984SOL    HW138588   0.750   1.613   5.027  1.8178  1.9812 -0.8447
 8984SOL    HW238589   0.706   1.539   5.148  1.3403  0.0106  0.8808
 8985SOL     OW38590   4.283   0.106   5.432 -0.4354 -0.1934 -0.2507
 8985SOL    HW138591   4.327   0.031   5.469  1.3910  0.3699 -1.2901
 8985SOL    HW238592   4.211   0.064   5.384 -1.7843  0.4333  1.2205
 8986SOL     OW38593   2.318   0.378   8.629  0.6179 -0.6148 -0.0197
 8986SOL    HW138594   2.365   0.330   8.561  0.5016 -0.1521 -0.4230
 8986SOL    HW238595   2.390   0.395   8.690  0.4440  0.4743 -0.1214
 8987SOL     OW38596   4.723   2.237   8.347 -0.0119  0.8852  0.3745
 8987SOL    HW138597   4.644   2.184   8.335 -0.9520  2.1491  1.0496
 8987SOL    HW238598   0.042   2.171   8.380 -2.2678 -1.8132 -0.7536
 8988SOL     OW38599   1.934   2.146   5.329 -0.1554  0.1129  0.3797
 8988SOL    HW138600   1.933   2.234   5.290 -0.7064 -0.2216 -0.3557
 8988SOL    HW238601   1.898   2.087   5.263  0.3868  0.2121 -0.0089
 8989SOL     OW38602   3.574   1.130  11.840 -0.1310 -0.1793  0.2986
 8989SOL    HW138603   3.633   1.204  11.859 -1.1254  0.6255  0.2666
 8989SOL    HW238604   3.494   1.178  11.818 -0.0972 -0.0378  0.4782
 8990SOL     OW38605   4.559   0.952   2.208 -0.1000  0.1625  0.4710
 8990SOL    HW138606   4.467   0.977   2.195  0.0199 -0.0697 -0.8981
 8990SOL    HW238607   4.608   1.034   2.212 -1.3175  0.7930  2.4793
 8991SOL     OW38608   1.865   1.319   7.271 -0.1033 -0.7506 -0.3790
 8991SOL    HW138609   1.781   1.350   7.304  0.3366 -0.2575  0.2604
 8991SOL    HW238610   1.880   1.379   7.198 -1.2414  1.0270  0.8467
 8992SOL     OW38611   0.785   1.117   7.283  0.4195 -0.2470 -0.4884
 8992SOL    HW138612   0.747   1.148   7.201  1.1377  0.4039 -0.5830
 8992SOL    HW238613   0.792   1.022   7.275  0.5265 -0.3644  1.0819
 8993SOL     OW38614   3.428   0.039  16.686 -0.0580 -0.0097  0.1898
 8993SOL    HW138615   3.425   4.724  16.610  1.1857  0.7540 -0.4256
 8993SOL    HW238616   3.371   4.730  16.743  0.9968  0.0205  1.2863
 8994SOL     OW38617   2.857   2.422   2.813  0.4239  0.1038  1.0085
 8994SOL    HW138618   2.875   2.513   2.833  0.8500 -0.0291  1.2346
 8994SOL    HW238619   2.832   2.391   2.900  0.6965 -0.7490  0.7846
 8995SOL     OW38620   3.059   2.338   6.096  0.5197  0.4525  0.2980
 8995SOL    HW138621   3.018   2.388   6.025  0.1427 -1.6667 -0.9756
 8995SOL    HW238622   3.146   2.376   6.104  0.0737  1.8973 -1.7033
 8996SOL     OW38623   4.687   4.141   7.025 -0.4445 -0.0107 -0.1760
 8996SOL    HW138624   4.659   4.224   6.987  1.1638  0.2352 -0.8185
 8996SOL    HW238625   4.723   4.100   6.947 -1.0810 -0.1807 -0.3823
 8997SOL     OW38626   2.710   1.006   6.690 -0.0044 -0.4951  0.7390
 8997SOL    HW138627   2.782   1.053   6.648 -0.3879 -0.5950 -0.0308
 8997SOL    HW238628   2.638   1.067   6.677 -0.4393 -1.3557 -1.0033
 8998SOL     OW38629   3.597   2.217  13.826 -0.9190 -0.0012 -0.0781
 8998SOL    HW138630   3.618   2.135  13.783  2.0504  1.3927 -1.2743
 8998SOL    HW238631   3.631   2.210  13.915 -1.0295  1.7258  0.1170
 8999SOL     OW38632   4.129   2.312   5.630  0.2755 -0.2761  0.2849
 8999SOL    HW138633   4.125   2.248   5.559 -0.8920 -0.7159  0.7509
 8999SOL    HW238634   4.096   2.258   5.702 -1.6223  1.1278  0.4413
 9000SOL     OW38635   3.045   4.055   6.057 -0.3446 -0.2872  0.1885
 9000SOL    HW138636   3.082   3.985   6.002 -0.1507 -1.4671  1.8130
 9000SOL    HW238637   3.121   4.100   6.095 -0.8542 -0.5632  1.5435
 9001SOL     OW38638   1.858   1.184   2.775  0.4692 -0.3371  0.1333
 9001SOL    HW138639   1.933   1.236   2.747  1.2028 -0.8718  1.1026
 9001SOL    HW238640   1.874   1.099   2.735 -2.4455 -0.3975 -0.9218
 9002SOL     OW38641   1.563   0.405  16.934  0.2568 -0.4072 -0.1394
 9002SOL    HW138642   1.494   0.381  16.871  0.4078 -0.3859 -0.3134
 9002SOL    HW238643   1.634   0.343  16.915  0.2024 -0.6284  0.3767
 9003SOL     OW38644   1.039   0.077   6.956  0.3883 -0.3519 -0.0542
 9003SOL    HW138645   1.113   0.109   7.008 -1.6308  2.4419  1.1026
 9003SOL    HW238646   0.987   0.157   6.954  3.2280  1.4553 -1.0543
 9004SOL     OW38647   3.984   1.928   2.470 -0.1463 -0.3715 -0.0929
 9004SOL    HW138648   4.001   1.850   2.416 -1.5424 -0.8389  0.1302
 9004SOL    HW238649   4.014   1.906   2.558 -0.0105  1.2343  0.2593
 9005SOL     OW38650   0.646   1.636   2.217  0.4610  0.1192  0.0675
 9005SOL    HW138651   0.609   1.670   2.135 -2.1462 -1.7426  0.4459
 9005SOL    HW238652   0.673   1.551   2.180  1.4255  1.4500 -2.3111
 9006SOL     OW38653   0.151   0.493  12.403  0.0675  0.1459 -0.0998
 9006SOL    HW138654   0.106   0.421  12.358 -1.2463  0.3818  0.8506
 9006SOL    HW238655   0.241   0.460  12.398  0.7585  1.8959  0.6053
 9007SOL     OW38656   3.294   2.952   0.318  0.0771 -0.2360 -0.1157
 9007SOL    HW138657   3.279   3.044   0.339  0.3773  0.1424 -1.5448
 9007SOL    HW238658   3.268   2.945   0.226  1.1220  0.8216 -0.4912
 9008SOL     OW38659   0.178   2.845   7.279  0.6606  0.6857  0.4005
 9008SOL    HW138660   0.201   2.768   7.330 -1.2814  0.2382  0.6011
 9008SOL    HW238661   0.169   2.807   7.192 -3.1741  0.9932  0.6853
 9009SOL     OW38662   3.025   3.794  17.674  0.5860 -0.0905 -0.0113
 9009SOL    HW138663   2.980   3.849  17.738  0.7043  1.1778 -0.9964
 9009SOL    HW238664   2.984   3.708  17.681  3.0116 -1.4179 -2.1497
 9010SOL     OW38665   2.645   2.981   3.387  0.1022 -0.0677 -0.0200
 9010SOL    HW138666   2.561   2.973   3.431  0.3938  2.8013  1.0521
 9010SOL    HW238667   2.698   2.905   3.411  3.3124  2.1565  0.0386
 9011SOL     OW38668   0.862   3.117   3.245 -0.4006  0.2178 -0.6698
 9011SOL    HW138669   0.897   3.198   3.207 -0.4385 -0.0423 -1.2600
 9011SOL    HW238670   0.796   3.155   3.303 -1.5905  0.1232 -1.9352
 9012SOL     OW38671   0.645   4.722   6.466  0.1417  0.3906  0.1011
 9012SOL    HW138672   0.647   4.732   6.371 -0.5333  3.0444  0.3629
 9012SOL    HW238673   0.613   4.632   6.472 -1.0719  0.8127 -0.0438
 9013SOL     OW38674   1.332   1.125   2.237 -0.1493  0.2028 -0.8644
 9013SOL    HW138675   1.382   1.202   2.210 -0.2140  0.6197  0.2006
 9013SOL    HW238676   1.343   1.129   2.332 -0.7555  0.2948 -0.8002
 9014SOL     OW38677   3.876   2.148   8.153  0.2116 -0.2059  0.0038
 9014SOL    HW138678   3.944   2.122   8.215 -1.2605  0.1872  1.7675
 9014SOL    HW238679   3.839   2.226   8.193  0.1920 -0.7192  0.9904
 9015SOL     OW38680   3.791   2.058   7.444  0.0087  0.2332 -0.0070
 9015SOL    HW138681   3.791   2.087   7.353 -0.3986  2.0661  0.5756
 9015SOL    HW238682   3.844   2.126   7.485 -1.2427  1.9127 -1.1294
 9016SOL     OW38683   0.569   0.804   6.084  0.3764 -0.1052 -0.1388
 9016SOL    HW138684   0.604   0.887   6.116  2.5923 -1.2594  0.4135
 9016SOL    HW238685   0.584   0.750   6.162  1.2219  0.0370 -0.2037
 9017SOL     OW38686   4.481   3.929   5.964 -0.6389 -0.6870 -0.2072
 9017SOL    HW138687   4.487   3.906   5.871 -0.5370  0.0566 -0.3846
 9017SOL    HW238688   4.528   3.857   6.005 -1.8330 -0.8603  0.8578
 9018SOL     OW38689   1.740   3.944  13.176 -0.3546 -0.8335  0.1898
 9018SOL    HW138690   1.748   3.853  13.145 -0.3478 -0.3494 -1.2319
 9018SOL    HW238691   1.703   3.927  13.262 -0.6465 -0.0445  0.2185
 9019SOL     OW38692   1.931   2.125   4.967  0.3808  0.0606 -0.0860
 9019SOL    HW138693   1.933   2.211   5.009  1.7145 -0.2216  0.4190
 9019SOL    HW238694   1.839   2.125   4.941 -0.6752  0.1691  3.6134
 9020SOL     OW38695   1.385   3.080   9.759 -0.6966 -0.4394  0.0654
 9020SOL    HW138696   1.471   3.038   9.759 -0.2997  0.3878 -1.3173
 9020SOL    HW238697   1.346   3.059   9.844  1.7347 -3.5871  0.3890
 9021SOL     OW38698   0.878   1.571   7.824 -0.4554 -0.2309  0.0132
 9021SOL    HW138699   0.952   1.594   7.768 -0.8194  1.5816  0.2846
 9021SOL    HW238700   0.830   1.503   7.776  2.7629 -2.1638 -0.5108
 9022SOL     OW38701   3.407   3.506   1.891  0.0788 -0.2901  0.3506
 9022SOL    HW138702   3.499   3.478   1.890  0.3897  0.7812 -1.1572
 9022SOL    HW238703   3.378   3.428   1.937  0.5079 -0.4250  0.3983
 9023SOL     OW38704   4.285   2.954  13.518  0.0422 -0.0709  0.4994
 9023SOL    HW138705   4.367   2.970  13.565 -0.6402  2.0547  0.9483
 9023SOL    HW238706   4.258   3.046  13.513  0.9074  0.2521  1.7628
 9024SOL     OW38707   1.643   3.510   6.255 -0.1346  0.1501 -0.0549
 9024SOL    HW138708   1.682   3.502   6.342 -2.6135 -2.4365  0.8335
 9024SOL    HW238709   1.548   3.518   6.266  0.0550  1.5572  0.4740
 9025SOL     OW38710   4.548   1.682   5.196  0.6338 -0.0432 -0.1687
 9025SOL    HW138711   4.615   1.709   5.134  1.0502  1.2852  0.8707
 9025SOL    HW238712   4.594   1.643   5.270 -0.1648 -1.0006 -0.1814
 9026SOL     OW38713   0.219   3.128   0.961  0.6101  0.4770  0.3772
 9026SOL    HW138714   0.216   3.222   0.983  0.7631  0.0035  2.4205
 9026SOL    HW238715   0.169   3.092   1.034  1.4615  0.8242  1.1469
 9027SOL     OW38716   0.181   1.553  13.750  0.4768  0.4763  0.0943
 9027SOL    HW138717   0.178   1.458  13.736 -0.4967  0.4150  0.6694
 9027SOL    HW238718   0.212   1.595  13.670 -0.0236  1.0722  0.2142
 9028SOL     OW38719   3.256   4.517  13.612  0.0172  0.0215  0.5292
 9028SOL    HW138720   3.255   4.565  13.529 -0.4119 -1.9494 -0.6062
 9028SOL    HW238721   3.169   4.476  13.613  0.5853 -1.1194  1.7892
 9029SOL     OW38722   0.678   0.671  14.725 -0.6032 -0.3181 -0.2653
 9029SOL    HW138723   0.735   0.698  14.654  0.8847 -0.8029  0.7380
 9029SOL    HW238724   0.643   0.586  14.699  0.4218 -1.5414  2.3283
 9030SOL     OW38725   3.383   0.483   3.739  0.2014  0.0302 -0.0248
 9030SOL    HW138726   3.306   0.505   3.791 -0.7970 -2.5196 -0.4070
 9030SOL    HW238727   3.447   0.523   3.798 -1.8086  2.1442  0.6902
 9031SOL     OW38728   2.124   2.114   2.204  0.0539  0.4407 -0.2570
 9031SOL    HW138729   2.168   2.095   2.287 -0.0248  1.4452  0.0167
 9031SOL    HW238730   2.177   2.177   2.155  1.1998 -1.2458 -1.1707
 9032SOL     OW38731   1.313   1.792   3.395 -0.2300 -0.2487 -0.5897
 9032SOL    HW138732   1.331   1.872   3.346  3.2454 -1.1463 -0.7963
 9032SOL    HW238733   1.388   1.800   3.454  0.5147  0.5905 -1.6513
 9033SOL     OW38734   3.108   3.069   6.105 -1.0487 -0.4716 -0.0315
 9033SOL    HW138735   3.081   2.977   6.110 -1.1796 -0.4471 -0.2876
 9033SOL    HW238736   3.028   3.106   6.067 -0.8814 -0.4634 -0.3811
 9034SOL     OW38737   0.997   2.106   6.816  0.0465 -0.3912  0.5815
 9034SOL    HW138738   0.948   2.128   6.737 -0.0598 -0.5516  0.6011
 9034SOL    HW238739   0.933   2.075   6.881 -0.4472  0.2971  0.4203
 9035SOL     OW38740   1.982   0.545  12.778  1.2063 -0.1961 -0.5855
 9035SOL    HW138741   1.892   0.569  12.758  0.3703 -0.7471  2.6686
 9035SOL    HW238742   1.984   0.453  12.751  0.3652 -0.1246 -0.9085
 9036SOL     OW38743   1.595   3.123   7.022  0.3966  0.2662 -0.0988
 9036SOL    HW138744   1.679   3.079   7.036 -1.5297 -3.6483 -0.7459
 9036SOL    HW238745   1.589   3.177   7.101 -0.1377 -0.3307  0.2713
 9037SOL     OW38746   4.289   0.779   6.341 -0.2017  0.2164  0.1300
 9037SOL    HW138747   4.302   0.764   6.435  1.3390  0.7638 -0.0111
 9037SOL    HW238748   4.209   0.730   6.322  0.1706 -1.1466  2.0070
 9038SOL     OW38749   3.318   2.286   6.822  0.5123  0.7803 -0.0657
 9038SOL    HW138750   3.356   2.215   6.772  0.7614  1.6912 -1.1657
 9038SOL    HW238751   3.286   2.337   6.748 -2.4150 -1.0737 -0.0792
 9039SOL     OW38752   3.574   4.163  14.860  0.2889 -0.0690  0.1952
 9039SOL    HW138753   3.548   4.227  14.793  0.5043 -1.3076 -1.0618
 9039SOL    HW238754   3.510   4.178  14.929 -0.5134 -2.3287 -0.0561
 9040SOL     OW38755   3.736   2.523   9.240 -0.0496 -0.1809 -0.3817
 9040SOL    HW138756   3.759   2.575   9.317  1.7551 -2.5281  0.6869
 9040SOL    HW238757   3.671   2.580   9.201  1.8000  1.5709 -0.9029
 9041SOL     OW38758   3.486   3.732  14.786 -0.3656  0.6828 -0.5256
 9041SOL    HW138759   3.402   3.757  14.750 -0.1136  1.6920 -0.4149
 9041SOL    HW238760   3.465   3.726  14.879 -0.1973  0.5975 -0.4924
 9042SOL     OW38761   0.311   4.703   7.196 -0.0018  0.3647 -0.3213
 9042SOL    HW138762   0.318   4.723   7.102 -1.0333  2.7410  0.1120
 9042SOL    HW238763   0.312   4.607   7.190 -0.8221  0.2696  1.0018
 9043SOL     OW38764   0.552   2.257  10.011  0.0650  0.1514  0.0654
 9043SOL    HW138765   0.471   2.308  10.006  0.6680  0.9853 -1.4466
 9043SOL    HW238766   0.602   2.321   9.961  1.1339 -2.3490 -2.0827
 9044SOL     OW38767   2.296   0.365   4.137 -0.3911  0.3211  0.2625
 9044SOL    HW138768   2.246   0.388   4.058  0.4840  0.6761 -0.1873
 9044SOL    HW238769   2.232   0.387   4.204  0.3178  1.5493  0.5453
 9045SOL     OW38770   1.135   1.825   2.206  0.3530  0.1147 -0.1667
 9045SOL    HW138771   1.111   1.794   2.118  5.4282  1.6464 -2.0852
 9045SOL    HW238772   1.058   1.791   2.252  0.4621  0.3388  0.1770
 9046SOL     OW38773   2.941   1.622   2.338  0.3568 -0.1406 -0.0954
 9046SOL    HW138774   3.021   1.570   2.334  1.0533  1.0816 -2.0606
 9046SOL    HW238775   2.961   1.686   2.269  1.3090 -0.0075  0.3191
 9047SOL     OW38776   2.919   0.867  15.716  0.6376 -0.4164  0.1171
 9047SOL    HW138777   2.863   0.801  15.676 -1.1644  0.1413  1.7439
 9047SOL    HW238778   2.941   0.907  15.631  1.1574 -0.3561  0.2823
 9048SOL     OW38779   2.720   2.307   5.597 -0.2378  0.1654 -0.6494
 9048SOL    HW138780   2.787   2.261   5.648 -1.6906 -0.4252  0.7086
 9048SOL    HW238781   2.673   2.358   5.663 -1.5578 -3.5073  1.2455
 9049SOL     OW38782   0.845   3.075   7.455 -0.0793 -0.1599 -0.0268
 9049SOL    HW138783   0.854   2.981   7.439  0.0344 -0.2239  0.4412
 9049SOL    HW238784   0.915   3.078   7.519 -0.5557  3.0648  0.3348
 9050SOL     OW38785   1.377   3.708   5.343 -0.2691 -0.4592 -0.2922
 9050SOL    HW138786   1.416   3.645   5.403  0.2736 -1.0879 -1.2960
 9050SOL    HW238787   1.459   3.717   5.294  0.3238 -1.0053  0.6036
 9051SOL     OW38788   2.188   4.080   5.526 -0.4939  0.3803  0.4536
 9051SOL    HW138789   2.271   4.112   5.491  0.1141 -0.5901  1.0150
 9051SOL    HW238790   2.169   4.152   5.586 -1.1272  1.9169 -1.5777
 9052SOL     OW38791   3.900   1.892   8.945  0.4128 -0.3273 -0.1798
 9052SOL    HW138792   3.818   1.902   8.994  0.4709  0.2149 -0.1905
 9052SOL    HW238793   3.958   1.855   9.012  1.4595  2.8558  0.7306
 9053SOL     OW38794   1.030   1.670   4.903 -0.1295 -0.5021  0.3344
 9053SOL    HW138795   1.056   1.702   4.989  0.9069 -0.8895  0.1693
 9053SOL    HW238796   0.944   1.710   4.896  0.4171 -0.2025 -4.6965
 9054SOL     OW38797   3.516   3.170   8.165 -0.3475  0.1448 -0.1903
 9054SOL    HW138798   3.577   3.125   8.106  0.1558  0.0924  0.3741
 9054SOL    HW238799   3.574   3.193   8.238 -1.7182  3.3805 -0.0820
 9055SOL     OW38800   3.804   0.616  10.546 -0.1025  0.2499 -0.1671
 9055SOL    HW138801   3.832   0.575  10.464  0.0171 -1.7422  0.8637
 9055SOL    HW238802   3.814   0.709  10.526 -0.9999  0.2102 -0.8109
 9056SOL     OW38803   0.319   4.459   2.262 -0.3430  0.2943  0.4514
 9056SOL    HW138804   0.338   4.552   2.279  0.8587 -0.0467  0.9523
 9056SOL    HW238805   0.248   4.464   2.199  1.2466  3.1412 -1.1371
 9057SOL     OW38806   0.787   4.260   1.494  0.0096  0.0351 -0.2770
 9057SOL    HW138807   0.854   4.296   1.552  1.7339 -2.4562 -0.7431
 9057SOL    HW238808   0.717   4.319   1.522  1.4287  0.5714  2.0970
 9058SOL     OW38809   0.708   3.528  13.504  0.7507 -0.4039  0.3515
 9058SOL    HW138810   0.785   3.562  13.550  1.4708  0.9580 -1.9056
 9058SOL    HW238811   0.670   3.473  13.573 -0.9438  0.3076 -0.0150
 9059SOL     OW38812   4.614   3.054   6.937 -0.1982  0.2798  0.0759
 9059SOL    HW138813   4.586   3.121   6.875 -2.8743 -0.2141  0.7767
 9059SOL    HW238814   4.708   3.045   6.920  0.2640 -1.0264  3.2304
 9060SOL     OW38815   3.510   2.887   6.273 -0.1479 -0.5684 -0.2507
 9060SOL    HW138816   3.588   2.881   6.218 -0.1916 -2.5458 -0.0748
 9060SOL    HW238817   3.484   2.972   6.237  1.3880  0.4752  1.0788
 9061SOL     OW38818   0.896   4.603  15.556 -0.4320 -0.6900  0.0320
 9061SOL    HW138819   0.903   4.691  15.593 -1.9242  0.1074 -1.6398
 9061SOL    HW238820   0.933   4.629  15.471 -0.4581 -1.4517 -0.2076
 9062SOL     OW38821   3.029   4.354   5.735 -0.3979  0.3994  0.3390
 9062SOL    HW138822   2.974   4.308   5.799 -0.6399  1.0138  0.5685
 9062SOL    HW238823   2.967   4.418   5.702 -0.1419  0.3306 -0.2684
 9063SOL     OW38824   3.307   2.244   8.250 -0.1101 -0.5593  0.5561
 9063SOL    HW138825   3.278   2.211   8.165  0.2176 -3.5096  1.5764
 9063SOL    HW238826   3.381   2.186   8.271 -0.7421 -1.2149  0.9827
 9064SOL     OW38827   0.214   3.636   6.645 -0.1843 -0.1376 -0.4378
 9064SOL    HW138828   0.294   3.603   6.603  0.4493 -0.7091  1.2325
 9064SOL    HW238829   0.162   3.555   6.644 -2.5096  1.3606  0.0518
 9065SOL     OW38830   3.695   1.499  11.634 -0.4459 -0.1478  0.1798
 9065SOL    HW138831   3.760   1.565  11.657  1.3673 -1.0756 -2.3340
 9065SOL    HW238832   3.715   1.446  11.711 -0.4181  0.8411  0.8491
 9066SOL     OW38833   0.954   3.205   7.150 -0.3547  0.6728  0.1743
 9066SOL    HW138834   1.032   3.260   7.146  0.2119 -0.2137 -0.9437
 9066SOL    HW238835   0.971   3.145   7.222 -0.1159  0.9253  0.3269
 9067SOL     OW38836   2.496   3.826   5.771 -0.0715 -0.4170  0.5207
 9067SOL    HW138837   2.403   3.826   5.747  0.6251 -0.8750 -2.2128
 9067SOL    HW238838   2.526   3.746   5.728  2.2038  0.0653  1.2281
 9068SOL     OW38839   1.367   2.274   9.492 -0.0837 -0.0277 -0.5587
 9068SOL    HW138840   1.416   2.192   9.485 -0.3982 -0.3107  0.5330
 9068SOL    HW238841   1.427   2.328   9.440  0.4318 -1.4529 -1.4482
 9069SOL     OW38842   0.763   0.826   4.039  0.8257  0.3014 -0.4634
 9069SOL    HW138843   0.793   0.862   3.955 -0.5122  3.4346  0.4018
 9069SOL    HW238844   0.675   0.816   4.005  0.4682 -3.9286  1.7845
 9070SOL     OW38845   1.187   0.823   0.763 -0.4795 -0.5614 -0.3058
 9070SOL    HW138846   1.120   0.855   0.823 -0.0007 -0.9462  0.4303
 9070SOL    HW238847   1.257   0.808   0.826 -0.1426  1.4722 -0.1773
 9071SOL     OW38848   3.872   4.624   5.088  0.1231 -0.2669 -0.6643
 9071SOL    HW138849   3.832   4.554   5.036  2.5383 -1.5218 -0.8472
 9071SOL    HW238850   3.826   4.700   5.053  2.4445  2.1053  1.4259
 9072SOL     OW38851   0.688   2.523   2.570  0.1769  0.1197 -0.0492
 9072SOL    HW138852   0.656   2.470   2.644 -0.3339  0.6187  0.0797
 9072SOL    HW238853   0.725   2.468   2.501  0.1243  0.1944 -0.1368
 9073SOL     OW38854   4.458   0.301  16.602  0.1966 -0.1101 -0.0468
 9073SOL    HW138855   4.394   0.320  16.533  0.1408  3.1942  0.9185
 9073SOL    HW238856   4.400   0.281  16.676 -0.4229  1.6006 -0.0819
 9074SOL     OW38857   3.605   4.430  16.605 -0.5901  0.2666  0.1726
 9074SOL    HW138858   3.585   4.340  16.580 -0.5123  0.9167 -2.2192
 9074SOL    HW238859   3.555   4.475  16.538 -0.8748 -0.5535 -0.1676
 9075SOL     OW38860   3.857   3.966   8.038  0.0450  0.0389 -0.2497
 9075SOL    HW138861   3.936   3.952   7.987 -0.8204 -1.0055 -1.3026
 9075SOL    HW238862   3.839   3.878   8.070  0.7338  1.1308  3.1532
 9076SOL     OW38863   2.725   3.080   5.754 -0.0114  0.4911 -0.2449
 9076SOL    HW138864   2.647   3.135   5.758  0.2924  0.9198 -0.2348
 9076SOL    HW238865   2.791   3.148   5.763  0.2709 -0.0919  2.0923
 9077SOL     OW38866   4.155   2.220  10.486 -0.0464  0.1053 -0.3710
 9077SOL    HW138867   4.200   2.206  10.403  0.2407  0.1436 -0.2227
 9077SOL    HW238868   4.229   2.207  10.545 -1.1232  2.3489  1.4498
 9078SOL     OW38869   4.203   2.813   8.676 -0.6484  0.4394 -0.7716
 9078SOL    HW138870   4.124   2.857   8.646 -0.7193  1.1308  0.4562
 9078SOL    HW238871   4.193   2.832   8.769  2.2917 -0.4001 -0.2754
 9079SOL     OW38872   2.110   0.987   2.213  0.3128  0.0765  0.0280
 9079SOL    HW138873   2.128   0.951   2.300  1.7218 -0.0434 -0.3036
 9079SOL    HW238874   2.197   1.021   2.192  0.3090  0.5763  0.7981
 9080SOL     OW38875   3.580   1.232  14.955 -0.1636 -0.0892  0.2799
 9080SOL    HW138876   3.504   1.215  14.900  0.4450  0.1191 -0.6135
 9080SOL    HW238877   3.638   1.293  14.910  0.0495  0.4292  1.2549
 9081SOL     OW38878   1.788   1.191   1.990 -0.3442  0.3798  0.4513
 9081SOL    HW138879   1.777   1.284   2.013  1.1255  0.6922 -0.1502
 9081SOL    HW238880   1.697   1.169   1.971  0.4151  0.8411 -3.7193
 9082SOL     OW38881   2.644   3.333   2.584 -0.1051  0.0334  0.5244
 9082SOL    HW138882   2.678   3.388   2.654  0.2631  1.8656 -1.0896
 9082SOL    HW238883   2.647   3.248   2.627 -1.6646  0.5228  1.6249
 9083SOL     OW38884   3.752   3.413  12.009  0.0884 -0.3886 -0.2496
 9083SOL    HW138885   3.808   3.476  11.964 -0.8178  2.9633  3.3311
 9083SOL    HW238886   3.707   3.466  12.075 -0.7930 -1.8015  0.2902
 9084SOL     OW38887   0.134   3.058   1.397  0.2313  0.4549  0.0916
 9084SOL    HW138888   0.113   3.087   1.308 -0.9450  2.1258  0.9237
 9084SOL    HW238889   0.099   2.969   1.410 -0.5827  0.5887 -1.1907
 9085SOL     OW38890   2.881   2.080  14.568  0.4623  0.4241 -0.4164
 9085SOL    HW138891   2.941   2.037  14.508 -0.9367 -0.9359 -0.8558
 9085SOL    HW238892   2.880   2.163  14.521  1.0904  0.6604 -0.0175
 9086SOL     OW38893   1.704   1.104   5.600  0.1978 -0.2254 -0.3103
 9086SOL    HW138894   1.691   1.011   5.618 -0.5686  0.0321  0.4894
 9086SOL    HW238895   1.727   1.141   5.685  1.2289 -1.2874 -0.1196
 9087SOL     OW38896   0.264   2.460   0.437 -0.1192 -0.1793 -0.7464
 9087SOL    HW138897   0.235   2.394   0.374 -0.1130  1.0550 -2.0274
 9087SOL    HW238898   0.355   2.472   0.413  0.1812 -1.5146 -0.2763
 9088SOL     OW38899   0.690   2.465   5.164 -0.2752  0.4080  0.2572
 9088SOL    HW138900   0.768   2.471   5.218 -1.4796 -0.6559  2.0884
 9088SOL    HW238901   0.636   2.534   5.202 -0.5451 -0.6962  1.8681
 9089SOL     OW38902   3.655   1.024   6.448 -0.2417 -0.1826  0.4893
 9089SOL    HW138903   3.626   0.982   6.367  1.9694  2.3946 -1.6281
 9089SOL    HW238904   3.570   1.033   6.491  0.2703  4.3099  0.5789
 9090SOL     OW38905   2.364   2.658   3.148 -0.4736  0.0757 -0.0014
 9090SOL    HW138906   2.430   2.590   3.157 -0.1512  0.3320 -0.4139
 9090SOL    HW238907   2.415   2.739   3.137 -1.2379  0.3893 -1.2837
 9091SOL     OW38908   4.005   3.472   7.784  0.3081 -0.6128  0.0514
 9091SOL    HW138909   3.930   3.413   7.776  0.6440 -1.1708  1.0407
 9091SOL    HW238910   3.974   3.535   7.719  1.4381  0.9004  1.0018
 9092SOL     OW38911   1.388   2.837   4.441  0.0807 -0.1027 -0.0627
 9092SOL    HW138912   1.459   2.774   4.448 -0.4398 -0.5398  1.3666
 9092SOL    HW238913   1.328   2.815   4.513 -1.5519 -0.1979 -1.4351
 9093SOL     OW38914   3.210   4.639   4.728 -0.1150 -0.3532 -0.3606
 9093SOL    HW138915   3.256   4.690   4.796 -0.4746 -0.8987  0.2941
 9093SOL    HW238916   3.158   4.705   4.682 -0.4722  1.4259  2.5506
 9094SOL     OW38917   1.795   1.622  11.715  0.0755 -0.8332  0.4134
 9094SOL    HW138918   1.796   1.526  11.722  1.7921 -0.7292  1.5268
 9094SOL    HW238919   1.850   1.640  11.791  0.0653  0.8390  0.0186
 9095SOL     OW38920   3.678   4.347   7.831  0.4940 -0.3143 -0.5111
 9095SOL    HW138921   3.590   4.310   7.821 -0.7761  1.6839  3.0593
 9095SOL    HW238922   3.712   4.285   7.895 -1.0030  1.3460  1.9386
 9096SOL     OW38923   3.458   0.204   5.521  0.0925 -0.1696 -0.1171
 9096SOL    HW138924   3.493   0.144   5.587  4.6557 -0.1463 -2.5429
 9096SOL    HW238925   3.383   0.149   5.496 -0.4079  0.5724 -0.2440
 9097SOL     OW38926   1.065   0.382   2.339 -0.4902  0.3894 -0.2583
 9097SOL    HW138927   1.027   0.397   2.253  0.0768 -0.1936 -0.6093
 9097SOL    HW238928   1.065   0.472   2.372 -0.6381  0.7962 -1.3980
 9098SOL     OW38929   0.790   1.448  17.741  0.1083  0.0438 -0.1745
 9098SOL    HW138930   0.780   1.417  17.651  0.7778  0.9343 -0.5534
 9098SOL    HW238931   0.747   1.378   0.023  0.9145 -0.7937 -0.6745
 9099SOL     OW38932   3.663   3.570  15.063 -0.5550 -0.6088  0.5060
 9099SOL    HW138933   3.643   3.663  15.078  1.1477 -0.2166  0.2803
 9099SOL    HW238934   3.583   3.529  15.096 -1.2596  0.1412 -0.2632
 9100SOL     OW38935   0.425   4.030  11.461 -0.1608  0.5277  0.1428
 9100SOL    HW138936   0.371   4.080  11.522 -1.2093 -0.1703 -0.2216
 9100SOL    HW238937   0.354   3.982  11.419  1.2554 -0.9979 -0.5363
 9101SOL     OW38938   1.051   1.554   6.982 -0.0993  0.8580 -0.0568
 9101SOL    HW138939   1.058   1.465   7.014  0.0393  0.8465 -0.1211
 9101SOL    HW238940   1.033   1.595   7.067 -2.3180 -0.2215  0.0015
 9102SOL     OW38941   0.924   1.257   6.097 -0.1889 -0.3511  0.0837
 9102SOL    HW138942   0.899   1.202   6.023  0.5290 -0.6276  0.0485
 9102SOL    HW238943   0.841   1.284   6.136 -0.4203 -2.4585  1.0792
 9103SOL     OW38944   1.191   0.121   1.364  0.0994  0.1270  0.1916
 9103SOL    HW138945   1.267   0.078   1.324  0.6056  0.7753  0.4466
 9103SOL    HW238946   1.235   0.180   1.425  1.2263 -0.2875 -0.2237
 9104SOL     OW38947   3.441   1.301   9.626  0.1516 -0.0809 -0.1099
 9104SOL    HW138948   3.459   1.207   9.626  0.8885  0.0571  0.1691
 9104SOL    HW238949   3.346   1.309   9.622 -0.0003 -1.1803  1.1017
 9105SOL     OW38950   3.062   3.723   8.391  0.2132  0.1954  0.7239
 9105SOL    HW138951   3.111   3.805   8.388  0.6164 -0.1869 -2.3545
 9105SOL    HW238952   3.135   3.663   8.380  0.2104  0.2631  0.3556
 9106SOL     OW38953   2.408   1.025   6.431  0.4356 -0.7158 -0.2361
 9106SOL    HW138954   2.364   1.051   6.350  0.9194 -2.2268 -0.9947
 9106SOL    HW238955   2.343   1.020   6.500 -1.8758 -0.7668 -2.4052
 9107SOL     OW38956   3.915   2.843  13.993  0.6699  0.3153  0.3783
 9107SOL    HW138957   3.863   2.924  13.992  0.9379  0.4807 -0.5512
 9107SOL    HW238958   3.951   2.841  13.904 -0.7359  1.7689 -0.2526
 9108SOL     OW38959   4.715   2.781   9.776  0.0577 -0.0107  0.3193
 9108SOL    HW138960   4.642   2.808   9.720  1.9922  0.2981 -2.0616
 9108SOL    HW238961   4.671   2.721   9.836  0.8387  1.7015  2.6473
 9109SOL     OW38962   0.410   1.302   1.836 -0.3636 -0.3900  0.3773
 9109SOL    HW138963   0.340   1.349   1.879  0.1659  1.2673 -0.5482
 9109SOL    HW238964   0.411   1.348   1.752  1.1906 -0.7596  0.1846
 9110SOL     OW38965   1.989   4.009   3.663 -0.3015 -0.0394 -0.0410
 9110SOL    HW138966   2.009   4.025   3.755 -1.0090 -0.6375  0.2184
 9110SOL    HW238967   2.029   4.085   3.621  0.8142  0.5644  2.1395
 9111SOL     OW38968   4.570   2.289  14.757  0.5559  0.3991 -0.7979
 9111SOL    HW138969   4.579   2.295  14.852  2.0148 -2.1529 -0.7747
 9111SOL    HW238970   4.563   2.383  14.740  1.6663  0.5143 -0.6340
 9112SOL     OW38971   3.958   0.215   6.158  0.2496  0.4474  0.3433
 9112SOL    HW138972   4.019   0.143   6.143 -0.8362 -0.6209  1.0362
 9112SOL    HW238973   4.003   0.268   6.224  1.3892 -2.7735  2.1835
 9113SOL     OW38974   1.961   3.169   3.955  0.3217 -0.2086 -0.0822
 9113SOL    HW138975   1.921   3.128   3.878  0.7321  1.2359 -1.0558
 9113SOL    HW238976   2.013   3.102   4.000  1.3434  1.4408  1.2262
 9114SOL     OW38977   0.844   4.726   3.810 -0.0389  0.0622 -0.7147
 9114SOL    HW138978   0.804   0.043   3.873  0.0638  1.5886 -2.1079
 9114SOL    HW238979   0.895   0.042   3.754 -0.3086 -1.3465 -2.4333
 9115SOL     OW38980   1.966   2.165   4.477 -0.3332  0.5014  0.1572
 9115SOL    HW138981   2.035   2.212   4.432 -0.8110 -0.0955 -1.1855
 9115SOL    HW238982   1.965   2.080   4.434  1.0133  0.5305  0.0773
 9116SOL     OW38983   4.520   0.741  12.327 -0.2503  0.2276 -0.0428
 9116SOL    HW138984   4.611   0.736  12.358 -0.1096  1.0175 -0.3421
 9116SOL    HW238985   4.492   0.789  12.405 -3.1569  0.6206 -1.3509
 9117SOL     OW38986   2.733   4.253   5.127  0.1277  0.0085  0.0764
 9117SOL    HW138987   2.764   4.194   5.196  1.6187  2.5962  1.6507
 9117SOL    HW238988   2.756   4.332   5.177 -1.1594  0.9465 -0.8322
 9118SOL     OW38989   2.140   0.285   8.158  0.1942 -0.3394  0.3042
 9118SOL    HW138990   2.051   0.273   8.125 -0.4479 -0.0758  1.9500
 9118SOL    HW238991   2.172   0.195   8.167 -0.5691 -0.6774 -0.3135
 9119SOL     OW38992   4.300   4.426   3.962 -0.1316 -0.2328 -0.1830
 9119SOL    HW138993   4.329   4.517   3.976 -0.0147 -0.4159  0.7625
 9119SOL    HW238994   4.364   4.385   3.904 -0.3471  0.8973 -1.2261
 9120SOL     OW38995   4.553   0.604   3.135 -0.0476 -0.1251 -0.0724
 9120SOL    HW138996   4.552   0.602   3.230 -1.4836  1.9084 -0.0306
 9120SOL    HW238997   4.520   0.694   3.127 -1.1324 -0.4719  0.5747
 9121SOL     OW38998   4.576   4.201  12.427 -0.9136 -0.4405  0.1996
 9121SOL    HW138999   4.604   4.232  12.341 -0.6197  0.3397  0.5729
 9121SOL    HW239000   4.501   4.260  12.442 -1.3622 -0.8504 -0.4200
 9122SOL     OW39001   1.183   0.934   4.152  0.1593  0.0184  0.1514
 9122SOL    HW139002   1.123   1.004   4.178  0.5893  0.8271 -1.0830
 9122SOL    HW239003   1.239   0.985   4.095  0.5301 -0.8716 -0.2858
 9123SOL     OW39004   3.045   4.545  10.880 -0.0359 -0.1028 -0.1956
 9123SOL    HW139005   3.108   4.590  10.825  0.5719  0.1078  0.6879
 9123SOL    HW239006   3.089   4.533  10.964  3.7321  0.1190 -2.1324
 9124SOL     OW39007   0.506   4.238   6.956 -0.2074 -0.2796  0.2159
 9124SOL    HW139008   0.480   4.153   6.991  0.7637 -1.4011 -1.7934
 9124SOL    HW239009   0.594   4.212   6.929 -0.7197  0.8830 -2.5695
 9125SOL     OW39010   2.075   3.201  17.266 -0.4711  0.2272  0.3243
 9125SOL    HW139011   2.025   3.227  17.189 -0.2554 -0.1937  0.0421
 9125SOL    HW239012   2.138   3.136  17.234 -1.2533 -1.5470  2.3378
 9126SOL     OW39013   3.213   3.264   5.701  0.2096 -0.3654 -0.3409
 9126SOL    HW139014   3.181   3.175   5.716 -0.8924  0.0934  0.0159
 9126SOL    HW239015   3.231   3.304   5.786  3.4019 -0.1377 -1.1116
 9127SOL     OW39016   4.126   3.830  16.202 -0.5021 -0.2624  0.0898
 9127SOL    HW139017   4.220   3.837  16.185  0.1139 -1.2417  3.0874
 9127SOL    HW239018   4.106   3.752  16.150  0.6942 -0.9839  0.6988
 9128SOL     OW39019   0.552   2.797   4.824 -0.6116  0.1552 -0.8555
 9128SOL    HW139020   0.556   2.882   4.780  0.6208  0.8334  0.5895
 9128SOL    HW239021   0.560   2.736   4.751 -0.2174 -0.8025 -0.0097
 9129SOL     OW39022   2.045   2.417   3.355  0.1050  0.3848 -0.5424
 9129SOL    HW139023   2.001   2.378   3.430  0.7797 -1.3944 -1.0594
 9129SOL    HW239024   1.980   2.414   3.284  0.9821 -0.7301 -1.2937
 9130SOL     OW39025   2.254   3.142   8.320  0.5405 -0.4948 -0.5869
 9130SOL    HW139026   2.309   3.075   8.360 -0.7566 -0.3372  1.4754
 9130SOL    HW239027   2.281   3.124   8.230  2.1337 -1.2850  0.0636
 9131SOL     OW39028   0.387   1.396   7.638  0.0943 -0.0680  0.1162
 9131SOL    HW139029   0.380   1.453   7.562 -2.5225  0.4502  0.7413
 9131SOL    HW239030   0.320   1.428   7.699  1.6859  0.1561  1.7292
 9132SOL     OW39031   1.892   2.973  16.344  0.7198 -0.1881 -0.0646
 9132SOL    HW139032   1.946   2.902  16.310  0.7035 -0.0931 -0.2908
 9132SOL    HW239033   1.808   2.927  16.348  0.6549  0.1882  3.4097
 9133SOL     OW39034   0.282   2.329   1.545 -0.0164  0.4687  0.2494
 9133SOL    HW139035   0.342   2.392   1.505  1.4969 -0.7657  0.5683
 9133SOL    HW239036   0.276   2.272   1.468  1.1866  0.6452  0.0252
 9134SOL     OW39037   3.313   2.433   6.186  0.6563 -0.8809  0.8362
 9134SOL    HW139038   3.314   2.529   6.185  2.3939 -0.9061  0.4087
 9134SOL    HW239039   3.401   2.419   6.151  1.1730  0.8859  1.4303
 9135SOL     OW39040   2.328   2.231   8.401  0.0345  0.0431  0.2670
 9135SOL    HW139041   2.368   2.219   8.316 -0.5263 -2.8558  0.4101
 9135SOL    HW239042   2.341   2.322   8.427 -0.4776  0.6624 -1.6983
 9136SOL     OW39043   1.625   0.502   6.953 -0.1058  0.0538 -0.1091
 9136SOL    HW139044   1.715   0.495   6.921 -0.3387 -0.5402 -0.6447
 9136SOL    HW239045   1.587   0.554   6.882 -1.0584  0.5668  0.7650
 9137SOL     OW39046   2.220   2.516   3.575  0.9249  0.3288  0.3752
 9137SOL    HW139047   2.170   2.507   3.494  0.5299 -0.0048  0.6562
 9137SOL    HW239048   2.208   2.427   3.607  1.6922  0.5778  1.3732
 9138SOL     OW39049   0.156   3.019   6.889  0.8073  0.4273 -0.5373
 9138SOL    HW139050   0.179   2.943   6.836 -1.1350 -1.1063  0.8336
 9138SOL    HW239051   0.230   3.079   6.882  1.4941 -0.5377 -1.5195
 9139SOL     OW39052   0.402   1.190   3.536 -0.1112 -0.4075 -0.4632
 9139SOL    HW139053   0.401   1.132   3.612  0.3777 -1.0568 -0.9395
 9139SOL    HW239054   0.497   1.200   3.523 -0.2682 -0.2326 -1.4777
 9140SOL     OW39055   2.813   2.836  16.292  0.1025  0.0949 -0.7211
 9140SOL    HW139056   2.792   2.758  16.241  0.5207 -0.3326 -0.2376
 9140SOL    HW239057   2.833   2.796  16.377 -2.1883  0.6718  0.1031
 9141SOL     OW39058   1.609   3.516   7.487 -0.1480  0.7608  0.5326
 9141SOL    HW139059   1.704   3.524   7.481 -0.1394  0.6155  0.4744
 9141SOL    HW239060   1.587   3.599   7.444  1.5133  1.1426  0.4127
 9142SOL     OW39061   2.624   3.930   8.477 -0.1561  0.1576  0.0478
 9142SOL    HW139062   2.700   3.880   8.508 -0.2910  1.3250  2.2015
 9142SOL    HW239063   2.561   3.863   8.502 -1.2846  0.8131 -1.0696
 9143SOL     OW39064   0.077   1.479   2.140 -0.3091 -0.2260 -0.3205
 9143SOL    HW139065   4.735   1.437   2.133 -1.8689  2.7298  0.8923
 9143SOL    HW239066   0.051   1.566   2.170  2.3870  0.2279  0.6994
 9144SOL     OW39067   1.206   2.507   0.729 -0.0472 -0.0223  0.1734
 9144SOL    HW139068   1.301   2.512   0.722 -0.3886 -1.7056 -5.7096
 9144SOL    HW239069   1.191   2.602   0.728  0.0489  0.0180  2.9189
 9145SOL     OW39070   4.485   4.714   3.246 -0.1308  0.8863  0.3009
 9145SOL    HW139071   4.471   4.727   3.152 -2.6200  0.6518  0.6160
 9145SOL    HW239072   4.579   4.704   3.256 -0.5464 -2.8709  0.4027
 9146SOL     OW39073   2.506   2.932  11.604 -0.5023  0.1875  0.2210
 9146SOL    HW139074   2.584   2.887  11.573  0.3654  0.1902  2.3896
 9146SOL    HW239075   2.466   2.847  11.622 -0.9128  0.4535  0.5679
 9147SOL     OW39076   1.824   4.420   1.792 -0.2254 -0.1264  0.5110
 9147SOL    HW139077   1.831   4.498   1.848  2.1541 -1.0120  1.4176
 9147SOL    HW239078   1.785   4.464   1.716  0.0352  0.0468  0.4766
 9148SOL     OW39079   1.724   1.186  12.392 -0.3194 -0.1309  0.2050
 9148SOL    HW139080   1.809   1.227  12.409  0.7087 -1.5985 -1.3483
 9148SOL    HW239081   1.667   1.230  12.455  0.5030 -0.5406  1.2419
 9149SOL     OW39082   3.681   4.578   3.261 -0.3220 -0.0144 -0.4880
 9149SOL    HW139083   3.764   4.532   3.276 -1.2434 -1.6078 -0.2427
 9149SOL    HW239084   3.646   4.533   3.184  0.8037  0.9595 -1.5673
 9150SOL     OW39085   1.481   2.826   8.691  0.0844 -0.0331  0.2488
 9150SOL    HW139086   1.492   2.764   8.763 -1.6232  0.7313  1.1595
 9150SOL    HW239087   1.529   2.901   8.725 -1.2410  1.0783 -0.3420
 9151SOL     OW39088   0.201   4.054  14.300  0.4995  0.3378 -0.0086
 9151SOL    HW139089   0.152   3.982  14.341  0.6599  0.1847 -0.0851
 9151SOL    HW239090   0.291   4.023  14.290  1.1390  1.0804  3.3956
 9152SOL     OW39091   2.885   3.986  12.680  0.5440  0.1087 -0.2105
 9152SOL    HW139092   2.936   3.957  12.756 -1.4282  0.3908  1.2352
 9152SOL    HW239093   2.812   3.924  12.691 -0.9023  1.3954 -2.6013
 9153SOL     OW39094   1.928   1.240   3.779  0.5833 -0.0157 -0.3206
 9153SOL    HW139095   2.021   1.243   3.754 -0.2486  1.4360 -3.2008
 9153SOL    HW239096   1.887   1.303   3.720  1.4387 -1.1172 -2.1081
 9154SOL     OW39097   3.227   3.969   2.347  0.5722  0.0555 -0.0699
 9154SOL    HW139098   3.241   3.887   2.299 -0.7929  0.1798 -0.7093
 9154SOL    HW239099   3.148   3.969   2.402  2.3391  1.5598  2.4472
 9155SOL     OW39100   1.396   0.029   6.258 -0.7552 -0.1402 -0.1795
 9155SOL    HW139101   1.451   4.694   6.248  0.7729  1.0473 -1.0059
 9155SOL    HW239102   1.333   0.008   6.327 -1.8531 -0.7134 -1.3538
 9156SOL     OW39103   2.179   1.775   9.618  0.2773 -0.1034 -0.1868
 9156SOL    HW139104   2.113   1.817   9.563 -0.2837 -1.8231 -0.8166
 9156SOL    HW239105   2.133   1.768   9.702  0.9133  1.6659  0.2997
 9157SOL     OW39106   2.485   1.040   5.840 -0.1377 -0.0918 -0.3920
 9157SOL    HW139107   2.439   1.090   5.908 -0.3409  1.4270 -1.6508
 9157SOL    HW239108   2.439   1.066   5.761  1.2116 -0.6138 -1.3401
 9158SOL     OW39109   4.408   4.007   7.928 -0.4114  0.7892  0.6215
 9158SOL    HW139110   4.429   3.982   7.838 -0.5194  1.8406  0.3064
 9158SOL    HW239111   4.321   3.967   7.935  0.1806 -0.9366 -1.8172
 9159SOL     OW39112   2.123   2.902  10.184 -0.1169  0.2625  0.2406
 9159SOL    HW139113   2.106   2.872  10.274  1.6327  0.8047  0.7385
 9159SOL    HW239114   2.203   2.851  10.176 -1.0478 -1.1343 -0.3067
 9160SOL     OW39115   0.786   0.923   1.458 -0.4222  0.0580 -0.2905
 9160SOL    HW139116   0.826   0.971   1.531  1.0114  1.0552 -1.7372
 9160SOL    HW239117   0.869   0.902   1.415  0.3967 -0.5735  1.5792
 9161SOL     OW39118   2.957   0.083   5.222 -0.4007  0.1806  0.1160
 9161SOL    HW139119   2.870   0.092   5.182  0.0182 -1.5407 -1.1604
 9161SOL    HW239120   2.993   0.170   5.240 -0.0110  0.2648 -1.0894
 9162SOL     OW39121   4.178   2.397   4.389 -0.6097  0.6891 -0.2365
 9162SOL    HW139122   4.208   2.455   4.459  0.3642  0.2626 -0.3148
 9162SOL    HW239123   4.208   2.452   4.316  2.8450  1.9905  2.1902
 9163SOL     OW39124   1.088   3.286   3.526 -0.4141  0.2425  0.4342
 9163SOL    HW139125   1.027   3.277   3.599  0.7076  1.0282  1.4814
 9163SOL    HW239126   1.133   3.202   3.531  0.6309  0.6337 -2.2431
 9164SOL     OW39127   3.291   4.684   3.149  0.5532  0.3211 -0.1387
 9164SOL    HW139128   3.291   0.033   3.178  0.7475  0.3944 -0.3706
 9164SOL    HW239129   3.279   4.638   3.232  0.7713  0.3816 -0.0734
 9165SOL     OW39130   1.077   3.440   7.203 -0.7236  0.3571 -0.0508
 9165SOL    HW139131   1.084   3.399   7.289  1.8019  0.2924 -0.2785
 9165SOL    HW239132   1.171   3.457   7.194 -0.2228 -2.5176 -0.3278
 9166SOL     OW39133   2.562   0.933   8.822 -0.1510 -0.3365 -0.2179
 9166SOL    HW139134   2.516   0.956   8.741 -0.2430  1.0035  0.2123
 9166SOL    HW239135   2.501   0.873   8.865 -1.6611  1.8072  0.6504
 9167SOL     OW39136   0.395   3.180   9.578  0.4575  0.0400 -0.0095
 9167SOL    HW139137   0.378   3.273   9.593 -0.0180  0.0055 -0.3602
 9167SOL    HW239138   0.449   3.152   9.652  1.0124 -0.0815 -0.4559
 9168SOL     OW39139   2.825   0.617  14.878 -0.6505 -0.3908 -1.1691
 9168SOL    HW139140   2.830   0.707  14.910 -2.4009 -0.6605 -0.1511
 9168SOL    HW239141   2.892   0.579  14.936 -0.1582  0.1884 -1.3632
 9169SOL     OW39142   1.509   3.762   2.392  0.1789 -0.4563  0.1689
 9169SOL    HW139143   1.487   3.756   2.299  1.9096  0.3551 -0.2793
 9169SOL    HW239144   1.584   3.820   2.386  0.0402 -0.1857  1.0253
 9170SOL     OW39145   4.638   2.019  10.759 -0.4706  0.6633 -0.6506
 9170SOL    HW139146   4.546   2.001  10.781 -0.9008  0.5049 -2.5706
 9170SOL    HW239147   4.656   2.103  10.799  2.7835 -0.7738  0.9154
 9171SOL     OW39148   0.900   1.913  17.486  0.1579 -0.3034  0.6444
 9171SOL    HW139149   0.852   1.840  17.525  0.2490 -0.3037  0.7573
 9171SOL    HW239150   0.957   1.948  17.555 -0.5939  0.8365  0.6851
 9172SOL     OW39151   2.303   1.594  11.871  0.1996  0.4071  0.0834
 9172SOL    HW139152   2.332   1.681  11.899  0.5720  0.3338 -0.0703
 9172SOL    HW239153   2.303   1.550  11.956 -1.0389 -0.1550 -0.2068
 9173SOL     OW39154   2.165   1.036   5.472 -0.4330 -0.0572  0.5174
 9173SOL    HW139155   2.107   1.093   5.423 -0.0921 -2.3107 -2.4673
 9173SOL    HW239156   2.112   0.959   5.454  0.0073 -0.2053 -0.1441
 9174SOL     OW39157   3.809   4.562   0.605  0.0404 -0.1639 -0.1711
 9174SOL    HW139158   3.805   4.568   0.701  0.8986 -0.1631 -0.1381
 9174SOL    HW239159   3.763   4.479   0.590  0.0833 -0.6497  2.3388
 9175SOL     OW39160   0.478   0.726   8.705 -0.4116  0.3304  0.2647
 9175SOL    HW139161   0.486   0.673   8.626  0.0474  1.3701 -0.3864
 9175SOL    HW239162   0.440   0.662   8.766 -2.0793  2.1722  1.1750
 9176SOL     OW39163   3.457   2.518  15.486  0.0218 -0.0068  0.4958
 9176SOL    HW139164   3.466   2.423  15.489 -0.7677 -0.0907  0.1624
 9176SOL    HW239165   3.516   2.540  15.414 -0.4105  1.2942  0.5347
 9177SOL     OW39166   0.729   1.518  16.813  0.3702  0.1115 -0.4426
 9177SOL    HW139167   0.645   1.492  16.852 -0.0027  2.2255  0.1853
 9177SOL    HW239168   0.783   1.496  16.889 -0.0014 -1.1029 -0.5297
 9178SOL     OW39169   2.564   1.693   7.667 -0.0782 -0.2900 -0.1843
 9178SOL    HW139170   2.606   1.691   7.754  1.6252 -1.3758 -1.0388
 9178SOL    HW239171   2.474   1.705   7.695 -0.6871 -4.1613 -0.4806
 9179SOL     OW39172   0.423   2.387   4.239  0.1744 -0.0449 -0.6881
 9179SOL    HW139173   0.439   2.309   4.292 -0.7965 -0.5912 -1.1925
 9179SOL    HW239174   0.504   2.435   4.255 -0.5411  1.1194 -0.5638
 9180SOL     OW39175   4.131   0.038   0.836 -0.0616  0.3641  0.2061
 9180SOL    HW139176   4.073   0.112   0.817 -0.8243  0.1481  1.7621
 9180SOL    HW239177   4.065   4.714   0.856  1.7343 -0.7793  2.1651
 9181SOL     OW39178   1.863   1.521   4.063 -0.2540  0.2862  0.3898
 9181SOL    HW139179   1.863   1.429   4.086 -0.8586 -0.4289 -2.4127
 9181SOL    HW239180   1.952   1.546   4.089  0.1762 -2.2661  1.3551
 9182SOL     OW39181   2.262   2.194  16.886 -0.4222 -0.4443  0.0606
 9182SOL    HW139182   2.210   2.184  16.806  0.3583 -2.0509 -0.2348
 9182SOL    HW239183   2.275   2.102  16.906  1.6416 -0.1440  0.0624
 9183SOL     OW39184   3.957   3.694   8.304  0.1377  0.1624  0.4934
 9183SOL    HW139185   3.916   3.621   8.349  2.0292  0.1376  2.1700
 9183SOL    HW239186   3.892   3.765   8.305  0.1822  0.2099 -0.4344
 9184SOL     OW39187   4.249   2.700   9.481 -0.6090 -0.0081  0.1090
 9184SOL    HW139188   4.177   2.659   9.432  0.6189 -1.4132 -0.5004
 9184SOL    HW239189   4.305   2.715   9.405  0.5058  1.1584  1.1614
 9185SOL     OW39190   1.339   4.212   6.014 -0.1449 -0.5571  0.3983
 9185SOL    HW139191   1.387   4.292   5.992  0.1350 -0.9906 -0.6103
 9185SOL    HW239192   1.376   4.158   5.943 -0.3703 -0.0044 -0.1439
 9186SOL     OW39193   4.489   0.405   1.754 -0.8298  0.3050  0.5579
 9186SOL    HW139194   4.509   0.459   1.678  3.3729 -0.8247  0.8445
 9186SOL    HW239195   4.414   0.453   1.790  0.0192  0.6661  1.8432
 9187SOL     OW39196   2.702   0.917   4.249  0.2756  0.0588 -0.3945
 9187SOL    HW139197   2.666   0.916   4.160 -2.4109  1.4164  0.6856
 9187SOL    HW239198   2.705   0.823   4.265  1.9975 -0.0029 -1.1204
 9188SOL     OW39199   1.135   0.993   3.141 -0.1943 -0.0359  0.3614
 9188SOL    HW139200   1.040   1.006   3.143  0.0925  2.1545  0.3099
 9188SOL    HW239201   1.145   0.898   3.148  0.0666  0.0298  0.9035
 9189SOL     OW39202   0.634   4.368   4.042  0.1770  0.0217 -0.1372
 9189SOL    HW139203   0.604   4.349   3.953  1.8368  1.0729 -0.9179
 9189SOL    HW239204   0.608   4.283   4.079  0.7781 -0.2329 -0.3072
 9190SOL     OW39205   1.653   2.441   5.042  0.2267 -0.2027  0.0362
 9190SOL    HW139206   1.675   2.509   5.106 -0.6213  0.4743 -0.3993
 9190SOL    HW239207   1.565   2.433   5.079  0.2963 -0.0077  0.2480
 9191SOL     OW39208   4.348   4.649   6.971 -0.0500  0.1079 -0.3226
 9191SOL    HW139209   4.439   4.670   6.949  0.2587  0.1275  0.9624
 9191SOL    HW239210   4.335   4.719   7.035  2.3837  0.5586 -0.3347
 9192SOL     OW39211   3.652   1.855   6.389  0.1789 -0.0088 -0.3022
 9192SOL    HW139212   3.715   1.846   6.462  1.1211  2.0184 -0.8589
 9192SOL    HW239213   3.693   1.801   6.322  0.6266 -0.6284  0.4720
 9193SOL     OW39214   0.725   4.622  14.430  0.0025  0.3884  0.0601
 9193SOL    HW139215   0.652   4.628  14.492 -0.4797 -1.8435 -0.2732
 9193SOL    HW239216   0.693   4.600  14.343 -2.1170 -1.0718  1.2191
 9194SOL     OW39217   1.307   0.689  12.452 -0.2958 -0.4359  0.2444
 9194SOL    HW139218   1.214   0.714  12.448 -0.5681 -1.5549 -0.5767
 9194SOL    HW239219   1.310   0.599  12.483  1.5825 -0.2380  0.6096
 9195SOL     OW39220   2.890   4.051   5.525 -0.2275  0.3260 -0.4089
 9195SOL    HW139221   2.868   3.977   5.468 -1.0672 -0.9991  1.6308
 9195SOL    HW239222   2.833   4.037   5.601  0.2485  0.2241 -0.0699
 9196SOL     OW39223   1.471   2.511   0.773 -0.0679  0.0455 -0.0121
 9196SOL    HW139224   1.493   2.485   0.863  1.8520  1.0381 -0.1950
 9196SOL    HW239225   1.527   2.588   0.765  1.0137 -0.6902  0.4034
 9197SOL     OW39226   2.001   2.062   7.273  0.4289  0.0776 -0.4247
 9197SOL    HW139227   2.074   2.024   7.323  1.7095 -0.6717 -2.8984
 9197SOL    HW239228   1.980   2.139   7.326 -1.5241  0.2482 -1.4225
 9198SOL     OW39229   2.388   4.004   2.042 -0.1162  1.0852 -0.0017
 9198SOL    HW139230   2.301   4.023   2.006  0.3326  2.6705 -0.2657
 9198SOL    HW239231   2.425   4.092   2.038  0.8486  0.5687 -2.8239
 9199SOL     OW39232   4.357   3.601   5.846  0.8773 -0.0035  0.0074
 9199SOL    HW139233   4.399   3.629   5.927  0.7590 -0.5197  0.2509
 9199SOL    HW239234   4.374   3.506   5.848  1.0973  0.0544  0.8788
 9200SOL     OW39235   0.262   2.334   9.283  0.4965  0.7220 -0.6583
 9200SOL    HW139236   0.298   2.419   9.258  0.7715  0.0817 -2.4591
 9200SOL    HW239237   0.344   2.300   9.319  0.2134  0.1744 -0.5193
 9201SOL     OW39238   0.801   2.890  14.724  0.0476  0.1477 -0.0367
 9201SOL    HW139239   0.833   2.930  14.643  0.2080 -1.8753 -0.9849
 9201SOL    HW239240   0.734   2.836  14.682 -1.5432  2.3531 -0.3427
 9202SOL     OW39241   0.266   0.867   2.613 -0.0690 -0.1410 -0.8090
 9202SOL    HW139242   0.262   0.829   2.701  1.5780  0.4282 -0.4813
 9202SOL    HW239243   0.362   0.868   2.611 -0.0533  0.0346 -0.0453
 9203SOL     OW39244   4.538   1.693   6.056  0.6450  0.6086  0.1902
 9203SOL    HW139245   4.579   1.654   6.133 -0.0143 -0.8918 -0.2068
 9203SOL    HW239246   4.608   1.752   6.026 -1.1323  1.4277 -2.3936
 9204SOL     OW39247   4.091   1.610   7.337 -0.3222 -0.6669 -0.0219
 9204SOL    HW139248   4.079   1.704   7.349 -0.2670 -0.8121  1.1808
 9204SOL    HW239249   4.019   1.573   7.388 -1.1222 -0.5609 -1.0787
 9205SOL     OW39250   1.952   3.857  10.318  0.0304 -0.1628  0.0807
 9205SOL    HW139251   1.928   3.811  10.398  0.3082 -0.1098  0.1943
 9205SOL    HW239252   1.909   3.793  10.261  0.6251  0.6163 -1.2585
 9206SOL     OW39253   0.240   4.409   3.964 -0.0665  0.0469  0.5111
 9206SOL    HW139254   0.194   4.347   3.908  0.0452 -0.4121  0.9196
 9206SOL    HW239255   0.253   4.489   3.913 -0.7114 -0.0091  0.2704
 9207SOL     OW39256   0.812   4.441   5.668 -0.0485 -0.5428  0.3238
 9207SOL    HW139257   0.731   4.451   5.618  2.2839 -0.7633 -3.4320
 9207SOL    HW239258   0.869   4.423   5.594  1.3974  0.4421  1.1956
 9208SOL     OW39259   0.848   4.593   4.240  0.2540  0.4258 -0.1535
 9208SOL    HW139260   0.753   4.600   4.248  0.2108 -0.8150  0.4291
 9208SOL    HW239261   0.880   4.683   4.241 -0.1174  0.5390  1.0550
 9209SOL     OW39262   2.809   1.816   2.051 -0.6061 -0.1998  0.3059
 9209SOL    HW139263   2.884   1.759   2.064 -0.9078 -0.7317 -0.2785
 9209SOL    HW239264   2.828   1.895   2.102  1.4497  0.1337 -0.9744
 9210SOL     OW39265   3.623   2.084   5.688 -0.7482  0.2905  0.3123
 9210SOL    HW139266   3.582   2.111   5.605 -2.9211 -0.1705  1.2382
 9210SOL    HW239267   3.670   2.008   5.653 -1.6319 -0.5713  0.9847
 9211SOL     OW39268   3.149   3.487   7.529  0.8309  0.1188 -0.3247
 9211SOL    HW139269   3.144   3.523   7.441 -1.0056 -1.6585 -0.9314
 9211SOL    HW239270   3.146   3.391   7.522  1.4621  0.2597 -2.4493
 9212SOL     OW39271   2.077   4.200   4.789 -0.5009  0.3859  0.1106
 9212SOL    HW139272   2.110   4.111   4.794 -0.2285  0.4275 -0.8971
 9212SOL    HW239273   1.984   4.186   4.775 -0.3217 -0.3153 -0.3826
 9213SOL     OW39274   0.527   2.013   3.078 -0.2424 -0.4984 -0.0219
 9213SOL    HW139275   0.529   1.927   3.120 -1.2500  0.0731  1.2141
 9213SOL    HW239276   0.497   1.992   2.989 -0.8842  0.0502  0.0637
 9214SOL     OW39277   2.196   3.696   6.318  0.5629  0.6640  0.3749
 9214SOL    HW139278   2.248   3.733   6.248 -2.7206  3.0039 -0.8097
 9214SOL    HW239279   2.167   3.617   6.272 -0.6519  1.6456 -0.5172
 9215SOL     OW39280   3.442   2.013   2.338 -0.1736  0.0122  0.1802
 9215SOL    HW139281   3.486   1.982   2.417 -1.6035 -1.4088  0.4087
 9215SOL    HW239282   3.512   2.002   2.273 -0.6638 -0.8460 -0.1965
 9216SOL     OW39283   4.551   2.292   2.473 -0.2828 -0.3073 -0.2981
 9216SOL    HW139284   4.504   2.294   2.389  0.6907  0.6044 -0.8208
 9216SOL    HW239285   4.635   2.330   2.448  0.0225 -0.6458  0.2155
 9217SOL     OW39286   0.374   4.181   7.882  0.1870 -0.0976  0.0232
 9217SOL    HW139287   0.352   4.096   7.920  1.6289 -0.7182 -0.5245
 9217SOL    HW239288   0.387   4.147   7.793  1.4150  1.0142 -0.2268
 9218SOL     OW39289   3.411   3.127  16.508  0.2130 -0.0892  0.1648
 9218SOL    HW139290   3.507   3.124  16.501  0.2057 -0.6994  0.2710
 9218SOL    HW239291   3.387   3.180  16.432  0.2174  0.3475  0.4697
 9219SOL     OW39292   2.447   1.818   9.953  0.2532  0.1085  0.0591
 9219SOL    HW139293   2.511   1.863  10.008 -1.2465 -1.3025  2.9979
 9219SOL    HW239294   2.487   1.731   9.963 -0.0441 -0.1409 -0.9255
 9220SOL     OW39295   3.686   3.116   9.636  0.6307  0.5014  0.1496
 9220SOL    HW139296   3.623   3.134   9.706  0.5556  0.6757  0.0339
 9220SOL    HW239297   3.642   3.046   9.587  1.7500 -0.1672  0.0949
 9221SOL     OW39298   1.461   4.578   5.020  0.0095  0.2995 -0.0426
 9221SOL    HW139299   1.383   4.526   4.998 -0.2296  1.0301 -0.9479
 9221SOL    HW239300   1.421   4.663   5.038  1.1514  0.3376  2.3001
 9222SOL     OW39301   4.195   2.758   7.828 -0.6154 -0.1121  0.2005
 9222SOL    HW139302   4.195   2.708   7.910  1.2581 -1.0116 -0.3525
 9222SOL    HW239303   4.144   2.699   7.772 -2.7931 -0.2392  2.3073
 9223SOL     OW39304   2.961   2.345  14.503 -0.0500  0.8252  0.3359
 9223SOL    HW139305   3.009   2.349  14.420 -0.3192  0.3753  0.1594
 9223SOL    HW239306   3.026   2.371  14.569 -0.0463  0.0152  0.6552
 9224SOL     OW39307   3.908   1.519   6.529 -0.3021 -0.1803  0.4091
 9224SOL    HW139308   3.875   1.488   6.613 -2.8953 -0.7557 -0.8149
 9224SOL    HW239309   3.853   1.477   6.463 -0.9926 -1.3404  1.7427
 9225SOL     OW39310   4.617   2.035   3.765 -0.4400  0.0058 -0.0647
 9225SOL    HW139311   4.522   2.025   3.762 -0.4786 -0.6038  3.0046
 9225SOL    HW239312   4.629   2.120   3.808 -0.5672  0.4398 -0.9043
 9226SOL     OW39313   3.384   3.567   8.860  0.4413 -0.7234 -0.4787
 9226SOL    HW139314   3.347   3.549   8.773 -0.8900 -0.5172  0.0455
 9226SOL    HW239315   3.474   3.577   8.828  0.2363 -0.0634 -0.8612
 9227SOL     OW39316   3.286   2.774   6.648  0.7587 -0.2222  0.2193
 9227SOL    HW139317   3.346   2.786   6.722 -0.2970 -1.9940  1.3572
 9227SOL    HW239318   3.349   2.786   6.577  0.3275 -2.7713 -0.6117
 9228SOL     OW39319   2.522   2.752  15.624  0.2508 -0.0419 -0.1653
 9228SOL    HW139320   2.505   2.846  15.636 -0.0307  0.0476 -1.2200
 9228SOL    HW239321   2.510   2.742  15.529 -0.6368  1.6492 -0.2518
 9229SOL     OW39322   1.788   1.766   7.516 -0.7781  0.2139  0.7151
 9229SOL    HW139323   1.753   1.763   7.605 -1.6815  2.8971  0.4341
 9229SOL    HW239324   1.745   1.847   7.488  0.9901  1.4886  1.6615
 9230SOL     OW39325   3.684   2.789   7.565 -0.6632  0.2981 -0.1545
 9230SOL    HW139326   3.773   2.776   7.533 -0.3999 -1.1334  1.1493
 9230SOL    HW239327   3.642   2.704   7.554 -2.4351  0.8112  2.8256
 9231SOL     OW39328   0.191   3.000   9.477 -0.3440  0.2512  0.6484
 9231SOL    HW139329   0.207   3.093   9.492 -2.3477  0.4837  1.4092
 9231SOL    HW239330   0.196   2.961   9.564 -2.1204 -0.8237  0.2747
 9232SOL     OW39331   0.462   1.842   2.306  0.5451  0.1743  0.5213
 9232SOL    HW139332   0.537   1.856   2.364  0.3986 -2.3182  1.3025
 9232SOL    HW239333   0.485   1.759   2.264 -2.4137 -1.2419  1.6884
 9233SOL     OW39334   3.803   2.431   5.569  0.0095 -0.7539  0.1558
 9233SOL    HW139335   3.711   2.453   5.586  0.3319  0.1819  0.6889
 9233SOL    HW239336   3.825   2.394   5.655 -3.8862  2.3473  2.4863
 9234SOL     OW39337   3.761   2.919   7.275  0.6850  0.0854 -0.1868
 9234SOL    HW139338   3.712   2.856   7.222  0.7736 -1.0658  1.1280
 9234SOL    HW239339   3.844   2.873   7.275  1.1899  0.9888 -0.9141
 9235SOL     OW39340   1.791   3.937   9.394  0.8020 -0.0790 -0.1866
 9235SOL    HW139341   1.886   3.940   9.383  0.5691  1.2805 -1.7189
 9235SOL    HW239342   1.776   4.025   9.426 -0.0752 -0.4450  0.4136
 9236SOL     OW39343   1.761   2.456  13.026  0.4564 -0.5534  0.0519
 9236SOL    HW139344   1.787   2.527  12.967  1.5536  0.4054  1.6801
 9236SOL    HW239345   1.847   2.435  13.062  1.0641  0.2270 -0.9510
 9237SOL     OW39346   2.977   0.177   7.869 -0.1822  0.1705 -0.1823
 9237SOL    HW139347   3.039   0.135   7.929 -1.8491 -1.1328  0.6166
 9237SOL    HW239348   2.923   0.099   7.861 -0.9595  0.4571  2.4694
 9238SOL     OW39349   4.013   1.704   9.766 -0.1566  0.1290 -0.2346
 9238SOL    HW139350   4.104   1.733   9.776 -0.3179  0.1283  1.2182
 9238SOL    HW239351   3.990   1.743   9.682 -0.0392  1.5683  0.4013
 9239SOL     OW39352   0.004   4.720  10.243 -0.3174  0.3684 -0.5487
 9239SOL    HW139353   0.037   0.030  10.170  2.3026 -1.3867 -0.6138
 9239SOL    HW239354   0.058   0.007  10.316 -1.0976 -0.6164  0.4285
 9240SOL     OW39355   1.995   1.397   5.075 -0.2178  0.1213  0.7396
 9240SOL    HW139356   1.938   1.345   5.132 -0.0648  0.1166  0.8889
 9240SOL    HW239357   1.974   1.368   4.986 -2.4773 -0.8672  1.5864
 9241SOL     OW39358   0.803   2.622   5.880 -0.3102  1.0497  0.0038
 9241SOL    HW139359   0.733   2.681   5.853 -0.8794  0.6477  0.5964
 9241SOL    HW239360   0.877   2.665   5.837 -0.6745 -0.6628 -2.3624
 9242SOL     OW39361   2.126   1.680  13.443 -1.4048 -0.2881  0.2147
 9242SOL    HW139362   2.190   1.618  13.478 -0.6118  0.6871  0.5069
 9242SOL    HW239363   2.053   1.644  13.492 -1.0887 -0.1665  0.7731
 9243SOL     OW39364   0.205   0.539  15.439 -0.2017  0.0316  0.1959
 9243SOL    HW139365   0.179   0.518  15.349 -1.6933  3.2060 -0.0848
 9243SOL    HW239366   0.120   0.510  15.472 -0.2969  1.8743  1.5208
 9244SOL     OW39367   2.796   1.297  14.144  0.2902  0.2486  0.7527
 9244SOL    HW139368   2.721   1.290  14.085 -0.1955 -1.0611  1.5302
 9244SOL    HW239369   2.832   1.209  14.153  0.9478  0.3024 -1.4912
 9245SOL     OW39370   1.264   0.648   2.604  0.1553 -0.2365 -0.1665
 9245SOL    HW139371   1.239   0.740   2.608 -0.2053 -0.3809  1.2331
 9245SOL    HW239372   1.312   0.638   2.522  0.3260 -0.3194 -0.0563
 9246SOL     OW39373   0.025   1.757   9.637 -0.2136  0.2447 -0.3448
 9246SOL    HW139374   0.090   1.823   9.661 -2.5585  1.4881  2.5371
 9246SOL    HW239375   4.683   1.799   9.620 -0.2005  0.1084 -0.7503
 9247SOL     OW39376   2.260   2.030   8.013 -0.0406  0.0938 -0.4258
 9247SOL    HW139377   2.212   2.059   8.091 -1.7908 -1.7350 -0.8079
 9247SOL    HW239378   2.327   1.976   8.054 -0.1205  0.2497 -0.0853
 9248SOL     OW39379   3.360   4.415   5.305 -0.3686 -0.4652 -0.1749
 9248SOL    HW139380   3.330   4.374   5.224 -0.3296 -1.4933  0.3223
 9248SOL    HW239381   3.444   4.370   5.315 -1.0095 -0.9019  3.3367
 9249SOL     OW39382   2.259   1.554  10.002 -0.2551 -0.0256  0.0706
 9249SOL    HW139383   2.352   1.549   9.981 -0.2405  1.1998 -0.1678
 9249SOL    HW239384   2.276   1.562  10.096 -1.6176 -0.0243  0.3113
 9250SOL     OW39385   1.207   4.015   2.549 -0.0201 -0.2375  0.1930
 9250SOL    HW139386   1.129   4.067   2.569 -1.2968 -2.1656  0.2236
 9250SOL    HW239387   1.170   3.935   2.513  1.8812 -0.0895 -2.0929
 9251SOL     OW39388   2.257   1.637  17.278  0.4052  0.1828 -0.8831
 9251SOL    HW139389   2.218   1.608  17.196 -0.1778  1.6423 -1.1224
 9251SOL    HW239390   2.255   1.733  17.270 -2.2859  0.1776 -0.1921
 9252SOL     OW39391   1.825   0.903   1.986  0.0485 -0.0797 -0.3292
 9252SOL    HW139392   1.908   0.914   1.941 -0.2558 -1.1604 -1.1420
 9252SOL    HW239393   1.799   0.995   2.000  1.3289  0.2192  0.0440
 9253SOL     OW39394   1.428   2.833   8.188 -0.2139 -0.0177  0.8533
 9253SOL    HW139395   1.486   2.787   8.248  1.1603  1.0723  0.3551
 9253SOL    HW239396   1.362   2.772   8.155  1.2477 -0.9751 -0.2490
 9254SOL     OW39397   0.464   1.226   4.273  0.6449  0.2231  0.0621
 9254SOL    HW139398   0.484   1.282   4.198 -2.6110  0.9339 -0.2852
 9254SOL    HW239399   0.444   1.146   4.223  0.0820 -0.4815  1.4191
 9255SOL     OW39400   4.355   3.184   5.140 -0.3506 -0.1597 -0.2804
 9255SOL    HW139401   4.432   3.179   5.084  0.2116  0.8298  0.3951
 9255SOL    HW239402   4.325   3.093   5.131  0.6825 -0.5822  0.6021
 9256SOL     OW39403   3.862   1.618   2.622  0.2892  0.5880 -0.1633
 9256SOL    HW139404   3.898   1.693   2.671 -1.1436 -0.2519  2.1996
 9256SOL    HW239405   3.787   1.602   2.679  0.6382 -0.0761  0.1021
 9257SOL     OW39406   0.808   1.563   9.267  0.6749  0.1823 -0.3019
 9257SOL    HW139407   0.880   1.544   9.208 -0.4516  0.8212 -1.8831
 9257SOL    HW239408   0.791   1.655   9.247 -3.1466 -0.0882  1.6964
 9258SOL     OW39409   2.275   3.169   2.668  0.3280  0.3231 -0.0864
 9258SOL    HW139410   2.334   3.119   2.611  1.9042  3.1731 -0.9346
 9258SOL    HW239411   2.235   3.095   2.714  1.8349 -0.8918 -0.6979
 9259SOL     OW39412   4.427   3.199  10.589 -0.2545 -0.7595  0.4214
 9259SOL    HW139413   4.492   3.151  10.640 -0.3253 -1.2880  0.0136
 9259SOL    HW239414   4.469   3.211  10.504  0.5799 -0.2502  0.9053
 9260SOL     OW39415   3.498   1.564  11.434 -0.6359  0.5927  0.6707
 9260SOL    HW139416   3.544   1.555  11.518 -0.0073  1.5417  0.4314
 9260SOL    HW239417   3.495   1.472  11.408  1.1776  0.1694  1.9253
 9261SOL     OW39418   3.836   1.596   2.942 -0.9841 -0.3142 -0.4395
 9261SOL    HW139419   3.911   1.611   3.000 -1.6486 -3.9708  1.3383
 9261SOL    HW239420   3.792   1.681   2.947  0.1481  0.3277 -1.4121
 9262SOL     OW39421   4.615   4.691   6.898  0.1663  0.2558  0.4160
 9262SOL    HW139422   4.676   4.667   6.968 -0.0754 -0.5370  0.3566
 9262SOL    HW239423   4.610   0.043   6.903  0.2311  0.2507  0.6031
 9263SOL     OW39424   2.837   1.502   7.238 -0.2580 -0.0203  0.0209
 9263SOL    HW139425   2.931   1.484   7.231  0.2030  1.9718  0.8486
 9263SOL    HW239426   2.800   1.415   7.225 -0.4743  0.0056  0.4886
 9264SOL     OW39427   4.142   4.119   3.224 -0.3887  0.6096 -0.0569
 9264SOL    HW139428   4.133   4.212   3.203 -2.0438  1.0094  2.3417
 9264SOL    HW239429   4.050   4.092   3.234 -0.7614  1.8092 -0.2789
 9265SOL     OW39430   2.395   0.792   5.446  0.1727  0.2082  0.0873
 9265SOL    HW139431   2.308   0.811   5.478  0.6306 -0.6610  1.8537
 9265SOL    HW239432   2.434   0.875   5.473  2.1665 -0.4518 -0.7499
 9266SOL     OW39433   4.159   4.076  16.484 -0.3462 -0.2651  0.1279
 9266SOL    HW139434   4.139   4.033  16.401 -0.3252 -0.5106  0.2506
 9266SOL    HW239435   4.069   4.088  16.515  0.2689  1.8846  1.0623
 9267SOL     OW39436   3.399   1.700   6.008  0.4377 -0.7122  0.1297
 9267SOL    HW139437   3.394   1.675   6.100 -2.4052 -1.1915 -0.1525
 9267SOL    HW239438   3.337   1.774   6.005 -0.1366 -1.2808 -2.0047
 9268SOL     OW39439   4.089   1.149  14.628 -0.2554 -0.8098  0.3521
 9268SOL    HW139440   4.044   1.079  14.676 -0.8651 -0.0637  0.8773
 9268SOL    HW239441   4.026   1.168  14.558 -0.4242  0.1310  0.7672
 9269SOL     OW39442   1.584   0.155   3.155 -0.0610 -0.0722 -0.0612
 9269SOL    HW139443   1.662   0.206   3.135 -0.7218  0.2142 -1.8516
 9269SOL    HW239444   1.623   0.068   3.144 -1.4047 -0.8440  1.2235
 9270SOL     OW39445   1.182   0.757   6.156 -0.4102  0.3403 -0.4449
 9270SOL    HW139446   1.240   0.818   6.201 -0.0788 -0.5091  0.2667
 9270SOL    HW239447   1.237   0.679   6.164 -1.4866 -0.2790  0.7972
 9271SOL     OW39448   4.540   4.195   2.159 -0.2353 -0.1198  0.3540
 9271SOL    HW139449   4.493   4.113   2.151 -1.2164  0.4371  0.4667
 9271SOL    HW239450   4.484   4.251   2.212  0.2566 -0.1734  0.9331
 9272SOL     OW39451   3.797   4.539   8.727  0.4630  0.2651 -0.1821
 9272SOL    HW139452   3.846   4.470   8.682  0.0258 -0.1261 -0.0726
 9272SOL    HW239453   3.729   4.477   8.755  0.6412  1.0270  1.9491
 9273SOL     OW39454   3.034   4.551   6.465 -0.4470 -0.0351  0.4762
 9273SOL    HW139455   2.981   4.477   6.495 -1.9474  1.3301  1.1739
 9273SOL    HW239456   2.973   4.625   6.465 -0.3319  0.0597  0.7936
 9274SOL     OW39457   4.444   4.314   3.270 -0.1543 -0.2698 -0.1012
 9274SOL    HW139458   4.491   4.387   3.229 -0.4377 -0.4383 -0.7201
 9274SOL    HW239459   4.362   4.349   3.305  0.9311  2.4147 -0.2446
 9275SOL     OW39460   2.568   1.364  16.995 -0.4053 -0.6856  0.2950
 9275SOL    HW139461   2.581   1.344  16.902  1.9432 -2.9432  1.1102
 9275SOL    HW239462   2.477   1.393  16.995 -0.0307  0.4788  0.3928
 9276SOL     OW39463   0.822   3.638  14.079 -0.2708 -0.6146 -0.2366
 9276SOL    HW139464   0.865   3.555  14.063 -1.4682 -1.5106  1.1757
 9276SOL    HW239465   0.764   3.651  14.004  0.5217 -0.4976 -0.8262
 9277SOL     OW39466   2.037   1.695   6.229  0.6100  0.4709 -0.6465
 9277SOL    HW139467   2.078   1.737   6.305 -1.2875 -2.4685  1.9973
 9277SOL    HW239468   1.976   1.766   6.206  0.8322  0.4332 -1.3257
 9278SOL     OW39469   2.183   2.733   9.176 -0.2513  0.2534 -0.7426
 9278SOL    HW139470   2.087   2.733   9.169 -0.3645  0.7224  0.8758
 9278SOL    HW239471   2.203   2.750   9.084 -1.7602 -0.1805 -1.1577
 9279SOL     OW39472   0.871   0.860   9.345  0.0890  0.3062 -0.2644
 9279SOL    HW139473   0.965   0.874   9.359 -0.2591  2.7906 -0.3457
 9279SOL    HW239474   0.834   0.898   9.424 -0.5421 -1.0496  0.0792
 9280SOL     OW39475   3.427   1.794   3.646  0.0282 -0.7742  0.3144
 9280SOL    HW139476   3.494   1.735   3.612  0.0073 -0.2394 -0.6735
 9280SOL    HW239477   3.476   1.833   3.717  0.7530 -3.0132  1.0421
 9281SOL     OW39478   1.288   1.286   3.650 -0.3309 -0.7136 -0.0422
 9281SOL    HW139479   1.286   1.283   3.554  5.5087 -0.2945 -0.1310
 9281SOL    HW239480   1.241   1.205   3.667 -0.7451  0.2555  3.4342
 9282SOL     OW39481   1.850   3.707   6.441  0.3639  0.1379  0.2466
 9282SOL    HW139482   1.851   3.749   6.355 -2.1714  1.2528  0.7544
 9282SOL    HW239483   1.779   3.760   6.478 -2.6114 -2.5288 -1.7037
 9283SOL     OW39484   1.210   1.155   4.726 -0.2165 -0.4149 -0.1905
 9283SOL    HW139485   1.185   1.117   4.811  0.7535  1.7481  1.0673
 9283SOL    HW239486   1.305   1.152   4.731 -0.2726 -1.1304  0.5527
 9284SOL     OW39487   0.803   4.449   6.272  0.5348 -0.5060  0.2193
 9284SOL    HW139488   0.830   4.538   6.293 -0.8329 -0.1398  0.4624
 9284SOL    HW239489   0.887   4.421   6.237 -0.2270 -0.8025 -1.3526
 9285SOL     OW39490   2.184   0.888   6.664  0.0982  0.0270 -0.0515
 9285SOL    HW139491   2.129   0.966   6.672 -0.3681 -0.2968 -0.1000
 9285SOL    HW239492   2.128   0.836   6.606 -0.7534  2.7263 -1.6546
 9286SOL     OW39493   4.157   4.360   2.678  0.0172 -0.3070  0.0431
 9286SOL    HW139494   4.176   4.270   2.704  2.5439 -0.0392 -0.9104
 9286SOL    HW239495   4.070   4.373   2.718  0.2056  0.2313  0.2828
 9287SOL     OW39496   2.581   2.767   9.599  0.1355 -0.3425  0.5208
 9287SOL    HW139497   2.654   2.804   9.649  0.8777 -0.3683 -0.5547
 9287SOL    HW239498   2.533   2.720   9.667 -0.4424 -0.0581  0.3151
 9288SOL     OW39499   2.163   1.717   2.953  0.2034  0.2342  0.9856
 9288SOL    HW139500   2.124   1.731   2.866  0.0144  1.3095  1.2442
 9288SOL    HW239501   2.244   1.767   2.950 -0.0372  0.5227 -0.7143
 9289SOL     OW39502   0.142   0.531   3.858 -0.1840 -0.3102 -0.8220
 9289SOL    HW139503   0.162   0.534   3.764 -0.1536  0.6465 -0.7928
 9289SOL    HW239504   0.060   0.482   3.850 -0.7755  0.5422  0.0364
 9290SOL     OW39505   4.574   0.855   4.741 -0.4551 -0.5860  0.2181
 9290SOL    HW139506   4.639   0.851   4.811 -1.4511  1.2402  1.2448
 9290SOL    HW239507   4.610   0.923   4.684 -0.5382 -1.4540 -0.8786
 9291SOL     OW39508   3.974   2.306  10.963  1.2623 -0.1141  0.0931
 9291SOL    HW139509   3.918   2.234  10.991  4.0646 -2.0191  0.8241
 9291SOL    HW239510   3.951   2.329  10.873 -1.5026 -1.7295  0.4212
 9292SOL     OW39511   3.996   0.454  12.639 -0.0868 -0.0338 -0.1982
 9292SOL    HW139512   4.011   0.479  12.730  1.8452 -2.1891  0.0897
 9292SOL    HW239513   4.046   0.499  12.571 -0.6286  1.1818  0.2079
 9293SOL     OW39514   1.594   1.594   8.414 -0.0012 -0.3380  0.2807
 9293SOL    HW139515   1.615   1.502   8.396  0.6401 -0.0184 -0.6257
 9293SOL    HW239516   1.628   1.635   8.334 -0.7107 -0.8488 -0.2814
 9294SOL     OW39517   4.068   3.112   6.062 -0.2706 -0.2265  0.3475
 9294SOL    HW139518   4.161   3.091   6.053 -0.5473 -1.0206 -0.7182
 9294SOL    HW239519   4.035   3.086   5.976 -0.8424 -0.7690  0.7324
 9295SOL     OW39520   1.291   3.963   6.237 -0.4573  0.6765 -0.4698
 9295SOL    HW139521   1.346   3.886   6.225 -1.0059  0.2721 -0.3712
 9295SOL    HW239522   1.215   3.937   6.185 -0.1766  1.0204 -1.0483
 9296SOL     OW39523   1.025   1.346   8.573 -0.4025  0.1250  0.2535
 9296SOL    HW139524   1.037   1.402   8.649  0.6815 -1.6717  1.3806
 9296SOL    HW239525   0.930   1.351   8.560 -0.5829 -0.2181  1.4953
 9297SOL     OW39526   4.330   0.409  15.376 -0.2675  0.1868 -0.4081
 9297SOL    HW139527   4.406   0.442  15.327 -0.1032  0.1579 -0.1732
 9297SOL    HW239528   4.284   0.358  15.309  0.9176 -0.5237 -0.6844
 9298SOL     OW39529   3.627   3.446   5.442  0.0205  0.0875 -0.1482
 9298SOL    HW139530   3.659   3.505   5.511  3.9113  0.1425 -1.9829
 9298SOL    HW239531   3.645   3.355   5.466  0.6589  0.1153 -0.5054
 9299SOL     OW39532   0.307   2.690   8.535  0.0995 -0.1553 -0.0185
 9299SOL    HW139533   0.361   2.685   8.615  1.3917  1.6207 -0.7860
 9299SOL    HW239534   0.307   2.785   8.525  2.5897 -0.0365  1.1000
 9300SOL     OW39535   3.024   4.429   2.332 -0.2594 -0.7007 -0.6349
 9300SOL    HW139536   3.096   4.373   2.302  2.0069  2.4616 -1.1460
 9300SOL    HW239537   2.962   4.406   2.263 -0.8006 -2.0401  0.3000
 9301SOL     OW39538   2.381   4.353   0.337  0.2478  0.4512  0.1742
 9301SOL    HW139539   2.318   4.357   0.264  2.0371  1.6913 -1.3110
 9301SOL    HW239540   2.462   4.327   0.292 -0.1869 -1.3107  0.4144
 9302SOL     OW39541   0.545   0.605   8.471 -0.1922  0.2841  0.1122
 9302SOL    HW139542   0.629   0.610   8.424 -0.0606 -1.0074  0.2082
 9302SOL    HW239543   0.495   0.548   8.412 -1.3192  2.9268 -1.4670
 9303SOL     OW39544   2.032   2.129  11.302 -0.0280 -0.3270 -0.7589
 9303SOL    HW139545   1.985   2.074  11.364 -0.9155  2.0350  0.6777
 9303SOL    HW239546   2.105   2.074  11.274  1.6297  0.5741  1.7644
 9304SOL     OW39547   1.363   4.254  13.385  0.5011  1.0891 -0.1378
 9304SOL    HW139548   1.418   4.324  13.350 -0.0372  1.2613 -0.6363
 9304SOL    HW239549   1.308   4.226  13.311 -0.5196  1.7684  0.3611
 9305SOL     OW39550   0.189   3.371  13.260  0.2233  0.6506  0.2276
 9305SOL    HW139551   0.170   3.433  13.330 -0.6557 -0.2033  0.7494
 9305SOL    HW239552   0.257   3.417  13.211 -1.2951  1.1432 -1.4317
 9306SOL     OW39553   4.412   4.116   5.570  0.5421  0.3377 -0.7154
 9306SOL    HW139554   4.485   4.175   5.589 -0.3818  1.4291 -0.5167
 9306SOL    HW239555   4.407   4.075   5.656 -1.6931  2.2630  0.1033
 9307SOL     OW39556   3.914   0.900   4.112 -0.1476  0.4670  0.0785
 9307SOL    HW139557   4.003   0.934   4.114  0.2919 -0.6787 -0.1350
 9307SOL    HW239558   3.868   0.957   4.051  2.6299  0.1928 -2.2580
 9308SOL     OW39559   1.718   1.702   8.999  0.3913  0.5476  0.2566
 9308SOL    HW139560   1.813   1.709   9.006  0.4980 -0.8624  0.1124
 9308SOL    HW239561   1.716   1.644   8.922 -0.9318  1.4030 -0.3636
 9309SOL     OW39562   2.453   0.207  14.951 -0.2912  0.9769  0.5304
 9309SOL    HW139563   2.445   0.202  15.046  0.2145  2.2942  0.6435
 9309SOL    HW239564   2.521   0.274  14.943 -0.4742  1.0960 -0.0662
 9310SOL     OW39565   3.167   0.541   0.245  0.2023 -0.3692  0.0886
 9310SOL    HW139566   3.224   0.471   0.213  0.3276  0.6221 -1.8066
 9310SOL    HW239567   3.202   0.546   0.334 -2.6289  3.1438  0.9945
 9311SOL     OW39568   2.887   0.189   8.549 -0.4279 -0.3585 -0.3477
 9311SOL    HW139569   2.815   0.224   8.600  0.3460 -0.8186  1.0499
 9311SOL    HW239570   2.925   0.267   8.509 -0.9204 -0.9543 -1.9743
 9312SOL     OW39571   4.559   3.254   2.143 -0.0735 -0.2662 -0.1963
 9312SOL    HW139572   4.513   3.216   2.068 -0.1594 -0.0400 -0.2570
 9312SOL    HW239573   4.498   3.315   2.185  0.1898 -2.9913  4.1787
 9313SOL     OW39574   0.801   4.577   2.572 -0.3084  0.5110  0.0470
 9313SOL    HW139575   0.826   4.562   2.481  1.6826  1.4132  0.4530
 9313SOL    HW239576   0.861   4.514   2.612 -1.7785 -0.6264  0.4843
 9314SOL     OW39577   0.043   0.579   4.704  0.1927 -0.4895  0.1534
 9314SOL    HW139578   4.700   0.554   4.737 -0.9109  2.2965 -0.6332
 9314SOL    HW239579   0.027   0.587   4.610  0.1800 -1.8234  0.0345
 9315SOL     OW39580   1.464   0.791   6.895 -0.3090 -0.5829 -0.0972
 9315SOL    HW139581   1.459   0.775   6.989  2.0973 -0.1165  0.1085
 9315SOL    HW239582   1.437   0.703   6.870 -1.2449 -0.2901 -0.1174
 9316SOL     OW39583   3.671   2.249   6.268  0.3932 -0.1157 -0.3295
 9316SOL    HW139584   3.704   2.186   6.204 -0.5614 -2.6371  1.6706
 9316SOL    HW239585   3.612   2.191   6.316 -0.8345  1.9706  0.6837
 9317SOL     OW39586   0.870   2.981   2.730  0.2204 -0.3883 -0.7250
 9317SOL    HW139587   0.808   3.008   2.798 -0.8484  0.6686 -2.1214
 9317SOL    HW239588   0.949   2.962   2.781  0.7270  2.2443 -0.5296
 9318SOL     OW39589   1.766   2.463   4.783 -0.7005  0.3199  0.2707
 9318SOL    HW139590   1.731   2.440   4.869  0.7028 -1.3086  0.4119
 9318SOL    HW239591   1.759   2.378   4.741  0.8615 -0.2546  1.1706
 9319SOL     OW39592   0.261   1.925   6.818 -0.5142  0.0058  0.3339
 9319SOL    HW139593   0.284   1.856   6.879  0.9605 -0.0913 -0.3061
 9319SOL    HW239594   0.182   1.971   6.846 -1.2221 -0.3757 -1.0210
 9320SOL     OW39595   2.448   2.952   5.212  0.2411 -0.3090 -0.0128
 9320SOL    HW139596   2.511   2.888   5.245 -0.1658  0.0917  1.5482
 9320SOL    HW239597   2.371   2.922   5.260 -0.9573  0.6705 -1.3329
 9321SOL     OW39598   4.509   2.287   9.843  0.4781  0.3558 -0.0287
 9321SOL    HW139599   4.521   2.267   9.750 -0.6921 -0.4373 -0.0058
 9321SOL    HW239600   4.597   2.321   9.861  0.6881  1.0450 -2.3925
 9322SOL     OW39601   1.532   0.290  11.876 -0.4392 -0.8497  0.1968
 9322SOL    HW139602   1.533   0.307  11.970 -0.3841 -0.5688  0.1444
 9322SOL    HW239603   1.577   0.363  11.835 -0.4772 -0.9718 -0.0645
 9323SOL     OW39604   2.884   4.131   8.655 -0.1292 -0.2521  0.2234
 9323SOL    HW139605   2.974   4.163   8.664  0.7107 -2.3726 -0.6264
 9323SOL    HW239606   2.844   4.166   8.576  0.3860 -2.6878 -1.1119
 9324SOL     OW39607   0.132   2.369  15.251 -0.3187  0.1462 -0.4339
 9324SOL    HW139608   0.207   2.428  15.256  0.4683 -0.9051  0.4343
 9324SOL    HW239609   0.105   2.365  15.343  0.5137  0.6593 -0.1628
 9325SOL     OW39610   4.616   0.211  11.940  0.3719 -0.2384  0.0728
 9325SOL    HW139611   4.566   0.221  11.859  2.3681 -0.3742 -1.1884
 9325SOL    HW239612   4.697   0.173  11.906 -0.6005  0.1481 -2.6977
 9326SOL     OW39613   2.548   1.034   7.183  0.1967 -0.2824 -0.0580
 9326SOL    HW139614   2.459   1.015   7.212 -0.0121  1.9405  0.7096
 9326SOL    HW239615   2.590   1.019   7.267 -1.0883 -0.5943  0.5217
 9327SOL     OW39616   1.673   2.508   6.012  0.7867 -0.1841 -0.6479
 9327SOL    HW139617   1.584   2.473   6.019  0.1943  1.5442  0.5152
 9327SOL    HW239618   1.670   2.598   6.046  1.2164 -0.3854 -0.0870
 9328SOL     OW39619   4.487   0.859   3.072  0.3236 -0.5572  0.2436
 9328SOL    HW139620   4.395   0.839   3.055  0.0679  0.1380  0.8328
 9328SOL    HW239621   4.505   0.896   2.986  3.9030 -3.1171 -0.1070
 9329SOL     OW39622   1.347   0.919   3.739 -0.2386  0.2193  0.5615
 9329SOL    HW139623   1.370   0.827   3.738 -1.1824 -0.0193  0.5967
 9329SOL    HW239624   1.423   0.960   3.696  0.3659 -2.6623 -1.0919
 9330SOL     OW39625   4.302   4.059   6.120  0.1424  0.3863 -0.3034
 9330SOL    HW139626   4.254   4.118   6.062  1.1977  0.5080 -1.0494
 9330SOL    HW239627   4.350   4.010   6.054  0.1336  0.4416 -0.3509
 9331SOL     OW39628   4.454   3.606   0.806  0.0391 -0.7224  0.1189
 9331SOL    HW139629   4.416   3.561   0.730  0.9069  0.0032 -0.7443
 9331SOL    HW239630   4.511   3.546   0.853  0.7046 -0.7132 -0.6781
 9332SOL     OW39631   1.120   3.673   6.001 -0.5562  0.6505  0.3618
 9332SOL    HW139632   1.084   3.594   5.961 -0.3563  0.7622 -0.0419
 9332SOL    HW239633   1.045   3.732   5.994  0.5324  2.1267  0.9560
 9333SOL     OW39634   3.320   3.677   7.337  0.3551 -0.3437  0.4160
 9333SOL    HW139635   3.266   3.710   7.266  1.8230  1.7432  0.2947
 9333SOL    HW239636   3.314   3.581   7.339  0.1464 -0.3668 -1.2202
 9334SOL     OW39637   2.002   1.902   4.421  0.2685 -0.1565  0.1009
 9334SOL    HW139638   1.938   1.861   4.479 -0.4029  1.5094  0.5433
 9334SOL    HW239639   2.081   1.850   4.437 -1.8634 -2.9932  1.4092
 9335SOL     OW39640   3.473   1.401  10.205  0.4211  0.3392  0.2479
 9335SOL    HW139641   3.466   1.406  10.110  2.2801 -0.6285  0.0548
 9335SOL    HW239642   3.379   1.402  10.221  0.2483 -0.8067 -0.7074
 9336SOL     OW39643   1.774   0.308   0.866 -0.3697  0.0631 -0.0943
 9336SOL    HW139644   1.733   0.262   0.793  0.0762 -2.2560  1.1089
 9336SOL    HW239645   1.848   0.249   0.883  0.2413  0.9608  0.3382
 9337SOL     OW39646   1.848   1.523  13.367  0.3062  0.3756  0.2949
 9337SOL    HW139647   1.765   1.542  13.410  0.3432 -0.5083  0.7622
 9337SOL    HW239648   1.861   1.616  13.348 -0.3952  0.5914  0.8781
 9338SOL     OW39649   4.044   2.529   8.862  0.2167 -0.5071 -0.0885
 9338SOL    HW139650   4.025   2.514   8.955  1.7072 -0.9109  0.1504
 9338SOL    HW239651   4.113   2.595   8.856 -0.6397  0.5074  1.3103
 9339SOL     OW39652   3.094   0.000   4.018 -0.0408  0.0511  0.5510
 9339SOL    HW139653   3.075   4.703   4.103  0.7260  0.3945  0.8831
 9339SOL    HW239654   3.173   4.698   3.988 -0.1298  0.7436 -0.7401
 9340SOL     OW39655   3.158   1.616  17.177  0.1036  0.0406 -0.7976
 9340SOL    HW139656   3.194   1.647  17.094  1.9841 -2.0835 -0.7643
 9340SOL    HW239657   3.237   1.578  17.215 -1.8324 -3.1342  0.0474
 9341SOL     OW39658   0.470   4.365   1.887  0.4411 -0.0422  0.3084
 9341SOL    HW139659   0.513   4.427   1.946 -0.2100  0.3219  0.3932
 9341SOL    HW239660   0.396   4.416   1.856 -0.8733 -1.3407  1.2970
 9342SOL     OW39661   0.648   1.979   8.529 -0.2481  0.0598 -0.1505
 9342SOL    HW139662   0.588   1.973   8.455 -2.1079  1.1106  1.2836
 9342SOL    HW239663   0.630   1.898   8.577  1.4764  0.8658  1.8641
 9343SOL     OW39664   0.533   3.862  11.840 -0.0854 -0.1445 -0.2837
 9343SOL    HW139665   0.443   3.841  11.864 -0.5618 -0.6552 -2.4914
 9343SOL    HW239666   0.572   3.882  11.925 -0.6603 -0.3068  0.0173
 9344SOL     OW39667   0.123   3.467   8.322 -0.2645  0.2165 -0.0804
 9344SOL    HW139668   0.062   3.488   8.251 -0.3217 -0.7622 -0.3279
 9344SOL    HW239669   0.067   3.417   8.381 -1.1515 -0.2449 -1.3072
 9345SOL     OW39670   1.807   1.505   0.822 -0.1095 -0.0984  0.7241
 9345SOL    HW139671   1.829   1.597   0.807  2.7437 -1.0549 -1.0564
 9345SOL    HW239672   1.763   1.509   0.907 -3.3494 -0.7614 -0.9066
 9346SOL     OW39673   3.764   0.689   5.034 -0.0150 -0.3144  0.3023
 9346SOL    HW139674   3.696   0.658   5.094 -0.8324 -0.2545 -0.6046
 9346SOL    HW239675   3.729   0.769   4.996 -2.6464 -1.0623  1.1673
 9347SOL     OW39676   1.347   0.467   1.133  0.0392 -0.1535  0.1396
 9347SOL    HW139677   1.376   0.385   1.091 -0.1930 -0.7478  1.1335
 9347SOL    HW239678   1.349   0.452   1.227  1.7761  0.6293  0.2344
 9348SOL     OW39679   3.657   3.388   9.233 -0.2215  0.0581  0.1585
 9348SOL    HW139680   3.582   3.371   9.290 -0.3443 -0.5517 -0.1879
 9348SOL    HW239681   3.622   3.459   9.180 -1.4605 -0.8230 -0.1860
 9349SOL     OW39682   2.148   1.033  11.029  0.3848  0.4743  0.6978
 9349SOL    HW139683   2.237   1.005  11.009 -0.7774 -1.5943 -1.6501
 9349SOL    HW239684   2.159   1.127  11.021  0.3113  0.2660 -1.8898
 9350SOL     OW39685   3.550   0.522   2.512  0.0114 -0.6705  0.2625
 9350SOL    HW139686   3.556   0.487   2.600 -1.1803  3.0528  1.8293
 9350SOL    HW239687   3.456   0.513   2.498  0.2935 -1.6019 -1.0545
 9351SOL     OW39688   1.619   3.103   5.439 -0.2913  0.0277  0.5421
 9351SOL    HW139689   1.533   3.131   5.469  0.2213  2.5493 -0.3144
 9351SOL    HW239690   1.590   3.036   5.378  1.0762 -0.4451  0.4003
 9352SOL     OW39691   2.189   0.851   3.566 -0.0227  0.0469 -0.3297
 9352SOL    HW139692   2.266   0.892   3.526  0.0827  1.4378  1.3070
 9352SOL    HW239693   2.218   0.797   3.640 -1.6594  0.6743  0.7617
 9353SOL     OW39694   1.373   2.977   2.503 -0.3376 -0.0896 -0.1216
 9353SOL    HW139695   1.381   3.046   2.437 -0.4915 -1.1463 -1.2445
 9353SOL    HW239696   1.409   3.022   2.580 -0.2208  3.2531 -2.1374
 9354SOL     OW39697   2.920   1.742   9.760 -0.3513 -0.3364  0.1720
 9354SOL    HW139698   2.945   1.710   9.847  1.0444  0.3776  0.0418
 9354SOL    HW239699   2.857   1.673   9.743  2.5615 -2.6854 -1.1863
 9355SOL     OW39700   0.275   2.890   3.976  0.3099 -0.1762 -0.0088
 9355SOL    HW139701   0.197   2.913   3.927 -1.0168 -0.7359  1.8432
 9355SOL    HW239702   0.344   2.909   3.912 -2.3570  3.5821 -1.7313
 9356SOL     OW39703   1.227   3.341  11.819  0.5503 -0.2867 -0.4759
 9356SOL    HW139704   1.202   3.432  11.837  0.5967 -0.5623  1.0043
 9356SOL    HW239705   1.311   3.332  11.864 -0.1804  1.1071  1.1650
 9357SOL     OW39706   4.708   0.260   2.571  0.0111 -0.1063  0.2723
 9357SOL    HW139707   4.624   0.218   2.588  0.5162 -1.3144 -0.1604
 9357SOL    HW239708   0.023   0.196   2.612 -0.4052 -3.0241 -3.6343
 9358SOL     OW39709   4.656   1.726   0.570  0.1280  0.3880  0.1785
 9358SOL    HW139710   4.688   1.766   0.651  0.9014 -0.6104  0.3675
 9358SOL    HW239711   4.711   1.761   0.499  1.7141 -0.6046  0.9062
 9359SOL     OW39712   2.315   1.521   4.522 -0.0964  0.2975  0.0715
 9359SOL    HW139713   2.361   1.532   4.606 -1.4361 -0.2716  0.8816
 9359SOL    HW239714   2.391   1.540   4.467  1.2166 -0.8872  1.4448
 9360SOL     OW39715   3.125   0.027   8.501 -0.2449 -0.3303 -0.2496
 9360SOL    HW139716   3.035   0.057   8.514 -0.3761 -0.5082 -0.7590
 9360SOL    HW239717   3.176   0.070   8.569 -0.6211 -0.5713  0.1805
 9361SOL     OW39718   4.736   1.093   7.553 -0.0746  0.1576  0.1869
 9361SOL    HW139719   0.005   1.026   7.485 -3.1728  0.2685 -0.4509
 9361SOL    HW239720   0.066   1.150   7.532 -0.4709  0.1426 -1.2376
 9362SOL     OW39721   0.153   2.488  10.474  0.0220  0.2377  0.4512
 9362SOL    HW139722   0.177   2.529  10.558  2.7138 -1.1854  0.3921
 9362SOL    HW239723   0.212   2.413  10.472 -0.8297 -0.4657  1.4930
 9363SOL     OW39724   0.401   3.827   9.792  0.1210  0.4403  0.0171
 9363SOL    HW139725   0.390   3.920   9.810  0.9572  0.3944  0.7448
 9363SOL    HW239726   0.490   3.824   9.826 -0.0518 -2.6309  0.1533
 9364SOL     OW39727   4.012   4.590   6.643  0.1789  0.5274  0.6649
 9364SOL    HW139728   3.961   4.555   6.569  1.9638 -2.8959  1.0330
 9364SOL    HW239729   4.066   4.659   6.606  2.9531 -0.4259  2.8953
 9365SOL     OW39730   3.115   3.748   8.726  0.2430  0.0152 -0.7590
 9365SOL    HW139731   3.180   3.814   8.752 -0.1741 -0.3947  1.3016
 9365SOL    HW239732   3.171   3.695   8.669  2.5381 -1.6627  3.0676
 9366SOL     OW39733   1.065   3.605   0.503 -0.2860 -0.1778  0.2462
 9366SOL    HW139734   1.068   3.679   0.442 -1.5491  0.0295  0.4262
 9366SOL    HW239735   1.041   3.642   0.588  0.2256 -0.8265  0.6697
 9367SOL     OW39736   3.990   0.286  17.190  0.2538 -0.3971 -0.5150
 9367SOL    HW139737   3.979   0.331  17.274  0.7543 -1.2553  0.0085
 9367SOL    HW239738   3.901   0.277  17.158 -0.0081 -0.4410  0.2172
 9368SOL     OW39739   4.403   3.748   4.062 -0.3818 -0.5117 -0.7580
 9368SOL    HW139740   4.348   3.806   4.115  0.8044 -1.0773  1.0867
 9368SOL    HW239741   4.351   3.738   3.983 -0.5854 -1.1820 -0.5380
 9369SOL     OW39742   4.239   3.392   3.622  0.3397  0.0832 -0.0689
 9369SOL    HW139743   4.326   3.353   3.635  0.7646  1.9452  2.6173
 9369SOL    HW239744   4.248   3.433   3.536  1.2892 -1.6683 -0.8041
 9370SOL     OW39745   2.821   3.074   3.993  0.3923  0.0699  0.2595
 9370SOL    HW139746   2.879   3.006   3.959 -0.5746 -1.3988  1.5380
 9370SOL    HW239747   2.747   3.061   3.933 -0.2185 -1.3025  1.3033
 9371SOL     OW39748   0.403   3.451   8.246  0.1323  0.0579 -0.2806
 9371SOL    HW139749   0.315   3.443   8.283 -0.1738  0.4629 -0.9258
 9371SOL    HW239750   0.386   3.513   8.175  1.0258 -0.9615 -1.3902
 9372SOL     OW39751   1.360   0.731   5.401  0.6412 -0.1619 -0.1378
 9372SOL    HW139752   1.408   0.773   5.329 -1.2531  0.5168 -1.0004
 9372SOL    HW239753   1.317   0.805   5.444 -0.3993 -0.4819 -0.6382
 9373SOL     OW39754   3.615   4.608   3.535 -0.3204 -0.6979  0.0614
 9373SOL    HW139755   3.603   4.587   3.442 -2.0833  0.4475  0.0166
 9373SOL    HW239756   3.611   4.517   3.562 -0.5312 -0.2017  1.6798
 9374SOL     OW39757   4.283   3.369   4.125  0.1883  0.2183  0.9862
 9374SOL    HW139758   4.228   3.446   4.112  1.4201  0.8598 -0.5032
 9374SOL    HW239759   4.372   3.403   4.132  0.0284  0.5657  1.3100
 9375SOL     OW39760   1.530   3.897   3.273 -0.5152 -0.0479 -0.5502
 9375SOL    HW139761   1.574   3.813   3.262 -0.4358 -0.3349  2.0482
 9375SOL    HW239762   1.438   3.878   3.293 -0.1148 -0.4271  0.9156
 9376SOL     OW39763   3.293   3.413   7.288  0.0737  0.4831 -0.0211
 9376SOL    HW139764   3.319   3.384   7.201 -0.1665 -0.8997  0.3709
 9376SOL    HW239765   3.331   3.354   7.353 -1.1573  0.0364  0.3065
 9377SOL     OW39766   4.721   1.696  10.547  0.0583 -0.1016 -0.5706
 9377SOL    HW139767   4.711   1.790  10.531 -0.3169 -0.3494 -1.8511
 9377SOL    HW239768   4.629   1.670  10.541  0.3970 -1.0131 -2.0892
 9378SOL     OW39769   4.705   2.851   2.637  0.7840 -0.2904  0.1791
 9378SOL    HW139770   4.691   2.794   2.562 -0.7237 -1.6552  1.5043
 9378SOL    HW239771   0.054   2.841   2.664  1.4967 -1.0731 -2.5762
 9379SOL     OW39772   4.362   4.490  11.672  0.0149 -0.0679 -0.3967
 9379SOL    HW139773   4.372   4.458  11.762 -0.2511  2.4636  0.5614
 9379SOL    HW239774   4.429   4.557  11.686 -0.7461  0.7824 -0.8093
 9380SOL     OW39775   4.469   1.312   3.844  0.4637  0.0876 -0.0621
 9380SOL    HW139776   4.548   1.277   3.802  0.0245 -0.6374 -0.2840
 9380SOL    HW239777   4.415   1.332   3.767  1.0921 -2.3502 -1.1347
 9381SOL     OW39778   1.801   4.570  17.504 -0.7698  0.0580  0.1847
 9381SOL    HW139779   1.751   4.508  17.557  1.0381 -1.9542 -0.4876
 9381SOL    HW239780   1.877   4.514  17.489  0.9443  2.2629  0.6381
 9382SOL     OW39781   1.571   4.062  17.009 -0.0113  0.1019 -0.2457
 9382SOL    HW139782   1.581   4.150  16.972 -0.9596  0.8658  1.3060
 9382SOL    HW239783   1.655   4.030  16.978  0.2430 -0.3890  0.9319
 9383SOL     OW39784   3.337   3.580   8.190  0.1891 -0.2149 -0.2607
 9383SOL    HW139785   3.369   3.526   8.117  1.2277 -1.3011  1.0058
 9383SOL    HW239786   3.387   3.661   8.178  0.5372 -0.2685  0.8849
 9384SOL     OW39787   2.363   1.445   0.585  0.6065  0.0264 -0.3198
 9384SOL    HW139788   2.303   1.480   0.652  1.8356  1.7062 -0.0864
 9384SOL    HW239789   2.429   1.514   0.576 -1.3165  1.9846  0.7671
 9385SOL     OW39790   0.654   3.571   1.691  0.0279 -0.1317  0.2591
 9385SOL    HW139791   0.622   3.556   1.602  0.6909  0.1871 -0.0311
 9385SOL    HW239792   0.577   3.557   1.745  0.4321 -0.1383  0.8375
 9386SOL     OW39793   3.971   3.520   6.151  0.1445 -0.3739 -0.0421
 9386SOL    HW139794   3.880   3.512   6.181  0.3883 -1.5674  0.3782
 9386SOL    HW239795   4.008   3.436   6.180  0.4600 -0.3591 -0.4063
 9387SOL     OW39796   4.330   4.037   1.575 -0.1941  0.2166  0.4165
 9387SOL    HW139797   4.409   4.083   1.547 -0.8942  1.2365  0.1352
 9387SOL    HW239798   4.282   4.115   1.603 -0.3311 -0.2076  1.3627
 9388SOL     OW39799   1.395   3.911   0.373  0.0707  0.1816  0.0888
 9388SOL    HW139800   1.466   3.940   0.316 -1.0558  0.0687 -1.3861
 9388SOL    HW239801   1.328   3.970   0.341  0.2725 -1.2105 -2.8839
 9389SOL     OW39802   1.373   0.230   3.626  0.2143  0.0557  0.3371
 9389SOL    HW139803   1.303   0.179   3.667  2.1208 -2.6103  0.2653
 9389SOL    HW239804   1.374   0.310   3.679 -1.2931 -1.1757  2.1908
 9390SOL     OW39805   2.918   2.796   6.343  0.4678 -0.2636 -0.1439
 9390SOL    HW139806   2.952   2.745   6.269 -0.4352 -0.1432 -0.6431
 9390SOL    HW239807   2.961   2.758   6.419 -0.3722 -1.0342 -0.0634
 9391SOL     OW39808   4.644   4.564   4.160 -0.2182  0.1268  0.2805
 9391SOL    HW139809   4.705   4.629   4.125  2.0038 -2.2307 -0.2802
 9391SOL    HW239810   4.557   4.597   4.142  0.3232  0.9928 -0.7327
 9392SOL     OW39811   0.908   1.056   8.199 -0.2686 -0.0258  0.3238
 9392SOL    HW139812   0.920   1.138   8.152 -0.4982 -0.2476 -0.1244
 9392SOL    HW239813   0.826   1.077   8.243 -0.4059 -0.0124  0.0657
 9393SOL     OW39814   1.874   3.971  12.606 -0.2522 -0.2390 -0.1723
 9393SOL    HW139815   1.902   4.051  12.561 -0.6379  0.1924  0.3565
 9393SOL    HW239816   1.908   3.909  12.542  1.1237  1.8771 -1.4993
 9394SOL     OW39817   3.534   0.256   3.669  0.4454 -0.2862  0.7862
 9394SOL    HW139818   3.478   0.192   3.712  0.3690 -1.0240 -0.4308
 9394SOL    HW239819   3.484   0.337   3.683  1.0596  0.3774 -0.8965
 9395SOL     OW39820   3.191   1.197   5.478 -0.1406  0.3140 -0.1674
 9395SOL    HW139821   3.282   1.216   5.501 -0.3975  0.4270  0.7515
 9395SOL    HW239822   3.157   1.137   5.544 -0.2442  1.3690  0.7388
 9396SOL     OW39823   2.938   4.083  17.397 -0.2426  0.7933 -0.1607
 9396SOL    HW139824   3.018   4.133  17.414  2.2525 -3.1566 -0.4513
 9396SOL    HW239825   2.893   4.103  17.479  1.7145  1.7250  0.6700
 9397SOL     OW39826   2.647   3.149  17.052 -0.4430  0.2460  0.5617
 9397SOL    HW139827   2.624   3.222  17.110 -0.7222  0.8639 -0.3383
 9397SOL    HW239828   2.566   3.110  17.020 -0.6720  0.6695  0.6270
 9398SOL     OW39829   2.598   3.578   1.660 -0.3149 -0.1002  0.0783
 9398SOL    HW139830   2.514   3.592   1.617 -0.2779  0.7669  0.2822
 9398SOL    HW239831   2.570   3.520   1.730 -0.2882 -0.2017  0.0044
 9399SOL     OW39832   3.384   1.369   3.701  0.4386 -0.2891 -0.4338
 9399SOL    HW139833   3.334   1.434   3.652  1.5582 -0.6959 -2.1529
 9399SOL    HW239834   3.348   1.370   3.789  1.1904  2.3590 -0.1656
 9400SOL     OW39835   4.422   4.606   3.485  0.5839 -0.1043  0.5616
 9400SOL    HW139836   4.381   4.529   3.445 -1.9594  1.4896  0.1819
 9400SOL    HW239837   4.450   4.663   3.414  2.5159  2.0345  3.0248
 9401SOL     OW39838   2.927   3.401   9.351 -0.6946  0.2243  0.0906
 9401SOL    HW139839   2.852   3.454   9.327 -0.9054  0.3180  0.9558
 9401SOL    HW239840   2.900   3.387   9.442 -0.8496 -2.2280 -0.3247
 9402SOL     OW39841   0.049   3.937   3.843  0.0729 -0.1708 -0.0598
 9402SOL    HW139842   4.733   3.915   3.915 -0.5480 -0.5050 -0.6573
 9402SOL    HW239843   0.126   3.964   3.892  0.5659 -0.7688 -0.5004
 9403SOL     OW39844   1.613   0.850   3.835  0.7583 -0.0677 -0.5113
 9403SOL    HW139845   1.558   0.927   3.848 -1.9968 -1.8835 -1.4244
 9403SOL    HW239846   1.700   0.885   3.815  0.3045  0.2124 -2.0054
 9404SOL     OW39847   1.832   0.404  10.531  0.8861  0.2118 -0.0630
 9404SOL    HW139848   1.780   0.370  10.457 -0.4504  1.3099  0.3639
 9404SOL    HW239849   1.914   0.355  10.531  0.5103 -0.4019  1.3423
 9405SOL     OW39850   1.634   0.529   3.465  0.0257 -0.1423  0.0004
 9405SOL    HW139851   1.680   0.575   3.395 -1.2097  1.3057  0.1553
 9405SOL    HW239852   1.582   0.465   3.418 -0.3547  0.1587  0.0131
 9406SOL     OW39853   1.742   4.119  14.315  0.4372 -0.0956  0.3596
 9406SOL    HW139854   1.730   4.176  14.239  1.6847  0.5909  0.6917
 9406SOL    HW239855   1.715   4.032  14.286 -1.6315  0.8564 -0.5771
 9407SOL     OW39856   4.272   0.303   5.614  0.1939  0.2217 -0.1205
 9407SOL    HW139857   4.282   0.219   5.568 -0.7631  0.2665 -0.4038
 9407SOL    HW239858   4.336   0.349   5.559 -0.7967  0.9215 -0.6793
 9408SOL     OW39859   2.190   2.886   8.523 -0.1371 -0.0546 -0.6338
 9408SOL    HW139860   2.277   2.859   8.494  1.0234  3.1433 -0.2173
 9408SOL    HW239861   2.139   2.834   8.461 -1.4348  0.4344  0.0189
 9409SOL     OW39862   3.398   1.662   0.983  0.2711 -0.2609  0.0708
 9409SOL    HW139863   3.406   1.645   1.077 -1.5352 -0.2750  0.2222
 9409SOL    HW239864   3.336   1.733   1.002 -0.2669 -0.3078 -1.5627
 9410SOL     OW39865   2.944   3.092   3.453  0.4944  0.0412  0.4756
 9410SOL    HW139866   2.970   3.097   3.545 -1.7299 -0.6106  1.1550
 9410SOL    HW239867   2.920   2.999   3.449 -1.2587  0.5307 -0.5620
 9411SOL     OW39868   3.787   2.206   9.430 -0.2653  0.3803  0.1517
 9411SOL    HW139869   3.703   2.231   9.390 -1.6043 -0.6339  2.3325
 9411SOL    HW239870   3.752   2.147   9.496 -0.3045  2.1629  1.7210
 9412SOL     OW39871   2.386   0.008   7.635 -0.4871 -0.0391 -0.7575
 9412SOL    HW139872   2.470   0.040   7.603  0.1169  0.9641  1.7916
 9412SOL    HW239873   2.409   4.659   7.626 -0.5313 -0.1370  0.0621
 9413SOL     OW39874   4.511   2.008  14.318  0.3818 -0.1965  0.6907
 9413SOL    HW139875   4.597   2.030  14.282  0.9214 -0.6831  1.6998
 9413SOL    HW239876   4.526   1.933  14.375  0.7828 -0.9457 -0.4143
 9414SOL     OW39877   3.127   0.907   4.382 -0.1846  0.3581 -0.0227
 9414SOL    HW139878   3.192   0.886   4.449  0.2448 -2.4911 -1.3239
 9414SOL    HW239879   3.086   0.821   4.378 -2.0978  1.3964 -2.9839
 9415SOL     OW39880   4.383   0.264  15.986 -0.2945 -0.5566 -0.2740
 9415SOL    HW139881   4.356   0.241  15.897 -0.6171 -0.8149 -0.1128
 9415SOL    HW239882   4.310   0.325  15.999  1.5709  1.6762 -0.3331
 9416SOL     OW39883   0.060   1.216  16.700  0.5174 -1.1115 -0.4325
 9416SOL    HW139884   0.090   1.126  16.711  1.6113 -0.8508 -1.2078
 9416SOL    HW239885   0.004   1.206  16.623 -1.7401  0.0244  1.0739
 9417SOL     OW39886   2.038   2.574  10.090 -0.1833  0.2755  0.3665
 9417SOL    HW139887   2.110   2.631  10.116 -0.9640  1.5207 -0.1741
 9417SOL    HW239888   2.022   2.526  10.172 -0.1504  0.6554  0.5957
 9418SOL     OW39889   3.069   3.924   2.868 -0.1190 -0.3542  0.3432
 9418SOL    HW139890   3.130   3.965   2.806  0.2068 -1.6908 -0.2280
 9418SOL    HW239891   3.126   3.904   2.942 -0.7100  2.9010  1.6748
 9419SOL     OW39892   3.881   3.893   6.619 -0.1616 -0.1110  0.4733
 9419SOL    HW139893   3.935   3.970   6.636 -0.0855 -0.2716  0.9548
 9419SOL    HW239894   3.944   3.826   6.646 -1.3975 -0.5915  2.1348
 9420SOL     OW39895   1.968   3.798  12.838 -0.8578 -0.2086  0.4012
 9420SOL    HW139896   1.987   3.864  12.772 -0.9721 -0.4507  0.1226
 9420SOL    HW239897   2.043   3.739  12.835  0.1167  1.0874 -0.9400
 9421SOL     OW39898   4.446   1.196   2.936  0.4825  0.0377 -0.5201
 9421SOL    HW139899   4.507   1.123   2.948  0.9926  0.2153 -1.9891
 9421SOL    HW239900   4.366   1.154   2.966  1.4994 -2.3144 -1.0662
 9422SOL     OW39901   4.705   0.193   7.971  0.3972  0.3437  0.1049
 9422SOL    HW139902   4.667   0.266   7.922  1.4794  1.1410  0.4535
 9422SOL    HW239903   4.707   0.245   8.051  0.3141 -0.7198  0.7980
 9423SOL     OW39904   3.708   3.479   4.504 -0.6447  0.0317 -0.6701
 9423SOL    HW139905   3.680   3.391   4.532 -1.3289  0.0144 -1.4004
 9423SOL    HW239906   3.652   3.537   4.555 -0.0055 -0.3086  0.3992
 9424SOL     OW39907   4.553   1.652   3.726  0.0397  0.2371  0.2897
 9424SOL    HW139908   4.588   1.722   3.781 -1.6105  1.0160  0.3465
 9424SOL    HW239909   4.484   1.616   3.781 -0.8203 -1.9268 -2.1993
 9425SOL     OW39910   0.203   4.701  15.233  0.1186  0.5042 -0.2655
 9425SOL    HW139911   0.271   0.025  15.227  1.2442 -0.8840 -2.7019
 9425SOL    HW239912   0.172   4.706  15.324  1.1363 -0.1794  0.1209
 9426SOL     OW39913   3.289   4.387   5.860 -0.7518 -0.2869  0.1669
 9426SOL    HW139914   3.196   4.367   5.851 -0.9385 -0.1634  1.8446
 9426SOL    HW239915   3.313   4.413   5.771  2.0081 -0.5845  0.8196
 9427SOL     OW39916   2.497   1.591   5.002  0.3049  0.1387  0.4095
 9427SOL    HW139917   2.434   1.656   4.971 -0.0266 -1.0305 -1.3807
 9427SOL    HW239918   2.461   1.558   5.084 -2.7734  0.7608 -0.6991
 9428SOL     OW39919   3.369   3.146  13.515  0.1361  0.8054 -0.0210
 9428SOL    HW139920   3.275   3.140  13.501  0.1837 -2.2088  1.0316
 9428SOL    HW239921   3.364   3.106  13.602 -2.4432  4.0059  1.3116
 9429SOL     OW39922   0.690   3.388   1.286  0.0919  0.3869 -0.5376
 9429SOL    HW139923   0.671   3.297   1.263 -1.7264  0.7419 -0.5048
 9429SOL    HW239924   0.682   3.424   1.198 -0.2296  0.6708 -0.3966
 9430SOL     OW39925   0.025   4.145   8.024  0.3972 -0.9009  0.1199
 9430SOL    HW139926   4.732   4.231   8.002  1.7726 -0.7777 -1.5527
 9430SOL    HW239927   0.038   4.105   7.938  0.4325 -1.6483  0.4711
 9431SOL     OW39928   2.395   3.877   2.298  0.1884 -0.1104  0.0374
 9431SOL    HW139929   2.433   3.942   2.357 -2.7109  0.3656  1.3596
 9431SOL    HW239930   2.408   3.914   2.211 -1.9636  0.9502  0.1466
 9432SOL     OW39931   3.219   1.365   6.425  0.3860 -0.0365  0.1908
 9432SOL    HW139932   3.132   1.383   6.389 -0.6069  0.5068  2.9277
 9432SOL    HW239933   3.203   1.297   6.491 -0.0988 -1.6376 -1.5552
 9433SOL     OW39934   1.277   3.651   1.506 -0.2733  0.4734 -0.2453
 9433SOL    HW139935   1.244   3.570   1.466 -1.0841  0.8560 -0.3510
 9433SOL    HW239936   1.229   3.654   1.589  0.2428  1.2904  0.0246
 9434SOL     OW39937   1.729   0.905   3.324 -0.3814  0.3513 -0.3317
 9434SOL    HW139938   1.745   0.898   3.418  0.3656 -0.0446 -0.4866
 9434SOL    HW239939   1.788   0.977   3.300 -0.7802  0.6795 -0.3429
 9435SOL     OW39940   3.974   0.643   7.473  0.3159  0.8150 -0.0544
 9435SOL    HW139941   4.003   0.552   7.484 -3.6241 -0.8478 -2.9459
 9435SOL    HW239942   3.946   0.657   7.563 -0.8750  1.2431 -0.4922
 9436SOL     OW39943   1.799   2.688   6.637 -0.4080 -0.0785  0.5344
 9436SOL    HW139944   1.865   2.618   6.632  1.3783  1.6196  0.3440
 9436SOL    HW239945   1.805   2.721   6.547  1.2795  0.8589  0.9939
 9437SOL     OW39946   4.164   3.821   8.896 -0.0304  0.3837  0.0228
 9437SOL    HW139947   4.119   3.753   8.946  0.1062  1.9423  2.2933
 9437SOL    HW239948   4.213   3.868   8.964  0.1122 -0.2319  0.3448
 9438SOL     OW39949   0.701   1.664   5.569  0.1021  0.3651  0.0959
 9438SOL    HW139950   0.780   1.635   5.615 -1.6261 -0.3791  2.5915
 9438SOL    HW239951   0.648   1.700   5.640  0.1909 -0.1683  0.4361
 9439SOL     OW39952   1.086   0.501   7.174 -0.1127 -0.3046  0.4223
 9439SOL    HW139953   1.053   0.425   7.127  2.3283 -0.4869 -0.9933
 9439SOL    HW239954   1.115   0.456   7.253  0.5896  0.8835  0.8552
 9440SOL     OW39955   3.067   0.365   8.463 -0.4286  0.3463 -0.1064
 9440SOL    HW139956   3.145   0.384   8.515 -0.1124  0.4317 -0.6105
 9440SOL    HW239957   3.103   0.330   8.382 -1.0334  2.2722 -1.2132
 9441SOL     OW39958   0.567   3.087   7.448  0.1274  0.2159  0.1948
 9441SOL    HW139959   0.545   3.026   7.518 -0.0616  3.1354  2.6865
 9441SOL    HW239960   0.663   3.086   7.453  0.1503  0.8904 -0.0741
 9442SOL     OW39961   0.359   2.732  16.780 -0.2168  1.3600  0.8104
 9442SOL    HW139962   0.329   2.768  16.864 -0.8064  2.6907  0.0161
 9442SOL    HW239963   0.435   2.788  16.767  1.0780 -0.8648 -1.1761
 9443SOL     OW39964   0.602   1.348   6.886  0.1832  0.5459 -0.0233
 9443SOL    HW139965   0.519   1.304   6.867  1.1734 -1.0965 -0.5279
 9443SOL    HW239966   0.641   1.370   6.801 -0.1717  0.7245 -0.1419
 9444SOL     OW39967   1.039   3.165   9.835 -0.6897  0.3104  0.2989
 9444SOL    HW139968   1.063   3.131   9.922 -2.3454 -0.4419  0.4471
 9444SOL    HW239969   1.064   3.257   9.841  1.2963 -0.1886 -0.3640
 9445SOL     OW39970   1.151   1.608  11.044 -0.8435  0.8021  0.5721
 9445SOL    HW139971   1.092   1.567  10.981  0.7675  1.4967 -1.3851
 9445SOL    HW239972   1.093   1.680  11.070 -1.3480  1.1411 -1.5443
 9446SOL     OW39973   2.908   3.148   9.241 -0.2079  0.0222  0.8586
 9446SOL    HW139974   2.917   3.240   9.267  0.0202  0.0741  0.6006
 9446SOL    HW239975   2.818   3.124   9.264  0.7678 -1.2223  3.3632
 9447SOL     OW39976   1.475   2.714  13.971  0.6228  0.1571  0.3662
 9447SOL    HW139977   1.471   2.740  14.063  0.2763  1.2828  0.0383
 9447SOL    HW239978   1.460   2.795  13.922  0.4010 -1.6194 -2.5113
 9448SOL     OW39979   2.090   3.492   4.831  0.2310 -0.1618  0.5147
 9448SOL    HW139980   2.003   3.470   4.800  0.3650  0.7864 -0.5181
 9448SOL    HW239981   2.110   3.560   4.766 -1.6482 -1.3860 -1.3282
 9449SOL     OW39982   3.047   1.358   3.592  0.7971  0.0301 -0.2663
 9449SOL    HW139983   3.042   1.348   3.687  1.8131 -0.0795 -0.2209
 9449SOL    HW239984   3.006   1.276   3.563  0.3760  0.1319  0.0305
 9450SOL     OW39985   4.041   2.144  13.953  0.0186 -0.0760  0.6660
 9450SOL    HW139986   3.987   2.082  13.903  0.3825 -2.2984  3.0356
 9450SOL    HW239987   4.130   2.115  13.936  0.5097  1.7108  0.1595
 9451SOL     OW39988   3.393   4.515   2.326 -0.1100 -0.2552  0.1333
 9451SOL    HW139989   3.378   4.566   2.405 -0.8872  0.6051 -0.5662
 9451SOL    HW239990   3.333   4.442   2.342  0.7468 -1.3872 -1.8136
 9452SOL     OW39991   2.114   4.159   5.844 -0.3372 -0.1761 -0.2816
 9452SOL    HW139992   2.021   4.157   5.822 -0.3302  0.5866 -0.3906
 9452SOL    HW239993   2.143   4.224   5.780 -0.0709 -0.4125 -0.3951
 9453SOL     OW39994   0.247   0.157   5.016 -0.7496  0.4662  0.5782
 9453SOL    HW139995   0.193   0.155   4.937 -0.3030  1.0231  0.2545
 9453SOL    HW239996   0.207   0.224   5.071 -0.9390 -0.2357  1.2980
 9454SOL     OW39997   1.363   4.408   3.754  0.1545  0.0078 -0.2680
 9454SOL    HW139998   1.323   4.429   3.838  2.3991 -0.2405  0.8686
 9454SOL    HW239999   1.451   4.432   3.783  0.9213 -1.8979 -0.9879
 9455SOL     OW40000   3.438   4.040   9.240  0.0588 -0.2070  0.2191
 9455SOL    HW140001   3.524   4.016   9.207  0.1513 -0.7613  0.8490
 9455SOL    HW240002   3.404   3.952   9.259  0.1547 -0.4350 -0.6463
 9456SOL     OW40003   2.644   2.963   4.843  0.0064 -0.3306 -0.3817
 9456SOL    HW140004   2.669   2.989   4.932 -0.0339 -3.0069  0.4070
 9456SOL    HW240005   2.551   2.957   4.862  0.2478 -1.3159  0.5228
 9457SOL     OW40006   2.559   0.232   4.474 -0.6624  1.2166  0.2386
 9457SOL    HW140007   2.473   0.263   4.500 -0.8681  0.8107  0.0420
 9457SOL    HW240008   2.613   0.245   4.552  0.3341  1.5029 -0.5034
 9458SOL     OW40009   2.193   1.372   0.193 -0.6160 -0.1900 -0.2552
 9458SOL    HW140010   2.144   1.365   0.275 -1.7430 -1.5535 -1.0300
 9458SOL    HW240011   2.233   1.285   0.187  0.3171  0.2814 -0.8044
 9459SOL     OW40012   1.124   2.203  12.528 -0.0219 -0.1367  0.8743
 9459SOL    HW140013   1.034   2.179  12.550 -1.1401  3.2136  0.0329
 9459SOL    HW240014   1.147   2.242  12.613  0.1408 -0.3596  0.9334
 9460SOL     OW40015   3.920   4.037   5.070 -0.2157 -0.3841 -0.6073
 9460SOL    HW140016   3.960   3.958   5.034 -0.3901 -1.5140  1.7414
 9460SOL    HW240017   3.989   4.072   5.126 -1.9346 -1.9914  2.5249
 9461SOL     OW40018   1.645   3.845   4.590 -0.2063  0.0982 -0.9670
 9461SOL    HW140019   1.688   3.924   4.556  1.9452 -0.5515  0.2036
 9461SOL    HW240020   1.679   3.780   4.529  1.4772  1.0509 -1.0655
 9462SOL     OW40021   3.837   2.078  12.810 -0.7067  0.3924  0.1814
 9462SOL    HW140022   3.919   2.048  12.770 -1.9595 -0.7535 -1.4898
 9462SOL    HW240023   3.787   1.998  12.794  0.0976 -0.2183  0.6661
 9463SOL     OW40024   1.023   3.321   3.141  0.2664 -0.9287 -0.4273
 9463SOL    HW140025   1.106   3.360   3.169 -0.6416  1.2618 -0.7699
 9463SOL    HW240026   0.958   3.391   3.145 -0.2689 -1.5081  1.1261
 9464SOL     OW40027   0.355   4.712   3.878  0.8078 -0.5182  0.1173
 9464SOL    HW140028   0.357   0.048   3.823  1.6898 -0.4902  0.1868
 9464SOL    HW240029   0.350   4.637   3.820 -0.6668  0.2256 -0.7095
 9465SOL     OW40030   1.199   1.924  11.935  0.0870 -0.1856  0.2527
 9465SOL    HW140031   1.119   1.890  11.974 -0.0875 -1.2572 -1.0253
 9465SOL    HW240032   1.256   1.867  11.986  1.4207  1.3924  0.5241
 9466SOL     OW40033   4.090   0.110   7.924 -0.3489  0.2139 -0.1274
 9466SOL    HW140034   4.079   0.094   7.830 -1.7660 -1.6219  0.3468
 9466SOL    HW240035   4.153   0.181   7.915 -1.3139  1.0855 -0.0071
 9467SOL     OW40036   0.535   1.997   5.440  0.0886  0.0791  0.0613
 9467SOL    HW140037   0.491   2.017   5.523 -2.6330  0.2509 -1.4025
 9467SOL    HW240038   0.472   1.938   5.399  0.0006  0.7061 -0.7095
 9468SOL     OW40039   3.298   1.031  17.532  0.3792 -0.0648  0.7765
 9468SOL    HW140040   3.367   1.048  17.596  0.0984  3.3027  0.1863
 9468SOL    HW240041   3.319   0.940  17.510 -3.0948 -0.3002 -1.4510
 9469SOL     OW40042   2.273   2.347   2.082 -0.0949 -0.0725 -0.1852
 9469SOL    HW140043   2.366   2.331   2.101 -0.0673  0.1619 -0.1232
 9469SOL    HW240044   2.276   2.376   1.991 -0.8957  2.1609  0.4931
 9470SOL     OW40045   0.542   0.114   2.393  0.3761 -0.3855  0.3664
 9470SOL    HW140046   0.621   0.166   2.377  0.3608 -0.3304  0.4731
 9470SOL    HW240047   0.501   0.166   2.461 -0.6800 -2.4003  1.2855
 9471SOL     OW40048   4.165   1.883   4.694 -0.2619 -0.0577 -0.6283
 9471SOL    HW140049   4.231   1.828   4.737 -1.0459 -0.3111  0.2524
 9471SOL    HW240050   4.166   1.952   4.760  0.5395  1.0022 -1.7623
 9472SOL     OW40051   0.173   1.265   0.444  0.3819 -0.0099  0.3041
 9472SOL    HW140052   0.246   1.205   0.431  1.8802  1.8959 -0.0806
 9472SOL    HW240053   0.177   1.277   0.539 -0.8250 -1.0564  0.4936
 9473SOL     OW40054   2.314   3.821   6.689 -0.3675 -0.2328  0.7019
 9473SOL    HW140055   2.232   3.843   6.645  0.7052 -1.1154 -1.7019
 9473SOL    HW240056   2.331   3.745   6.633 -0.3296 -0.4556  1.0151
 9474SOL     OW40057   2.408   1.331   3.130  0.1981 -0.0489  0.2224
 9474SOL    HW140058   2.480   1.287   3.174  0.5194  0.5284  0.2801
 9474SOL    HW240059   2.336   1.293   3.181 -0.9328 -2.0039 -2.8308
 9475SOL     OW40060   3.075   3.970   4.434  0.5867  0.7395 -0.4867
 9475SOL    HW140061   3.111   3.936   4.516  0.8930  0.0111 -0.9240
 9475SOL    HW240062   3.151   3.943   4.382  2.3452  1.1441  1.8688
 9476SOL     OW40063   4.351   3.119   3.297 -0.2813 -0.2952 -0.1638
 9476SOL    HW140064   4.432   3.149   3.256  0.5033 -0.3508  1.3645
 9476SOL    HW240065   4.307   3.202   3.315 -1.8615 -0.5782 -2.7459
 9477SOL     OW40066   3.221   4.400   7.384 -1.0632 -0.0416 -0.5615
 9477SOL    HW140067   3.176   4.375   7.464  1.5208 -0.0622  0.8920
 9477SOL    HW240068   3.307   4.372   7.417 -0.6687  0.0766 -1.4965
 9478SOL     OW40069   3.096   3.282   3.326 -0.0062 -0.1616  0.1232
 9478SOL    HW140070   3.028   3.228   3.368 -0.4298  0.3650  0.1151
 9478SOL    HW240071   3.123   3.344   3.394 -0.6860 -0.5396  0.7403
 9479SOL     OW40072   1.222   0.895   6.408  0.1286  0.6022  0.6348
 9479SOL    HW140073   1.215   0.910   6.502 -3.1969 -2.5897  0.8685
 9479SOL    HW240074   1.145   0.945   6.382  0.3185 -0.4951 -2.0091
 9480SOL     OW40075   3.115   4.246   8.694  0.0783  0.2845  0.9153
 9480SOL    HW140076   3.145   4.335   8.708  2.3027 -0.4505  0.8186
 9480SOL    HW240077   3.192   4.193   8.670  0.9583  1.0191  2.1137
 9481SOL     OW40078   2.450   4.257  16.393  0.2894 -0.1949  0.2041
 9481SOL    HW140079   2.531   4.271  16.442  1.4230 -1.7344 -1.2469
 9481SOL    HW240080   2.479   4.249  16.302  0.6322  1.4761  0.1751
 9482SOL     OW40081   2.785   1.246   2.515 -0.2341  0.9687 -0.4740
 9482SOL    HW140082   2.714   1.273   2.572 -1.1494  0.5110 -1.3876
 9482SOL    HW240083   2.815   1.329   2.478  0.2852 -0.3611 -3.0830
 9483SOL     OW40084   1.818   1.120  16.563  0.3481  0.2873  0.5484
 9483SOL    HW140085   1.910   1.093  16.555  0.3434  0.7829 -1.1427
 9483SOL    HW240086   1.764   1.053  16.520  2.3340 -0.2610 -1.1033
 9484SOL     OW40087   4.452   0.126   2.595  0.1569  0.2234 -0.3354
 9484SOL    HW140088   4.425   0.134   2.686  2.5481  1.6523  0.2174
 9484SOL    HW240089   4.429   0.034   2.578 -0.7988  0.5495 -0.8279
 9485SOL     OW40090   0.677   1.150   7.045  0.4096  0.3697  0.6468
 9485SOL    HW140091   0.654   1.225   6.989  0.0652  0.2801  0.6653
 9485SOL    HW240092   0.593   1.110   7.066 -0.2545  1.1641 -0.4489
 9486SOL     OW40093   2.378   1.213   3.517 -0.2568 -0.4103  0.1976
 9486SOL    HW140094   2.367   1.185   3.427 -3.1489  1.9782 -0.1907
 9486SOL    HW240095   2.413   1.301   3.504 -1.0545 -0.0787  0.2935
 9487SOL     OW40096   4.411   0.414  17.231  0.0929 -0.3978  0.1724
 9487SOL    HW140097   4.349   0.349  17.198 -1.2745  0.3535  1.2063
 9487SOL    HW240098   4.489   0.366  17.257  1.5176 -0.6279 -4.5230
 9488SOL     OW40099   4.192   2.599   4.577  0.3018  0.3790  0.3099
 9488SOL    HW140100   4.219   2.691   4.577 -0.7871  0.7083 -0.3047
 9488SOL    HW240101   4.097   2.614   4.577  0.2777  0.2214  0.4737
 9489SOL     OW40102   1.973   3.648   3.120  0.1017 -0.4739  0.4660
 9489SOL    HW140103   2.067   3.642   3.137  0.4900 -0.0394 -1.5409
 9489SOL    HW240104   1.976   3.716   3.053 -0.5688 -1.5580 -0.6805
 9490SOL     OW40105   2.285   3.066   1.749  0.1053 -0.1962  0.5357
 9490SOL    HW140106   2.293   3.004   1.677 -0.0848  1.8290 -1.2340
 9490SOL    HW240107   2.346   3.137   1.728 -0.0814 -0.3337 -0.4431
 9491SOL     OW40108   0.319   4.518   3.690 -0.0784  0.1992 -0.5960
 9491SOL    HW140109   0.289   4.433   3.723  0.0137  1.1552  1.9326
 9491SOL    HW240110   0.368   4.490   3.613 -0.3321  0.6806 -0.9366
 9492SOL     OW40111   0.383   3.181   6.950 -0.3374  0.2054  0.2387
 9492SOL    HW140112   0.459   3.211   7.000 -1.0623  1.2576  0.7068
 9492SOL    HW240113   0.312   3.238   6.979 -0.1054  1.1471 -1.0459
 9493SOL     OW40114   4.137   2.141  10.153  0.4405  0.5997  0.0387
 9493SOL    HW140115   4.178   2.226  10.170  0.0639  0.9092 -0.6229
 9493SOL    HW240116   4.208   2.105  10.100  1.0411 -0.2633  1.4278
 9494SOL     OW40117   1.029   0.831  16.820 -0.1687 -0.2786  0.0941
 9494SOL    HW140118   1.053   0.760  16.761 -3.0827 -1.2839  0.1533
 9494SOL    HW240119   0.938   0.809  16.841 -1.1216  1.3379 -2.2967
 9495SOL     OW40120   2.718   0.511  11.438 -0.5697 -0.7332 -0.0717
 9495SOL    HW140121   2.659   0.447  11.398 -1.6223  0.0837  0.1665
 9495SOL    HW240122   2.747   0.555  11.358  1.2822 -0.7276  0.5936
 9496SOL     OW40123   4.306   2.184  12.099  0.0417  0.0965  0.1097
 9496SOL    HW140124   4.248   2.260  12.104  0.5232  0.6454 -2.7040
 9496SOL    HW240125   4.353   2.192  12.016 -2.3884  0.2182 -1.2392
 9497SOL     OW40126   0.419   3.628   6.367  0.9559 -0.4671 -0.3845
 9497SOL    HW140127   0.423   3.700   6.429  0.6644  1.0769 -2.1465
 9497SOL    HW240128   0.362   3.665   6.299  1.2449 -0.5724 -0.6841
 9498SOL     OW40129   0.645   2.542   1.505 -0.1480  0.2886  0.2582
 9498SOL    HW140130   0.672   2.626   1.542  0.8016  0.8358 -1.6708
 9498SOL    HW240131   0.694   2.488   1.567 -0.0445 -0.3412 -0.3740
 9499SOL     OW40132   0.242   1.544  11.795 -0.2552 -0.2401  0.2002
 9499SOL    HW140133   0.287   1.587  11.868  1.5211  0.8046 -1.4841
 9499SOL    HW240134   0.285   1.460  11.809  2.2019  0.8877 -0.5546
 9500SOL     OW40135   2.426   3.130   7.170  0.2810  0.3992  0.3472
 9500SOL    HW140136   2.380   3.136   7.254  0.8682 -4.1316  0.9577
 9500SOL    HW240137   2.520   3.145   7.184  0.6617  0.4159 -2.2418
 9501SOL     OW40138   1.588   1.780   1.826 -0.2926 -0.1404  0.0113
 9501SOL    HW140139   1.585   1.867   1.864 -1.6188 -0.9217  1.6691
 9501SOL    HW240140   1.595   1.807   1.734  1.2217 -0.5748  0.0024
 9502SOL     OW40141   0.825   3.237   6.911 -0.6025  0.3043  0.9848
 9502SOL    HW140142   0.864   3.232   6.998 -3.0742 -1.0395  2.0409
 9502SOL    HW240143   0.802   3.145   6.898 -2.2935  1.1203 -1.7354
 9503SOL     OW40144   3.100   0.726   7.621  0.1621  0.1822  0.0329
 9503SOL    HW140145   3.162   0.741   7.550 -0.9440 -0.1183 -0.9991
 9503SOL    HW240146   3.159   0.726   7.697  1.0893 -0.8580 -0.6817
 9504SOL     OW40147   1.566   0.757   3.578 -0.4218  0.1183 -0.4139
 9504SOL    HW140148   1.595   0.666   3.571  0.1028  0.4189 -2.1349
 9504SOL    HW240149   1.586   0.777   3.669  1.9095  2.5427 -1.4429
 9505SOL     OW40150   0.230   4.255  13.209  0.1818 -0.4638  0.0781
 9505SOL    HW140151   0.250   4.263  13.303  2.9236 -1.7040 -0.3949
 9505SOL    HW240152   0.314   4.275  13.168 -0.7404  2.8727 -0.2052
 9506SOL     OW40153   3.976   2.939   8.616  0.2597 -0.4736  0.2073
 9506SOL    HW140154   3.903   2.992   8.583 -0.0583 -1.2447 -0.3338
 9506SOL    HW240155   3.983   2.877   8.544 -1.5183  0.9164 -1.1655
 9507SOL     OW40156   0.918   4.220   5.755 -0.0264  0.5136 -0.1173
 9507SOL    HW140157   0.874   4.302   5.736 -0.9436  0.2589  0.9042
 9507SOL    HW240158   1.004   4.243   5.720  0.2717  0.5695  0.6533
 9508SOL     OW40159   3.130   1.523   8.843  0.9347  0.3186  0.3130
 9508SOL    HW140160   3.172   1.580   8.779  1.1637 -2.7442 -2.2078
 9508SOL    HW240161   3.166   1.437   8.823  0.3924 -0.5982  3.1954
 9509SOL     OW40162   0.961   2.631   1.979  0.1775 -0.7303  0.2597
 9509SOL    HW140163   0.912   2.689   1.920 -0.0967 -0.5616  0.6545
 9509SOL    HW240164   0.993   2.696   2.042  1.4555 -1.9430  0.8463
 9510SOL     OW40165   0.001   3.333  17.198 -0.3840  0.1815  0.9476
 9510SOL    HW140166   0.096   3.327  17.190 -0.5634 -1.3695 -0.0387
 9510SOL    HW240167   4.732   3.343  17.293 -1.0068 -0.2423  0.9179
 9511SOL     OW40168   0.645   4.385   7.285 -0.2309  0.1473  0.6423
 9511SOL    HW140169   0.611   4.408   7.372  0.1952  2.1235  0.2617
 9511SOL    HW240170   0.587   4.311   7.266 -0.9829  0.2449  2.5144
 9512SOL     OW40171   4.238   1.809   2.796 -0.3020  0.0918  0.5559
 9512SOL    HW140172   4.223   1.883   2.854  1.4121 -0.7974  2.1392
 9512SOL    HW240173   4.309   1.842   2.742 -0.4438 -2.7927 -1.3971
 9513SOL     OW40174   3.103   0.606   1.078 -0.0117 -0.2934 -0.2851
 9513SOL    HW140175   3.012   0.580   1.060 -0.2289  0.2398  0.0391
 9513SOL    HW240176   3.140   0.537   1.023  0.3773 -0.1600 -0.1893
 9514SOL     OW40177   3.232   2.542   1.551 -0.0436 -0.0602 -0.3846
 9514SOL    HW140178   3.291   2.508   1.618  1.4805  1.0515 -1.1683
 9514SOL    HW240179   3.152   2.563   1.599  0.5905  0.0930  0.6039
 9515SOL     OW40180   3.767   0.707   7.241 -0.4579  0.2501  0.2636
 9515SOL    HW140181   3.827   0.689   7.314  1.2030 -0.5062 -1.2879
 9515SOL    HW240182   3.692   0.654   7.266  0.7975 -2.4309 -1.6036
 9516SOL     OW40183   0.876   0.469  11.829 -0.2742 -0.4672  0.0183
 9516SOL    HW140184   0.887   0.449  11.923 -1.1699 -0.4794  0.1166
 9516SOL    HW240185   0.824   0.549  11.822 -0.2213 -0.5144 -0.8748
 9517SOL     OW40186   0.163   0.252  12.194  0.4999 -0.3122  0.7684
 9517SOL    HW140187   0.110   0.178  12.222  0.9592 -1.0178 -0.2253
 9517SOL    HW240188   0.198   0.229  12.107 -1.8325  0.3710 -0.3460
 9518SOL     OW40189   3.464   1.160   7.327 -0.8312 -0.3588 -0.2372
 9518SOL    HW140190   3.411   1.157   7.248  0.2737 -0.0007 -0.9904
 9518SOL    HW240191   3.432   1.240   7.368  2.9361  1.6007 -1.1638
 9519SOL     OW40192   2.859   1.927   4.038  0.1409 -0.2906  0.0081
 9519SOL    HW140193   2.860   2.014   3.997 -0.4222  0.3472  1.3515
 9519SOL    HW240194   2.937   1.885   4.002  0.0222  0.3110 -0.9613
 9520SOL     OW40195   1.425   3.992   8.517 -0.7074 -0.1199  0.1894
 9520SOL    HW140196   1.502   3.992   8.574  0.2974 -1.5624 -1.1411
 9520SOL    HW240197   1.460   4.027   8.435  2.7193 -0.3190  1.5648
 9521SOL     OW40198   0.776   0.953  15.560  1.2186 -0.2797 -0.1859
 9521SOL    HW140199   0.842   0.958  15.629  1.3396 -0.5756 -0.2833
 9521SOL    HW240200   0.713   0.896  15.605  0.6333  1.4246  1.1837
 9522SOL     OW40201   4.312   4.562   7.750 -0.3794 -0.3119 -0.0315
 9522SOL    HW140202   4.347   4.474   7.763  1.6754  0.7980  1.9558
 9522SOL    HW240203   4.286   4.595   7.837  1.3358  0.1661  0.3099
 9523SOL     OW40204   4.335   3.116  14.675  0.3715 -0.6068  0.3542
 9523SOL    HW140205   4.308   3.208  14.668  1.7006 -0.1014  1.8971
 9523SOL    HW240206   4.406   3.102  14.612 -0.8577 -2.9417 -0.5163
 9524SOL     OW40207   3.506   2.680  13.986  0.1044  0.3347  0.0621
 9524SOL    HW140208   3.519   2.631  13.905 -0.3246 -0.0487  0.2281
 9524SOL    HW240209   3.579   2.653  14.042  0.1334  0.3778  0.0458
 9525SOL     OW40210   2.540   2.508   3.420  0.2155 -0.1556 -0.5708
 9525SOL    HW140211   2.477   2.523   3.490  1.3361  2.5669 -0.1608
 9525SOL    HW240212   2.508   2.422   3.393 -0.1855  0.7223 -2.9132
 9526SOL     OW40213   2.362   4.695   3.816  0.0754 -0.2726 -0.1951
 9526SOL    HW140214   2.390   0.029   3.866 -0.6805 -0.0943 -0.0485
 9526SOL    HW240215   2.348   4.629   3.883  2.2752 -0.4995  0.0610
 9527SOL     OW40216   4.204   1.381  12.738  0.1947  0.7781  0.1705
 9527SOL    HW140217   4.225   1.436  12.814  1.2515  1.2833 -0.4869
 9527SOL    HW240218   4.127   1.331  12.766  1.0962 -1.7975 -1.9222
 9528SOL     OW40219   4.220   4.535  12.926  0.0913  0.8137 -0.2442
 9528SOL    HW140220   4.229   4.446  12.959 -3.6027  0.6796  0.3291
 9528SOL    HW240221   4.230   4.572  13.014 -0.8065  0.8391 -0.1592
 9529SOL     OW40222   2.202   4.060   6.476 -0.3546  0.0900 -0.1989
 9529SOL    HW140223   2.185   4.037   6.384 -0.1368 -0.8448 -0.0053
 9529SOL    HW240224   2.155   3.990   6.522  1.3042 -1.5309 -0.9637
 9530SOL     OW40225   0.199   0.250   7.451  0.0476 -0.7374  0.0718
 9530SOL    HW140226   0.272   0.257   7.388  0.4785 -1.6753  0.4722
 9530SOL    HW240227   0.121   0.287   7.411 -0.7004  0.0087  2.2253
 9531SOL     OW40228   1.963   4.238   8.963  0.6461  0.3080 -0.1997
 9531SOL    HW140229   2.008   4.265   8.883 -1.0459 -1.6812 -1.8168
 9531SOL    HW240230   1.924   4.319   8.996 -0.7946 -1.3988  2.2535
 9532SOL     OW40231   2.495   1.786   0.826  1.1950  0.5477 -0.2289
 9532SOL    HW140232   2.406   1.818   0.814  1.1618  1.5815  2.7050
 9532SOL    HW240233   2.511   1.728   0.752  0.3325  0.3126 -0.2253
 9533SOL     OW40234   1.992   1.474  10.009 -0.1911 -0.5779  0.6679
 9533SOL    HW140235   1.957   1.553   9.966 -0.8908 -1.1328  0.1944
 9533SOL    HW240236   2.086   1.486  10.003 -0.0769  0.1895  4.4736
 9534SOL     OW40237   1.242   3.010   8.719  0.2256 -0.0958  0.1538
 9534SOL    HW140238   1.232   3.099   8.685  2.8826  0.2227  0.2209
 9534SOL    HW240239   1.231   3.028   8.812  1.9220 -1.5827  0.6238
 9535SOL     OW40240   2.623   3.074   4.561 -0.2374  0.3299 -0.2653
 9535SOL    HW140241   2.621   3.041   4.651 -0.3241 -1.1867 -0.8185
 9535SOL    HW240242   2.546   3.128   4.543 -0.6275 -0.2604 -0.3557
 9536SOL     OW40243   3.442   3.315   9.397 -0.2878  0.1485 -0.2234
 9536SOL    HW140244   3.445   3.266   9.479 -0.0566  0.7104  0.1053
 9536SOL    HW240245   3.388   3.256   9.345  0.9152 -0.5957 -0.6284
 9537SOL     OW40246   2.605   2.027   7.733  0.3780 -0.1283 -0.4850
 9537SOL    HW140247   2.513   1.999   7.741  0.8790 -1.1710  1.5221
 9537SOL    HW240248   2.586   2.111   7.691 -0.3416  0.3605  0.8379
 9538SOL     OW40249   0.768   1.692   1.324  0.1790 -0.4258  0.0602
 9538SOL    HW140250   0.713   1.727   1.254  2.0742  0.6775 -0.8612
 9538SOL    HW240251   0.852   1.666   1.286  0.9988  2.4338 -0.0556
 9539SOL     OW40252   3.880   4.272   1.601 -0.3257  0.1177  0.5336
 9539SOL    HW140253   3.872   4.185   1.640 -0.9364  0.0857  0.3450
 9539SOL    HW240254   3.856   4.244   1.512 -0.8859  0.7836  0.4759
 9540SOL     OW40255   4.553   3.742   7.257 -0.1911 -0.0407 -0.4958
 9540SOL    HW140256   4.612   3.795   7.309 -1.7172  0.6504  0.5144
 9540SOL    HW240257   4.562   3.660   7.305  0.4027  2.4479  3.5748
 9541SOL     OW40258   3.644   4.553   1.938  0.4134 -0.4639 -0.2459
 9541SOL    HW140259   3.591   4.502   1.999  1.1511 -0.2126  0.6047
 9541SOL    HW240260   3.712   4.492   1.907 -0.1273 -0.8826 -0.6087
 9542SOL     OW40261   4.590   1.439   2.372  0.0139  0.4492 -0.2647
 9542SOL    HW140262   4.642   1.466   2.447  0.6941 -1.9868  0.1393
 9542SOL    HW240263   4.533   1.516   2.377 -0.3888  0.1625 -0.4978
 9543SOL     OW40264   1.942   3.599   1.927 -0.0414 -0.0073 -0.0620
 9543SOL    HW140265   1.885   3.607   2.003 -1.0794  0.2133 -0.8612
 9543SOL    HW240266   1.878   3.578   1.859  0.4635  1.2486 -0.9370
 9544SOL     OW40267   0.615   4.164  17.313 -0.4587  0.0683 -0.1304
 9544SOL    HW140268   0.694   4.111  17.324  0.3908  0.9194 -2.0463
 9544SOL    HW240269   0.551   4.120  17.258  2.3400 -0.9909 -2.5430
 9545SOL     OW40270   4.066   0.452   3.758  0.4415  0.0797  0.1639
 9545SOL    HW140271   4.089   0.542   3.781  0.1068 -0.2393  1.7564
 9545SOL    HW240272   4.041   0.411   3.841 -1.2965 -1.0020 -0.8920
 9546SOL     OW40273   4.572   1.780   9.154 -0.4298 -0.6158  0.1800
 9546SOL    HW140274   4.565   1.875   9.150 -0.2540 -0.5793  0.7937
 9546SOL    HW240275   4.643   1.770   9.090  0.1357  4.9718 -0.0279
 9547SOL     OW40276   1.369   2.060   2.076 -0.1938 -0.3292  0.0592
 9547SOL    HW140277   1.323   2.114   2.140  0.9481  1.1210 -0.3277
 9547SOL    HW240278   1.320   1.986   2.113  1.8179 -0.8389  1.7337
 9548SOL     OW40279   4.515   4.741  10.593 -0.2205 -0.7826 -0.6935
 9548SOL    HW140280   4.512   0.093  10.577 -3.3445 -0.9904 -1.4224
 9548SOL    HW240281   4.445   4.705  10.538  0.8275 -2.5464 -0.8590
 9549SOL     OW40282   4.282   3.917   6.991 -0.1628 -0.4810  0.2873
 9549SOL    HW140283   4.223   3.921   6.915  0.9329 -0.4583 -0.5682
 9549SOL    HW240284   4.281   4.009   7.019 -0.8358 -0.6411  0.7968
 9550SOL     OW40285   0.582   1.220   8.528 -0.0273  0.2146 -0.4942
 9550SOL    HW140286   0.595   1.169   8.449 -0.8032 -1.0403  0.1958
 9550SOL    HW240287   0.596   1.149   8.590 -2.2605 -0.9450 -1.3183
 9551SOL     OW40288   2.408   1.813   4.691  0.1886  0.0534  0.1063
 9551SOL    HW140289   2.423   1.778   4.604 -2.7647  0.4905 -0.6024
 9551SOL    HW240290   2.486   1.781   4.735 -1.7810 -1.5589  2.4336
 9552SOL     OW40291   4.349   0.258   8.457  0.3807 -0.7348  0.0708
 9552SOL    HW140292   4.256   0.275   8.438  0.5667  0.5367  0.2894
 9552SOL    HW240293   4.349   0.168   8.489  2.9335 -0.5672  0.5514
 9553SOL     OW40294   0.771   0.412   5.367 -0.2532 -0.2829  0.6803
 9553SOL    HW140295   0.777   0.323   5.402  0.2360 -0.4670  0.1334
 9553SOL    HW240296   0.689   0.410   5.317 -0.3941 -0.3080  0.9132
 9554SOL     OW40297   0.059   0.830  11.450 -0.5229 -0.1407  0.1360
 9554SOL    HW140298   0.075   0.736  11.441 -1.3134 -0.1249 -1.2959
 9554SOL    HW240299   4.709   0.821  11.471 -0.6596 -0.3935 -0.5983
 9555SOL     OW40300   3.417   3.368   2.148  0.0295 -0.5179  0.3748
 9555SOL    HW140301   3.389   3.278   2.165  2.0092 -1.5142 -1.7032
 9555SOL    HW240302   3.511   3.352   2.155  0.0368 -1.5542 -2.3679
 9556SOL     OW40303   1.771   4.457   3.563  0.3508 -0.5507 -0.3642
 9556SOL    HW140304   1.720   4.385   3.600 -0.4298  0.2383  0.1122
 9556SOL    HW240305   1.854   4.412   3.551 -1.4891 -3.5647 -1.7709
 9557SOL     OW40306   1.302   1.890   3.817  0.5525  0.3858 -0.1604
 9557SOL    HW140307   1.396   1.903   3.820  0.6595 -0.4446  0.0561
 9557SOL    HW240308   1.276   1.972   3.775  0.2874 -0.1695 -1.0651
 9558SOL     OW40309   0.465   3.771  13.974  0.7867  0.3128  0.9977
 9558SOL    HW140310   0.392   3.727  13.930  1.0353  2.0064 -1.1209
 9558SOL    HW240311   0.545   3.732  13.939  0.6550 -0.3603  1.4433
 9559SOL     OW40312   1.050   1.581   4.091  0.3370  0.0727  0.4528
 9559SOL    HW140313   1.083   1.503   4.047 -0.0232 -0.6285  1.4316
 9559SOL    HW240314   0.982   1.539   4.143  0.5091  0.9113  1.3639
 9560SOL     OW40315   1.253   0.477  12.798  0.0380  0.1535 -0.4719
 9560SOL    HW140316   1.291   0.547  12.851  2.7516  0.3810 -2.7232
 9560SOL    HW240317   1.209   0.428  12.868 -0.0159 -0.0773 -0.6668
 9561SOL     OW40318   4.064   4.094   8.797 -0.2845 -0.0804  0.4760
 9561SOL    HW140319   4.126   4.026   8.821  1.8116  2.5679  2.4857
 9561SOL    HW240320   4.123   4.169   8.790 -0.3599 -0.2966 -2.5616
 9562SOL     OW40321   3.266   3.451   3.146 -0.1992  0.1379  0.6472
 9562SOL    HW140322   3.354   3.458   3.182 -1.5212  2.0729  3.5778
 9562SOL    HW240323   3.232   3.377   3.196 -0.9043  0.7306  1.0475
 9563SOL     OW40324   3.984   3.498   5.317 -0.0230  0.5482  0.4974
 9563SOL    HW140325   4.055   3.474   5.258 -0.8613 -1.0927  0.1353
 9563SOL    HW240326   3.910   3.517   5.258 -1.1155  1.6451  2.2139
 9564SOL     OW40327   2.046   3.863  12.393 -0.2388  0.6506  0.3021
 9564SOL    HW140328   2.126   3.906  12.362 -0.2441  1.9044  1.9851
 9564SOL    HW240329   2.011   3.842  12.307 -0.6419  0.9561  0.3872
 9565SOL     OW40330   3.501   3.608   4.981 -0.2869 -0.5033  0.2706
 9565SOL    HW140331   3.458   3.577   5.061 -1.2776 -0.7998 -0.3717
 9565SOL    HW240332   3.556   3.676   5.020  3.6608 -2.9623 -1.0266
 9566SOL     OW40333   2.334   1.361   6.318 -0.3844 -0.1307  0.1787
 9566SOL    HW140334   2.250   1.337   6.357  0.6772 -0.7365  2.0470
 9566SOL    HW240335   2.308   1.424   6.250 -0.0944  0.9269  1.0433
 9567SOL     OW40336   4.468   2.856   8.727  0.3657 -0.4205 -0.1408
 9567SOL    HW140337   4.437   2.947   8.730  0.9198 -0.1987 -1.2066
 9567SOL    HW240338   4.403   2.818   8.667  1.1975 -2.0982  0.0359
 9568SOL     OW40339   1.747   0.023   6.237 -0.3011 -0.2277  0.8352
 9568SOL    HW140340   1.827   0.051   6.281  0.2873  2.5041 -1.9894
 9568SOL    HW240341   1.693   0.102   6.246 -0.6045 -0.1774 -1.5238
 9569SOL     OW40342   4.289   1.423  13.218 -0.0391 -0.4140 -0.6202
 9569SOL    HW140343   4.267   1.472  13.298  0.1215  0.3004 -1.0185
 9569SOL    HW240344   4.206   1.429  13.170  0.4346  1.0053 -1.2219
   4.74270   4.74270  17.76771
