Membrane in water
40344
    1TMC1    C1    1   3.574   2.093  11.658 -0.8643  0.0845  0.3777
    1TMC1    C2    2   3.516   2.176  11.563  0.0055 -0.4663  0.0613
    1TMC1    C3    3   3.583   2.285  11.518  0.3919  0.1346  0.2845
    1TMC1    C4    4   3.704   2.120  11.701  0.8533 -0.1641 -0.4156
    1TMC1    C5    5   3.771   2.226  11.649 -0.0944 -0.1796 -0.5232
    1TMC1    C6    6   3.709   2.313  11.564  0.3979 -0.5013 -0.0198
    1TMC1     C    7   3.484   1.987  11.706 -0.6618 -1.0579  0.1368
    1TMC1     O    8   3.366   2.003  11.686 -0.3720  0.5977 -0.1967
    1TMC1     H    9   3.419   2.146  11.523 -0.6453  0.6719  0.7960
    1TMC1    H1   10   3.749   2.071  11.787 -3.8017  2.0820  3.2781
    1TMC1    H2   11   3.734   2.418  11.552 -1.1096  0.2026  2.8333
    1TMC1    C7   12   3.875   2.287  11.728 -1.0422 -0.2337  0.6522
    1TMC1    C8   13   3.547   2.332  11.386 -0.4906  0.0914 -0.5593
    1TMC1    O1   14   3.870   2.269  11.849  0.3467 -0.3382 -0.0107
    1TMC1    O2   15   3.596   2.431  11.331 -0.1632  0.2912  0.5647
    1TMC1    O3   16   3.954   2.362  11.642  0.2163  0.0817 -0.2867
    1TMC1    H3   17   3.953   2.333  11.549  0.2911 -0.8704  0.0133
    1TMC1    O5   18   3.526   2.215  11.325 -0.2281 -0.2325  0.1405
    1TMC1    H5   19   3.533   2.138  11.385  0.2582  0.2052  0.6412
    2MPD2     C   20   3.413   1.521  11.919 -0.2081 -0.4736  0.2454
    2MPD2    C1   21   3.330   1.632  11.915 -0.8457 -0.1365  0.4957
    2MPD2    C2   22   3.375   1.747  11.850 -0.0624 -0.7480 -0.4355
    2MPD2    C3   23   3.504   1.750  11.785 -0.4774 -0.5873  0.3326
    2MPD2    C4   24   3.579   1.636  11.795  0.0095  0.1979  0.3488
    2MPD2    C5   25   3.533   1.521  11.856  0.0338 -0.4829 -0.8083
    2MPD2     H   26   3.309   1.834  11.843  0.1363 -0.5243  0.4786
    2MPD2    H1   27   3.675   1.613  11.750 -1.1603  1.0640 -2.5697
    2MPD2    H2   28   3.382   1.435  11.977 -0.8334 -0.3671  0.0664
    2MPD2    H3   29   3.596   1.434  11.855  0.2824 -0.3383  2.0225
    2MPD2     N   30   3.557   1.871  11.736 -0.0050 -0.5461  0.6712
    2MPD2    H5   31   3.658   1.872  11.721 -0.3703 -1.4385 -1.8582
    2MPD2    N1   32   3.196   1.633  11.959 -0.2506 -0.0196  0.2655
    2MPD2    H7   33   3.149   1.722  11.947  0.5418  0.3497 -0.0764
    3TMC1    C1   34   2.021   2.751  10.497 -0.0963 -0.8259  0.3239
    3TMC1    C2   35   2.050   2.866  10.430  0.2060  0.5223 -0.5294
    3TMC1    C3   36   2.033   2.856  10.291 -0.5904 -0.8875  0.3753
    3TMC1    C4   37   1.959   2.640  10.440 -0.1051 -0.1236 -0.0377
    3TMC1    C5   38   1.934   2.646  10.304  0.2219 -0.3420  0.4040
    3TMC1    C6   39   1.986   2.748  10.218 -0.3885 -0.7189  0.2043
    3TMC1     C   40   2.057   2.732  10.637 -0.4372 -0.4696 -0.2798
    3TMC1     O   41   2.059   2.621  10.686 -0.1514  0.3537  0.3756
    3TMC1     H   42   2.105   2.953  10.464  0.2480  0.5895 -0.7686
    3TMC1    H1   43   1.923   2.563  10.507 -0.3015  1.6459  1.8817
    3TMC1    H2   44   1.983   2.742  10.110 -0.8051  2.3844  0.0462
    3TMC1    C7   45   1.912   2.519  10.232 -0.1628  0.6329  0.2219
    3TMC1    C8   46   2.116   2.948  10.224 -0.2853 -0.0594 -0.2952
    3TMC1    O1   47   1.973   2.509  10.126  0.1682 -0.2861 -0.4357
    3TMC1    O2   48   2.138   3.058  10.265 -0.3336 -0.1901  0.2205
    3TMC1    O3   49   1.886   2.417  10.313 -0.3055  0.0867  0.2849
    3TMC1    H3   50   1.824   2.449  10.383 -1.1498 -0.1925 -0.3397
    3TMC1    O5   51   2.213   2.862  10.170  0.2969 -0.1567 -0.3846
    3TMC1    H5   52   2.185   2.768  10.181  1.7427 -0.7740 -1.8801
    4MPD2     C   53   2.077   2.934  11.109  0.6108  0.2521  0.1481
    4MPD2    C1   54   2.062   3.041  11.021 -0.0348 -0.4520 -0.1491
    4MPD2    C2   55   2.064   3.008  10.883  0.6318  0.1949  0.1493
    4MPD2    C3   56   2.083   2.879  10.833 -0.0168 -0.2391  0.3176
    4MPD2    C4   57   2.128   2.783  10.921  0.3248  0.0560 -0.4901
    4MPD2    C5   58   2.121   2.815  11.056 -0.1190 -0.3452 -0.1653
    4MPD2     H   59   2.022   3.086  10.822 -0.4622 -1.0166 -0.6535
    4MPD2    H1   60   2.162   2.683  10.896 -0.2948 -0.2241 -0.2142
    4MPD2    H2   61   2.061   2.948  11.215 -0.3668 -0.2275  0.0606
    4MPD2    H3   62   2.149   2.737  11.126  1.2622  0.4323  0.1480
    4MPD2     N   63   2.058   2.857  10.692  0.5895 -0.5498  0.1204
    4MPD2    H5   64   2.022   2.934  10.636 -1.7315 -2.1764 -0.5999
    4MPD2    N1   65   2.024   3.172  11.068  0.9041 -0.7664 -0.5109
    4MPD2    H7   66   2.017   3.248  11.001 -2.3874 -0.3233  0.3451
    5TCq1    O1   67   3.327   4.720  11.807  0.4381  0.0753 -0.5989
    5TCq1    C1   68   3.201   4.687  11.849  0.1050  0.1744 -0.3992
    5TCq1    O2   69   3.158   4.691  11.966  0.3363 -0.3449  0.5602
    5TCq1    C2   70   3.114   0.000  11.742 -0.1841  1.6423  0.4093
    5TCq1    C3   71   3.002   0.056  11.783  0.0072  0.2277 -0.3180
    5TCq1    C4   72   2.897   0.079  11.700 -0.2893 -0.4040 -0.1479
    5TCq1    C5   73   2.909   0.053  11.565 -0.7594  0.1438 -0.1071
    5TCq1    C6   74   3.030   0.004  11.523  0.2068  0.2914  0.3280
    5TCq1    C7   75   3.135   4.705  11.608 -0.4172  0.1656 -0.5189
    5TCq1    C8   76   3.029   4.675  11.401  0.3022  0.6002  0.0651
    5TCq1    O4   77   3.090   4.574  11.376 -0.7268 -0.0126 -0.0841
    5TCq1    C9   78   2.775   0.133  11.763  0.0555 -0.3261 -0.1746
    5TCq1    O5   79   2.667   0.113  11.703  0.5430  0.2021 -0.1531
    5TCq1    O6   80   2.789   0.170  11.877  0.0706 -0.2736 -0.9457
    5TCq1    H1   81   3.329   4.715  11.709 -0.1622  0.3087 -0.6224
    5TCq1    H2   82   2.985   0.071  11.889 -1.1761  2.6467 -0.8568
    5TCq1    H3   83   2.836   0.092  11.495 -1.0552  1.2767  0.8322
    5TCq1    H4   84   3.225   4.658  11.569  0.1199  0.1902  0.6839
    6MPD2     C   85   2.911   0.063  11.074 -0.3120 -0.5843 -0.1173
    6MPD2    C1   86   2.931   4.710  11.179  0.4931 -0.3073 -0.3535
    6MPD2    C2   87   2.918   4.578  11.146  1.0673  0.0697  0.5093
    6MPD2    C3   88   2.889   4.532  11.018 -0.0862  0.0102  0.4725
    6MPD2    C4   89   2.876   4.622  10.914  0.4597 -0.0988  0.3806
    6MPD2    C5   90   2.886   0.023  10.945 -0.1790  0.3302 -0.6490
    6MPD2     H   91   2.931   4.508  11.228 -1.9162 -0.9304  0.1094
    6MPD2    H1   92   2.852   4.604  10.810 -0.0118 -1.4271  0.7109
    6MPD2    H2   93   2.922   0.169  11.093 -3.7296  0.0790 -1.7059
    6MPD2    H3   94   2.863   0.090  10.863  1.0783 -0.0450 -1.3140
    6MPD2     N   95   2.878   4.390  10.991 -0.0187  0.1712 -0.2934
    6MPD2    H5   96   2.891   4.335  11.076 -1.8986 -1.1727 -0.8853
    6MPD2    N1   97   2.957   0.015  11.307 -0.1054 -0.1619  0.0823
    6MPD2    H7   98   2.951   0.115  11.325  0.1106 -0.0053 -0.7036
    7TCq1    O1   99   0.412   4.216  13.745  0.4003 -0.0934 -0.5071
    7TCq1    C1  100   0.362   4.278  13.643  0.1394 -0.5949  0.1415
    7TCq1    O2  101   0.300   4.384  13.650 -0.0019 -0.1572 -0.3713
    7TCq1    C2  102   0.407   4.216  13.522 -0.5296  0.5276  0.2590
    7TCq1    C3  103   0.440   4.294  13.414  0.4038  0.6555 -0.9247
    7TCq1    C4  104   0.469   4.230  13.291 -0.6002  0.9493  1.0722
    7TCq1    C5  105   0.437   4.096  13.268  0.3184 -0.0887 -0.2410
    7TCq1    C6  106   0.409   4.027  13.381  0.0432  0.4277  0.6520
    7TCq1    C7  107   0.393   4.087  13.505  0.2186 -0.5880 -0.0380
    7TCq1    C8  108   0.349   3.894  13.363  0.7722 -0.4806 -0.2995
    7TCq1    O4  109   0.343   3.821  13.462  0.2293 -0.8637  0.0062
    7TCq1    C9  110   0.501   4.317  13.181  0.9928 -0.7062  0.2907
    7TCq1    O5  111   0.442   4.294  13.074  0.0188 -0.0569 -0.4218
    7TCq1    O6  112   0.541   4.430  13.218  0.4052 -0.1272 -0.4248
    7TCq1    H1  113   0.461   4.132  13.735  0.9431  0.1742 -0.1338
    7TCq1    H2  114   0.435   4.402  13.423  1.3783  0.5995  0.3454
    7TCq1    H3  115   0.453   4.067  13.165 -0.8658 -2.4926  0.2536
    7TCq1    H4  116   0.359   4.030  13.591  2.5097  1.9406  2.5155
    8MPD2     C  117   0.075   3.569  13.071 -0.6640  0.3533 -0.3555
    8MPD2    C1  118   0.145   3.537  13.187  0.0398 -0.1998  0.1395
    8MPD2    C2  119   0.224   3.640  13.238  0.5012 -0.0078 -0.2629
    8MPD2    C3  120   0.235   3.763  13.176  0.1821 -0.1022 -0.0624
    8MPD2    C4  121   0.177   3.787  13.050 -0.3226 -0.8011 -0.7210
    8MPD2    C5  122   0.098   3.685  13.001  0.6047 -0.0087 -0.1717
    8MPD2     H  123   0.279   3.623  13.330 -0.4866  0.3935  0.4066
    8MPD2    H1  124   0.196   3.870  12.982  2.5206 -2.0652 -1.4585
    8MPD2    H2  125   0.009   3.497  13.023  0.8124 -1.6812  0.6556
    8MPD2    H3  126   0.047   3.695  12.906  0.2441  3.0858  0.3321
    8MPD2     N  127   0.308   3.870  13.230 -0.1408 -0.8319  0.3625
    8MPD2    H5  128   0.319   3.953  13.174  0.1490  0.0392  1.7192
    8MPD2    N1  129   0.137   3.403  13.241  0.3726 -0.2196 -0.5196
    8MPD2    H7  130   0.086   3.334  13.188  2.8448  0.6727 -4.0676
    9TMC1    C1  131   2.887   2.780  10.533  0.1460 -0.7380 -0.0988
    9TMC1    C2  132   2.839   2.654  10.515 -0.1327 -0.4774 -0.4502
    9TMC1    C3  133   2.805   2.612  10.386  0.2147 -0.3306  0.5094
    9TMC1    C4  134   2.914   2.856  10.419  0.2525 -0.1439 -0.4329
    9TMC1    C5  135   2.883   2.803  10.294  0.2430 -0.4697 -0.1569
    9TMC1    C6  136   2.829   2.680  10.273 -0.1409 -0.4716  0.1721
    9TMC1     C  137   2.977   2.806  10.644 -0.1270  0.7365 -0.3014
    9TMC1     O  138   3.082   2.860  10.606  0.2349 -0.4967  0.0912
    9TMC1     H  139   2.827   2.591  10.602  0.8139  0.7573  0.5825
    9TMC1    H1  140   2.951   2.957  10.436 -0.1387  0.3461 -2.4975
    9TMC1    H2  141   2.798   2.642  10.176 -1.3571  1.2160 -0.0967
    9TMC1    C7  142   2.929   2.880  10.174  0.5409  0.1009  0.2221
    9TMC1    C8  143   2.739   2.492  10.365  0.0420 -0.5170  0.2529
    9TMC1    O1  144   2.868   2.870  10.066 -0.0531 -0.0036  0.5447
    9TMC1    O2  145   2.671   2.468  10.268 -0.3145  0.2689 -0.6886
    9TMC1    O3  146   3.062   2.868  10.177 -0.1814 -0.1780  0.5718
    9TMC1    H3  147   3.096   2.862  10.269  1.5983  1.8074  0.0616
    9TMC1    O5  148   2.799   2.407  10.447 -0.4236 -0.4276 -0.3889
    9TMC1    H5  149   2.874   2.437  10.503 -0.0691 -0.2727 -0.9561
   10MPD2     C  150   3.131   2.814  10.908  0.1043  0.0821  0.0689
   10MPD2    C1  151   3.005   2.759  10.893  0.4971  0.5020  0.7884
   10MPD2    C2  152   2.922   2.727  11.004 -0.4171 -0.0883  0.1504
   10MPD2    C3  153   2.985   2.727  11.125 -0.1382  0.5775  0.0711
   10MPD2    C4  154   3.111   2.775  11.140  0.0149  0.0285 -0.6967
   10MPD2    C5  155   3.178   2.828  11.033 -0.2567 -0.9138  0.1320
   10MPD2     H  156   2.820   2.695  10.983  0.2152 -1.0308 -1.5019
   10MPD2    H1  157   3.160   2.776  11.236  0.0179 -0.6075 -0.6867
   10MPD2    H2  158   3.191   2.851  10.825  1.9388  1.0001  1.7920
   10MPD2    H3  159   3.278   2.869  11.044  0.2167 -1.9744 -0.2586
   10MPD2     N  160   2.929   2.668  11.239 -0.4056 -0.3237  0.0365
   10MPD2    H5  161   2.979   2.656  11.326  1.6536 -0.8022 -1.2194
   10MPD2    N1  162   2.937   2.749  10.766 -0.1142  0.1270  0.2326
   10MPD2    H7  163   2.841   2.716  10.765  0.2733 -1.0345  1.0682
   11TCq1    O1  164   3.300   2.622  14.363  0.4725 -0.3134  0.1456
   11TCq1    C1  165   3.236   2.562  14.470  0.5429  0.2678 -0.0222
   11TCq1    O2  166   3.128   2.605  14.513 -0.7480 -1.4955 -0.1239
   11TCq1    C2  167   3.251   2.425  14.445 -0.2467  0.5148  0.5906
   11TCq1    C3  168   3.365   2.384  14.384  0.2263  0.3587  0.6032
   11TCq1    C4  169   3.361   2.289  14.285  0.5799  0.2440 -0.0006
   11TCq1    C5  170   3.246   2.217  14.277 -0.2839  0.5507 -0.1234
   11TCq1    C6  171   3.142   2.244  14.366 -0.1857  0.0221  0.3704
   11TCq1    C7  172   3.140   2.353  14.447  0.5030  0.0110  0.7480
   11TCq1    C8  173   3.009   2.172  14.357 -0.1506  0.8467 -0.2176
   11TCq1    O4  174   2.909   2.229  14.395 -0.0047  0.3294  0.0905
   11TCq1    C9  175   3.482   2.242  14.220 -0.2026  0.4850  0.0150
   11TCq1    O5  176   3.589   2.289  14.272 -0.3315 -0.3279  0.0946
   11TCq1    O6  177   3.475   2.128  14.159  0.5264  0.0394  0.2106
   11TCq1    H1  178   3.380   2.573  14.336  0.4419  0.5769 -1.5381
   11TCq1    H2  179   3.458   2.436  14.404 -0.9396  2.6779  0.0721
   11TCq1    H3  180   3.238   2.140  14.201 -0.0900 -1.0490  1.4708
   11TCq1    H4  181   3.056   2.380  14.510 -1.0772 -2.6062 -0.2171
   12MPD2     C  182   2.792   1.978  14.286  0.1904  0.0325  0.4478
   12MPD2    C1  183   2.927   1.949  14.296  0.4283 -0.1298 -0.2924
   12MPD2    C2  184   2.967   1.817  14.284 -0.3555  0.3495  0.4517
   12MPD2    C3  185   2.878   1.716  14.268  0.3387 -0.3427 -0.0599
   12MPD2    C4  186   2.746   1.742  14.247  0.0776  0.0389  0.1155
   12MPD2    C5  187   2.703   1.877  14.251  0.2883  0.3489 -0.0188
   12MPD2     H  188   3.072   1.796  14.305 -0.1215 -0.2669 -1.3292
   12MPD2    H1  189   2.674   1.662  14.231 -1.4219  1.6192 -1.0264
   12MPD2    H2  190   2.757   2.080  14.299 -1.7855 -0.7778  1.5091
   12MPD2    H3  191   2.596   1.897  14.250  0.6318  2.2094  0.6890
   12MPD2     N  192   2.919   1.584  14.250  0.0826 -0.2518 -0.1992
   12MPD2    H5  193   2.845   1.519  14.225  2.2288 -2.7086 -0.1565
   12MPD2    N1  194   3.028   2.043  14.320 -0.4668 -0.4849 -0.2758
   12MPD2    H7  195   3.126   2.021  14.308 -0.5902 -0.7350 -0.8387
   13TCq1    O1  196   3.362   2.489  11.076  0.5430 -0.0414 -0.2692
   13TCq1    C1  197   3.258   2.450  11.144  0.4450  0.1587  0.3903
   13TCq1    O2  198   3.231   2.480  11.258 -0.3111  0.0765 -0.0261
   13TCq1    C2  199   3.152   2.420  11.049 -0.1524  0.2433 -0.4768
   13TCq1    C3  200   3.171   2.437  10.917 -0.7930  0.7457  0.1030
   13TCq1    C4  201   3.068   2.411  10.832  0.1882 -0.4053  0.7966
   13TCq1    C5  202   2.948   2.370  10.876 -0.0280  0.3269  0.1547
   13TCq1    C6  203   2.941   2.334  11.005  0.6369 -0.1920 -0.8284
   13TCq1    C7  204   3.040   2.367  11.095 -0.6299  0.1600  0.2539
   13TCq1    C8  205   2.821   2.278  11.065  0.0618  0.1422 -0.1460
   13TCq1    O4  206   2.805   2.292  11.183 -0.0283 -0.2354 -0.1486
   13TCq1    C9  207   3.088   2.418  10.692  1.0822  0.4941 -0.1512
   13TCq1    O5  208   3.182   2.485  10.644 -0.5500  0.0154 -0.4407
   13TCq1    O6  209   2.987   2.389  10.622 -0.2625 -0.5242  0.0278
   13TCq1    H1  210   3.377   2.448  10.988  0.2144 -0.7403 -0.0043
   13TCq1    H2  211   3.263   2.468  10.869 -0.6593  0.4425  0.1666
   13TCq1    H3  212   2.863   2.375  10.809 -0.5991  1.1079  0.9373
   13TCq1    H4  213   3.024   2.355  11.202 -1.3944 -2.4678 -0.1537
   14MPD2     C  214   2.556   2.065  10.903 -0.0103 -0.4365  0.4368
   14MPD2    C1  215   2.607   2.153  10.998 -0.1675 -0.4735  0.3893
   14MPD2    C2  216   2.533   2.167  11.120 -0.0013  0.0854  0.1040
   14MPD2    C3  217   2.424   2.088  11.137 -0.4040  0.0346  0.3236
   14MPD2    C4  218   2.374   2.003  11.045  0.8902  0.0041  0.2944
   14MPD2    C5  219   2.438   1.994  10.923  0.2273  0.2958  0.3271
   14MPD2     H  220   2.556   2.248  11.188  2.2568  0.1796 -0.7608
   14MPD2    H1  221   2.276   1.959  11.055  1.5848 -2.1939 -2.7846
   14MPD2    H2  222   2.607   2.039  10.811 -0.9862  1.6758 -0.6887
   14MPD2    H3  223   2.399   1.939  10.838  2.2393 -0.4953 -0.0910
   14MPD2     N  224   2.354   2.110  11.254 -0.3364 -0.1655 -0.0892
   14MPD2    H5  225   2.392   2.178  11.320 -0.4926 -0.7725  0.6288
   14MPD2    N1  226   2.741   2.209  10.978  0.6384 -0.3299 -0.9661
   14MPD2    H7  227   2.771   2.199  10.881  0.2523  1.2668 -1.2419
   15TCq1    O1  228   0.686   1.893   1.537 -0.0210 -0.0481 -0.2418
   15TCq1    C1  229   0.612   1.872   1.426 -0.2009 -0.3715  0.2200
   15TCq1    O2  230   0.660   1.857   1.312 -0.4811  0.0067 -0.2466
   15TCq1    C2  231   0.498   1.797   1.474  0.0104  0.3744 -0.7910
   15TCq1    C3  232   0.427   1.824   1.583  0.0348  0.2731  0.2415
   15TCq1    C4  233   0.308   1.755   1.603  0.4589 -0.5702 -0.4685
   15TCq1    C5  234   0.272   1.654   1.523 -0.2347  0.1028  0.0221
   15TCq1    C6  235   0.349   1.634   1.407  0.4902 -1.4014 -0.2626
   15TCq1    C7  236   0.459   1.701   1.384  0.7761  0.4054  0.1070
   15TCq1    C8  237   0.316   1.533   1.322  0.8571 -0.0140 -0.0306
   15TCq1    O4  238   0.406   1.471   1.265  0.0394  0.1442 -0.5808
   15TCq1    C9  239   0.217   1.807   1.702 -0.3357  0.1630 -0.1520
   15TCq1    O5  240   0.114   1.735   1.725 -0.3790  0.2060 -0.5660
   15TCq1    O6  241   0.243   1.909   1.766  0.3735 -0.0794  0.5329
   15TCq1    H1  242   0.642   1.867   1.620  1.4545  0.4041  0.6811
   15TCq1    H2  243   0.462   1.893   1.660 -1.8623  1.7136 -0.2024
   15TCq1    H3  244   0.175   1.612   1.544 -0.6549  1.4678  0.8372
   15TCq1    H4  245   0.520   1.671   1.299  0.7294 -0.2079  0.2899
   16MPD2     C  246   4.712   1.387   1.267  0.1722  0.1761  0.5585
   16MPD2    C1  247   0.115   1.400   1.258 -0.3523  0.3740  1.0689
   16MPD2    C2  248   0.186   1.314   1.178  1.0202  0.6199  0.1753
   16MPD2    C3  249   0.122   1.197   1.125 -0.0792  0.4841  0.1063
   16MPD2    C4  250   4.721   1.191   1.130 -0.1659  0.4494  0.2552
   16MPD2    C5  251   4.652   1.288   1.199  0.3123 -0.1660  0.0013
   16MPD2     H  252   0.293   1.326   1.159  0.9176  0.4504 -0.5195
   16MPD2    H1  253   4.659   1.109   1.093  1.2192 -0.7128  0.5172
   16MPD2    H2  254   4.649   1.454   1.325 -0.6655  1.7116 -2.1032
   16MPD2    H3  255   4.546   1.275   1.217  0.0265 -0.6926 -2.1026
   16MPD2     N  256   0.205   1.089   1.075 -0.5647  0.4835  0.4540
   16MPD2    H5  257   0.306   1.090   1.089 -0.4308 -1.8578 -0.3862
   16MPD2    N1  258   0.179   1.512   1.321 -0.1576  0.1606 -0.0238
   16MPD2    H7  259   0.127   1.574   1.382  1.4701  0.9971  0.5197
   17TMC1    C1  260   3.151   1.436  11.631 -0.8974  0.1882  0.0101
   17TMC1    C2  261   3.263   1.365  11.673  0.6224  0.1635 -0.5272
   17TMC1    C3  262   3.230   1.249  11.740 -0.0546 -0.6824  0.9571
   17TMC1    C4  263   3.019   1.397  11.666 -0.0607  0.0131 -0.8979
   17TMC1    C5  264   2.997   1.278  11.727 -0.3741  0.3543 -0.3872
   17TMC1    C6  265   3.103   1.202  11.764 -0.7194  0.5980 -0.0635
   17TMC1     C  266   3.172   1.574  11.584  0.1942 -0.3710  0.4733
   17TMC1     O  267   3.083   1.654  11.614  0.4802 -0.6990  0.2766
   17TMC1     H  268   3.363   1.405  11.666  0.9921 -0.4318  1.4493
   17TMC1    H1  269   2.935   1.459  11.637 -0.5201  1.4293  3.4073
   17TMC1    H2  270   3.085   1.106  11.811 -0.3023  0.7967  0.4905
   17TMC1    C7  271   2.859   1.231  11.746 -0.3188 -0.4174  0.8187
   17TMC1    C8  272   3.337   1.189  11.817  0.1272 -0.1647  0.2465
   17TMC1    O1  273   2.776   1.286  11.677 -0.1045  0.2749 -0.1452
   17TMC1    O2  274   3.450   1.190  11.774  0.3243  0.3291 -0.5077
   17TMC1    O3  275   2.839   1.182  11.871 -0.0762 -0.0363 -0.2373
   17TMC1    H3  276   2.922   1.169  11.923 -1.4826 -0.2492  1.9419
   17TMC1    O5  277   3.298   1.202  11.944 -0.4190 -0.0226 -0.1091
   17TMC1    H5  278   3.203   1.222  11.959 -0.7880 -2.9364  1.6057
   18MPD2     C  279   3.249   1.814  11.441 -0.1526  0.4885 -0.0026
   18MPD2    C1  280   3.293   1.689  11.411  0.2890  0.1810 -0.3213
   18MPD2    C2  281   3.365   1.671  11.290  0.7598 -0.5188 -0.0526
   18MPD2    C3  282   3.393   1.778  11.211 -0.2611 -0.0465  0.1463
   18MPD2    C4  283   3.357   1.906  11.248 -0.1861 -1.0570 -0.6217
   18MPD2    C5  284   3.288   1.917  11.368 -0.0466 -0.2123 -0.1279
   18MPD2     H  285   3.410   1.573  11.274 -0.1326 -0.3981 -3.4029
   18MPD2    H1  286   3.385   1.991  11.187  2.2432 -0.7636  0.9368
   18MPD2    H2  287   3.197   1.832  11.535  0.8692  0.6892  0.5225
   18MPD2    H3  288   3.248   2.011  11.404 -0.6756 -0.1898 -0.8994
   18MPD2     N  289   3.452   1.769  11.088 -0.1359  0.0470  0.0481
   18MPD2    H5  290   3.493   1.854  11.050  0.1732 -0.0476  0.1730
   18MPD2    N1  291   3.270   1.577  11.494  0.1477  0.3275 -0.4297
   18MPD2    H7  292   3.323   1.491  11.479 -0.2606  0.0426 -0.2288
   19TMC2    C1  293   4.067   2.044  13.881 -0.5440  0.0825 -0.1361
   19TMC2    C2  294   3.963   2.130  13.899 -0.2784 -0.3236  0.0769
   19TMC2    C3  295   3.858   2.080  13.967  0.0850  0.0893 -0.6885
   19TMC2    C4  296   4.072   1.918  13.927 -0.1578 -0.3742  0.0879
   19TMC2    C5  297   3.958   1.875  13.996 -0.0798  0.1699 -0.1353
   19TMC2    C6  298   3.843   1.951  14.008 -0.1672  0.8171  0.5022
   19TMC2     C  299   4.184   2.097  13.808  0.2276  0.0118 -0.2144
   19TMC2     O  300   4.167   2.189  13.726 -0.7998 -0.2506  0.4748
   19TMC2     H  301   3.964   2.233  13.865  1.7017  0.4469  2.4503
   19TMC2    H1  302   4.151   1.846  13.909  0.7939  0.0358  2.5163
   19TMC2    H2  303   3.756   1.932  14.070  0.3448 -0.2241  0.8947
   19TMC2    C7  304   3.972   1.744  14.066 -0.1585 -0.1690  0.2142
   19TMC2    C8  305   3.749   2.174  14.009 -0.0317 -0.1351  0.0484
   19TMC2    O1  306   4.066   1.674  14.032 -0.0917  0.2081  0.6902
   19TMC2    O2  307   3.776   2.280  13.950 -0.3540 -0.2408  0.5485
   19TMC2    O5  308   3.643   2.103  13.968  0.2351  0.0937 -0.2189
   19TMC2    H5  309   3.573   2.123  14.035 -1.8243 -3.4232 -1.3103
   20MPD2     C  310   4.447   2.136  13.667  0.0422  0.4543 -0.4295
   20MPD2    C1  311   4.430   2.071  13.786 -0.5913 -0.0320  0.3026
   20MPD2    C2  312   4.540   2.010  13.851  0.2362 -0.5973 -0.3893
   20MPD2    C3  313   4.662   2.017  13.784  0.0380 -0.2455  0.3439
   20MPD2    C4  314   4.678   2.074  13.664  0.2527  0.1003  0.1239
   20MPD2    C5  315   4.570   2.141  13.609 -0.2521 -0.4176 -0.4591
   20MPD2     H  316   4.532   1.956  13.944  0.0016  0.6074  0.2851
   20MPD2    H1  317   0.035   2.092  13.614 -1.7351 -0.1399 -3.7731
   20MPD2    H2  318   4.359   2.172  13.615 -0.0701 -1.7344 -1.7497
   20MPD2    H3  319   4.578   2.202  13.520  0.3920 -1.7151 -1.2947
   20MPD2     N  320   0.047   1.976  13.838  0.5147 -0.4292  0.5353
   20MPD2    H5  321   0.135   2.000  13.792 -0.2590 -0.0113 -0.7114
   20MPD2    N1  322   4.305   2.047  13.849 -0.5411 -0.2705  0.3490
   20MPD2    H7  323   4.305   1.990  13.933 -0.4979  0.8833  1.1369
   21TMC2    C1  324   1.975   2.504  14.278  0.2257  0.4089  0.8079
   21TMC2    C2  325   2.058   2.393  14.298 -0.4153 -0.5391 -0.3436
   21TMC2    C3  326   1.994   2.283  14.354  0.1664  0.1868 -0.0177
   21TMC2    C4  327   1.853   2.513  14.331 -0.4432  0.2109  0.0005
   21TMC2    C5  328   1.807   2.409  14.410  0.0825  0.1000 -0.1639
   21TMC2    C6  329   1.878   2.291  14.418  0.1094 -0.0681 -0.3253
   21TMC2     C  330   2.056   2.620  14.308 -0.4426 -0.2968  0.5505
   21TMC2     O  331   2.168   2.597  14.350 -0.0856 -0.0505 -0.0622
   21TMC2     H  332   2.158   2.390  14.256  0.3618 -1.1480  1.5080
   21TMC2    H1  333   1.787   2.600  14.324  1.9415  2.0309  0.0602
   21TMC2    H2  334   1.852   2.213  14.489  0.4217 -0.0573 -0.1996
   21TMC2    C7  335   1.735   2.435  14.532 -0.1837 -0.0233 -0.1483
   21TMC2    C8  336   2.076   2.179  14.408 -0.1392 -0.0045  0.2126
   21TMC2    O1  337   1.738   2.356  14.624  0.0248  0.4702  0.4523
   21TMC2    O2  338   2.054   2.117  14.509  0.0937 -0.0101 -0.2471
   21TMC2    O5  339   2.162   2.143  14.313  0.5873  0.3742 -0.0281
   21TMC2    H5  340   2.137   2.175  14.223  0.9420  1.3592  0.2322
   22MPD2     C  341   1.966   2.937  14.707  0.7868  0.0888  0.1313
   22MPD2    C1  342   2.028   2.815  14.690 -0.6701 -0.6583 -1.0423
   22MPD2    C2  343   2.034   2.757  14.569  0.0596  0.1778 -0.1951
   22MPD2    C3  344   1.982   2.810  14.457 -0.6430 -0.4255 -1.0192
   22MPD2    C4  345   1.911   2.926  14.472 -0.1313 -0.5582  0.0032
   22MPD2    C5  346   1.915   2.999  14.590 -0.0069 -0.1776 -0.5232
   22MPD2     H  347   2.092   2.665  14.568  2.2757  1.5705 -0.0276
   22MPD2    H1  348   1.879   2.969  14.378  0.2408 -0.1303  0.0700
   22MPD2    H2  349   1.958   2.987  14.802  2.7346 -1.3739  1.0472
   22MPD2    H3  350   1.866   3.094  14.605 -0.4667 -0.7820  1.7136
   22MPD2     N  351   1.976   2.732  14.335 -0.2440 -0.0616 -0.1349
   22MPD2    H5  352   1.893   2.749  14.279  0.0768  0.3332 -0.4848
   22MPD2    N1  353   2.039   2.722  14.796  0.0214  0.5646 -0.1747
   22MPD2    H7  354   2.046   2.626  14.766  1.6844  0.3128  1.0537
   23TMC2    C1  355   3.111   3.169  14.338 -0.6738  0.3746 -0.3861
   23TMC2    C2  356   3.116   3.254  14.229 -0.7238 -0.5540 -0.1149
   23TMC2    C3  357   2.998   3.266  14.152 -0.5989  0.2173 -0.0618
   23TMC2    C4  358   2.996   3.106  14.367  0.7231 -0.1711 -0.5864
   23TMC2    C5  359   2.883   3.116  14.285 -0.0783  0.9444 -0.4713
   23TMC2    C6  360   2.883   3.201  14.178 -1.0997 -0.2531  0.0672
   23TMC2     C  361   3.198   3.185  14.453  0.3599  0.3312  0.3807
   23TMC2     O  362   3.172   3.117  14.550 -0.8194  0.2940  0.5349
   23TMC2     H  363   3.209   3.295  14.189 -1.7775 -0.1319 -2.1041
   23TMC2    H1  364   2.997   3.037  14.451  1.6033 -1.7980 -1.9209
   23TMC2    H2  365   2.795   3.214  14.117  0.1955 -1.5716 -2.1082
   23TMC2    C7  366   2.777   3.035  14.325 -0.7445  0.4704 -0.4256
   23TMC2    C8  367   3.012   3.310  14.015 -0.2202  1.0438  0.0876
   23TMC2    O1  368   2.798   2.928  14.385 -0.2314  0.5697 -0.2062
   23TMC2    O2  369   3.096   3.392  13.991  0.0506 -0.3035  0.3041
   23TMC2    O5  370   2.981   3.204  13.941 -0.4603  0.0835 -0.0667
   23TMC2    H5  371   2.984   3.125  13.999 -0.7607  1.2348  1.5256
   24MPD2     C  372   3.660   3.221  14.651  0.4725 -0.5040 -0.1807
   24MPD2    C1  373   3.537   3.211  14.710  0.8162 -0.3940 -0.0017
   24MPD2    C2  374   3.427   3.203  14.627 -0.3404 -0.1622  0.4425
   24MPD2    C3  375   3.433   3.217  14.488 -0.3862 -0.0409  1.2237
   24MPD2    C4  376   3.558   3.235  14.435  0.0855  0.2880  0.0822
   24MPD2    C5  377   3.669   3.242  14.517  0.1205  0.2792  0.4236
   24MPD2     H  378   3.330   3.195  14.675 -0.8588  1.9919 -0.2688
   24MPD2    H1  379   3.580   3.243  14.329 -1.6541  0.2469 -0.2734
   24MPD2    H2  380   3.752   3.220  14.709 -0.0305  1.7487  0.6233
   24MPD2    H3  381   3.761   3.261  14.462 -1.0406  0.9436 -1.3142
   24MPD2     N  382   3.323   3.221  14.406 -0.0231 -0.0188  0.0152
   24MPD2    H5  383   3.339   3.248  14.310 -0.9129 -0.3862 -0.2338
   24MPD2    N1  384   3.522   3.205  14.851 -0.1129 -0.0733 -0.5353
   24MPD2    H7  385   3.434   3.173  14.890  0.2456 -0.2791  0.0913
   25TMC2    C1  386   2.499   1.126  11.587 -0.1589  0.6088 -0.2852
   25TMC2    C2  387   2.491   1.261  11.584 -0.2200 -0.4486  0.2816
   25TMC2    C3  388   2.448   1.321  11.705 -1.0454 -0.7671  0.7821
   25TMC2    C4  389   2.452   1.046  11.691 -0.8079  0.0093  0.6138
   25TMC2    C5  390   2.409   1.108  11.806  0.2690 -0.5911 -0.2049
   25TMC2    C6  391   2.414   1.245  11.816 -0.0178 -0.3306  0.4175
   25TMC2     C  392   2.574   1.070  11.473  0.2273  1.0738  0.1035
   25TMC2     O  393   2.662   1.137  11.423  0.2055 -0.2568 -0.4624
   25TMC2     H  394   2.523   1.323  11.501  0.3846  0.6529  1.3361
   25TMC2    H1  395   2.439   0.938  11.685 -1.4325  0.1371 -0.4864
   25TMC2    H2  396   2.396   1.294  11.911  2.7094  1.3579  0.0620
   25TMC2    C7  397   2.332   1.042  11.910 -0.9959  0.3048 -0.4943
   25TMC2    C8  398   2.471   1.463  11.717  0.4400 -0.3667 -0.1031
   25TMC2    O1  399   2.333   1.093  12.024  0.7455 -0.3794  0.2031
   25TMC2    O2  400   2.409   1.509  11.811  0.6338 -0.0363 -0.1500
   25TMC2    O5  401   2.597   1.498  11.674  0.0892 -0.1282  0.0724
   25TMC2    H5  402   2.643   1.427  11.625  0.2869  0.6499 -0.8617
   26MPD2     C  403   2.657   0.703  11.130  1.0445 -0.4187 -0.4124
   26MPD2    C1  404   2.535   0.683  11.177  0.3255 -0.6753  0.2457
   26MPD2    C2  405   2.490   0.769  11.269 -0.7403  0.3736  0.1493
   26MPD2    C3  406   2.570   0.869  11.335 -0.3257  0.2432 -0.9737
   26MPD2    C4  407   2.706   0.877  11.293  0.3038  0.1602 -0.1501
   26MPD2    C5  408   2.742   0.795  11.189  0.7124 -0.2156  0.5806
   26MPD2     H  409   2.385   0.762  11.296 -1.6414  0.7432 -3.3092
   26MPD2    H1  410   2.777   0.944  11.340 -0.3565 -0.9307  2.4043
   26MPD2    H2  411   2.694   0.647  11.046  0.6611 -0.1165 -0.7823
   26MPD2    H3  412   2.844   0.793  11.153  0.2684  1.0945 -0.7388
   26MPD2     N  413   2.513   0.952  11.437  0.7758 -0.0589 -0.2638
   26MPD2    H5  414   2.429   0.916  11.482  0.9349  0.5568  0.5245
   26MPD2    N1  415   2.454   0.581  11.123 -0.1900 -0.3936 -0.2106
   26MPD2    H7  416   2.491   0.529  11.044  2.8984  0.0245  0.9876
   27TMC2    C1  417   1.156   2.817  11.952 -0.2589 -0.7901  0.5363
   27TMC2    C2  418   1.096   2.880  11.845  0.2896  0.2784  0.9953
   27TMC2    C3  419   1.060   3.016  11.859 -0.7299  0.1472  0.2157
   27TMC2    C4  420   1.173   2.887  12.066 -0.5945  0.6736 -0.6455
   27TMC2    C5  421   1.151   3.023  12.074 -0.1503  0.0813  0.2203
   27TMC2    C6  422   1.097   3.088  11.967 -0.0766 -0.5413 -0.5674
   27TMC2     C  423   1.070   2.704  11.980 -0.5261 -0.1893  0.1102
   27TMC2     O  424   1.033   2.637  11.884  0.8573 -0.1477 -0.1869
   27TMC2     H  425   1.046   2.830  11.763  1.2456  1.6576 -0.4392
   27TMC2    H1  426   1.215   2.834  12.151 -0.4485  2.4212  0.3894
   27TMC2    H2  427   1.091   3.196  11.962 -0.0432 -0.5036  0.1137
   27TMC2    C7  428   1.100   3.056  12.206 -0.4172 -0.2305 -0.1082
   27TMC2    C8  429   1.018   3.084  11.741  0.8433  0.6177 -0.9414
   27TMC2    O1  430   1.093   2.963  12.282  0.2949 -0.5941  0.0904
   27TMC2    O2  431   1.077   3.060  11.636 -0.4544 -0.0604  0.0439
   27TMC2    O5  432   0.959   3.204  11.782 -0.2516  0.3580  0.2030
   27TMC2    H5  433   0.899   3.194  11.859  1.7708 -1.1142  1.6077
   28MPD2     C  434   0.705   2.515  12.293 -0.5794  0.6238  0.1107
   28MPD2    C1  435   0.721   2.651  12.308  0.6540 -0.2856 -0.9203
   28MPD2    C2  436   0.824   2.720  12.242 -0.1851 -0.6849 -0.4679
   28MPD2    C3  437   0.901   2.661  12.148  0.0509 -0.0045 -0.1899
   28MPD2    C4  438   0.879   2.522  12.125 -0.1316 -0.2273  0.0165
   28MPD2    C5  439   0.785   2.448  12.197  0.2047  0.3063  0.1710
   28MPD2     H  440   0.837   2.827  12.254  3.4708 -1.2964  0.9311
   28MPD2    H1  441   0.954   2.470  12.067  1.0150 -0.6889  1.8979
   28MPD2    H2  442   0.631   2.463  12.353  1.5579  0.6153  2.7037
   28MPD2    H3  443   0.770   2.342  12.181 -0.2263  0.1829  1.3266
   28MPD2     N  444   1.003   2.736  12.091  0.1356 -0.5216  0.1262
   28MPD2    H5  445   1.025   2.828  12.129  1.9513 -0.2660 -1.4928
   28MPD2    N1  446   0.639   2.715  12.402 -0.6537 -0.2843 -0.6787
   28MPD2    H7  447   0.552   2.670  12.430 -0.0086 -0.2608  1.3217
   29TMC2    C1  448   0.603   0.776  14.245 -0.1068  0.1407  1.4243
   29TMC2    C2  449   0.543   0.815  14.356 -0.4538 -0.0927  0.1370
   29TMC2    C3  450   0.557   0.948  14.392  0.1478  0.0975 -0.9087
   29TMC2    C4  451   0.674   0.864  14.166  0.1323 -0.6241 -0.4325
   29TMC2    C5  452   0.696   0.990  14.212  0.1861 -0.8142 -0.2729
   29TMC2    C6  453   0.645   1.033  14.335 -0.2463  1.1312 -0.5696
   29TMC2     C  454   0.571   0.640  14.196 -0.3995 -1.1422 -0.1335
   29TMC2     O  455   0.536   0.556  14.272  0.0595 -0.2481 -0.5706
   29TMC2     H  456   0.490   0.747  14.422 -1.2597 -2.3889 -2.8582
   29TMC2    H1  457   0.726   0.820  14.081 -0.6254  0.5751 -1.5256
   29TMC2    H2  458   0.665   1.131  14.376  2.9212  1.0686 -2.0043
   29TMC2    C7  459   0.756   1.091  14.127  0.3581  0.1577 -0.2065
   29TMC2    C8  460   0.499   0.998  14.510 -0.2613 -0.8211  0.2876
   29TMC2    O1  461   0.745   1.081  14.007  0.1742  0.2774  0.4292
   29TMC2    O2  462   0.457   0.919  14.588 -0.8548 -0.4084 -0.2524
   29TMC2    O5  463   0.423   1.105  14.466 -0.1675 -0.1063  0.1866
   29TMC2    H5  464   0.437   1.122  14.370  1.8651 -1.0169  0.3284
   30MPD2     C  465   0.525   0.309  13.799 -0.2544  0.1626 -0.2675
   30MPD2    C1  466   0.573   0.297  13.925  0.5647  0.3228  0.0885
   30MPD2    C2  467   0.583   0.405  14.008  0.0098  0.0797 -0.7976
   30MPD2    C3  468   0.556   0.537  13.968 -0.4102 -0.4591 -0.3147
   30MPD2    C4  469   0.515   0.552  13.839  0.3842 -1.1646 -0.1585
   30MPD2    C5  470   0.497   0.440  13.759 -0.3109 -0.5091  0.5395
   30MPD2     H  471   0.619   0.383  14.108 -0.4331  0.6963 -0.5012
   30MPD2    H1  472   0.483   0.645  13.793  1.0851 -0.1443  1.4044
   30MPD2    H2  473   0.495   0.229  13.732 -0.1381 -1.0737  1.1558
   30MPD2    H3  474   0.454   0.449  13.659 -0.7354  2.1947  0.9570
   30MPD2     N  475   0.562   0.645  14.059  0.5615 -0.3764  0.5135
   30MPD2    H5  476   0.546   0.739  14.024  1.1424 -0.7648 -0.7738
   30MPD2    N1  477   0.620   0.172  13.979  0.1279  0.3028  0.5867
   30MPD2    H7  478   0.662   0.167  14.071  5.1303  0.7127 -1.6667
   31TMC2    C1  479   2.897   4.136  15.446  1.0965 -0.0613  0.3050
   31TMC2    C2  480   2.787   4.214  15.475  0.2830 -0.6519  0.2086
   31TMC2    C3  481   2.774   4.265  15.601  0.0920 -0.3817 -1.0243
   31TMC2    C4  482   2.986   4.100  15.541  0.5027  0.2227 -0.1708
   31TMC2    C5  483   2.972   4.158  15.666  0.0791  0.7928  0.2207
   31TMC2    C6  484   2.867   4.245  15.692 -0.2014 -0.8257  0.0890
   31TMC2     C  485   2.937   4.132  15.304 -0.5145  0.0743  0.1894
   31TMC2     O  486   2.882   4.207  15.232 -0.8014  0.3267  0.2021
   31TMC2     H  487   2.715   4.241  15.398 -1.3517  1.2745  2.4134
   31TMC2    H1  488   3.084   4.056  15.522 -0.3992 -1.5421 -0.6765
   31TMC2    H2  489   2.854   4.283  15.792  1.1423  0.1605 -0.1146
   31TMC2    C7  490   3.084   4.130  15.757 -0.0882 -0.2038  0.6720
   31TMC2    C8  491   2.650   4.328  15.639 -0.2551  0.5876 -0.0115
   31TMC2    O1  492   3.149   4.024  15.742 -0.5281 -0.6171 -0.3142
   31TMC2    O2  493   2.574   4.272  15.718 -0.6973 -0.3741 -0.7076
   31TMC2    O5  494   2.630   4.421  15.545  0.3197 -0.1737 -0.5421
   31TMC2    H5  495   2.702   4.445  15.482  0.0756  1.4646 -0.1880
   32MPD2     C  496   3.320   4.060  14.978  0.1230  0.2847  0.2939
   32MPD2    C1  497   3.223   4.160  14.981  0.3286  0.1325 -0.2287
   32MPD2    C2  498   3.130   4.156  15.078  0.3272 -0.5247  0.0873
   32MPD2    C3  499   3.134   4.064  15.180 -0.7128 -0.0847  0.0151
   32MPD2    C4  500   3.238   3.977  15.180  0.7847 -0.6880 -0.0530
   32MPD2    C5  501   3.328   3.971  15.079  0.5628 -0.1058  0.0644
   32MPD2     H  502   3.054   4.233  15.086 -0.7406 -1.5605 -0.0182
   32MPD2    H1  503   3.261   3.914  15.265  1.2242 -0.4948 -0.0294
   32MPD2    H2  504   3.396   4.069  14.901  0.4709 -0.3488  0.5611
   32MPD2    H3  505   3.405   3.896  15.074 -1.0556 -1.8635  1.2838
   32MPD2     N  506   3.054   4.062  15.290  0.0028  0.1864 -0.2666
   32MPD2    H5  507   3.073   4.001  15.369  0.5455 -0.0565 -0.5924
   32MPD2    N1  508   3.217   4.245  14.867  0.2951  0.1986  0.8342
   32MPD2    H7  509   3.292   4.233  14.800 -0.8069 -1.4825 -0.0880
   33TMC2    C1  510   3.504   2.599  10.366  0.7378 -0.3033  0.4714
   33TMC2    C2  511   3.383   2.530  10.383  0.0503  0.1945 -0.5719
   33TMC2    C3  512   3.280   2.569  10.299  0.6327  0.3713 -0.3484
   33TMC2    C4  513   3.516   2.702  10.277  0.2825 -0.0588 -0.3363
   33TMC2    C5  514   3.414   2.738  10.190  0.5013  0.0977  0.0285
   33TMC2    C6  515   3.301   2.662  10.200 -0.1067  0.4214 -1.1051
   33TMC2     C  516   3.626   2.537  10.407  0.4995  1.1602 -0.5123
   33TMC2     O  517   3.729   2.596  10.378  0.4676  0.4714  0.4100
   33TMC2     H  518   3.363   2.456  10.460 -0.3041 -0.6550 -1.4773
   33TMC2    H1  519   3.614   2.747  10.264 -0.0691  0.5295 -0.9479
   33TMC2    H2  520   3.223   2.687  10.129 -0.4936 -0.7181 -1.0765
   33TMC2    C7  521   3.423   2.873  10.128 -0.7618 -0.8467  0.2727
   33TMC2    C8  522   3.148   2.506  10.290 -0.8200  0.2072  0.7922
   33TMC2    O1  523   3.536   2.912  10.121  0.1500  0.0726  0.3155
   33TMC2    O2  524   3.082   2.514  10.185 -0.3239  0.2668  0.4286
   33TMC2    O5  525   3.094   2.502  10.409 -0.4845 -0.1753 -0.3920
   33TMC2    H5  526   3.151   2.526  10.485  0.7687 -2.4736 -0.6316
   34MPD2     C  527   3.900   2.132  10.524 -0.4155  0.1800  0.5850
   34MPD2    C1  528   3.768   2.108  10.561 -0.7980 -0.4483 -0.3788
   34MPD2    C2  529   3.665   2.197  10.530 -0.6301 -0.0220  0.2888
   34MPD2    C3  530   3.702   2.329  10.489 -0.0499  0.3788  0.1421
   34MPD2    C4  531   3.843   2.353  10.474  0.0622  0.0609 -0.1938
   34MPD2    C5  532   3.938   2.255  10.489  0.1596  0.0245  0.8010
   34MPD2     H  533   3.560   2.174  10.540 -0.9162  0.5494 -1.3538
   34MPD2    H1  534   3.886   2.450  10.453 -3.0523  0.6501 -3.8745
   34MPD2    H2  535   3.982   2.063  10.541  0.5666  0.8898 -1.1760
   34MPD2    H3  536   4.042   2.279  10.472  0.0957 -0.0776  0.2513
   34MPD2     N  537   3.600   2.412  10.447  0.8540 -0.3986  0.1206
   34MPD2    H5  538   3.505   2.377  10.442  1.0487 -0.7698 -0.8932
   34MPD2    N1  539   3.737   1.971  10.609 -0.2503 -0.6634  0.6872
   34MPD2    H7  540   3.811   1.903  10.621  0.9102  0.3483 -0.7785
   35TMC2    C1  541   4.019   3.125  11.211  0.4327  0.1764 -0.8682
   35TMC2    C2  542   3.992   3.057  11.091 -0.4149  0.2745  0.1688
   35TMC2    C3  543   3.915   2.950  11.090  0.0790  0.1216  0.7212
   35TMC2    C4  544   3.980   3.071  11.329 -0.2190  0.2592 -0.3208
   35TMC2    C5  545   3.907   2.960  11.324  0.7363 -0.8218 -0.3673
   35TMC2    C6  546   3.869   2.895  11.205  0.0176  1.1579  0.4440
   35TMC2     C  547   4.136   3.203  11.217  0.2612 -0.5876 -0.1677
   35TMC2     O  548   4.169   3.272  11.120  0.0941  0.0943 -0.4222
   35TMC2     H  549   4.053   3.081  11.005 -1.2826  0.7971 -0.2960
   35TMC2    H1  550   4.002   3.125  11.420  0.2312 -1.9679  0.8869
   35TMC2    H2  551   3.830   2.794  11.197 -0.2692  1.1840  1.5133
   35TMC2    C7  552   3.876   2.906  11.454 -0.2318  0.4058 -0.6806
   35TMC2    C8  553   3.932   2.868  10.973  0.1987 -0.0002  0.2841
   35TMC2    O1  554   3.943   2.948  11.551 -0.6274 -0.3858  0.6628
   35TMC2    O2  555   3.915   2.744  10.975 -0.2242  0.1402  0.0152
   35TMC2    O5  556   3.911   2.947  10.863 -0.3525 -0.1436  0.4712
   35TMC2    H5  557   3.897   3.042  10.884  1.5137  0.8405 -2.7215
   36MPD2     C  558   4.594   3.295  11.433  0.4142 -0.3126 -0.6970
   36MPD2    C1  559   4.546   3.187  11.494 -0.6501 -0.0363 -1.4312
   36MPD2    C2  560   4.418   3.142  11.456  0.5886 -0.1709 -0.1231
   36MPD2    C3  561   4.347   3.210  11.359 -0.2612  0.0923 -0.4840
   36MPD2    C4  562   4.397   3.319  11.297 -0.1370  0.1694  0.2469
   36MPD2    C5  563   4.526   3.361  11.333 -0.4909 -0.6222  0.1491
   36MPD2     H  564   4.381   3.047  11.494  1.8601 -1.2175 -1.5135
   36MPD2    H1  565   4.338   3.369  11.222  1.0961 -1.2265 -1.6468
   36MPD2    H2  566   4.694   3.334  11.450 -0.5567  2.3473 -1.2141
   36MPD2    H3  567   4.559   3.459  11.303 -0.3784 -0.9114 -0.6696
   36MPD2     N  568   4.214   3.159  11.329  0.0962  0.1977  0.1709
   36MPD2    H5  569   4.180   3.084  11.387 -0.9971  0.9317  0.4782
   36MPD2    N1  570   4.633   3.114  11.587 -0.9012  0.1373  0.0335
   36MPD2    H7  571   4.727   3.149  11.603 -0.1712 -1.6095 -0.4357
   37TMC2    C1  572   2.182   2.593  12.131 -0.4839 -0.2275 -0.3304
   37TMC2    C2  573   2.138   2.488  12.056  0.2689 -0.1286  0.6115
   37TMC2    C3  574   2.199   2.471  11.938  0.3663  0.2406 -0.1093
   37TMC2    C4  575   2.290   2.668  12.103  0.2277 -0.1082 -0.8652
   37TMC2    C5  576   2.342   2.653  11.979  0.1665  0.4885 -0.3457
   37TMC2    C6  577   2.297   2.551  11.896  0.5735 -0.3569  0.1329
   37TMC2     C  578   2.088   2.646  12.229  0.2916  0.9051 -0.1379
   37TMC2     O  579   1.980   2.683  12.188  0.3292 -0.1403  0.0386
   37TMC2     H  580   2.051   2.434  12.091 -1.4883  0.3371 -2.9928
   37TMC2    H1  581   2.319   2.748  12.170 -0.1814 -0.0029 -0.8143
   37TMC2    H2  582   2.334   2.530  11.796  0.8405 -3.7447  0.9703
   37TMC2    C7  583   2.362   2.777  11.905  0.3392  0.1686  0.2158
   37TMC2    C8  584   2.193   2.340  11.866  0.0248 -0.2569  0.4260
   37TMC2    O1  585   2.319   2.882  11.948  0.4714 -0.0739  0.0452
   37TMC2    O2  586   2.224   2.337  11.748  0.2929 -0.3505 -0.3340
   37TMC2    O5  587   2.123   2.250  11.939 -0.1284 -0.2275 -0.6247
   37TMC2    H5  588   2.095   2.280  12.028  1.5714  1.9672 -0.8395
   38MPD2     C  589   1.984   2.770  12.717 -0.2251  0.0350 -0.0822
   38MPD2    C1  590   2.115   2.765  12.703  0.1938  0.4019  0.8492
   38MPD2    C2  591   2.178   2.745  12.576  0.4646  0.0081  0.1551
   38MPD2    C3  592   2.095   2.723  12.466  0.0165  0.3830  0.0945
   38MPD2    C4  593   1.961   2.738  12.480  0.1958  0.5058  0.6316
   38MPD2    C5  594   1.908   2.759  12.609 -0.2532 -0.0851 -0.4355
   38MPD2     H  595   2.285   2.753  12.590  0.8765 -1.6947 -1.9819
   38MPD2    H1  596   1.891   2.714  12.401  0.3259 -0.1904  0.7222
   38MPD2    H2  597   1.944   2.782  12.817 -1.7319  0.5198 -0.7513
   38MPD2    H3  598   1.801   2.762  12.621 -0.1837 -1.0515  0.4165
   38MPD2     N  599   2.153   2.679  12.348  0.2779  0.4367  0.0588
   38MPD2    H5  600   2.251   2.654  12.357 -0.2026 -2.3167 -2.3710
   38MPD2    N1  601   2.202   2.774  12.819  0.6153 -0.1507  0.7006
   38MPD2    H7  602   2.303   2.783  12.812  0.5643 -2.4327 -2.8194
   39TMC2    C1  603   0.667   1.117   1.232  0.5223  0.4820  0.0482
   39TMC2    C2  604   0.798   1.072   1.252 -0.2941  0.3834  0.2740
   39TMC2    C3  605   0.897   1.128   1.174  0.1728  0.0780  0.3658
   39TMC2    C4  606   0.633   1.208   1.137  0.4573  0.5265  0.6269
   39TMC2    C5  607   0.733   1.263   1.064  0.5365  0.1011 -0.0049
   39TMC2    C6  608   0.868   1.215   1.071 -0.0626 -0.0354  0.1204
   39TMC2     C  609   0.550   1.041   1.264  0.6197 -0.4370  0.1719
   39TMC2     O  610   0.441   1.079   1.225 -0.5510 -0.6374 -0.0172
   39TMC2     H  611   0.826   1.011   1.338 -1.0452  0.6940  0.7382
   39TMC2    H1  612   0.531   1.241   1.124  0.4681  0.1384 -0.4114
   39TMC2    H2  613   0.945   1.244   1.000  1.4140 -1.9145  0.9442
   39TMC2    C7  614   0.683   1.329   0.946 -0.1205 -0.0528  0.4073
   39TMC2    C8  615   1.037   1.097   1.196 -0.0582 -0.3709  0.7242
   39TMC2    O1  616   0.579   1.387   0.963  0.2073  0.4034  0.1884
   39TMC2    O2  617   1.069   0.991   1.252 -0.6893  0.3644 -0.4431
   39TMC2    O5  618   1.114   1.205   1.158 -0.1564 -0.1895  0.4539
   39TMC2    H5  619   1.064   1.290   1.153 -0.1835 -0.2196  0.2402
   40MPD2     C  620   0.561   0.674   1.328  0.0540 -0.5028 -0.6794
   40MPD2    C1  621   0.504   0.803   1.318  0.4837  0.2994 -0.4547
   40MPD2    C2  622   0.370   0.813   1.339 -0.5892 -0.6553 -0.1365
   40MPD2    C3  623   0.283   0.710   1.358  0.0562  0.1298 -0.1291
   40MPD2    C4  624   0.351   0.588   1.370  0.6403 -0.0253 -0.1088
   40MPD2    C5  625   0.482   0.566   1.354  0.1922 -0.3927 -0.0660
   40MPD2     H  626   0.335   0.915   1.333  1.5278  0.1082  0.6354
   40MPD2    H1  627   0.289   0.500   1.379  0.4976 -0.2286 -2.9688
   40MPD2    H2  628   0.663   0.649   1.303  0.3009 -1.4324  1.2297
   40MPD2    H3  629   0.531   0.469   1.365  0.5755 -0.4695 -2.4400
   40MPD2     N  630   0.140   0.713   1.335 -0.0322 -0.6346 -0.2239
   40MPD2    H5  631   0.092   0.624   1.338 -2.6298  0.7564 -0.3494
   40MPD2    N1  632   0.587   0.918   1.302  0.0505  0.1113 -0.0940
   40MPD2    H7  633   0.687   0.904   1.312  0.4115  4.5765  2.8300
   41TMC2    C1  634   4.332   3.537  13.349  0.5214  0.0983 -0.0056
   41TMC2    C2  635   4.402   3.521  13.468 -0.1583 -0.6015  0.5832
   41TMC2    C3  636   4.493   3.427  13.474 -0.0008  0.1129 -0.2726
   41TMC2    C4  637   4.363   3.474  13.236 -0.0167 -0.6936 -0.4894
   41TMC2    C5  638   4.463   3.379  13.242  0.6548  0.5001  0.1586
   41TMC2    C6  639   4.523   3.350  13.364  0.0483 -0.2773  0.3637
   41TMC2     C  640   4.265   3.663  13.332  0.7891  0.5627  0.2322
   41TMC2     O  641   4.248   3.698  13.215  0.5486 -0.0044 -0.0802
   41TMC2     H  642   4.385   3.579  13.558 -0.4487 -3.7042  2.5122
   41TMC2    H1  643   4.322   3.502  13.140  2.9295  1.2859 -1.1687
   41TMC2    H2  644   4.598   3.272  13.379  0.0866 -0.0102  1.5506
   41TMC2    C7  645   4.524   3.318  13.126  0.2644 -0.6040 -0.1951
   41TMC2    C8  646   4.562   3.411  13.597 -0.7148 -0.4207 -0.0361
   41TMC2    O1  647   4.640   3.282  13.143  0.6565 -0.0197 -0.2313
   41TMC2    O2  648   4.616   3.306  13.617 -0.2171 -0.0715 -0.0111
   41TMC2    O5  649   4.594   3.533  13.658 -0.2536  0.4971  0.1108
   41TMC2    H5  650   4.555   3.616  13.625 -2.9006 -0.8798 -0.2513
   42MPD2     C  651   4.187   3.945  13.357  0.3927  0.3935 -0.0469
   42MPD2    C1  652   4.177   3.857  13.456 -0.1665 -0.2629  0.2107
   42MPD2    C2  653   4.097   3.887  13.573 -0.0318 -0.1430  0.0497
   42MPD2    C3  654   4.048   4.011  13.585  0.3780 -0.1814  0.3020
   42MPD2    C4  655   4.066   4.108  13.489 -0.5943 -0.6348 -0.0024
   42MPD2    C5  656   4.139   4.075  13.375 -0.2411 -1.1887  0.1612
   42MPD2     H  657   4.083   3.815  13.653 -0.0838  0.0705  0.2335
   42MPD2    H1  658   4.028   4.210  13.481  3.0205  0.7340  0.3315
   42MPD2    H2  659   4.251   3.936  13.269  0.4475 -0.6221  0.0942
   42MPD2    H3  660   4.172   4.152  13.305 -0.1854 -1.5231 -0.1801
   42MPD2     N  661   3.950   4.042  13.688 -0.6053 -0.1670 -0.1346
   42MPD2    H5  662   3.923   4.140  13.688  0.1557  0.0418  0.7606
   42MPD2    N1  663   4.225   3.724  13.450 -0.0971  0.3177  0.3905
   42MPD2    H7  664   4.211   3.668  13.534  1.7645  0.8010  1.0312
   43TMC2    C1  665   0.262   1.345   0.338  0.1311  0.3455  0.1277
   43TMC2    C2  666   0.128   1.358   0.374 -0.6605 -0.4015 -0.1687
   43TMC2    C3  667   0.090   1.480   0.423 -0.6760 -0.3768 -0.3925
   43TMC2    C4  668   0.345   1.459   0.330  0.0906  0.1325  0.6779
   43TMC2    C5  669   0.295   1.578   0.355  0.6584 -0.4555  0.3851
   43TMC2    C6  670   0.171   1.595   0.420  0.6345 -0.1945 -0.3441
   43TMC2     C  671   0.325   1.214   0.327  0.8434  0.0400  0.8978
   43TMC2     O  672   0.446   1.210   0.325  0.2724 -0.9859 -0.2093
   43TMC2     H  673   0.056   1.277   0.374 -0.8978 -0.1843  1.8846
   43TMC2    H1  674   0.443   1.445   0.285  1.3767 -0.2953  3.6230
   43TMC2    H2  675   0.141   1.697   0.445  1.8442 -0.3188  1.6448
   43TMC2    C7  676   0.386   1.690   0.334  0.2864 -0.8005 -0.1874
   43TMC2    C8  677   4.713   1.499   0.498  0.5204 -0.3393  0.4004
   43TMC2    O1  678   0.466   1.685   0.241 -0.3338 -0.5839 -0.0586
   43TMC2    O2  679   4.612   1.444   0.476  0.0166 -0.5749  1.2600
   43TMC2    O5  680   0.010   1.586   0.594 -0.1753  0.1346 -0.8418
   43TMC2    H5  681   0.105   1.609   0.599  0.2694 -1.6245 -1.1055
   44MPD2     C  682   0.292   0.697   0.224  0.0164  0.8801 -0.3379
   44MPD2    C1  683   0.394   0.780   0.240 -0.1986  0.3529  0.1147
   44MPD2    C2  684   0.377   0.918   0.258  0.1176 -0.3807 -0.2473
   44MPD2    C3  685   0.253   0.971   0.277 -0.3465 -0.4741  0.4596
   44MPD2    C4  686   0.149   0.884   0.255  0.3712 -0.0573 -0.4422
   44MPD2    C5  687   0.170   0.751   0.230  0.5719  0.0319 -0.2302
   44MPD2     H  688   0.460   0.986   0.270  0.9711 -1.1239 -1.9853
   44MPD2    H1  689   0.047   0.920   0.249  0.0304 -1.2926 -1.9900
   44MPD2    H2  690   0.295   0.590   0.210 -0.3028  0.6983  0.9871
   44MPD2    H3  691   0.086   0.685   0.212  1.8196 -1.8089  0.6840
   44MPD2     N  692   0.232   1.114   0.292 -0.3056  0.2336 -0.4350
   44MPD2    H5  693   0.136   1.147   0.286 -0.3327  0.0026 -1.2626
   44MPD2    N1  694   0.527   0.730   0.222 -0.3937  0.7596  0.3771
   44MPD2    H7  695   0.599   0.800   0.203 -0.0758  0.6616  1.2266
   45TMC2    C1  696   1.487   3.581   9.392  1.2982 -0.5671 -0.5234
   45TMC2    C2  697   1.584   3.505   9.335  0.0354 -0.5698  0.2426
   45TMC2    C3  698   1.699   3.572   9.300  0.2271 -0.2509  0.6376
   45TMC2    C4  699   1.512   3.713   9.423  0.2093 -0.3068  0.6438
   45TMC2    C5  700   1.633   3.770   9.394  1.2207 -0.6421 -0.2019
   45TMC2    C6  701   1.725   3.699   9.327 -0.2164  0.3552 -0.7287
   45TMC2     C  702   1.363   3.509   9.441  0.9696  0.2454 -0.1860
   45TMC2     O  703   1.379   3.388   9.456 -0.4021 -0.4607  0.0246
   45TMC2     H  704   1.577   3.399   9.316  0.9631 -0.9681  2.2254
   45TMC2    H1  705   1.445   3.770   9.486 -0.8343 -0.2046 -0.5568
   45TMC2    H2  706   1.826   3.735   9.340 -0.3406 -0.0161  1.3079
   45TMC2    C7  707   1.676   3.887   9.478  0.2087 -0.0511 -0.1899
   45TMC2    C8  708   1.812   3.508   9.222  0.1428  0.1487  0.1421
   45TMC2    O1  709   1.631   3.878   9.591  0.1334  0.0478  0.4085
   45TMC2    O2  710   1.831   3.389   9.218 -0.5107  0.4874 -0.3433
   45TMC2    O5  711   1.869   3.596   9.141 -0.4139 -0.6336 -0.8153
   45TMC2    H5  712   1.834   3.688   9.139  0.2176 -0.3981 -1.1084
   46MPD2     C  713   1.075   3.409   9.478  0.0864 -0.2832  0.7227
   46MPD2    C1  714   1.115   3.538   9.459  0.0438 -0.6067  0.3029
   46MPD2    C2  715   1.019   3.636   9.473 -0.3103  0.1358 -0.1967
   46MPD2    C3  716   0.883   3.609   9.504  0.1203 -0.6254  0.0906
   46MPD2    C4  717   0.850   3.475   9.514  0.4248 -0.2983  0.4096
   46MPD2    C5  718   0.949   3.379   9.511  0.1987  0.1607 -0.1511
   46MPD2     H  719   1.053   3.738   9.457  1.2938  0.1495  3.4430
   46MPD2    H1  720   0.756   3.444   9.558  0.8986 -0.1194  1.5321
   46MPD2    H2  721   1.155   3.337   9.464 -1.7690 -1.8065 -1.8802
   46MPD2    H3  722   0.928   3.275   9.531 -2.5458  0.8263  0.3840
   46MPD2     N  723   0.798   3.721   9.507  0.1754 -0.8407 -0.3805
   46MPD2    H5  724   0.831   3.817   9.509  1.1640 -1.2275  2.6865
   46MPD2    N1  725   1.250   3.587   9.436  0.3118  0.2509  0.0429
   46MPD2    H7  726   1.265   3.682   9.404 -2.1205 -0.4934 -3.2396
   47TMC2    C1  727   3.726   0.244   8.973 -0.5984 -0.1474 -0.7478
   47TMC2    C2  728   3.698   0.346   8.884  0.2064  0.0129  0.0036
   47TMC2    C3  729   3.564   0.380   8.868  0.2405 -0.2594 -0.5193
   47TMC2    C4  730   3.628   0.168   9.033  0.3207 -1.0074  0.6577
   47TMC2    C5  731   3.495   0.208   9.021 -0.1810 -0.3064  0.5797
   47TMC2    C6  732   3.459   0.308   8.929  0.7920  0.0649  0.5143
   47TMC2     C  733   3.866   0.208   8.972 -0.3711  0.6712  0.4085
   47TMC2     O  734   3.933   0.250   8.877  0.4112 -0.4544 -0.0215
   47TMC2     H  735   3.765   0.428   8.858  0.5444  0.1221  1.1732
   47TMC2    H1  736   3.657   0.076   9.081  2.2076 -0.6899  0.1151
   47TMC2    H2  737   3.355   0.336   8.919  0.3066 -1.6680  0.7512
   47TMC2    C7  738   3.391   0.136   9.096 -0.6223 -0.2779 -0.1648
   47TMC2    C8  739   3.520   0.511   8.814 -0.1893  0.4540  0.1699
   47TMC2    O1  740   3.276   0.160   9.061 -0.1834  0.4720  0.1023
   47TMC2    O2  741   3.433   0.578   8.862  0.7418  0.2374  0.4123
   47TMC2    O5  742   3.599   0.538   8.711 -0.3579 -0.3381  0.1210
   47TMC2    H5  743   3.659   0.470   8.673  0.5434 -0.8708  2.4944
   48MPD2     C  744   4.137   0.122   9.025  0.2429  0.7657 -0.7826
   48MPD2    C1  745   4.026   0.064   9.083  0.5473  0.7067  0.1103
   48MPD2    C2  746   4.035   4.702   9.181 -0.3303 -0.0586  0.2526
   48MPD2    C3  747   4.162   4.654   9.221 -0.4800 -0.4444 -0.2369
   48MPD2    C4  748   4.278   4.702   9.157 -0.2049 -0.1742 -0.4116
   48MPD2    C5  749   4.259   0.062   9.060  0.5000  0.2121 -0.0923
   48MPD2     H  750   3.944   4.658   9.218  0.0377 -0.1924  0.9957
   48MPD2    H1  751   4.378   4.668   9.182 -0.8945 -1.6034  0.3804
   48MPD2    H2  752   4.135   0.203   8.953  1.3263  1.3059 -0.2039
   48MPD2    H3  753   4.348   0.109   9.021  0.4975 -1.7394 -2.4050
   48MPD2     N  754   4.163   4.548   9.309  0.5103 -0.0218  0.3063
   48MPD2    H5  755   4.079   4.514   9.355 -0.2947  2.8515  1.0038
   48MPD2    N1  756   3.897   0.123   9.070  0.2511  0.0401 -0.0683
   48MPD2    H7  757   3.831   0.109   9.147  0.8649 -2.1762  0.0409
   49TMC2    C1  758   2.238   1.786  10.099  0.1169 -1.0847 -1.3263
   49TMC2    C2  759   2.199   1.799   9.966 -0.1318  0.2772 -0.2695
   49TMC2    C3  760   2.103   1.713   9.921  0.3650  0.2019  0.1774
   49TMC2    C4  761   2.181   1.692  10.179 -0.3471 -0.2275 -0.1831
   49TMC2    C5  762   2.080   1.612  10.130  0.3092  0.6106 -0.0894
   49TMC2    C6  763   2.041   1.615   9.994 -0.3533  0.3526  0.4072
   49TMC2     C  764   2.370   1.828  10.123 -0.3736 -0.0107  0.2806
   49TMC2     O  765   2.437   1.864  10.029  0.1399 -0.0068 -0.0627
   49TMC2     H  766   2.222   1.876   9.893 -2.8530  1.0148 -0.3507
   49TMC2    H1  767   2.211   1.674  10.282 -1.7335  0.6919  0.3770
   49TMC2    H2  768   1.961   1.555   9.952  0.0322 -0.0172  0.2104
   49TMC2    C7  769   2.017   1.525  10.231 -0.1422  0.1987  0.4797
   49TMC2    C8  770   2.050   1.736   9.785  0.2894 -0.2370 -0.3779
   49TMC2    O1  771   2.022   1.553  10.349  0.1303  0.7374  0.0544
   49TMC2    O2  772   1.993   1.651   9.720  0.2363 -0.4382  0.1430
   49TMC2    O5  773   2.001   1.867   9.799 -0.3755 -0.3181  0.5957
   49TMC2    H5  774   2.015   1.911   9.885 -1.1898 -0.6886  0.9185
   50MPD2     C  775   2.615   1.948  10.230  0.5443  0.1104  0.2476
   50MPD2    C1  776   2.490   1.941  10.296 -0.5723 -0.5775  0.5989
   50MPD2    C2  777   2.469   2.016  10.413  0.2243  0.2479 -0.3647
   50MPD2    C3  778   2.565   2.105  10.461  0.7692 -0.5681 -0.3848
   50MPD2    C4  779   2.690   2.099  10.405 -0.1327  0.3587 -0.2148
   50MPD2    C5  780   2.714   2.027  10.289  0.0313  0.1558  0.0202
   50MPD2     H  781   2.372   2.009  10.462  0.5802  0.0930  0.3123
   50MPD2    H1  782   2.772   2.159  10.443  1.5326 -2.0224 -0.0565
   50MPD2    H2  783   2.642   1.890  10.142 -1.0182  3.1529 -2.2521
   50MPD2    H3  784   2.817   2.038  10.257 -0.2542  1.0872 -0.6045
   50MPD2     N  785   2.538   2.191  10.575 -0.3551  0.2310 -0.4443
   50MPD2    H5  786   2.619   2.242  10.609 -0.6547 -0.8582  1.9463
   50MPD2    N1  787   2.379   1.862  10.251  0.0850 -0.5164  0.5174
   50MPD2    H7  788   2.289   1.871  10.296 -0.2208 -0.0845 -0.1830
   51TMC2    C1  789   1.711   0.502   1.313  0.2509 -0.0284  0.6759
   51TMC2    C2  790   1.632   0.570   1.403 -0.1101  0.3118 -0.4520
   51TMC2    C3  791   1.647   0.702   1.412 -0.4357  0.2273  0.0701
   51TMC2    C4  792   1.794   0.565   1.229  0.3730 -0.2081  0.1233
   51TMC2    C5  793   1.810   0.700   1.251  0.2670 -0.8647  0.3150
   51TMC2    C6  794   1.738   0.776   1.340 -0.1305  0.2698  0.2593
   51TMC2     C  795   1.731   0.359   1.316  0.6754  0.4675  0.8987
   51TMC2     O  796   1.805   0.315   1.228  0.2517  0.1433  0.0207
   51TMC2     H  797   1.573   0.520   1.479 -0.6968 -1.0685 -1.8120
   51TMC2    H1  798   1.844   0.511   1.149 -1.3668 -0.7394 -0.6221
   51TMC2    H2  799   1.722   0.883   1.339  0.3887  0.3438 -0.1031
   51TMC2    C7  800   1.923   0.759   1.174 -0.6904 -0.3254  0.0490
   51TMC2    C8  801   1.553   0.771   1.498 -0.2092  0.4476 -0.3809
   51TMC2    O1  802   1.976   0.693   1.089  0.4283 -0.0410  0.0192
   51TMC2    O2  803   1.444   0.727   1.532  0.4945 -0.3911  0.5221
   51TMC2    O5  804   1.615   0.881   1.551  0.6121 -0.1576  0.0036
   51TMC2    H5  805   1.707   0.894   1.518  2.1161 -1.9350  3.5058
   52MPD2     C  806   1.598   4.614   1.434 -0.0902 -0.0535  0.8173
   52MPD2    C1  807   1.713   4.672   1.388 -0.7077 -0.3449  0.2055
   52MPD2    C2  808   1.722   0.070   1.368 -0.0512 -0.2094  0.6875
   52MPD2    C3  809   1.618   0.152   1.399 -0.0888 -0.3046 -0.1089
   52MPD2    C4  810   1.516   0.093   1.463 -0.1420  1.0968  0.2215
   52MPD2    C5  811   1.504   4.697   1.483 -0.2970 -0.9406  0.5490
   52MPD2     H  812   1.817   0.106   1.331 -0.6827  1.6991  0.9597
   52MPD2    H1  813   1.427   0.149   1.489  0.1408  0.6407  2.1629
   52MPD2    H2  814   1.590   4.509   1.461 -0.6548  0.1025  1.2362
   52MPD2    H3  815   1.417   4.657   1.535  0.2996 -0.0597  2.2207
   52MPD2     N  816   1.626   0.294   1.384 -0.0776  0.0136 -0.3027
   52MPD2    H5  817   1.552   0.357   1.414  0.9566  0.9078  0.3650
   52MPD2    N1  818   1.823   4.595   1.345  0.5721  0.0622 -0.9527
   52MPD2    H7  819   1.910   4.640   1.320 -0.6085  1.4356 -2.6059
   53TMC2    C1  820   2.621   3.458  11.693  0.0000  0.0183  0.6915
   53TMC2    C2  821   2.653   3.570  11.619  0.5543  0.2835  0.0519
   53TMC2    C3  822   2.646   3.686  11.687  0.0634  0.3342  0.1375
   53TMC2    C4  823   2.603   3.462  11.830  0.9707 -0.1633 -0.5010
   53TMC2    C5  824   2.593   3.586  11.894  0.7092  0.0815 -0.0674
   53TMC2    C6  825   2.609   3.699  11.819 -0.3831 -0.1858  0.1527
   53TMC2     C  826   2.644   3.327  11.638 -0.1939  0.0221 -0.1876
   53TMC2     O  827   2.710   3.317  11.537 -0.0931 -0.2604  0.1373
   53TMC2     H  828   2.706   3.560  11.525 -1.4214  3.3833 -1.4277
   53TMC2    H1  829   2.603   3.373  11.892  1.5383  0.0879 -0.1399
   53TMC2    H2  830   2.594   3.798  11.860 -1.5916 -0.3562  0.1370
   53TMC2    C7  831   2.549   3.605  12.035  0.2433  0.2739  0.3436
   53TMC2    C8  832   2.690   3.812  11.627  0.5604 -0.0231 -0.3163
   53TMC2    O1  833   2.542   3.717  12.087 -0.4720 -0.9518 -0.2655
   53TMC2    O2  834   2.682   3.837  11.503 -0.0126  0.3529  0.3891
   53TMC2    O5  835   2.737   3.894  11.723 -0.0426 -0.5743 -0.9648
   53TMC2    H5  836   2.744   3.838  11.803  1.9177 -2.2308 -2.2979
   54MPD2     C  837   2.637   3.035  11.563 -1.2026 -0.0599 -0.2874
   54MPD2    C1  838   2.565   3.085  11.671 -0.4017  0.3026 -0.5361
   54MPD2    C2  839   2.488   2.996  11.738 -0.6991  0.0640  0.1237
   54MPD2    C3  840   2.502   2.856  11.717  0.2097  0.3726 -0.8470
   54MPD2    C4  841   2.588   2.808  11.621  0.3743  0.3876  0.3656
   54MPD2    C5  842   2.645   2.901  11.535  0.2906  0.1853  0.2285
   54MPD2     H  843   2.443   3.039  11.827 -1.0644  0.1138 -0.0844
   54MPD2    H1  844   2.600   2.702  11.607  0.6991  0.7836 -2.3857
   54MPD2    H2  845   2.696   3.099  11.497  1.0587  0.1196  1.8936
   54MPD2    H3  846   2.692   2.868  11.444 -0.6779 -2.1084  0.5692
   54MPD2     N  847   2.440   2.756  11.794 -0.5877  0.3169  0.1578
   54MPD2    H5  848   2.477   2.661  11.787 -2.2728 -0.2781 -0.7001
   54MPD2    N1  849   2.569   3.225  11.706  0.0224  0.2835 -0.2350
   54MPD2    H7  850   2.508   3.245  11.785  0.8469  0.1698  0.4368
   55TMC2    C1  851   3.304   1.507  17.634  0.2764  0.4740 -0.7839
   55TMC2    C2  852   3.255   1.481  17.505 -0.0983 -0.0527  0.3401
   55TMC2    C3  853   3.218   1.354  17.458  0.4547 -0.8287 -0.6954
   55TMC2    C4  854   3.306   1.407  17.725 -0.2825 -0.0349 -0.0406
   55TMC2    C5  855   3.256   1.285  17.677 -0.1825 -0.5676  0.3237
   55TMC2    C6  856   3.216   1.254  17.547 -0.6689 -0.2948 -0.2734
   55TMC2     C  857   3.320   1.643  17.681 -0.2572 -0.2355  0.5377
   55TMC2     O  858   3.275   1.668   0.045 -0.3061  0.2072 -0.1990
   55TMC2     H  859   3.250   1.555  17.426 -2.6864 -1.0503 -0.4461
   55TMC2    H1  860   3.339   1.416   0.081 -0.5616  1.1717 -0.0608
   55TMC2    H2  861   3.165   1.163  17.520 -2.3623  0.5218  0.1903
   55TMC2    C7  862   3.227   1.173   0.021 -0.0063 -0.9181  0.1970
   55TMC2    C8  863   3.209   1.305  17.327  0.3851  0.6386 -0.8318
   55TMC2    O1  864   3.226   1.058  17.729  0.4490  0.8010  0.1776
   55TMC2    O2  865   3.229   1.188  17.305  0.1245 -0.3898  0.1766
   55TMC2    O5  866   3.158   1.398  17.239  0.0163  0.5351 -0.3365
   55TMC2    H5  867   3.138   1.485  17.280 -1.7351 -0.5860  1.1971
   56MPD2     C  868   3.377   1.934  17.470 -0.3258 -0.0689  0.2085
   56MPD2    C1  869   3.350   1.871  17.592  0.1355  0.0961  0.3898
   56MPD2    C2  870   3.321   1.942  17.712 -0.1671 -0.7319 -0.7386
   56MPD2    C3  871   3.302   2.084  17.707 -0.3263  0.4692 -0.4901
   56MPD2    C4  872   3.319   2.138  17.582  0.4093 -0.0783  0.2931
   56MPD2    C5  873   3.367   2.067  17.474 -0.1671 -0.3118  0.6149
   56MPD2     H  874   3.297   1.902   0.062 -1.4858  0.2491 -0.6501
   56MPD2    H1  875   3.317   2.246  17.569  1.4078 -0.3387 -1.9724
   56MPD2    H2  876   3.409   1.890  17.376 -0.5665 -1.8082  0.9440
   56MPD2    H3  877   3.388   2.121  17.382  0.3187 -3.0881 -0.8742
   56MPD2     N  878   3.247   2.147   0.069  0.0439 -0.4377  0.7339
   56MPD2    H5  879   3.235   2.089   0.151  1.7325 -1.9334 -0.0761
   56MPD2    N1  880   3.362   1.729  17.580 -0.3641 -0.2775  0.3029
   56MPD2    H7  881   3.386   1.695  17.487 -0.7049 -0.9886  0.4758
   57TMC2    C1  882   2.843   2.186  13.704 -1.1683 -0.2348  1.0339
   57TMC2    C2  883   2.918   2.226  13.600  0.3918 -0.2196  0.5981
   57TMC2    C3  884   3.029   2.159  13.564  0.3166 -0.6099  0.1244
   57TMC2    C4  885   2.878   2.071  13.772 -0.0171 -0.3949 -0.2579
   57TMC2    C5  886   2.987   2.006  13.730  0.0356 -0.3620 -0.0648
   57TMC2    C6  887   3.065   2.042  13.618  0.7177 -0.3287  0.0462
   57TMC2     C  888   2.745   2.283  13.755 -0.6275 -0.0305 -0.1890
   57TMC2     O  889   2.735   2.394  13.710 -0.0793  0.3500 -1.0474
   57TMC2     H  890   2.893   2.324  13.560 -1.0770 -1.4287 -1.4511
   57TMC2    H1  891   2.824   2.034  13.858  2.1070  0.4120  1.4571
   57TMC2    H2  892   3.163   2.005  13.589 -0.3488 -2.0364 -1.3436
   57TMC2    C7  893   3.038   1.901  13.812 -0.4779 -0.0915  0.6387
   57TMC2    C8  894   3.100   2.214  13.454 -0.2791  0.1054 -0.0592
   57TMC2    O1  895   3.012   1.900  13.930  0.6578  0.0151 -0.1073
   57TMC2    O2  896   3.074   2.325  13.405  0.7980 -0.1341  0.2380
   57TMC2    O5  897   3.128   2.106  13.383  0.4966 -0.2693 -0.4793
   57TMC2    H5  898   3.113   2.021  13.429 -0.6253  0.7160  0.9766
   58MPD2     C  899   2.396   2.433  14.098  1.0530 -0.3476 -0.7302
   58MPD2    C1  900   2.421   2.487  13.972  0.0314  0.3476 -0.5472
   58MPD2    C2  901   2.521   2.423  13.894  0.4437 -0.1292 -0.2315
   58MPD2    C3  902   2.578   2.300  13.931  0.0742  0.3531  0.3753
   58MPD2    C4  903   2.529   2.244  14.049 -0.0144 -0.1514  0.3128
   58MPD2    C5  904   2.440   2.312  14.124 -0.3178 -0.1935 -0.0965
   58MPD2     H  905   2.540   2.472  13.799  0.5059 -1.8903 -1.1238
   58MPD2    H1  906   2.559   2.143  14.074  0.6007  0.6759  2.8945
   58MPD2    H2  907   2.320   2.478  14.161 -1.4894 -3.0360 -1.8846
   58MPD2    H3  908   2.406   2.259  14.213  1.2891  1.6354  1.6142
   58MPD2     N  909   2.675   2.234  13.855  0.4090  0.1028 -0.0025
   58MPD2    H5  910   2.684   2.137  13.883 -0.8958  0.5631  2.0241
   58MPD2    N1  911   2.350   2.599  13.923 -0.4402  0.1984  0.6312
   58MPD2    H7  912   2.389   2.637  13.838 -0.5079  0.7855  0.8651
   59TMC2    C1  913   0.189   2.436  12.883  0.2427 -0.5225  0.5704
   59TMC2    C2  914   0.318   2.470  12.846  0.2386 -0.2625  0.1895
   59TMC2    C3  915   0.359   2.452  12.717  0.5557  0.7479  0.5593
   59TMC2    C4  916   0.103   2.376  12.793 -0.1504 -0.4238 -0.1599
   59TMC2    C5  917   0.146   2.362  12.668 -0.9302  0.1432 -0.2670
   59TMC2    C6  918   0.271   2.408  12.626  0.5243 -0.1494  0.1579
   59TMC2     C  919   0.155   2.442  13.018 -0.5002 -0.5154  0.0849
   59TMC2     O  920   0.081   2.359  13.066 -0.3558  0.1951  0.0059
   59TMC2     H  921   0.387   2.499  12.924 -0.1008  1.0027  0.0175
   59TMC2    H1  922   0.015   2.318  12.820 -1.4987  0.6653 -2.2539
   59TMC2    H2  923   0.303   2.400  12.523  0.3024 -2.0899  0.2480
   59TMC2    C7  924   0.039   2.358  12.564 -0.1486 -0.0316 -0.4059
   59TMC2    C8  925   0.502   2.477  12.695  0.9088 -0.3854  0.1287
   59TMC2    O1  926   4.677   2.285  12.587 -0.5412 -0.5940 -0.4223
   59TMC2    O2  927   0.587   2.516  12.771  0.0667  0.1381 -0.1532
   59TMC2    O5  928   0.513   2.494  12.564 -0.1017 -0.5973 -0.5098
   59TMC2    H5  929   0.425   2.464  12.533 -0.2477 -1.4336  0.7339
   60MPD2     C  930   0.183   2.454  13.311 -0.2032  0.3352  0.4440
   60MPD2    C1  931   0.250   2.532  13.225 -0.3464  0.1907  0.6287
   60MPD2    C2  932   0.337   2.629  13.273 -0.1408 -0.2681  0.8904
   60MPD2    C3  933   0.370   2.637  13.403 -0.0139 -0.1976  0.1651
   60MPD2    C4  934   0.308   2.552  13.491  0.7204 -0.8260  0.4859
   60MPD2    C5  935   0.208   2.467  13.441 -0.7031 -0.4013  0.3631
   60MPD2     H  936   0.382   2.694  13.198 -2.5141 -0.7962 -0.9737
   60MPD2    H1  937   0.313   2.547  13.600  0.7530  1.1746  0.5764
   60MPD2    H2  938   0.114   2.374  13.290 -0.5514  1.0412 -1.0476
   60MPD2    H3  939   0.150   2.407  13.510  0.8705 -3.1025 -0.6657
   60MPD2     N  940   0.466   2.729  13.449  0.4956  0.6498  0.3404
   60MPD2    H5  941   0.485   2.721  13.549 -0.2543 -2.1841  0.2582
   60MPD2    N1  942   0.235   2.533  13.086 -0.5093  0.3635 -0.3365
   60MPD2    H7  943   0.285   2.597  13.025 -1.7331  0.7867 -0.8962
   61TMC2    C1  944   4.621   3.307  15.061  0.4774  0.1584  0.1776
   61TMC2    C2  945   0.013   3.312  15.100  0.0680  0.2490 -0.3742
   61TMC2    C3  946   0.049   3.353  15.225  0.3050 -0.7054 -0.4323
   61TMC2    C4  947   4.530   3.369  15.143  0.1271 -0.0171  0.2916
   61TMC2    C5  948   4.562   3.418  15.262  0.0577 -0.8279  0.7064
   61TMC2    C6  949   4.691   3.410  15.305 -0.7462  0.2443  1.2338
   61TMC2     C  950   4.611   3.357  14.928 -0.4848  0.6048 -0.3596
   61TMC2     O  951   4.625   3.275  14.841  0.6278  0.2645  0.2509
   61TMC2     H  952   0.087   3.284  15.025  0.8718  2.9361 -0.6007
   61TMC2    H1  953   4.425   3.377  15.120  0.1850 -0.7843 -0.2633
   61TMC2    H2  954   4.725   3.451  15.399 -0.0030 -0.4423  1.2604
   61TMC2    C7  955   4.478   3.526  15.314 -0.3952 -0.0608  0.1618
   61TMC2    C8  956   0.178   3.407  15.230  0.2126 -0.0700  0.1994
   61TMC2    O1  957   4.400   3.574  15.233  0.1679 -0.5323  0.2018
   61TMC2    O2  958   0.206   3.511  15.287  0.2603  0.4488 -0.2767
   61TMC2    O5  959   0.266   3.309  15.191 -0.5722 -0.1830 -0.0924
   61TMC2    H5  960   0.216   3.227  15.175  0.2722 -0.6492 -0.3565
   62MPD2     C  961   4.494   3.529  14.711 -0.1835  0.5968  0.0583
   62MPD2    C1  962   4.538   3.577  14.828 -0.3481  0.2577  0.5103
   62MPD2    C2  963   4.527   3.710  14.852 -0.3760 -0.8134 -0.1910
   62MPD2    C3  964   4.485   3.798  14.754 -0.7909 -0.1705 -0.6336
   62MPD2    C4  965   4.457   3.745  14.630 -0.6384 -0.0068 -0.0496
   62MPD2    C5  966   4.452   3.613  14.615  0.2282  0.9209 -1.0685
   62MPD2     H  967   4.551   3.743  14.952 -0.6541  2.8836 -1.3481
   62MPD2    H1  968   4.417   3.807  14.550 -0.1959  1.6681  1.0441
   62MPD2    H2  969   4.497   3.426  14.678  0.0014  0.3278  0.9215
   62MPD2    H3  970   4.419   3.574  14.520 -0.0525 -1.3954 -0.0193
   62MPD2     N  971   4.467   3.941  14.772 -0.1396 -0.6590  0.9501
   62MPD2    H5  972   4.436   3.990  14.689  0.8063 -2.3626 -0.4257
   62MPD2    N1  973   4.588   3.494  14.928  0.0265  0.4216  0.2007
   62MPD2    H7  974   4.584   3.537  15.020  1.5092  0.9791  0.0045
   63TMC2    C1  975   4.132   4.122  10.981  0.0124  0.2358 -0.1264
   63TMC2    C2  976   4.271   4.087  10.995 -0.3139  0.2491 -0.0618
   63TMC2    C3  977   4.355   4.131  10.895  0.4897 -0.4802 -0.5818
   63TMC2    C4  978   4.078   4.192  10.881 -0.2255 -0.3281 -0.1630
   63TMC2    C5  979   4.167   4.227  10.786 -0.0494  0.4080  0.1014
   63TMC2    C6  980   4.306   4.198  10.791 -0.2992 -0.3153 -0.5809
   63TMC2     C  981   4.044   4.055  11.082 -0.8928  0.6214 -0.9474
   63TMC2     O  982   4.103   4.019  11.179 -0.0914  0.2857 -0.6101
   63TMC2     H  983   4.306   4.020  11.073 -2.0979  1.0686  1.4614
   63TMC2    H1  984   3.971   4.207  10.880 -0.0160  1.2908  2.3428
   63TMC2    H2  985   4.371   4.234  10.712  0.4403  2.0577  1.0788
   63TMC2    C7  986   4.111   4.313  10.684 -0.0775  0.3641 -0.7180
   63TMC2    C8  987   4.500   4.128  10.923  0.2485  0.0820  0.2788
   63TMC2    O1  988   3.989   4.306  10.667 -1.1127 -0.7256 -0.3862
   63TMC2    O2  989   4.579   4.148  10.836 -0.0512  0.2492 -0.5317
   63TMC2    O5  990   4.518   4.136  11.060  0.6764 -0.2707  0.2520
   63TMC2    H5  991   4.438   4.126  11.116 -1.9941  1.4734 -3.3077
   64MPD2     C  992   3.679   3.757  11.218  0.1445  0.0457  0.1670
   64MPD2    C1  993   3.668   3.775  11.085 -0.0278 -0.1911 -0.1390
   64MPD2    C2  994   3.742   3.874  11.027  0.3300 -0.3326  0.8494
   64MPD2    C3  995   3.831   3.949  11.100  0.3450  0.5436  0.4873
   64MPD2    C4  996   3.835   3.938  11.229 -0.7698  0.2412  0.4967
   64MPD2    C5  997   3.764   3.842  11.286 -0.2282  0.0878 -0.2585
   64MPD2     H  998   3.734   3.886  10.920  0.6674  0.8517  0.9607
   64MPD2    H1  999   3.890   4.005  11.295 -0.5060  1.5822 -1.0857
   64MPD2    H2 1000   3.641   3.669  11.269  0.9864 -0.7301 -0.5503
   64MPD2    H3 1001   3.783   3.822  11.390  1.7659 -2.2106 -1.0649
   64MPD2     N 1002   3.924   4.026  11.034 -0.6658 -0.4296 -0.0045
   64MPD2    H5 1003   3.916   4.042  10.934  1.9833 -0.2497 -0.1763
   64MPD2    N1 1004   3.590   3.692  11.008  0.5491 -0.1326  0.2564
   64MPD2    H7 1005   3.595   3.699  10.906 -0.0630  1.5369  0.3371
   65TMC2    C1 1006   0.097   3.831  15.479 -0.0219 -0.1383 -0.3565
   65TMC2    C2 1007   0.054   3.766  15.363  0.5399 -0.0498 -0.0504
   65TMC2    C3 1008   0.029   3.842  15.255  0.1149  0.0811  0.2913
   65TMC2    C4 1009   0.099   3.965  15.489 -0.1091 -0.2742  0.1469
   65TMC2    C5 1010   0.049   4.033  15.381 -0.3161 -0.3243  0.7075
   65TMC2    C6 1011   0.018   3.976  15.262 -0.0811  0.1975  0.0659
   65TMC2     C 1012   0.124   3.761  15.600 -0.7370  0.4472 -0.1196
   65TMC2     O 1013   0.112   3.824  15.702  0.2295  0.2393  0.4814
   65TMC2     H 1014   0.062   3.660  15.340  2.2495 -0.5794  2.9089
   65TMC2    H1 1015   0.139   4.009  15.580 -0.0331  0.2107 -0.1189
   65TMC2    H2 1016   4.718   4.033  15.177  3.6568  0.7678 -1.1853
   65TMC2    C7 1017   0.019   4.172  15.399 -0.8386  0.2414 -0.1094
   65TMC2    C8 1018   0.016   3.773  15.127  0.0362  0.2438 -0.3434
   65TMC2    O1 1019   0.023   4.239  15.297 -0.4105 -0.2273  0.1115
   65TMC2    O2 1020   4.720   3.654  15.126  0.7536 -0.4773  0.3704
   65TMC2    O5 1021   0.105   3.832  15.044 -0.0224  0.1125 -0.4094
   65TMC2    H5 1022   0.132   3.924  15.067 -1.4829  0.1257  1.1933
   66MPD2     C 1023   0.237   3.573  15.813 -0.8219 -0.0477 -0.7687
   66MPD2    C1 1024   0.221   3.547  15.679 -0.0404 -0.0981  0.2753
   66MPD2    C2 1025   0.269   3.423  15.631 -0.4435  0.0704 -0.0628
   66MPD2    C3 1026   0.308   3.322  15.717 -0.6025 -0.2529 -0.0006
   66MPD2    C4 1027   0.323   3.355  15.842 -0.2491 -0.8267  0.2517
   66MPD2    C5 1028   0.294   3.479  15.893  1.4513  0.5307 -0.7755
   66MPD2     H 1029   0.258   3.396  15.527 -0.4838  1.7874 -0.5007
   66MPD2    H1 1030   0.358   3.281  15.913  1.7642  0.2921  0.4063
   66MPD2    H2 1031   0.212   3.668  15.859  1.0556 -0.0018  0.1416
   66MPD2    H3 1032   0.314   3.492  15.999 -1.8936  0.5511 -0.1431
   66MPD2     N 1033   0.328   3.189  15.696 -0.5117 -0.3086 -0.3202
   66MPD2    H5 1034   0.349   3.136  15.780  1.1071  1.8016  0.5988
   66MPD2    N1 1035   0.169   3.633  15.580  0.4141 -0.0914 -0.0107
   66MPD2    H7 1036   0.157   3.612  15.481  0.1525 -1.2913  0.2722
   67TMC2    C1 1037   0.739   2.755  14.442 -0.1997  0.8527  0.1958
   67TMC2    C2 1038   0.644   2.861  14.443 -0.3154  0.4015 -0.1956
   67TMC2    C3 1039   0.631   2.940  14.554  0.7014 -0.2424 -0.1130
   67TMC2    C4 1040   0.826   2.742  14.543 -0.0083  0.8988  0.5152
   67TMC2    C5 1041   0.795   2.818  14.659  0.4077 -0.6791 -0.7219
   67TMC2    C6 1042   0.703   2.918  14.674  0.1489 -0.1905 -0.1665
   67TMC2     C 1043   0.721   2.636  14.358 -0.0250  0.3576 -0.2550
   67TMC2     O 1044   0.785   2.536  14.379 -0.1724  0.2683  0.4158
   67TMC2     H 1045   0.585   2.876  14.354  0.4682  1.0238 -0.6152
   67TMC2    H1 1046   0.892   2.656  14.551 -1.8010 -0.5682 -0.5160
   67TMC2    H2 1047   0.708   2.989  14.756  1.8997 -2.9450  2.1103
   67TMC2    C7 1048   0.909   2.821  14.742  0.2763 -0.2560 -0.3327
   67TMC2    C8 1049   0.567   3.062  14.524  0.2766  0.1032  0.2277
   67TMC2    O1 1050   1.026   2.815  14.694 -0.1651 -0.4440  0.3065
   67TMC2    O2 1051   0.520   3.087  14.415  0.6114 -0.0175  0.2495
   67TMC2    O5 1052   0.644   3.152  14.593  0.0809 -0.4193  0.3043
   67TMC2    H5 1053   0.703   3.123  14.665  0.1162 -3.2781 -0.8728
   68MPD2     C 1054   0.669   2.472  14.116 -0.2023 -0.4852 -0.5368
   68MPD2    C1 1055   0.574   2.538  14.192 -0.2085  0.4115  0.2410
   68MPD2    C2 1056   0.440   2.531  14.159 -0.5200 -0.3892 -0.2667
   68MPD2    C3 1057   0.398   2.439  14.064  0.3070  0.3231 -0.0956
   68MPD2    C4 1058   0.493   2.373  13.993  0.2136  0.2622 -0.2114
   68MPD2    C5 1059   0.627   2.385  14.018 -0.3615 -0.2077  0.4863
   68MPD2     H 1060   0.371   2.592  14.216 -1.0707 -3.3586  2.2507
   68MPD2    H1 1061   0.466   2.298  13.919 -1.3511  1.3650 -0.7412
   68MPD2    H2 1062   0.774   2.491  14.136 -0.4785 -0.0145  0.4525
   68MPD2    H3 1063   0.692   2.317  13.966 -0.7209 -0.5849  0.5305
   68MPD2     N 1064   0.262   2.436  14.032  0.2126  0.3772  0.2371
   68MPD2    H5 1065   0.196   2.490  14.088  1.3078  0.1789  1.7130
   68MPD2    N1 1066   0.604   2.641  14.286 -0.1005  0.1404  0.4101
   68MPD2    H7 1067   0.527   2.703  14.311 -0.7744 -0.4606 -0.1833
   69TMC2    C1 1068   2.319   4.140  12.541 -0.1969 -0.5326 -0.0275
   69TMC2    C2 1069   2.227   4.245  12.553  1.1520 -0.6440  0.6075
   69TMC2    C3 1070   2.250   4.364  12.485  0.3343 -0.5180 -0.5220
   69TMC2    C4 1071   2.427   4.163  12.469 -0.1744 -0.4092 -0.5314
   69TMC2    C5 1072   2.453   4.293  12.416 -0.0207  1.2834 -0.4047
   69TMC2    C6 1073   2.355   4.391  12.408  0.1951 -0.0939 -0.0749
   69TMC2     C 1074   2.291   4.019  12.609 -0.0727 -0.2977  0.2151
   69TMC2     O 1075   2.207   4.032  12.695  0.1118 -0.0416 -0.0780
   69TMC2     H 1076   2.125   4.223  12.582  0.9000  0.3106  0.4183
   69TMC2    H1 1077   2.501   4.084  12.460  0.5121  0.2416 -0.6448
   69TMC2    H2 1078   2.364   4.488  12.360  0.3384 -0.7839 -1.4406
   69TMC2    C7 1079   2.548   4.300  12.309 -0.4077  0.3530 -0.1588
   69TMC2    C8 1080   2.149   4.465  12.488 -0.2097  0.2260  0.1411
   69TMC2    O1 1081   2.583   4.190  12.273  0.4014  0.2948 -0.5747
   69TMC2    O2 1082   2.148   4.558  12.409 -0.4636 -0.6375 -0.1379
   69TMC2    O5 1083   2.101   4.478  12.612  0.0801  0.5897  0.3619
   69TMC2    H5 1084   2.119   4.409  12.679 -0.3038  0.0985 -0.0342
   70MPD2     C 1085   2.507   3.718  12.599  0.8763 -0.0477 -0.3271
   70MPD2    C1 1086   2.407   3.795  12.646 -0.3952 -0.3276  0.8058
   70MPD2    C2 1087   2.330   3.764  12.755 -0.0770  0.0709 -0.1106
   70MPD2    C3 1088   2.366   3.651  12.827  0.2768 -0.7787  0.9440
   70MPD2    C4 1089   2.471   3.573  12.788  0.0651  0.2198 -0.4853
   70MPD2    C5 1090   2.541   3.608  12.676 -0.2318  0.2246  0.4144
   70MPD2     H 1091   2.246   3.825  12.786  1.9018  1.9451  1.5740
   70MPD2    H1 1092   2.497   3.483  12.842  3.2418  2.1565  1.2354
   70MPD2    H2 1093   2.561   3.744  12.509 -0.2829  2.4297 -0.2880
   70MPD2    H3 1094   2.623   3.543  12.648  0.0522  0.4626  0.6909
   70MPD2     N 1095   2.300   3.605  12.944  0.1068 -0.7268 -0.0303
   70MPD2    H5 1096   2.353   3.537  12.999  0.6239 -0.8582 -0.6947
   70MPD2    N1 1097   2.383   3.914  12.571 -0.1573  0.1816 -0.3569
   70MPD2    H7 1098   2.448   3.928  12.494 -0.5265  2.7004 -0.2105
   71TMC2    C1 1099   4.308   0.879   1.673  0.5794 -0.0892  0.2524
   71TMC2    C2 1100   4.429   0.943   1.661  0.5575 -0.3543 -0.3084
   71TMC2    C3 1101   4.431   1.074   1.695 -0.7168 -0.0547 -0.5822
   71TMC2    C4 1102   4.188   0.945   1.698 -0.6860  0.8337 -0.0807
   71TMC2    C5 1103   4.199   1.081   1.707 -0.1836  0.6672 -0.0153
   71TMC2    C6 1104   4.320   1.150   1.712  0.0876 -0.6087 -0.3066
   71TMC2     C 1105   4.296   0.739   1.624  0.4165  1.4105  0.5182
   71TMC2     O 1106   4.376   0.715   1.535  0.8955  0.3434 -0.1422
   71TMC2     H 1107   4.519   0.887   1.641  0.5548 -0.5651  0.2923
   71TMC2    H1 1108   4.089   0.901   1.708 -0.1520 -0.4000 -0.2843
   71TMC2    H2 1109   4.316   1.257   1.728 -0.8383 -0.7522  0.4371
   71TMC2    C7 1110   4.084   1.163   1.721 -0.2049  0.5175  0.2588
   71TMC2    C8 1111   4.553   1.150   1.664  0.1732  0.9984  0.3046
   71TMC2    O1 1112   4.090   1.274   1.775 -0.5181  0.4417 -0.0676
   71TMC2    O2 1113   4.601   1.145   1.553 -0.2980  0.1477 -0.0310
   71TMC2    O5 1114   4.558   1.259   1.749 -0.6961  0.5011  0.6132
   71TMC2    H5 1115   4.511   1.261   1.835  0.2656 -1.3783  1.1859
   72MPD2     C 1116   3.982   0.367   1.458 -0.0073  0.6480 -0.0007
   72MPD2    C1 1117   4.105   0.400   1.410  0.4079  0.1044  0.2256
   72MPD2    C2 1118   4.171   0.504   1.475 -0.9009 -0.0862 -0.6231
   72MPD2    C3 1119   4.115   0.581   1.578 -0.3596  0.1424  0.2046
   72MPD2    C4 1120   3.984   0.546   1.611 -0.8617  0.1089 -0.3690
   72MPD2    C5 1121   3.922   0.434   1.554 -0.0614  0.3911  0.8805
   72MPD2     H 1122   4.272   0.523   1.440 -0.2477 -1.2387  0.7020
   72MPD2    H1 1123   3.948   0.602   1.696 -0.6615  2.0769 -1.5703
   72MPD2    H2 1124   3.923   0.282   1.424  0.5118 -0.6184  2.2688
   72MPD2    H3 1125   3.823   0.406   1.588 -1.5137  0.5314 -3.2493
   72MPD2     N 1126   4.171   0.686   1.652  0.0925 -0.1660 -0.3902
   72MPD2    H5 1127   4.120   0.719   1.733  1.5841  1.6709 -0.2253
   72MPD2    N1 1128   4.180   0.325   1.316 -0.6528 -0.2339  0.7522
   72MPD2    H7 1129   4.275   0.353   1.291 -0.6490  1.0345  2.1322
   73TMC2    C1 1130   4.446   1.276  13.923  0.4891 -0.3549 -0.0245
   73TMC2    C2 1131   4.388   1.331  14.034 -0.1954  0.3366  0.5460
   73TMC2    C3 1132   4.452   1.317  14.157  0.4736  0.1061  0.2529
   73TMC2    C4 1133   4.566   1.209  13.935 -0.5929  0.3025 -0.1503
   73TMC2    C5 1134   4.624   1.198  14.058 -0.3651 -0.7085 -0.6661
   73TMC2    C6 1135   4.562   1.245  14.171 -0.2583 -0.0728 -0.2428
   73TMC2     C 1136   4.447   1.354  13.798  0.1584  0.0148  0.1639
   73TMC2     O 1137   4.558   1.341  13.740  0.5612  0.3111 -0.3063
   73TMC2     H 1138   4.303   1.398  14.024  1.9984  2.4103 -4.0951
   73TMC2    H1 1139   4.603   1.149  13.853 -2.4549  1.1346 -1.5969
   73TMC2    H2 1140   4.604   1.221  14.268 -2.1406 -0.6958  0.4096
   73TMC2    C7 1141   0.029   1.236  14.061  0.1126  0.3655  0.0268
   73TMC2    C8 1142   4.387   1.367  14.278 -0.0663 -0.3763  0.3697
   73TMC2    O1 1143   0.111   1.202  14.148 -0.2758 -0.0799 -0.5995
   73TMC2    O2 1144   4.388   1.305  14.382 -0.2535  0.0957  0.6104
   73TMC2    O5 1145   4.340   1.484  14.251 -0.1343  0.5147  0.8395
   73TMC2    H5 1146   4.364   1.504  14.158  1.3977 -0.1353  1.1012
   74MPD2     C 1147   4.362   1.803  13.562  0.0645 -0.1632 -0.0954
   74MPD2    C1 1148   4.468   1.719  13.548  0.3457 -0.1803 -0.0402
   74MPD2    C2 1149   4.462   1.590  13.610 -0.6346  0.8516  0.0226
   74MPD2    C3 1150   4.355   1.561  13.694 -0.2602 -0.5779  0.0691
   74MPD2    C4 1151   4.252   1.648  13.704  0.5876  0.4686  0.4520
   74MPD2    C5 1152   4.249   1.762  13.636  0.1874 -0.4614 -0.1331
   74MPD2     H 1153   4.544   1.520  13.596 -0.5245  1.0274 -0.2061
   74MPD2    H1 1154   4.167   1.631  13.769  1.5138 -0.9332  1.2847
   74MPD2    H2 1155   4.369   1.903  13.519 -1.0548  1.2712  3.0394
   74MPD2    H3 1156   4.173   1.838  13.643 -1.7736 -2.5350  1.1169
   74MPD2     N 1157   4.345   1.448  13.775 -0.5037 -0.4366 -0.1094
   74MPD2    H5 1158   4.259   1.437  13.827  0.1492  0.3545  1.1454
   74MPD2    N1 1159   4.569   1.753  13.450 -0.2778  0.5170  0.0372
   74MPD2    H7 1160   4.561   1.843  13.404 -1.0548  1.0273  1.1803
   75TMC2    C1 1161   0.072   2.382  13.911 -0.1612 -0.0562  0.1505
   75TMC2    C2 1162   4.735   2.329  14.017 -0.1533 -0.0239 -0.3976
   75TMC2    C3 1163   4.600   2.334  14.001 -0.0716  0.1538 -0.1442
   75TMC2    C4 1164   0.023   2.430  13.798  0.3265  0.4845  0.2116
   75TMC2    C5 1165   4.619   2.412  13.784 -0.2230 -0.3536  0.1225
   75TMC2    C6 1166   4.536   2.363  13.884  0.4355 -0.4391 -0.1623
   75TMC2     C 1167   0.213   2.376  13.919  0.2628 -0.7616  0.4886
   75TMC2     O 1168   0.267   2.311  13.825  0.0087  0.6103 -0.0198
   75TMC2     H 1169   0.038   2.310  14.116  0.1550 -3.6752 -1.1935
   75TMC2    H1 1170   0.073   2.465  13.708 -0.5589 -1.8408 -1.1802
   75TMC2    H2 1171   4.432   2.351  13.858 -0.5118  1.8710  2.5830
   75TMC2    C7 1172   4.555   2.520  13.711 -0.1867  1.3944 -0.5876
   75TMC2    C8 1173   4.522   2.270  14.105 -0.5993  0.2315 -0.2099
   75TMC2    O1 1174   4.468   2.490  13.631 -0.5775  0.5684 -0.1762
   75TMC2    O2 1175   4.560   2.168  14.154  0.1462  0.0313 -0.4797
   75TMC2    O5 1176   4.396   2.300  14.082 -0.6765  0.0464 -0.2107
   75TMC2    H5 1177   4.381   2.388  14.040  0.6700  0.1728 -0.4091
   76TMC2    C1 1178   3.378   3.085  11.777 -0.8307 -0.2763  0.1585
   76TMC2    C2 1179   3.300   3.063  11.663  0.9709  0.0881  0.1922
   76TMC2    C3 1180   3.255   2.932  11.647  0.3673  0.0552  0.2386
   76TMC2    C4 1181   3.425   2.987  11.855 -0.0588  0.5014 -0.6817
   76TMC2    C5 1182   3.357   2.869  11.849 -0.3039 -0.3289 -0.1299
   76TMC2    C6 1183   3.269   2.836  11.748  0.4368  0.0169  0.1110
   76TMC2     C 1184   3.375   3.218  11.826 -0.9492 -0.1380 -0.2334
   76TMC2     O 1185   3.329   3.300  11.749  0.5226  0.1484  0.1198
   76TMC2     H 1186   3.260   3.137  11.595  0.0850 -2.2297 -1.8132
   76TMC2    H1 1187   3.494   2.996  11.937  0.0642 -0.8068 -0.6371
   76TMC2    H2 1188   3.220   2.739  11.746 -1.1432  0.8073  0.0924
   76TMC2    C7 1189   3.379   2.768  11.946 -0.3594  0.9720 -0.6877
   76TMC2    C8 1190   3.185   2.904  11.519 -0.0288 -0.7033 -0.5095
   76TMC2    O1 1191   3.302   2.671  11.948  0.1110 -0.5896  0.6430
   76TMC2    O2 1192   3.117   2.805  11.499 -0.6384 -0.1791 -0.2261
   76TMC2    O5 1193   3.252   2.962  11.410  0.1463  0.7546  0.4442
   76TMC2    H5 1194   3.310   3.036  11.438 -1.2716  1.7368  0.7664
   77MPD2     C 1195   3.472   3.571  12.172  0.1094 -0.3311  0.3206
   77MPD2    C1 1196   3.375   3.572  12.072 -0.7279  0.4665 -0.6632
   77MPD2    C2 1197   3.358   3.458  11.999 -0.0178 -0.3063  0.1953
   77MPD2    C3 1198   3.447   3.352  12.020 -0.6582  0.7374 -0.3700
   77MPD2    C4 1199   3.541   3.359  12.125  0.3391 -0.4090  0.3216
   77MPD2    C5 1200   3.555   3.473  12.199  0.3426  0.0479 -0.8255
   77MPD2     H 1201   3.280   3.458  11.924  0.8209  1.2415 -0.6757
   77MPD2    H1 1202   3.613   3.279  12.140  0.9541 -0.0430 -0.6457
   77MPD2    H2 1203   3.479   3.653  12.243  0.8551 -0.7857  0.7733
   77MPD2    H3 1204   3.629   3.478  12.278 -1.6593 -0.0267  1.0367
   77MPD2     N 1205   3.446   3.237  11.941  0.0896 -0.3261 -0.5206
   77MPD2    H5 1206   3.507   3.162  11.971  1.1182  1.0646  0.8541
   77MPD2    N1 1207   3.289   3.675  12.030  0.2622 -0.3942  0.3274
   77MPD2    H7 1208   3.230   3.648  11.952  2.0278 -3.8373  0.1980
   78TMC2    C1 1209   4.501   3.950   1.090  0.6471 -0.7103 -0.2152
   78TMC2    C2 1210   4.403   3.899   1.171  0.1467 -0.6289 -0.1376
   78TMC2    C3 1211   4.440   3.858   1.296  0.3054 -0.7223 -0.4308
   78TMC2    C4 1212   4.628   3.955   1.129 -0.0565 -0.1488 -0.9526
   78TMC2    C5 1213   4.656   3.910   1.252 -0.0522  0.2309 -0.4066
   78TMC2    C6 1214   4.566   3.869   1.343 -0.4107 -0.3490  0.0551
   78TMC2     C 1215   4.463   4.010   0.957  0.2298 -0.0086  0.1582
   78TMC2     O 1216   4.553   4.074   0.907  0.4635  0.5424  0.3996
   78TMC2     H 1217   4.297   3.904   1.147  0.0927 -0.4419  0.1351
   78TMC2    H1 1218   4.705   3.971   1.054 -0.3517  1.0617 -1.0032
   78TMC2    H2 1219   4.587   3.826   1.440 -3.8871 -0.4615  0.7613
   78TMC2    C7 1220   0.061   3.901   1.275 -0.9823 -0.2188  0.6657
   78TMC2    C8 1221   4.337   3.840   1.390  0.2440  0.6639 -0.7628
   78TMC2    O1 1222   0.116   3.986   1.212 -0.1198 -0.0186 -0.2773
   78TMC2    O2 1223   4.224   3.802   1.365 -0.2860 -0.2403 -0.0788
   78TMC2    O5 1224   4.369   3.926   1.488  0.0133  0.3209  0.1193
   78TMC2    H5 1225   4.444   3.986   1.468 -0.0555  0.6451  0.8089
   79MPD1     C 1226   4.136   4.149   0.588 -0.5979  0.2910  0.1264
   79MPD1    C1 1227   4.276   4.166   0.601 -0.1535  0.4923  0.0087
   79MPD1    C2 1228   4.339   4.103   0.705 -0.1203 -0.4274 -0.6130
   79MPD1    C3 1229   4.274   4.029   0.808  0.3709 -0.0038  0.0817
   79MPD1    C4 1230   4.135   4.017   0.788  0.4209 -0.1510  0.7533
   79MPD1    C5 1231   4.064   4.081   0.685 -0.4780  0.5575 -0.5269
   79MPD1     H 1232   4.446   4.117   0.715 -0.1986 -0.8793  0.8691
   79MPD1    H1 1233   4.072   3.969   0.863 -1.0388  0.3682 -0.1383
   79MPD1    H2 1234   4.090   4.211   0.512 -1.5128 -1.0712 -0.4357
   79MPD1    H3 1235   3.956   4.088   0.688 -0.3725  1.9303  0.0110
   79MPD1     N 1236   4.331   3.979   0.924 -0.2950 -0.2879 -0.3845
   79MPD1    H5 1237   4.271   3.929   0.989  1.9919 -0.5404  1.5330
   79MPD1    N1 1238   4.344   4.229   0.496 -0.0858  1.2754 -0.0279
   79MPD1    H6 1239   4.273   4.291   0.460  0.5530  2.6839  1.1499
   79MPD1    H7 1240   4.434   4.270   0.523 -0.9510  2.2028  1.4338
   80TMC2    C1 1241   2.828   2.868  12.163  0.7734 -0.4782 -0.0585
   80TMC2    C2 1242   2.888   2.941  12.062  0.2843  0.0428 -0.0749
   80TMC2    C3 1243   2.873   2.894  11.935 -0.5694 -0.3416  0.1061
   80TMC2    C4 1244   2.764   2.752  12.139 -0.8736 -0.7607 -0.2981
   80TMC2    C5 1245   2.745   2.712  12.008  0.6707 -0.5382  0.2897
   80TMC2    C6 1246   2.791   2.790  11.906 -0.0350 -0.1037 -0.3071
   80TMC2     C 1247   2.894   2.878  12.289  0.2271  0.5035  0.9227
   80TMC2     O 1248   3.009   2.912  12.289  0.1240 -0.0067 -0.2631
   80TMC2     H 1249   2.955   3.022  12.086 -1.8158  1.3771  1.2690
   80TMC2    H1 1250   2.734   2.689  12.222  2.4199  0.4407  1.7765
   80TMC2    H2 1251   2.787   2.749  11.806 -0.1108  0.6183 -0.6031
   80TMC2    C7 1252   2.669   2.595  11.973 -0.2857 -0.1780 -0.7048
   80TMC2    C8 1253   2.908   2.985  11.829  0.6069  0.2502  0.4810
   80TMC2    O1 1254   2.640   2.585  11.854 -0.1614 -0.1910  0.3133
   80TMC2    O2 1255   2.919   3.102  11.845 -0.1676  0.2044  0.1474
   80TMC2    O5 1256   2.955   2.909  11.728 -0.4932  0.7312 -0.1940
   80TMC2    H5 1257   2.945   2.812  11.739 -1.7369  0.9874  0.9066
   81MPD2     C 1258   2.981   2.777  12.558  0.3218 -0.2842  0.4816
   81MPD2    C1 1259   2.852   2.803  12.523 -0.4483 -0.0654  0.0441
   81MPD2    C2 1260   2.751   2.771  12.621 -0.3048 -0.0814  0.9282
   81MPD2    C3 1261   2.791   2.745  12.753 -0.3081 -0.1507  0.4935
   81MPD2    C4 1262   2.925   2.734  12.779  0.3639  0.8028 -0.7796
   81MPD2    C5 1263   3.020   2.749  12.679  0.1852 -0.3892 -0.5328
   81MPD2     H 1264   2.647   2.764  12.592  0.3149 -0.0469 -1.2911
   81MPD2    H1 1265   2.956   2.704  12.879  1.0905  0.7749 -1.0112
   81MPD2    H2 1266   3.056   2.781  12.480  1.4726  1.1333  1.6445
   81MPD2    H3 1267   3.127   2.735  12.692  0.2988 -0.3131 -1.4132
   81MPD2     N 1268   2.699   2.726  12.861  0.1341  0.5295 -0.2209
   81MPD2    H5 1269   2.742   2.686  12.944 -1.9613  1.4386  1.3096
   81MPD2    N1 1270   2.813   2.842  12.396 -0.1462 -0.3905  0.5293
   81MPD2    H7 1271   2.715   2.838  12.369  0.2479 -2.9270 -0.5595
   82TMC2    C1 1272   0.732   2.303  11.228  0.1640 -0.3893  0.1167
   82TMC2    C2 1273   0.861   2.257  11.227 -0.1121 -0.2702  0.0658
   82TMC2    C3 1274   0.894   2.169  11.321 -0.1764 -0.6423  0.0042
   82TMC2    C4 1275   0.634   2.252  11.313 -0.0967 -0.6874  1.2078
   82TMC2    C5 1276   0.676   2.169  11.414  0.5752 -0.6553 -0.5705
   82TMC2    C6 1277   0.804   2.128  11.413  0.6807 -0.8161  0.2172
   82TMC2     C 1278   0.705   2.429  11.158  0.3167  0.0106  0.2612
   82TMC2     O 1279   0.588   2.449  11.124  0.6997 -0.1047  0.5218
   82TMC2     H 1280   0.934   2.288  11.154 -0.4733  2.3645  0.8488
   82TMC2    H1 1281   0.531   2.281  11.294 -0.4610 -2.2259  0.8477
   82TMC2    H2 1282   0.837   2.063  11.493  1.2014 -0.0730  0.6004
   82TMC2    C7 1283   0.599   2.096  11.522 -0.2416 -0.6863 -0.1096
   82TMC2    C8 1284   1.038   2.141  11.348 -0.1463 -0.3383  0.0677
   82TMC2    O1 1285   0.654   2.068  11.627 -0.4675  0.3299 -0.1280
   82TMC2    O2 1286   1.087   2.179  11.457  0.1626 -0.4473 -0.1249
   82TMC2    O5 1287   1.104   2.152  11.226 -0.0251 -0.0535  0.3634
   82TMC2    H5 1288   1.051   2.137  11.145 -0.9474  2.1172  0.5520
   83MPD2     C 1289   0.834   2.870  10.934  0.4983 -0.7304 -0.2191
   83MPD2    C1 1290   0.706   2.825  10.962 -0.5391 -0.6715  0.1480
   83MPD2    C2 1291   0.694   2.702  11.025  0.0119  0.5924  0.3100
   83MPD2    C3 1292   0.809   2.629  11.062 -0.4836 -0.1766 -0.3914
   83MPD2    C4 1293   0.936   2.684  11.045 -0.9716 -0.1097 -0.0800
   83MPD2    C5 1294   0.945   2.803  10.980 -0.3885 -0.3673 -0.3662
   83MPD2     H 1295   0.597   2.660  11.046  0.4401 -1.0538 -1.0382
   83MPD2    H1 1296   1.028   2.640  11.081 -2.0895 -2.2653  0.1155
   83MPD2    H2 1297   0.838   2.968  10.890 -1.2722 -0.3433  0.4744
   83MPD2    H3 1298   1.038   2.850  10.952 -1.2396  0.6942 -1.4420
   83MPD2     N 1299   0.815   2.499  11.120 -0.0872 -0.0738 -0.0249
   83MPD2    H5 1300   0.905   2.466  11.154  0.3492  1.0138 -0.1277
   83MPD2    N1 1301   0.600   2.917  10.923  0.1352 -0.4028  0.3971
   83MPD2    H7 1302   0.623   3.004  10.877 -1.7974 -0.4367 -0.6380
   84TMC2    C1 1303   2.290   2.401  10.916 -0.1216 -0.6060 -0.1860
   84TMC2    C2 1304   2.391   2.487  10.948  0.2896 -0.7260 -0.4358
   84TMC2    C3 1305   2.511   2.477  10.873  0.3581 -0.2472 -0.3458
   84TMC2    C4 1306   2.299   2.302  10.820 -0.1047 -0.7770  0.1518
   84TMC2    C5 1307   2.412   2.302  10.739  0.1333 -0.1088  0.8055
   84TMC2    C6 1308   2.522   2.389  10.766  0.4817  0.3941  0.2585
   84TMC2     C 1309   2.190   2.384  11.024 -0.3655 -0.7249  0.0548
   84TMC2     O 1310   2.176   2.476  11.103 -0.3156 -0.0358 -0.6194
   84TMC2     H 1311   2.381   2.554  11.032  0.6513 -0.7833 -0.3456
   84TMC2    H1 1312   2.213   2.238  10.800  0.5629 -1.5438 -0.2714
   84TMC2    H2 1313   2.602   2.407  10.694 -0.8657  0.3802 -1.2298
   84TMC2    C7 1314   2.414   2.214  10.631 -0.1917 -0.1563  0.1751
   84TMC2    C8 1315   2.600   2.592  10.870 -0.1796  0.2818 -0.0275
   84TMC2    O1 1316   2.306   2.161  10.616  0.0259  0.1067 -0.3335
   84TMC2    O2 1317   2.671   2.598  10.770  0.2155  0.4338  0.5311
   84TMC2    O5 1318   2.523   2.698  10.913  0.0966 -0.2208 -0.1532
   84TMC2    H5 1319   2.517   2.692  11.010  2.8857 -1.8260 -0.0710
   85TMC2    C1 1320   2.793   0.118  15.670 -0.2811  0.4412 -0.5634
   85TMC2    C2 1321   2.677   0.187  15.667  0.2888 -0.1358  0.4870
   85TMC2    C3 1322   2.662   0.268  15.557 -0.1342 -0.6879 -0.4845
   85TMC2    C4 1323   2.893   0.120  15.572  0.3002  0.3827 -0.1998
   85TMC2    C5 1324   2.864   0.197  15.461  0.4025 -0.0075  0.6582
   85TMC2    C6 1325   2.749   0.276  15.451 -0.2460 -0.0257 -0.2253
   85TMC2     C 1326   2.819   0.019  15.771 -1.2934 -0.4103 -0.1590
   85TMC2     O 1327   2.935   4.720  15.797 -0.0566  0.4115  0.1046
   85TMC2     H 1328   2.606   0.167  15.746 -2.2673 -1.1102 -2.0552
   85TMC2    H1 1329   2.979   0.055  15.574 -0.3647 -0.4329  1.3524
   85TMC2    H2 1330   2.726   0.339  15.365  1.0708 -0.6780 -1.0640
   85TMC2    C7 1331   2.958   0.174  15.354  0.4966  0.3646 -0.0860
   85TMC2    C8 1332   2.570   0.377  15.567  0.3173  0.7919  0.0380
   85TMC2    O1 1333   3.053   0.101  15.371 -0.0059 -0.1967 -0.1740
   85TMC2    O2 1334   2.518   0.429  15.473  0.0377 -0.0424 -0.1827
   85TMC2    O5 1335   2.568   0.428  15.696 -0.3144  0.0552 -0.0722
   85TMC2    H5 1336   2.641   0.390  15.749 -0.6604  0.0542  0.4018
   86MPD2     C 1337   2.660   4.465  16.150 -0.2397 -0.2915 -0.1011
   86MPD2    C1 1338   2.567   4.458  16.052 -0.2602 -0.6749  0.7203
   86MPD2    C2 1339   2.585   4.529  15.934 -0.4921 -0.0786 -0.3339
   86MPD2    C3 1340   2.691   4.612  15.915 -0.3099 -0.6477  0.4763
   86MPD2    C4 1341   2.777   4.625  16.018 -0.0397  0.2986  0.2019
   86MPD2    C5 1342   2.760   4.554  16.133 -0.0193  1.0141  0.0794
   86MPD2     H 1343   2.505   4.526  15.861 -0.5887  1.4896 -0.2917
   86MPD2    H1 1344   2.855   4.700  16.019 -1.7888  2.1191  0.0678
   86MPD2    H2 1345   2.656   4.420  16.249  2.1097 -1.8049 -0.6875
   86MPD2    H3 1346   2.823   4.587  16.215 -1.3945 -3.2198  2.8463
   86MPD2     N 1347   2.696   4.700  15.805  0.3147  1.0183 -0.1750
   86MPD2    H5 1348   2.622   4.715  15.737  0.1075 -0.5940 -0.3051
   86MPD2    N1 1349   2.463   4.365  16.047 -0.6042  0.2810 -0.9514
   86MPD2    H7 1350   2.412   4.362  15.959 -0.8329  1.8395 -0.8701
   87TMC2    C1 1351   4.112   2.571   0.422 -0.5379 -0.2848  0.5744
   87TMC2    C2 1352   4.011   2.616   0.352 -0.1470 -0.8368 -0.1297
   87TMC2    C3 1353   3.945   2.726   0.413 -0.1879  0.1190 -0.0009
   87TMC2    C4 1354   4.144   2.615   0.547  0.7644 -0.2899 -0.2101
   87TMC2    C5 1355   4.061   2.709   0.606  0.3820  0.0348 -0.7383
   87TMC2    C6 1356   3.948   2.763   0.541 -0.5974  0.2444  0.2463
   87TMC2     C 1357   4.214   2.503   0.338  0.0597 -0.3167  0.2871
   87TMC2     O 1358   4.177   2.469   0.225  0.1878  0.8932 -0.7710
   87TMC2     H 1359   3.981   2.572   0.257 -0.5334 -0.6612 -0.0889
   87TMC2    H1 1360   4.226   2.570   0.602  0.0302  0.9301  1.8809
   87TMC2    H2 1361   3.899   2.851   0.580 -1.3744  0.1808 -0.5903
   87TMC2    C7 1362   4.088   2.774   0.734 -1.0477  0.2939  0.0934
   87TMC2    C8 1363   3.834   2.795   0.342  0.7420 -0.5177  0.1946
   87TMC2    O1 1364   3.999   2.813   0.806 -0.4334  0.5022 -0.0790
   87TMC2    O2 1365   3.752   2.860   0.404  0.2950 -0.0435  0.0769
   87TMC2    O5 1366   3.915   2.860   0.250 -0.4442 -0.1157 -0.0237
   87TMC2    H5 1367   4.002   2.818   0.235  0.4497  2.2144 -1.4357
   88MPD2     C 1368   4.434   2.752   0.891  0.1792 -0.1004 -0.0227
   88MPD2    C1 1369   4.296   2.792   0.883  0.2273  0.0705  0.0037
   88MPD2    C2 1370   4.234   2.848   0.990  0.1706 -0.9969  0.4408
   88MPD2    C3 1371   4.302   2.880   1.105 -0.1929 -0.0235  0.3440
   88MPD2    C4 1372   4.425   2.824   1.123  0.4056 -0.1367  0.1886
   88MPD2    C5 1373   4.497   2.769   1.016  0.6799  0.5509 -0.3693
   88MPD2     H 1374   4.135   2.891   0.974  0.8800  0.8335  0.9771
   88MPD2    H1 1375   4.477   2.836   1.217 -1.2051  1.2486  0.8942
   88MPD2    H2 1376   4.484   2.703   0.809 -3.0217 -1.6464 -1.0499
   88MPD2    H3 1377   4.599   2.734   1.030 -0.5704 -2.9894 -0.0927
   88MPD2     N 1378   4.242   2.958   1.207  0.4531  0.0301 -0.2154
   88MPD2    H5 1379   4.303   2.991   1.281  0.2565  0.2654 -0.1619
   88MPD2    N1 1380   4.225   2.760   0.761  0.2063  0.4653  0.0210
   88MPD2    H7 1381   4.286   2.718   0.693  0.7853  1.5310 -0.1237
   89TMC2    C1 1382   1.029   1.276   0.186 -0.0518 -0.9361  0.4104
   89TMC2    C2 1383   1.046   1.144   0.210 -1.6359 -0.0061 -0.7013
   89TMC2    C3 1384   1.148   1.086   0.134  0.3895  0.5475  0.0136
   89TMC2    C4 1385   1.089   1.342   0.085 -0.5691 -0.9407  0.0703
   89TMC2    C5 1386   1.188   1.284   0.010  0.1529  0.6112 -0.2299
   89TMC2    C6 1387   1.222   1.153   0.038 -0.4638 -0.2191 -0.4593
   89TMC2     C 1388   0.930   1.349   0.257  0.1723 -0.0200  0.5828
   89TMC2     O 1389   0.877   1.448   0.203 -0.0048  0.6241  0.4622
   89TMC2     H 1390   0.981   1.081   0.270  0.6544 -1.5234  0.2027
   89TMC2    H1 1391   1.077   1.449   0.080 -1.1456 -1.0773 -1.5837
   89TMC2    H2 1392   1.311   1.103  17.747 -0.2821 -0.8730  0.8255
   89TMC2    C7 1393   1.274   1.368  17.669 -0.2545  0.7852 -0.4567
   89TMC2    C8 1394   1.181   0.947   0.157 -0.1441  0.3153  0.1194
   89TMC2    O1 1395   1.395   1.341  17.669  0.2585 -0.3365  0.0756
   89TMC2    O2 1396   1.245   0.893   0.069 -0.0657 -0.5246  0.4190
   89TMC2    O5 1397   1.204   0.935   0.292  0.1137  0.0586 -0.1959
   89TMC2    H5 1398   1.157   1.006   0.342 -1.5038 -1.6278  0.6777
   90MPD2     C 1399   0.640   1.459   0.678  0.2841 -0.8790 -0.0075
   90MPD2    C1 1400   0.728   1.358   0.704 -0.0168  0.7185  0.6175
   90MPD2    C2 1401   0.796   1.303   0.595 -0.2225  0.5190  0.6007
   90MPD2    C3 1402   0.802   1.354   0.475 -0.2575 -0.0991  0.3880
   90MPD2    C4 1403   0.724   1.466   0.451  0.4053  0.0431  0.1980
   90MPD2    C5 1404   0.641   1.511   0.555  0.3263 -0.3095 -0.3484
   90MPD2     H 1405   0.856   1.212   0.600  1.1710  1.4691  1.1054
   90MPD2    H1 1406   0.728   1.529   0.363 -1.7745 -2.4832 -1.7251
   90MPD2    H2 1407   0.581   1.511   0.752 -0.1618  0.9038 -1.6052
   90MPD2    H3 1408   0.579   1.600   0.547  0.1886 -0.1834  2.1468
   90MPD2     N 1409   0.895   1.299   0.382 -0.0880  0.0247 -0.2527
   90MPD2    H5 1410   0.949   1.221   0.418 -0.1876  0.9380  1.8659
   90MPD2    N1 1411   0.757   1.306   0.832  0.3912 -1.1194 -0.0771
   90MPD2    H7 1412   0.831   1.236   0.835  2.5802  1.2303  0.5977
   91TMC2    C1 1413   1.697   0.508  16.189 -0.6021 -0.5177  1.1984
   91TMC2    C2 1414   1.789   0.412  16.176 -0.6469  0.0625  0.1665
   91TMC2    C3 1415   1.799   0.346  16.056 -0.4950  0.2628 -0.0695
   91TMC2    C4 1416   1.606   0.535  16.089 -0.4264  0.1760  0.6347
   91TMC2    C5 1417   1.618   0.467  15.971  0.2375  0.2096 -0.1710
   91TMC2    C6 1418   1.717   0.372  15.948 -0.0635  0.5604 -0.0139
   91TMC2     C 1419   1.720   0.617  16.273 -0.5551  0.6540 -0.2483
   91TMC2     O 1420   1.626   0.698  16.285  0.3046  0.2137  0.5383
   91TMC2     H 1421   1.862   0.395  16.255 -1.1184  0.9330  0.7903
   91TMC2    H1 1422   1.533   0.615  16.091 -0.8938 -0.2193 -0.4825
   91TMC2    H2 1423   1.714   0.314  15.857  0.7102  0.2088  0.1863
   91TMC2    C7 1424   1.514   0.486  15.881  0.2570  0.2099 -0.0865
   91TMC2    C8 1425   1.883   0.231  16.037  0.1882  0.1267  0.1041
   91TMC2    O1 1426   1.407   0.485  15.939  0.1189  0.2899  0.7665
   91TMC2    O2 1427   1.876   0.154  15.943  0.9864  0.0174  0.3922
   91TMC2    O5 1428   1.959   0.205  16.148 -0.3298  0.4598  0.0153
   91TMC2    H5 1429   1.970   0.282  16.207  0.2355 -0.5555  1.2229
   92MPD2     C 1430   1.843   0.847  16.404  0.1729  0.2702 -0.4309
   92MPD2    C1 1431   1.897   0.722  16.407 -0.1251 -0.1856  0.0462
   92MPD2    C2 1432   2.017   0.693  16.475 -0.2055 -0.0347  0.3730
   92MPD2    C3 1433   2.085   0.798  16.539  0.1609 -0.1950  0.2314
   92MPD2    C4 1434   2.023   0.921  16.541  1.0077 -0.0950  0.3507
   92MPD2    C5 1435   1.912   0.940  16.470  0.3656 -0.0060 -0.2953
   92MPD2     H 1436   2.063   0.594  16.475  1.6481  0.8418 -0.4205
   92MPD2    H1 1437   2.070   1.000  16.599  0.3279  0.8453 -0.3679
   92MPD2    H2 1438   1.749   0.876  16.357  0.6800  2.3664 -0.1121
   92MPD2    H3 1439   1.866   1.038  16.462 -0.7295 -0.6530 -1.8884
   92MPD2     N 1440   2.211   0.773  16.596 -0.0929 -0.1162  0.1191
   92MPD2    H5 1441   2.238   0.676  16.607 -0.9629 -0.4955 -1.0030
   92MPD2    N1 1442   1.840   0.613  16.338  0.0928 -0.0820  0.2555
   92MPD2    H7 1443   1.903   0.538  16.310  0.3535 -0.4061  1.7496
   93TMC2    C1 1444   0.006   0.987  13.688  0.2839 -0.5932  0.3231
   93TMC2    C2 1445   4.681   1.052  13.586  0.1744  0.3711  0.0452
   93TMC2    C3 1446   4.722   1.177  13.557 -0.0278  0.1244  0.1757
   93TMC2    C4 1447   0.112   1.032  13.758  0.0111 -0.1385  0.0881
   93TMC2    C5 1448   0.165   1.155  13.711  0.0727 -0.0161  0.7211
   93TMC2    C6 1449   0.098   1.233  13.615 -0.3458  0.4211  0.4519
   93TMC2     C 1450   4.737   0.843  13.677  0.0731  0.2032  0.0220
   93TMC2     O 1451   0.105   0.789  13.662 -0.7743  0.3297  0.2223
   93TMC2     H 1452   4.598   1.003  13.536 -0.3070  0.6334  0.5792
   93TMC2    H1 1453   0.175   0.986  13.833 -0.2695  0.6373  0.8011
   93TMC2    H2 1454   0.128   1.335  13.594 -0.3942  0.4315  0.4327
   93TMC2    C7 1455   0.303   1.182  13.730  0.3176  0.0241 -0.4519
   93TMC2    C8 1456   4.636   1.251  13.471  0.0939 -0.8282  0.2767
   93TMC2    O1 1457   0.353   1.128  13.827  0.3077  0.5389  0.0335
   93TMC2    O2 1458   4.517   1.219  13.467  0.1087 -0.0705  0.3726
   93TMC2    O5 1459   4.703   1.305  13.368  0.2789 -0.3568 -0.3283
   93TMC2    H5 1460   0.064   1.296  13.374  0.3919  1.4593  0.6755
   94MPD2     C 1461   4.670   0.581  13.553  0.0867 -0.1822 -0.5211
   94MPD2    C1 1462   4.578   0.664  13.621 -0.0875  0.3056 -0.2970
   94MPD2    C2 1463   4.445   0.620  13.639 -0.6319  0.6021  0.6100
   94MPD2    C3 1464   4.407   0.512  13.563 -0.5844 -0.3040 -0.9130
   94MPD2    C4 1465   4.495   0.438  13.489 -0.5891  0.0199  0.3566
   94MPD2    C5 1466   4.629   0.473  13.482 -0.1421 -0.1921 -0.3508
   94MPD2     H 1467   4.371   0.684  13.686 -1.2501  1.1321 -1.0655
   94MPD2    H1 1468   4.453   0.353  13.437  0.2603  0.4992 -1.0949
   94MPD2    H2 1469   0.035   0.611  13.535  0.1261  0.1956  0.3007
   94MPD2    H3 1470   4.697   0.415  13.420 -0.7193 -0.4760 -0.7188
   94MPD2     N 1471   4.274   0.472  13.545  0.3072 -0.0145 -0.6946
   94MPD2    H5 1472   4.259   0.393  13.484  0.3243 -1.1949  0.8155
   94MPD2    N1 1473   4.612   0.791  13.672 -0.3734  0.4655 -0.1970
   94MPD2    H7 1474   4.544   0.852  13.717 -1.2512  1.0845 -2.3143
   95TMC2    C1 1475   4.279   2.762  16.256 -0.2166 -0.2421  0.6199
   95TMC2    C2 1476   4.171   2.742  16.338 -0.0951  0.3743 -0.1160
   95TMC2    C3 1477   4.133   2.846  16.419  0.1778 -0.5540  0.4922
   95TMC2    C4 1478   4.350   2.878  16.255 -0.0024  0.3466 -0.7919
   95TMC2    C5 1479   4.313   2.975  16.345 -0.3951 -0.1121  0.3289
   95TMC2    C6 1480   4.210   2.956  16.431  0.4351 -0.6029 -0.3142
   95TMC2     C 1481   4.318   2.647  16.162  0.6749 -0.9146 -0.3185
   95TMC2     O 1482   4.261   2.537  16.175 -0.2396  0.1446  0.2832
   95TMC2     H 1483   4.133   2.640  16.341 -0.1796  0.4468  1.5258
   95TMC2    H1 1484   4.417   2.903  16.174  1.1285  3.3783  1.0901
   95TMC2    H2 1485   4.193   3.022  16.515  1.5866 -0.6214 -0.0724
   95TMC2    C7 1486   4.386   3.100  16.346 -0.4505  0.0093 -0.1832
   95TMC2    C8 1487   4.037   2.808  16.517 -0.3667  0.6856  0.5314
   95TMC2    O1 1488   4.321   3.193  16.388 -0.0884 -0.0501 -0.1116
   95TMC2    O2 1489   4.031   2.692  16.555  0.4376  0.5025  0.2779
   95TMC2    O5 1490   4.007   2.912  16.592  0.2783  0.0298  0.8301
   95TMC2    H5 1491   4.000   2.993  16.537  1.5839 -0.1641  0.3883
   96MPD2     C 1492   4.593   2.481  15.763 -0.0992  0.2305  0.3742
   96MPD2    C1 1493   4.658   2.591  15.815 -0.5110 -0.4965 -0.0933
   96MPD2    C2 1494   4.600   2.651  15.927  0.7059 -0.3402 -0.1749
   96MPD2    C3 1495   4.489   2.602  15.992 -1.0184 -0.3003 -0.0507
   96MPD2    C4 1496   4.432   2.480  15.941  0.7313 -0.6842 -0.4291
   96MPD2    C5 1497   4.487   2.420  15.831 -0.1013 -0.2960 -0.7571
   96MPD2     H 1498   4.646   2.737  15.973  0.1273  0.1060 -0.4387
   96MPD2    H1 1499   4.349   2.433  15.993  1.4785  0.1041  1.4824
   96MPD2    H2 1500   4.630   2.433  15.673  0.1588  0.5309  0.3224
   96MPD2    H3 1501   4.446   2.327  15.792 -0.9601 -0.5454  0.7464
   96MPD2     N 1502   4.431   2.674  16.094  0.5715  0.0675 -0.7617
   96MPD2    H5 1503   4.485   2.754  16.125  1.7426 -1.0227 -0.0188
   96MPD2    N1 1504   0.035   2.642  15.738 -0.2963 -0.4112 -0.3339
   96MPD2    H7 1505   0.053   2.599  15.648  2.5630  0.5169 -0.2067
   97TMC2    C1 1506   1.667   0.825  17.461  0.1779 -0.2184 -0.3720
   97TMC2    C2 1507   1.654   0.774  17.340  0.0601  0.5415 -0.1822
   97TMC2    C3 1508   1.739   0.827  17.242  0.1045 -0.0501 -0.5404
   97TMC2    C4 1509   1.758   0.931  17.482  0.8599 -0.1203 -0.3358
   97TMC2    C5 1510   1.833   0.983  17.380  0.2218 -0.0206  0.2997
   97TMC2    C6 1511   1.829   0.933  17.259  0.9738  0.6211  0.2419
   97TMC2     C 1512   1.652   0.743  17.577 -0.3836 -0.3259  0.0820
   97TMC2     O 1513   1.676   0.620  17.571 -0.4026 -0.7258 -0.5947
   97TMC2     H 1514   1.610   0.675  17.338 -1.3234  1.1822 -0.6943
   97TMC2    H1 1515   1.779   0.979  17.577  1.0358 -2.2391  0.7006
   97TMC2    H2 1516   1.900   0.953  17.179  2.7498 -0.5703  1.5281
   97TMC2    C7 1517   1.933   1.080  17.418 -0.5312 -0.1109  0.3095
   97TMC2    C8 1518   1.706   0.780  17.111  0.0465  0.4424 -0.7222
   97TMC2    O1 1519   1.954   1.095  17.537  0.2817 -0.5600 -0.4230
   97TMC2    O2 1520   1.751   0.840  17.015  0.3814 -0.0300 -0.3129
   97TMC2    O5 1521   1.578   0.733  17.119 -0.2490  0.3532  0.8090
   97TMC2    H5 1522   1.556   0.661  17.182 -3.3860  0.5032 -0.1310
   98MPD2     C 1523   1.600   0.722   0.341 -0.5473  0.0592  0.0811
   98MPD2    C1 1524   1.654   0.638   0.249 -0.1358  0.1613  1.1059
   98MPD2    C2 1525   1.649   0.659   0.113  0.7033  0.0855 -0.0535
   98MPD2    C3 1526   1.593   0.770   0.064  0.6614  0.2230  0.1365
   98MPD2    C4 1527   1.549   0.857   0.156  0.9267  0.5086  0.0764
   98MPD2    C5 1528   1.547   0.840   0.292  0.2266  0.1171 -0.3362
   98MPD2     H 1529   1.684   0.581   0.047 -1.5386 -1.3722  0.4763
   98MPD2    H1 1530   1.518   0.958   0.131  1.3361  0.4949 -0.4810
   98MPD2    H2 1531   1.619   0.706   0.447 -0.3041  1.0405  0.1894
   98MPD2    H3 1532   1.507   0.915   0.359 -1.1594 -0.9885  0.0855
   98MPD2     N 1533   1.603   0.815  17.679 -0.0044 -0.5265 -0.6269
   98MPD2    H5 1534   1.573   0.910  17.661  2.1216  0.6247  1.7862
   98MPD2    N1 1535   1.709   0.517   0.308  0.1675  0.8993 -0.7488
   98MPD2    H7 1536   1.682   0.485   0.401  2.7903  2.0789  0.3933
   99TMC2    C1 1537   0.730   2.145   0.932 -0.0276 -0.4757  0.4705
   99TMC2    C2 1538   0.857   2.185   0.972  0.1738 -0.1536  0.3262
   99TMC2    C3 1539   0.878   2.231   1.097  0.0902  0.2229  0.5024
   99TMC2    C4 1540   0.623   2.164   1.016  0.3615  0.0810 -0.2849
   99TMC2    C5 1541   0.648   2.208   1.144  0.1249  0.4410  0.3682
   99TMC2    C6 1542   0.772   2.250   1.191  0.7202  0.9306  0.1723
   99TMC2     C 1543   0.709   2.144   0.790  0.0897  0.1084 -0.4668
   99TMC2     O 1544   0.778   2.219   0.724  0.0786  0.7728 -0.2113
   99TMC2     H 1545   0.939   2.168   0.903 -0.7876  3.0578 -1.6286
   99TMC2    H1 1546   0.525   2.138   0.976  0.7760 -1.0769 -0.5354
   99TMC2    H2 1547   0.797   2.296   1.286  1.7536 -0.9021  0.7904
   99TMC2    C7 1548   0.554   2.182   1.257 -0.0428 -0.8761  0.1329
   99TMC2    C8 1549   1.010   2.275   1.147 -0.0584 -0.5574 -0.8013
   99TMC2    O1 1550   0.573   2.224   1.371  0.5653 -0.5355  0.0988
   99TMC2    O2 1551   1.034   2.353   1.241  0.3883  0.1961  0.3509
   99TMC2    O5 1552   1.100   2.204   1.067  0.2717 -0.3897  0.2052
   99TMC2    H5 1553   1.059   2.122   1.032 -0.3653  0.0983 -0.1662
  100MPD2     C 1554   0.623   2.106   0.504  0.2377  0.4512 -0.1235
  100MPD2    C1 1555   0.579   2.039   0.615  0.0078 -0.1137 -0.3171
  100MPD2    C2 1556   0.499   1.928   0.585 -0.4423  0.0433 -0.2641
  100MPD2    C3 1557   0.478   1.883   0.454 -0.2290  0.7421  0.0003
  100MPD2    C4 1558   0.536   1.948   0.346 -0.3812  0.5645  0.0319
  100MPD2    C5 1559   0.605   2.062   0.373  0.2132  0.0957 -0.3326
  100MPD2     H 1560   0.457   1.867   0.664 -1.5890  1.9449  0.5832
  100MPD2    H1 1561   0.521   1.909   0.246 -1.1703  1.6471 -0.2683
  100MPD2    H2 1562   0.673   2.202   0.506  0.7608  0.1669  0.2660
  100MPD2    H3 1563   0.634   2.116   0.284  1.4643 -1.4412 -0.8408
  100MPD2     N 1564   0.393   1.772   0.442 -0.3056 -0.3727 -0.4631
  100MPD2    H5 1565   0.353   1.740   0.529  0.8185  1.1596  0.6163
  100MPD2    N1 1566   0.609   2.064   0.750 -0.1712  0.4889 -0.0689
  100MPD2    H7 1567   0.568   2.003   0.819  1.4811  1.7020  1.9989
  101TMC2    C1 1568   1.059   3.486  12.885  0.9727 -0.0545  0.3539
  101TMC2    C2 1569   0.948   3.550  12.843  0.0223  0.3205 -0.5826
  101TMC2    C3 1570   0.946   3.682  12.833 -0.7236 -0.3662 -0.0047
  101TMC2    C4 1571   1.173   3.559  12.911  0.2679 -0.5604  0.7829
  101TMC2    C5 1572   1.165   3.696  12.900  0.5058 -0.1329 -0.3834
  101TMC2    C6 1573   1.056   3.755  12.860  0.8117  0.2021 -0.5365
  101TMC2     C 1574   1.045   3.359  12.961  0.1034  0.9770 -0.1432
  101TMC2     O 1575   0.937   3.332  13.012  0.4394  0.4135 -0.2430
  101TMC2     H 1576   0.874   3.488  12.793  0.6159 -0.4374 -0.5286
  101TMC2    H1 1577   1.261   3.506  12.947  1.9944  1.0386 -1.0615
  101TMC2    H2 1578   1.064   3.862  12.850  1.0685  0.2711  0.4466
  101TMC2    C7 1579   1.281   3.777  12.933 -0.3751  1.0911  0.1354
  101TMC2    C8 1580   0.842   3.755  12.755  0.4305 -0.5666 -0.0233
  101TMC2    O1 1581   1.297   3.883  12.875  0.7602 -0.4767 -0.1023
  101TMC2    O2 1582   0.865   3.869  12.715 -0.4909 -0.0403 -0.6000
  101TMC2    O5 1583   0.737   3.676  12.732 -0.5698 -0.6112 -0.5960
  101TMC2    H5 1584   0.730   3.602  12.797  1.7455 -0.0880  0.2717
  102MPD2     C 1585   1.267   3.064  12.967 -0.4744 -0.4538 -0.2526
  102MPD2    C1 1586   1.171   3.153  13.010 -0.4939 -0.2557  0.0044
  102MPD2    C2 1587   1.086   3.106  13.111 -0.2901 -0.6765 -0.8858
  102MPD2    C3 1588   1.100   2.985  13.178 -0.9120 -0.0370 -0.3847
  102MPD2    C4 1589   1.199   2.902  13.133 -0.1511 -0.6132  0.3321
  102MPD2    C5 1590   1.281   2.944  13.034 -0.6516 -0.2393 -0.2783
  102MPD2     H 1591   1.001   3.163  13.148  0.7436  1.8412 -2.3981
  102MPD2    H1 1592   1.210   2.800  13.170 -1.7780 -1.8770 -2.6637
  102MPD2    H2 1593   1.331   3.092  12.885 -0.3021  3.3115  1.1838
  102MPD2    H3 1594   1.348   2.868  12.997 -0.3473 -0.2515  0.3011
  102MPD2     N 1595   1.003   2.953  13.289  0.0146 -0.2068  0.1729
  102MPD2    H5 1596   0.927   3.016  13.311 -1.1259 -0.6841 -2.4111
  102MPD2    N1 1597   1.157   3.281  12.954 -0.6115 -0.2177 -0.6915
  102MPD2    H7 1598   1.233   3.301  12.890 -0.2731 -1.2422 -0.5966
  103TMC2    C1 1599   4.003   2.836  12.410  0.4692 -0.7733 -0.0147
  103TMC2    C2 1600   4.098   2.768  12.337 -0.3768 -0.0569  0.0738
  103TMC2    C3 1601   4.227   2.811  12.342 -0.3442 -0.2783  0.5614
  103TMC2    C4 1602   4.034   2.936  12.494  0.2373  0.1973 -0.2005
  103TMC2    C5 1603   4.170   2.962  12.514  0.3379  0.0693  0.3964
  103TMC2    C6 1604   4.268   2.897  12.431  0.7654 -0.0043  0.0723
  103TMC2     C 1605   3.862   2.829  12.376  0.3125 -0.9599  0.3152
  103TMC2     O 1606   3.797   2.932  12.370 -0.3941  0.1550  0.2403
  103TMC2     H 1607   4.072   2.695  12.261 -0.0138  0.1156 -0.2193
  103TMC2    H1 1608   3.957   2.996  12.541  1.9863  0.5132  2.2444
  103TMC2    H2 1609   4.374   2.910  12.448  1.0979 -0.8537 -1.3301
  103TMC2    C7 1610   4.219   3.058  12.608 -0.2661 -0.0188 -0.1970
  103TMC2    C8 1611   4.324   2.747  12.264  0.2640  0.2178 -0.2741
  103TMC2    O1 1612   4.136   3.079  12.695  0.0846 -0.4548  0.3441
  103TMC2    O2 1613   4.319   2.627  12.238 -0.2812  0.8078  0.2233
  103TMC2    O5 1614   4.363   2.837  12.170 -0.6973  0.6592  0.0101
  103TMC2    H5 1615   4.340   2.927  12.204 -0.5348  0.8894 -0.4946
  104MPD2     C 1616   3.655   2.539  12.320  0.6605  0.1321 -0.8163
  104MPD2    C1 1617   3.702   2.661  12.286 -0.5615  0.3822 -0.1147
  104MPD2    C2 1618   3.647   2.740  12.186  0.1915 -0.1146 -0.0097
  104MPD2    C3 1619   3.534   2.694  12.123  1.1074 -0.2211 -0.8354
  104MPD2    C4 1620   3.490   2.565  12.150 -0.7629  0.2326 -0.0269
  104MPD2    C5 1621   3.550   2.490  12.250  0.2696  0.9248  0.0393
  104MPD2     H 1622   3.685   2.833  12.145  0.4848 -0.8458 -1.3618
  104MPD2    H1 1623   3.412   2.527  12.084 -2.3772  1.0434  1.4075
  104MPD2    H2 1624   3.698   2.477  12.397 -2.8245 -0.2448  0.8346
  104MPD2    H3 1625   3.510   2.392  12.271 -1.0598  1.4880  0.1723
  104MPD2     N 1626   3.492   2.783  12.024 -0.1951  0.1793 -0.1444
  104MPD2    H5 1627   3.551   2.861  11.999 -1.1669  1.2589  0.8911
  104MPD2    N1 1628   3.824   2.697  12.359  0.2318 -0.2804  0.3615
  104MPD2    H7 1629   3.878   2.621  12.400  0.8419  0.6509  1.2590
  105TMC2    C1 1630   4.701   1.873  17.493  0.8507 -0.3846 -0.3087
  105TMC2    C2 1631   4.585   1.805  17.503 -0.1293  0.7078  0.8343
  105TMC2    C3 1632   4.472   1.860  17.568 -0.4766 -0.6394  0.0213
  105TMC2    C4 1633   4.712   1.986  17.573  0.0830 -0.6220 -1.0571
  105TMC2    C5 1634   4.607   2.025  17.651  0.1095  0.0465  0.5338
  105TMC2    C6 1635   4.482   1.971  17.649  0.2327  0.3691  0.5391
  105TMC2     C 1636   0.043   1.845  17.377 -0.6670 -0.3245 -0.4205
  105TMC2     O 1637   0.019   1.743  17.316 -0.1001  0.2343 -0.2788
  105TMC2     H 1638   4.577   1.712  17.448  1.1953 -0.0416  1.9148
  105TMC2    H1 1639   0.076   2.027  17.579 -0.7239  0.9340  1.7102
  105TMC2    H2 1640   4.397   1.998  17.710 -2.0579 -0.8743 -2.0895
  105TMC2    C7 1641   4.635   2.135  17.745 -0.6353 -0.3306 -0.7983
  105TMC2    C8 1642   4.348   1.795  17.554 -1.2338 -0.1971  0.1516
  105TMC2    O1 1643   0.014   2.145   0.026  0.0211  0.0961  0.1237
  105TMC2    O2 1644   4.261   1.788  17.639  0.0188 -0.3655  0.1410
  105TMC2    O5 1645   4.335   1.752  17.432  0.5704  0.2267 -0.3485
  105TMC2    H5 1646   4.395   1.790  17.364 -1.2422 -0.1592 -2.1813
  106MPD2     C 1647   0.434   1.964  17.073 -0.1827  0.4874 -0.0026
  106MPD2    C1 1648   0.401   2.077  17.144  0.5869 -0.4092  0.2247
  106MPD2    C2 1649   0.285   2.076  17.220 -0.4772 -0.6676  0.9218
  106MPD2    C3 1650   0.212   1.955  17.233  0.2583 -0.0121  0.2888
  106MPD2    C4 1651   0.235   1.847  17.156 -0.4294  0.6462 -0.8544
  106MPD2    C5 1652   0.347   1.855  17.072  0.4696  0.0292 -0.8232
  106MPD2     H 1653   0.251   2.161  17.279 -0.2800 -0.3850  0.6295
  106MPD2    H1 1654   0.189   1.749  17.163  1.9549 -0.2532  2.1738
  106MPD2    H2 1655   0.522   1.955  17.011  1.8152  1.1363  2.7361
  106MPD2    H3 1656   0.374   1.770  17.011 -0.6343 -1.1230  0.3006
  106MPD2     N 1657   0.121   1.952  17.339  0.4086  0.9492 -0.5404
  106MPD2    H5 1658   0.136   2.026  17.407  1.2465  1.3394 -1.1497
  106MPD2    N1 1659   0.479   2.199  17.137 -0.6914 -0.5997 -0.3682
  106MPD2    H7 1660   0.449   2.285  17.182  1.6986 -0.4462  0.9129
  107TMC2    C1 1661   1.527   2.450  11.726  0.0936  0.4964  0.7253
  107TMC2    C2 1662   1.608   2.557  11.739 -0.0040 -0.5912 -0.3118
  107TMC2    C3 1663   1.676   2.598  11.634 -0.9558  0.3504  0.3913
  107TMC2    C4 1664   1.536   2.370  11.611  0.3066  0.2837 -0.3345
  107TMC2    C5 1665   1.630   2.403  11.519 -0.3521  0.0798  0.0192
  107TMC2    C6 1666   1.705   2.520  11.525 -0.0500 -0.7597  0.2166
  107TMC2     C 1667   1.452   2.409  11.839  0.0377 -0.1618 -0.7752
  107TMC2     O 1668   1.466   2.470  11.945  0.3786 -0.1087 -0.2237
  107TMC2     H 1669   1.615   2.609  11.834 -0.6206  0.0339 -0.6071
  107TMC2    H1 1670   1.478   2.278  11.608  0.0594  0.4754 -1.4474
  107TMC2    H2 1671   1.788   2.548  11.460  0.7118  0.0069  1.5148
  107TMC2    C7 1672   1.651   2.304  11.415  0.0076  0.1459 -0.7200
  107TMC2    C8 1673   1.754   2.705  11.676 -0.0421  0.9873  0.5777
  107TMC2    O1 1674   1.575   2.205  11.403  0.4895 -0.3552 -0.3060
  107TMC2    O2 1675   1.812   2.706  11.787 -0.7703 -0.0861  0.5251
  107TMC2    O5 1676   1.755   2.792  11.571  0.8057 -0.6533 -0.3150
  107TMC2    H5 1677   1.693   2.772  11.497  0.8642 -2.1498  0.0474
  108MPD2     C 1678   1.129   2.236  11.812 -0.8666  0.5274 -0.2353
  108MPD2    C1 1679   1.244   2.280  11.880  0.3728 -0.6492  0.3248
  108MPD2    C2 1680   1.232   2.304  12.014  0.3092  0.0637  0.6874
  108MPD2    C3 1681   1.121   2.254  12.084  0.6843 -0.0180 -1.0430
  108MPD2    C4 1682   1.005   2.203  12.016 -0.0505 -0.4089 -0.2480
  108MPD2    C5 1683   1.015   2.193  11.878  0.2794 -0.1386  0.1109
  108MPD2     H 1684   1.318   2.338  12.071  0.4138 -0.6673  0.9635
  108MPD2    H1 1685   0.911   2.169  12.058  0.6916 -0.2853  1.5164
  108MPD2    H2 1686   1.142   2.234  11.705 -0.7786 -0.8773 -0.1947
  108MPD2    H3 1687   0.932   2.156  11.818  0.2106 -0.4610  0.3997
  108MPD2     N 1688   1.105   2.258  12.226 -0.2480  0.0843 -0.3447
  108MPD2    H5 1689   1.020   2.218  12.264  0.2435  0.8165  1.5446
  108MPD2    N1 1690   1.349   2.322  11.803  0.1821  0.5949 -0.6751
  108MPD2    H7 1691   1.337   2.325  11.702  1.2259  1.5695 -0.7796
  109TMC2    C1 1692   1.204   4.075   0.170  0.4902 -0.5025 -0.3360
  109TMC2    C2 1693   1.235   4.035   0.039  0.0006 -0.2674 -0.6528
  109TMC2    C3 1694   1.331   4.111  17.722 -0.4658 -0.5347 -0.5025
  109TMC2    C4 1695   1.263   4.172   0.238 -0.2838  0.1923  0.0004
  109TMC2    C5 1696   1.355   4.244   0.162  0.3693 -0.0312 -0.5209
  109TMC2    C6 1697   1.388   4.216   0.035 -0.2561  0.3395  0.7281
  109TMC2     C 1698   1.087   4.002   0.213 -0.1518 -0.1103 -0.0425
  109TMC2     O 1699   1.029   3.941   0.127  0.1926 -0.3012 -0.4293
  109TMC2     H 1700   1.188   3.951  17.736  0.7989 -0.8773 -0.3905
  109TMC2    H1 1701   1.225   4.212   0.332 -1.5571 -1.1085  0.0420
  109TMC2    H2 1702   1.459   4.272  17.721 -1.7887 -1.0083 -2.2826
  109TMC2    C7 1703   1.432   4.344   0.228 -0.0140 -0.4441  0.0914
  109TMC2    C8 1704   1.335   4.108  17.580  0.0534 -0.0236 -0.3699
  109TMC2    O1 1705   1.507   4.413   0.158  0.0718 -0.1628 -0.2566
  109TMC2    O2 1706   1.308   4.010  17.512 -0.6406 -0.1707  0.0190
  109TMC2    O5 1707   1.309   4.237  17.536 -0.0363  0.2967  0.1344
  109TMC2    H5 1708   1.342   4.308  17.596  0.2073 -0.7250  1.2023
  110MPD2     C 1709   0.734   3.891   0.560 -0.4528 -0.5356  0.6303
  110MPD2    C1 1710   0.839   3.953   0.622 -0.0140  0.9726  0.9114
  110MPD2    C2 1711   0.948   3.997   0.548  0.5583 -0.1663  0.3257
  110MPD2    C3 1712   0.949   3.974   0.413 -0.1417  0.3763  0.0361
  110MPD2    C4 1713   0.843   3.911   0.355  0.2187  0.2928 -0.4347
  110MPD2    C5 1714   0.728   3.879   0.424  0.2994 -0.3287 -0.3884
  110MPD2     H 1715   1.032   4.037   0.602  0.7158  0.2100 -0.2036
  110MPD2    H1 1716   0.851   3.882   0.251 -0.0390  1.0766 -0.6730
  110MPD2    H2 1717   0.654   3.856   0.624 -1.1688 -0.6473 -0.3349
  110MPD2    H3 1718   0.642   3.825   0.386  1.1105 -1.7207 -0.2293
  110MPD2     N 1719   1.067   4.018   0.348  0.0669  0.1953  0.1222
  110MPD2    H5 1720   1.145   4.052   0.402  0.0232 -0.4244  0.5807
  110MPD2    N1 1721   0.824   3.962   0.765  0.9211 -0.1717  0.7934
  110MPD2    H7 1722   0.747   3.916   0.812  0.4410 -0.1325  0.0514
  111TMC2    C1 1723   1.210   3.711  11.706  0.3926 -0.4620 -0.7711
  111TMC2    C2 1724   1.125   3.632  11.784 -0.1215  0.7937  0.5257
  111TMC2    C3 1725   1.166   3.589  11.912  0.3129 -0.3110 -0.0929
  111TMC2    C4 1726   1.336   3.730  11.749 -0.3153  0.2101 -0.0205
  111TMC2    C5 1727   1.373   3.693  11.874  0.7165 -0.8023  0.0563
  111TMC2    C6 1728   1.290   3.628  11.958 -0.2039  0.1176  0.3213
  111TMC2     C 1729   1.185   3.750  11.564 -0.0247  0.0683 -0.8255
  111TMC2     O 1730   1.279   3.783  11.495 -0.2063  0.3517 -0.6185
  111TMC2     H 1731   1.022   3.604  11.766  0.1053 -0.6678  1.4309
  111TMC2    H1 1732   1.411   3.781  11.690  0.2839 -0.0255  0.5407
  111TMC2    H2 1733   1.314   3.609  12.062 -0.1689 -1.3780  0.0471
  111TMC2    C7 1734   1.496   3.745  11.935  0.1191  0.5381  0.6113
  111TMC2    C8 1735   1.079   3.496  11.971 -0.1501 -0.1598  0.1819
  111TMC2    O1 1736   1.506   3.727  12.055  0.5378  0.0958  0.3122
  111TMC2    O2 1737   0.958   3.493  11.951 -1.0187 -0.0271  0.4778
  111TMC2    O5 1738   1.155   3.408  12.038 -1.0207  0.3307 -0.5892
  111TMC2    H5 1739   1.252   3.418  12.042 -0.9114 -0.9491  0.0091
  112MPD2     C 1740   0.848   3.802  11.183  0.0042 -0.7415 -1.0713
  112MPD2    C1 1741   0.971   3.866  11.197  0.2612 -0.0333  0.4053
  112MPD2    C2 1742   1.042   3.841  11.314  0.1346 -0.3242 -0.1713
  112MPD2    C3 1743   0.993   3.748  11.410 -0.1081  0.0511  0.6213
  112MPD2    C4 1744   0.861   3.706  11.397 -0.9981 -0.3118 -0.2902
  112MPD2    C5 1745   0.793   3.719  11.276  0.7756 -0.1921 -0.4232
  112MPD2     H 1746   1.128   3.903  11.337  0.4354  0.4062 -3.1728
  112MPD2    H1 1747   0.817   3.645  11.475  0.1198  0.2679  0.7976
  112MPD2    H2 1748   0.787   3.811  11.094 -0.5813  0.7364 -0.5017
  112MPD2    H3 1749   0.691   3.686  11.261  1.2395 -1.5317 -0.6269
  112MPD2     N 1750   1.057   3.716  11.534  0.6957  0.4375  0.3165
  112MPD2    H5 1751   0.998   3.658  11.594 -1.4134  1.5755 -0.6747
  112MPD2    N1 1752   1.038   3.941  11.091  0.0089 -0.0388  0.1637
  112MPD2    H7 1753   1.135   3.961  11.112  0.2552 -0.8037 -0.2498
  113TMC2    C1 1754   3.891   1.880   0.505  0.5943 -0.6144 -0.1265
  113TMC2    C2 1755   3.790   1.974   0.509  0.8248 -0.0735 -0.6401
  113TMC2    C3 1756   3.702   1.970   0.406  0.5733  0.0573  0.2613
  113TMC2    C4 1757   3.891   1.779   0.407  0.1469 -0.1223 -0.3198
  113TMC2    C5 1758   3.789   1.771   0.315  0.3052  0.6426  0.1249
  113TMC2    C6 1759   3.693   1.870   0.315  0.1940 -0.4073  0.2997
  113TMC2     C 1760   4.002   1.904   0.597 -0.3436  0.2095  0.1924
  113TMC2     O 1761   4.000   2.004   0.668 -0.5446 -0.1906  0.3632
  113TMC2     H 1762   3.783   2.064   0.569  3.3796 -1.4207  1.7321
  113TMC2    H1 1763   3.976   1.713   0.390  0.1484 -0.5563  1.4654
  113TMC2    H2 1764   3.608   1.872   0.248  0.5195 -0.2665 -0.1101
  113TMC2    C7 1765   3.732   1.642   0.295  0.5012 -0.2216 -0.2461
  113TMC2    C8 1766   3.592   2.065   0.422 -0.4673 -0.1308 -0.0214
  113TMC2    O1 1767   3.639   1.644   0.217  0.4654  0.0266 -0.4588
  113TMC2    O2 1768   3.570   2.113   0.537 -0.1615 -0.7334 -0.1313
  113TMC2    O5 1769   3.575   2.130   0.303 -0.0686  0.0700  0.5757
  113TMC2    H5 1770   3.610   2.090   0.220 -2.2095 -0.8441  0.0989
  114MPD2     C 1771   4.482   1.795   0.761  0.3313 -0.2305 -0.5804
  114MPD2    C1 1772   4.396   1.901   0.792 -0.6866 -0.3281  0.0963
  114MPD2    C2 1773   4.280   1.912   0.727  0.3993 -0.0266 -0.0935
  114MPD2    C3 1774   4.232   1.811   0.642  0.7769  0.0800  0.7844
  114MPD2    C4 1775   4.317   1.707   0.606  0.1372  0.0455 -0.0778
  114MPD2    C5 1776   4.443   1.712   0.663  0.6060  0.5066  0.3219
  114MPD2     H 1777   4.214   1.997   0.741  1.1471  0.2496  1.6764
  114MPD2    H1 1778   4.278   1.628   0.543 -1.5666 -0.6892  1.9292
  114MPD2    H2 1779   4.570   1.771   0.819 -1.8066 -0.0444  2.7254
  114MPD2    H3 1780   4.506   1.630   0.629  0.4795  0.5086  0.0852
  114MPD2     N 1781   4.105   1.811   0.579 -0.4830 -0.1830  0.7884
  114MPD2    H5 1782   4.092   1.728   0.522 -1.5218 -0.2249  1.0745
  114MPD2    N1 1783   4.410   1.985   0.901 -0.4169 -0.1172 -0.5200
  114MPD2    H7 1784   4.327   2.036   0.928  0.6269  1.0772  0.4449
  115TMC2    C1 1785   0.331   4.597   0.065  0.5273  0.1550 -0.7395
  115TMC2    C2 1786   0.451   4.542   0.035  0.3495  0.2366  0.2454
  115TMC2    C3 1787   0.549   4.627  17.743  0.0743  0.2945 -0.5671
  115TMC2    C4 1788   0.308   4.734   0.074  0.8363 -0.1114 -0.2984
  115TMC2    C5 1789   0.415   0.072   0.026  0.9619  0.0971 -0.1236
  115TMC2    C6 1790   0.538   0.025  17.744  1.0946  0.0175  0.1258
  115TMC2     C 1791   0.227   4.503   0.088  0.0708  0.2919  0.1529
  115TMC2     O 1792   0.243   4.393   0.037  0.4344 -0.0589  0.4985
  115TMC2     H 1793   0.471   4.437   0.053  1.1147  0.7207  2.2166
  115TMC2    H1 1794   0.213   0.040   0.103  0.8830 -0.6702  0.7066
  115TMC2    H2 1795   0.625   0.086  17.722  0.4375  1.1807  0.7461
  115TMC2    C7 1796   0.391   0.218   0.011  0.8748  0.0260  0.4918
  115TMC2    C8 1797   0.680   4.568  17.729  0.1925  0.1918  0.1698
  115TMC2    O1 1798   0.294   0.268   0.068 -0.3926 -0.3441  0.2623
  115TMC2    O2 1799   0.777   4.641  17.721  0.1865  0.6959  0.1371
  115TMC2    O5 1800   0.667   4.447  17.676 -0.0645  0.3276  0.2555
  115TMC2    H5 1801   0.576   4.411  17.675 -0.6391  1.7332  1.4778
  116MPD2     C 1802   4.482   4.382   0.203  0.0140  0.3964  0.4723
  116MPD2    C1 1803   4.569   4.332   0.099  0.2178 -0.3184 -0.0868
  116MPD2    C2 1804   4.697   4.378   0.095  0.6960 -0.3505  0.0346
  116MPD2    C3 1805   0.007   4.472   0.184  1.1053 -0.2558 -0.5682
  116MPD2    C4 1806   4.657   4.520   0.286  0.2163  0.3533 -0.1722
  116MPD2    C5 1807   4.529   4.477   0.291 -0.2296  0.3776 -0.1756
  116MPD2     H 1808   0.028   4.343   0.018  0.0382 -1.0874 -0.2136
  116MPD2    H1 1809   4.682   4.588   0.366 -0.5768  1.1760 -0.6357
  116MPD2    H2 1810   4.378   4.353   0.210 -0.4842  2.1525  0.2332
  116MPD2    H3 1811   4.462   4.503   0.372  0.4160 -2.4241  1.2607
  116MPD2     N 1812   0.131   4.542   0.173  0.2320 -0.4900 -0.1151
  116MPD2    H5 1813   0.139   4.625   0.230  0.1081 -0.0943 -0.6738
  116MPD2    N1 1814   4.519   4.254   0.002  0.1232 -0.0186 -0.7442
  116MPD2    H7 1815   4.419   4.247  17.738 -0.0187 -2.0774  1.8931
  117TMC2    C1 1816   3.984   0.894  14.286  0.4418 -0.5898  0.1475
  117TMC2    C2 1817   4.084   0.842  14.210  0.0220  0.3202 -0.4074
  117TMC2    C3 1818   4.204   0.903  14.197 -0.1924  0.5681  0.2322
  117TMC2    C4 1819   3.983   1.023  14.328 -0.6678  0.6327 -0.3600
  117TMC2    C5 1820   4.088   1.101  14.288 -0.9746 -0.3669 -0.0953
  117TMC2    C6 1821   4.197   1.041  14.228  0.0799 -0.5352 -0.1583
  117TMC2     C 1822   3.864   0.814  14.306  0.0527 -0.2419 -0.4495
  117TMC2     O 1823   3.879   0.696  14.294  0.2866  0.3929 -0.0371
  117TMC2     H 1824   4.074   0.741  14.172 -1.7329  0.5111 -0.4254
  117TMC2    H1 1825   3.905   1.070  14.386  0.0123  3.1895 -1.5278
  117TMC2    H2 1826   4.273   1.106  14.186  1.2467 -0.8481  1.4344
  117TMC2    C7 1827   4.065   1.237  14.252 -0.2843  0.5570  0.7787
  117TMC2    C8 1828   4.286   0.873  14.079 -0.0733 -0.5908 -0.3997
  117TMC2    O1 1829   4.091   1.275  14.139 -0.2742 -0.2638 -0.3528
  117TMC2    O2 1830   4.237   0.840  13.970 -0.4995  0.3117 -0.1108
  117TMC2    O5 1831   4.397   0.948  14.081 -0.1455  0.0995  0.1998
  117TMC2    H5 1832   4.415   0.946  14.177  1.0408 -1.7589 -0.0669
  118MPD2     C 1833   3.830   1.447  14.464  0.0340 -0.2018 -0.0598
  118MPD2    C1 1834   3.919   1.417  14.353  1.0869  0.9413 -0.2855
  118MPD2    C2 1835   3.931   1.512  14.251 -0.2616 -0.8829  0.1359
  118MPD2    C3 1836   3.872   1.637  14.264  0.1236 -0.2927 -0.5383
  118MPD2    C4 1837   3.784   1.665  14.372 -0.4951 -0.2133 -0.2892
  118MPD2    C5 1838   3.767   1.567  14.468 -0.0556  0.4072 -0.0134
  118MPD2     H 1839   4.000   1.489  14.170  1.1806  1.3668  0.7130
  118MPD2    H1 1840   3.756   1.769  14.388  0.4058 -0.3299  2.0985
  118MPD2    H2 1841   3.817   1.380  14.548  3.6264 -1.7231 -0.6996
  118MPD2    H3 1842   3.711   1.583  14.559 -1.6683  1.6880 -1.2152
  118MPD2     N 1843   3.896   1.747  14.179  0.1787 -0.6767 -0.0257
  118MPD2    H5 1844   3.843   1.829  14.204 -0.1736 -1.2808  1.2130
  118MPD2    N1 1845   3.993   1.298  14.357 -0.2369 -0.1171  0.4114
  118MPD2    H7 1846   3.988   1.244  14.443 -1.7196  0.1396  0.4774
  119TMC2    C1 1847   2.329   2.165  13.375  0.3293 -0.2084 -0.3267
  119TMC2    C2 1848   2.407   2.112  13.274 -0.0946  0.0434 -0.5558
  119TMC2    C3 1849   2.370   1.998  13.217 -0.0803 -0.5043 -0.1499
  119TMC2    C4 1850   2.209   2.105  13.403 -0.2365 -0.4579 -0.2930
  119TMC2    C5 1851   2.160   2.001  13.326  0.7832 -0.0337  0.3473
  119TMC2    C6 1852   2.245   1.943  13.241 -0.5268  0.0381 -0.2561
  119TMC2     C 1853   2.352   2.307  13.400  0.0226 -0.6741  0.4101
  119TMC2     O 1854   2.250   2.363  13.440 -0.3716 -0.7210 -1.2238
  119TMC2     H 1855   2.492   2.168  13.237  0.3026 -0.2970 -0.1494
  119TMC2    H1 1856   2.144   2.153  13.475  4.4060  2.4738  2.0048
  119TMC2    H2 1857   2.207   1.854  13.192  1.2806 -0.0565 -1.4965
  119TMC2    C7 1858   2.023   1.941  13.343 -0.0970 -0.5122  0.5654
  119TMC2    C8 1859   2.435   1.929  13.109 -0.2271 -0.6457 -0.1554
  119TMC2    O1 1860   1.997   1.846  13.266 -0.4142 -0.1213 -0.4809
  119TMC2    O2 1861   2.521   1.992  13.050  0.5539  0.2534  0.3622
  119TMC2    O5 1862   2.449   1.806  13.155  0.3397 -0.0969  0.6595
  119TMC2    H5 1863   2.406   1.788  13.242  1.7749 -2.8013  0.7948
  120MPD2     C 1864   2.624   2.725  13.508 -0.0278 -1.1585 -0.1338
  120MPD2    C1 1865   2.486   2.707  13.501 -0.8136 -0.1786 -0.3018
  120MPD2    C2 1866   2.439   2.585  13.468  0.4372  0.7320 -0.5065
  120MPD2    C3 1867   2.524   2.486  13.424 -0.2708 -0.6031  0.9553
  120MPD2    C4 1868   2.659   2.509  13.415  0.1763  0.0866  0.3676
  120MPD2    C5 1869   2.705   2.633  13.457  0.2341 -0.4472 -1.0246
  120MPD2     H 1870   2.335   2.556  13.474  0.8770 -0.7105  0.1105
  120MPD2    H1 1871   2.725   2.433  13.374 -0.5590 -0.1913 -0.2904
  120MPD2    H2 1872   2.667   2.815  13.551  0.7758 -0.5813 -2.1784
  120MPD2    H3 1873   2.811   2.656  13.462 -0.1604  1.0902  0.0432
  120MPD2     N 1874   2.483   2.351  13.392 -0.1789  0.4852 -0.9719
  120MPD2    H5 1875   2.554   2.279  13.383  0.4348  0.7876  1.2745
  120MPD2    N1 1876   2.398   2.798  13.562 -0.2054  0.4778 -0.2185
  120MPD2    H7 1877   2.432   2.862  13.632  1.2234  0.4399 -0.8799
  121TMC2    C1 1878   3.116   3.912  14.192  0.3538  0.0484 -0.6485
  121TMC2    C2 1879   3.193   3.801  14.158 -0.3596 -0.7259 -0.4999
  121TMC2    C3 1880   3.142   3.683  14.208  0.1282 -0.7780 -0.6307
  121TMC2    C4 1881   2.998   3.907  14.253  0.2016  0.1651  0.4481
  121TMC2    C5 1882   2.947   3.783  14.289  0.1174 -0.5151  0.0225
  121TMC2    C6 1883   3.019   3.674  14.260  0.5682  0.0850  1.0118
  121TMC2     C 1884   3.160   4.054  14.170  0.5224 -0.1096  0.2274
  121TMC2     O 1885   3.118   4.144  14.246  0.0354 -0.2136 -0.2960
  121TMC2     H 1886   3.294   3.819  14.123  0.2239 -0.8005  1.1862
  121TMC2    H1 1887   2.943   3.997  14.277 -0.2366  0.4225 -1.5251
  121TMC2    H2 1888   2.984   3.573  14.281 -2.3527  0.9402  0.1893
  121TMC2    C7 1889   2.802   3.758  14.298  0.0527 -0.7754 -0.1294
  121TMC2    C8 1890   3.232   3.582  14.260  0.7560 -0.0875  0.3445
  121TMC2    O1 1891   2.763   3.649  14.337 -0.4636 -0.0436 -0.0666
  121TMC2    O2 1892   3.211   3.523  14.362 -0.5707 -0.2030  0.0278
  121TMC2    O5 1893   3.357   3.604  14.196 -0.1348  0.5505  0.6000
  121TMC2    H5 1894   3.360   3.674  14.128  1.1502  0.0504  0.1298
  122MPD2     C 1895   3.307   4.308  14.086  0.3518  0.5197  0.1631
  122MPD2    C1 1896   3.315   4.190  14.023  0.2506  0.1961  0.1866
  122MPD2    C2 1897   3.375   4.182  13.900 -0.2376 -0.1632  0.2174
  122MPD2    C3 1898   3.435   4.289  13.838  0.4076 -0.1298 -0.2488
  122MPD2    C4 1899   3.436   4.407  13.907  0.0961  0.2111  0.7998
  122MPD2    C5 1900   3.371   4.418  14.033  0.1963  0.2856 -0.1195
  122MPD2     H 1901   3.369   4.084  13.853  0.4905 -0.2415  0.2842
  122MPD2    H1 1902   3.452   4.503  13.859  1.7851  0.7131  2.3480
  122MPD2    H2 1903   3.255   4.321  14.181 -0.4369  1.2282 -0.3644
  122MPD2    H3 1904   3.379   4.513  14.085  1.7733 -0.4182  0.9142
  122MPD2     N 1905   3.490   4.275  13.711  0.7735 -0.5744 -0.0589
  122MPD2    H5 1906   3.514   4.364  13.668  0.1222  0.6702  2.1955
  122MPD2    N1 1907   3.252   4.064  14.069 -0.2651 -0.1285 -1.1056
  122MPD2    H7 1908   3.270   3.980  14.016 -0.6776 -0.6896 -0.3494
  123TMC2    C1 1909   1.669   2.921  10.938 -0.0251  0.2440  0.2048
  123TMC2    C2 1910   1.614   3.004  11.032 -0.1505  0.5932  0.2576
  123TMC2    C3 1911   1.603   3.139  10.996  0.8071  0.5999  0.1067
  123TMC2    C4 1912   1.719   2.965  10.816 -0.4281  0.5925 -1.1273
  123TMC2    C5 1913   1.702   3.098  10.787 -0.0100  0.5674 -0.1647
  123TMC2    C6 1914   1.641   3.187  10.868  0.0063 -0.2614 -0.0690
  123TMC2     C 1915   1.689   2.780  10.976  0.3054 -0.3372 -0.8029
  123TMC2     O 1916   1.691   2.752  11.095  0.2127 -0.3426  0.0064
  123TMC2     H 1917   1.599   2.968  11.133 -1.2024  3.9130  1.2707
  123TMC2    H1 1918   1.773   2.903  10.744  1.2435  0.9746 -0.2111
  123TMC2    H2 1919   1.635   3.295  10.858  0.4710 -0.5010 -2.8780
  123TMC2    C7 1920   1.792   3.141  10.676  0.2006  0.0414 -0.1642
  123TMC2    C8 1921   1.602   3.239  11.100 -0.4448  0.1849 -0.1746
  123TMC2    O1 1922   1.892   3.071  10.656  0.0924 -0.0903 -0.3732
  123TMC2    O2 1923   1.640   3.355  11.087  0.3107 -0.0824  0.4911
  123TMC2    O5 1924   1.546   3.184  11.205 -0.3028 -0.2019  0.5578
  123TMC2    H5 1925   1.481   3.112  11.188 -0.9112  0.5548 -0.3801
  124MPD2     C 1926   1.637   2.294  10.812 -0.2288 -0.8693  0.5759
  124MPD2    C1 1927   1.630   2.378  10.708 -0.5912 -0.0817  1.1664
  124MPD2    C2 1928   1.649   2.514  10.724  0.6807 -0.2553 -0.0884
  124MPD2    C3 1929   1.681   2.562  10.853  0.0137 -0.1831  0.2012
  124MPD2    C4 1930   1.692   2.479  10.960  0.0892  0.0335  0.5002
  124MPD2    C5 1931   1.668   2.341  10.936 -0.4411  0.1043 -0.3712
  124MPD2     H 1932   1.644   2.588  10.645 -0.2540 -0.4574 -0.2197
  124MPD2    H1 1933   1.701   2.512  11.063 -0.2496  0.2352  0.4663
  124MPD2    H2 1934   1.612   2.188  10.806  1.3154 -1.1482 -0.8733
  124MPD2    H3 1935   1.651   2.278  11.022  0.1886 -0.9999 -1.0577
  124MPD2     N 1936   1.684   2.702  10.863 -0.1458  0.2169  0.3920
  124MPD2    H5 1937   1.668   2.742  10.772 -1.4593  0.5670  0.7745
  124MPD2    N1 1938   1.588   2.322  10.586  0.2352  0.3689 -0.5037
  124MPD2    H7 1939   1.546   2.231  10.599 -2.0725  1.5019 -0.1159
  125TMC2    C1 1940   2.573   4.677   9.562  0.6792  1.0222 -0.0490
  125TMC2    C2 1941   2.534   4.724   9.440 -0.3451 -0.3053  0.1173
  125TMC2    C3 1942   2.625   4.718   9.338  0.0643 -0.0543  0.5581
  125TMC2    C4 1943   2.698   4.624   9.589  0.3151 -0.3468  0.5880
  125TMC2    C5 1944   2.785   4.637   9.489 -0.0077 -0.5843 -0.1063
  125TMC2    C6 1945   2.752   4.678   9.362 -0.0259  0.0588  0.2417
  125TMC2     C 1946   2.471   4.669   9.670 -0.2487 -0.6067 -0.0117
  125TMC2     O 1947   2.358   4.645   9.638  0.1182  0.6348 -0.3839
  125TMC2     H 1948   2.431   0.019   9.428 -1.0434 -1.7002  2.3133
  125TMC2    H1 1949   2.746   4.615   9.685  2.7358 -1.1590 -0.6973
  125TMC2    H2 1950   2.827   4.674   9.283  1.0990 -1.2649  1.3776
  125TMC2    C7 1951   2.934   4.635   9.531 -0.3886 -0.4684  0.1023
  125TMC2    C8 1952   2.587   4.723   9.198 -0.0017 -1.0140  0.0012
  125TMC2    O1 1953   2.960   4.594   9.643  0.4061  0.2559 -0.8027
  125TMC2    O2 1954   2.620   4.642   9.112 -0.0729 -0.2482 -0.7803
  125TMC2    O5 1955   2.539   0.106   9.165  0.8090  0.8832 -0.0922
  125TMC2    H5 1956   2.527   0.153   9.250 -2.3152 -1.3476  0.7191
  126MPD1     C 1957   2.329   4.577  10.146  0.2968  0.8068 -0.2439
  126MPD1    C1 1958   2.452   4.640  10.156 -1.3192  0.9607 -0.3464
  126MPD1    C2 1959   2.509   4.681  10.037  0.2291  0.9630 -0.5037
  126MPD1    C3 1960   2.455   4.656   9.916 -1.3877  0.8272  0.0284
  126MPD1    C4 1961   2.332   4.587   9.913 -0.6286 -0.4507  0.1176
  126MPD1    C5 1962   2.271   4.551  10.031  0.0283 -0.1875  0.2411
  126MPD1     H 1963   2.609   4.723  10.039 -0.0007  1.4284  1.7696
  126MPD1    H1 1964   2.276   4.569   9.822  0.6251 -0.8528 -0.5718
  126MPD1    H2 1965   2.282   4.550  10.240  0.6432 -4.5620 -1.5995
  126MPD1    H3 1966   2.180   4.493  10.035 -0.7202  0.9220 -0.7571
  126MPD1     N 1967   2.526   4.688   9.796  0.4160 -0.2539 -0.0128
  126MPD1    H5 1968   2.622   4.723   9.802 -0.0611  0.8910  1.0138
  126MPD1    N1 1969   2.493   4.678  10.285  0.1113  0.8109  0.0378
  126MPD1    H6 1970   2.593   4.690  10.297  0.2034  1.0182 -0.8736
  126MPD1    H7 1971   2.442   4.628  10.358 -0.3020 -0.5044 -1.1386
  127TMC2    C1 1972   3.596   3.751   9.971 -0.6219  0.0281  0.5781
  127TMC2    C2 1973   3.608   3.821  10.087  0.0199  0.1191 -0.8162
  127TMC2    C3 1974   3.585   3.756  10.208 -0.7104 -0.1624  0.9089
  127TMC2    C4 1975   3.564   3.618   9.970 -0.2099 -0.0348  0.5192
  127TMC2    C5 1976   3.552   3.556  10.090 -0.3778 -0.8330  0.2578
  127TMC2    C6 1977   3.553   3.624  10.212 -0.8648 -0.1369  0.2785
  127TMC2     C 1978   3.640   3.827   9.860 -0.5408  0.1206  0.9602
  127TMC2     O 1979   3.689   3.937   9.880  0.0900  0.0361  0.7614
  127TMC2     H 1980   3.640   3.924  10.083  0.3475  0.1223  1.8473
  127TMC2    H1 1981   3.571   3.556   9.881 -1.8476  0.6193 -0.0649
  127TMC2    H2 1982   3.523   3.562  10.296  1.9920 -1.4309  0.3443
  127TMC2    C7 1983   3.501   3.425  10.098  0.4048 -0.0567  0.6963
  127TMC2    C8 1984   3.589   3.823  10.335  0.5267  0.0125  0.1209
  127TMC2    O1 1985   3.515   3.364  10.203 -0.3102  0.3299 -0.3757
  127TMC2    O2 1986   3.633   3.765  10.435  0.3206  0.5564 -0.2431
  127TMC2    O5 1987   3.579   3.958  10.316  0.3709  0.2729 -0.1798
  127TMC2    H5 1988   3.524   3.979  10.238  1.9243 -1.2610 -1.6617
  128MPD2     C 1989   3.653   3.754   9.499 -0.3233 -0.0150  0.1548
  128MPD2    C1 1990   3.691   3.806   9.624 -1.0808  0.3954 -0.1804
  128MPD2    C2 1991   3.801   3.887   9.631  0.1347 -0.9675  0.2068
  128MPD2    C3 1992   3.870   3.918   9.515  0.4712 -0.0079  0.1449
  128MPD2    C4 1993   3.837   3.871   9.389  0.7001  0.3015 -0.0612
  128MPD2    C5 1994   3.730   3.787   9.384 -0.7036  0.5885  0.8466
  128MPD2     H 1995   3.838   3.939   9.719 -1.8025 -0.2462  0.5833
  128MPD2    H1 1996   3.893   3.896   9.299 -1.2518 -1.0052 -1.6334
  128MPD2    H2 1997   3.560   3.699   9.491 -0.6924  0.4696  1.2058
  128MPD2    H3 1998   3.694   3.755   9.287 -2.2706 -2.1974  2.3540
  128MPD2     N 1999   3.976   4.011   9.526 -0.1480 -0.2632 -0.2120
  128MPD2    H5 2000   3.997   4.037   9.622  0.2315 -0.6178 -0.1962
  128MPD2    N1 2001   3.624   3.767   9.743  0.4083  0.0719  0.3370
  128MPD2    H7 2002   3.542   3.707   9.738  0.8404 -0.6843  2.1892
  129TMC2    C1 2003   2.431   3.462   1.353 -0.2160 -0.1644 -0.2311
  129TMC2    C2 2004   2.537   3.511   1.286  0.2894  0.0031  0.4841
  129TMC2    C3 2005   2.580   3.450   1.175  0.2502  0.5094  0.3528
  129TMC2    C4 2006   2.372   3.341   1.331 -0.0455  0.2254  0.2501
  129TMC2    C5 2007   2.425   3.281   1.226 -0.4324  0.3121  0.0758
  129TMC2    C6 2008   2.529   3.327   1.150 -0.8189 -0.0656  0.2849
  129TMC2     C 2009   2.366   3.547   1.449  0.4866 -0.2956  0.6703
  129TMC2     O 2010   2.317   3.482   1.543 -0.5771 -0.0543  0.7997
  129TMC2     H 2011   2.585   3.601   1.322  1.4550 -0.9562  1.3412
  129TMC2    H1 2012   2.282   3.308   1.382 -0.4429  0.0441 -0.5750
  129TMC2    H2 2013   2.572   3.269   1.069  2.3657  1.5610  0.7884
  129TMC2    C7 2014   2.341   3.169   1.173 -0.2803  0.5005  0.5051
  129TMC2    C8 2015   2.712   3.482   1.120 -0.8878  0.7117  0.2467
  129TMC2    O1 2016   2.224   3.167   1.204 -0.4553  0.3619 -0.2028
  129TMC2    O2 2017   2.774   3.403   1.048  0.8133 -0.1277 -0.2407
  129TMC2    O5 2018   2.746   3.612   1.128 -0.3656 -0.0929 -0.1732
  129TMC2    H5 2019   2.688   3.669   1.183 -0.8987 -1.6668  0.9189
  130MPD2     C 2020   2.257   3.752   1.626  0.3107  0.8640  0.2426
  130MPD2    C1 2021   2.309   3.781   1.502  0.0460 -0.0608  0.3819
  130MPD2    C2 2022   2.279   3.900   1.448 -0.0813 -0.8542  0.5050
  130MPD2    C3 2023   2.197   3.989   1.511 -0.5228 -0.2108 -0.3030
  130MPD2    C4 2024   2.145   3.955   1.636 -0.1183 -0.2621 -0.0430
  130MPD2    C5 2025   2.177   3.834   1.697 -0.0896  0.0229  0.1029
  130MPD2     H 2026   2.318   3.914   1.348  1.8942 -0.7773  1.2812
  130MPD2    H1 2027   2.074   4.023   1.683  0.3063  1.1978 -1.5421
  130MPD2    H2 2028   2.252   3.653   1.670  1.5406 -0.4943 -2.6497
  130MPD2    H3 2029   2.121   3.805   1.786  2.3774 -1.0474  1.2960
  130MPD2     N 2030   2.154   4.109   1.462  0.0376 -0.0481  0.3924
  130MPD2    H5 2031   2.076   4.154   1.508 -0.3773 -0.5117  0.1472
  130MPD2    N1 2032   2.373   3.682   1.425  0.5477  0.8415  0.8410
  130MPD2    H7 2033   2.399   3.721   1.335  0.5881 -0.1611  0.4189
  131TMC2    C1 2034   1.470   3.089   9.806 -0.2741  0.4191 -0.5535
  131TMC2    C2 2035   1.388   3.177   9.875 -0.5954  0.2401  0.1655
  131TMC2    C3 2036   1.405   3.312   9.840 -0.0369 -1.4361  0.2149
  131TMC2    C4 2037   1.574   3.126   9.726 -0.8044 -0.3248 -0.0722
  131TMC2    C5 2038   1.597   3.260   9.715  0.5801  0.2193 -0.0699
  131TMC2    C6 2039   1.508   3.353   9.765 -0.3359  0.4154 -0.3696
  131TMC2     C 2040   1.446   2.944   9.823  0.1729  0.2465 -0.0110
  131TMC2     O 2041   1.539   2.873   9.859  0.1831 -0.1345  0.5642
  131TMC2     H 2042   1.315   3.137   9.944 -0.4590  0.7634  0.6096
  131TMC2    H1 2043   1.637   3.048   9.686 -2.2088 -0.3714 -2.2078
  131TMC2    H2 2044   1.525   3.458   9.744  0.4285  0.6227  1.3080
  131TMC2    C7 2045   1.717   3.308   9.639 -0.3864 -0.3314  0.3691
  131TMC2    C8 2046   1.317   3.415   9.900  1.2785 -0.0466  0.7362
  131TMC2    O1 2047   1.777   3.219   9.585 -0.1370 -0.6271  0.2846
  131TMC2    O2 2048   1.335   3.537   9.906 -0.0243  0.4747  0.0291
  131TMC2    O5 2049   1.201   3.353   9.916  0.4069  0.4717  0.0909
  131TMC2    H5 2050   1.214   3.267   9.870  1.3695  1.6128 -1.7784
  132MPD2     C 2051   1.105   2.796   9.886  0.0616 -0.1533 -0.4899
  132MPD2    C1 2052   1.243   2.800   9.887 -0.0849  0.0419  0.2802
  132MPD2    C2 2053   1.307   2.696   9.945  0.0517  0.6033  0.1369
  132MPD2    C3 2054   1.237   2.593   9.999  0.1228 -0.0509  0.4729
  132MPD2    C4 2055   1.100   2.594   9.993  0.2944 -0.4589  0.2596
  132MPD2    C5 2056   1.030   2.701   9.945  0.3505 -0.2997 -0.6193
  132MPD2     H 2057   1.415   2.696   9.946  0.0595  0.1346 -0.6183
  132MPD2    H1 2058   1.044   2.515  10.043 -0.1571 -0.6005 -0.4727
  132MPD2    H2 2059   1.045   2.883   9.861 -0.8051 -0.7254 -0.3968
  132MPD2    H3 2060   0.922   2.694   9.940  0.3845 -0.3445 -1.2134
  132MPD2     N 2061   1.316   2.491  10.060  0.7328  0.4767  0.5547
  132MPD2    H5 2062   1.417   2.498  10.065  0.9340 -1.5236 -0.7082
  132MPD2    N1 2063   1.306   2.921   9.843  0.7132  0.2300  0.0513
  132MPD2    H7 2064   1.240   2.986   9.801  0.1350 -0.5100 -0.1783
  133TMC2    C1 2065   1.347   4.589   9.535  0.0877 -0.0635 -0.3380
  133TMC2    C2 2066   1.451   4.653   9.597 -0.3636  0.6853 -0.4157
  133TMC2    C3 2067   1.576   4.617   9.577 -0.3574  0.8274 -0.2282
  133TMC2    C4 2068   1.371   4.498   9.436  0.0340 -0.2593  0.1187
  133TMC2    C5 2069   1.504   4.478   9.408 -0.0601 -0.2272 -0.3161
  133TMC2    C6 2070   1.609   4.530   9.482 -0.8494  0.4802 -0.3628
  133TMC2     C 2071   1.218   4.611   9.593  0.2825 -0.0117  0.3080
  133TMC2     O 2072   1.214   4.716   9.659 -0.1719  0.2007 -0.0837
  133TMC2     H 2073   1.428   4.727   9.673 -2.9140  1.9218 -2.3556
  133TMC2    H1 2074   1.298   4.461   9.365 -2.0282 -0.5474  2.3782
  133TMC2    H2 2075   1.713   4.508   9.461 -0.5759  1.4105  0.0064
  133TMC2    C7 2076   1.541   4.356   9.329 -0.2648  0.0733 -0.1610
  133TMC2    C8 2077   1.672   4.704   9.640 -0.1240 -0.1903 -0.4075
  133TMC2    O1 2078   1.652   4.355   9.273 -0.4140  0.6415  0.7364
  133TMC2    O2 2079   1.778   0.003   9.585 -0.4012 -0.0121  0.5268
  133TMC2    O5 2080   1.661   4.686   9.767 -0.2109 -0.6277 -0.4794
  133TMC2    H5 2081   1.588   4.626   9.792 -0.1565 -0.7226 -0.5494
  134MPD2     C 2082   0.944   4.611   9.696  0.0384 -0.6896  0.6285
  134MPD2    C1 2083   0.996   4.509   9.623  0.1493 -0.1001  0.1391
  134MPD2    C2 2084   0.912   4.404   9.601  0.1405 -0.2627 -0.6166
  134MPD2    C3 2085   0.776   4.401   9.633 -0.5177 -0.2377 -0.6371
  134MPD2    C4 2086   0.721   4.512   9.692 -0.1437 -0.2546 -0.0522
  134MPD2    C5 2087   0.808   4.611   9.734  0.1693 -0.1573 -0.2954
  134MPD2     H 2088   0.949   4.320   9.544  2.4043  0.9191 -0.9155
  134MPD2    H1 2089   0.618   4.512   9.725 -0.5687  1.1842 -1.3508
  134MPD2    H2 2090   1.005   4.691   9.736  2.5349 -1.4039 -1.7756
  134MPD2    H3 2091   0.762   4.694   9.785  0.9526  1.7211 -2.6222
  134MPD2     N 2092   0.687   4.290   9.607  0.7933 -0.1977  0.2698
  134MPD2    H5 2093   0.587   4.306   9.606  1.0405  1.3451  0.2320
  134MPD2    N1 2094   1.127   4.508   9.569  0.8648 -0.5506  0.0009
  134MPD2    H7 2095   1.153   4.427   9.514  0.6285 -1.1011  0.6784
  135TMC2    C1 2096   3.169   0.262   9.642  0.6111  0.3421 -0.3882
  135TMC2    C2 2097   3.036   0.280   9.677  0.4263 -0.0592 -0.3385
  135TMC2    C3 2098   2.981   0.207   9.773 -0.4198 -0.7041 -0.3737
  135TMC2    C4 2099   3.250   0.175   9.709  0.0181  0.2662 -0.0841
  135TMC2    C5 2100   3.190   0.093   9.806 -0.5810  0.1547  0.0837
  135TMC2    C6 2101   3.057   0.107   9.830 -1.0631 -0.2490 -1.2119
  135TMC2     C 2102   3.217   0.331   9.521 -0.0817 -0.5836 -0.0965
  135TMC2     O 2103   3.146   0.421   9.485  0.1349 -0.1328 -0.1408
  135TMC2     H 2104   2.975   0.333   9.605 -0.9531 -0.0265  0.8764
  135TMC2    H1 2105   3.357   0.165   9.691  0.2614 -0.7759  1.8965
  135TMC2    H2 2106   3.014   0.033   9.896  0.6319  0.8365  1.0953
  135TMC2    C7 2107   3.287   4.736   9.874  0.2741  0.0115 -0.0662
  135TMC2    C8 2108   2.835   0.189   9.764  0.1708 -0.1128 -0.2463
  135TMC2    O1 2109   3.404   4.722   9.831 -0.0494  0.0899  0.3998
  135TMC2    O2 2110   2.776   0.208   9.658  0.3957 -0.3002  0.2073
  135TMC2    O5 2111   2.785   0.118   9.864 -0.3606  0.2854  0.3655
  135TMC2    H5 2112   2.853   0.109   9.934  1.0601  0.6360 -0.9539
  136MPD2     C 2113   3.333   0.461   9.289  0.1566  0.0117 -1.2818
  136MPD2    C1 2114   3.410   0.392   9.374 -0.0054  0.0708 -0.2825
  136MPD2    C2 2115   3.551   0.397   9.366 -0.3381  0.0096  0.0460
  136MPD2    C3 2116   3.613   0.482   9.269  0.6363  0.3296  0.3108
  136MPD2    C4 2117   3.536   0.531   9.168  0.0273 -0.3993 -0.4009
  136MPD2    C5 2118   3.398   0.527   9.186  0.2338  0.7674  0.8368
  136MPD2     H 2119   3.602   0.354   9.452 -0.5384  2.5532  1.4210
  136MPD2    H1 2120   3.578   0.587   9.086  0.9354 -0.1695  0.2169
  136MPD2    H2 2121   3.227   0.480   9.284  0.1384  0.7417  1.8910
  136MPD2    H3 2122   3.332   0.578   9.116  0.9199 -2.3934 -2.0699
  136MPD2     N 2123   3.755   0.504   9.268 -0.5357 -0.5090 -0.3249
  136MPD2    H5 2124   3.785   0.567   9.194  2.2648 -1.3389  0.0819
  136MPD2    N1 2125   3.352   0.318   9.481 -0.1269  0.1923 -0.1365
  136MPD2    H7 2126   3.413   0.260   9.537 -2.0620 -1.0258  0.7423
  137TMC2    C1 2127   3.311   4.086   9.942 -0.3214 -0.1015  0.3928
  137TMC2    C2 2128   3.431   4.146   9.931  0.0497  0.4572 -0.6483
  137TMC2    C3 2129   3.439   4.248   9.845  0.2476  0.5562 -0.3470
  137TMC2    C4 2130   3.204   4.121   9.867  0.2403 -0.8830  0.6084
  137TMC2    C5 2131   3.218   4.230   9.784 -0.2963  0.6892  0.9922
  137TMC2    C6 2132   3.331   4.297   9.774 -0.3300  0.2522 -0.5917
  137TMC2     C 2133   3.308   3.991  10.052  0.4770 -0.2390  0.4211
  137TMC2     O 2134   3.383   4.008  10.149  0.1218 -0.1198  0.3292
  137TMC2     H 2135   3.517   4.112   9.988 -0.6663 -0.4212 -0.1035
  137TMC2    H1 2136   3.115   4.059   9.869 -0.2182 -0.2212  0.5276
  137TMC2    H2 2137   3.328   4.384   9.710 -0.1665  1.0757  0.5120
  137TMC2    C7 2138   3.121   4.256   9.674  0.1966 -0.6067 -0.1739
  137TMC2    C8 2139   3.567   4.317   9.831  0.4862  0.1613 -1.0477
  137TMC2    O1 2140   3.166   4.293   9.568  0.2916  0.2880  0.2158
  137TMC2    O2 2141   3.567   4.422   9.766  0.2221  0.1044 -0.1467
  137TMC2    O5 2142   3.675   4.230   9.835  0.4974  0.2667 -0.2219
  137TMC2    H5 2143   3.657   4.140   9.868 -1.6294  0.3841 -1.0430
  138MPD2     C 2144   3.180   3.658  10.046 -0.2850 -0.5845  0.2000
  138MPD2    C1 2145   3.226   3.777  10.104 -0.4086 -0.0559 -0.3313
  138MPD2    C2 2146   3.230   3.791  10.239  0.1987 -0.1582  0.1679
  138MPD2    C3 2147   3.203   3.683  10.316  0.8560  0.3547 -0.4090
  138MPD2    C4 2148   3.166   3.565  10.258 -1.0595 -0.3737  0.5679
  138MPD2    C5 2149   3.154   3.550  10.122  0.3127 -0.4642 -0.8729
  138MPD2     H 2150   3.252   3.886  10.287 -0.7201  0.2426 -0.1996
  138MPD2    H1 2151   3.150   3.471  10.309 -0.3800 -0.0949  1.2880
  138MPD2    H2 2152   3.157   3.649   9.940  1.7699 -0.2332 -0.2679
  138MPD2    H3 2153   3.126   3.454  10.080  0.6401 -1.1422  0.4577
  138MPD2     N 2154   3.218   3.710  10.456  0.4467  0.5151 -0.0391
  138MPD2    H5 2155   3.273   3.788  10.490 -0.4481  1.5743 -1.0255
  138MPD2    N1 2156   3.240   3.880  10.016  0.3881 -0.6421 -0.1322
  138MPD2    H7 2157   3.193   3.866   9.927  2.7310  1.2426 -1.6743
  139TMC2    C1 2158   3.760   2.137  13.549  0.7126 -0.5209  0.5767
  139TMC2    C2 2159   3.847   2.236  13.485  0.9796  0.3288 -0.4300
  139TMC2    C3 2160   3.812   2.362  13.487  0.3445 -0.1553 -0.4166
  139TMC2    C4 2161   3.653   2.174  13.620  0.3329  0.0198  0.3546
  139TMC2    C5 2162   3.628   2.312  13.623 -0.9487 -0.1926 -0.3446
  139TMC2    C6 2163   3.698   2.407  13.553 -0.1135 -0.3934  0.1382
  139TMC2     C 2164   3.831   2.014  13.572  0.2273 -0.5404  0.3732
  139TMC2     O 2165   3.948   2.016  13.541 -0.6005 -0.0296 -0.1859
  139TMC2     H 2166   3.929   2.212  13.419  1.6641 -0.2816  0.6356
  139TMC2    H1 2167   3.591   2.097  13.666 -0.6132  0.0306 -0.8776
  139TMC2    H2 2168   3.670   2.510  13.572  2.7847  0.5788 -0.8594
  139TMC2    C7 2169   3.496   2.355  13.673 -0.1638 -0.0363  0.4668
  139TMC2    C8 2170   3.904   2.458  13.428 -0.0220  0.3754 -0.1662
  139TMC2    O1 2171   3.445   2.454  13.612  0.9566 -0.2911  0.5414
  139TMC2    O2 2172   4.025   2.428  13.413 -0.8473  0.2010 -0.3591
  139TMC2    O5 2173   3.837   2.558  13.365  0.0144  0.0689  0.3439
  139TMC2    H5 2174   3.742   2.536  13.359  0.4287 -1.4133 -0.7218
  140MPD2     C 2175   3.737   1.697  13.754  0.3903  0.1791 -0.1491
  140MPD2    C1 2176   3.801   1.779  13.661  0.2119  0.5494  0.5172
  140MPD2    C2 2177   3.884   1.718  13.572  0.1962  0.4729  0.0224
  140MPD2    C3 2178   3.926   1.581  13.588 -0.0991 -0.0572  0.2369
  140MPD2    C4 2179   3.863   1.505  13.678 -0.3061  0.4550  0.4782
  140MPD2    C5 2180   3.768   1.562  13.757 -0.2156  0.0253  0.1461
  140MPD2     H 2181   3.925   1.785  13.496  2.2443  0.6264  1.2471
  140MPD2    H1 2182   3.892   1.404  13.706  0.9329  0.1720 -1.7963
  140MPD2    H2 2183   3.659   1.732  13.821 -1.1573 -0.7016 -1.5198
  140MPD2    H3 2184   3.717   1.499  13.829  1.8493 -1.3543  0.4289
  140MPD2     N 2185   4.028   1.528  13.506  0.4229  0.0981 -0.1890
  140MPD2    H5 2186   4.075   1.593  13.444  0.7254 -1.3195 -1.4654
  140MPD2    N1 2187   3.756   1.916  13.636 -0.8713  0.1790 -0.1719
  140MPD2    H7 2188   3.669   1.943  13.680 -0.7805 -0.9225  0.6719
  141TMC2    C1 2189   3.807   4.027  13.872  0.5046 -0.0389 -0.2124
  141TMC2    C2 2190   3.722   3.950  13.948  0.0659 -0.3073  0.8020
  141TMC2    C3 2191   3.710   3.977  14.085 -0.2650  0.3425 -0.2970
  141TMC2    C4 2192   3.863   4.139  13.929  0.3550  0.0328  0.5094
  141TMC2    C5 2193   3.837   4.161  14.061  0.0179  0.1912 -0.3287
  141TMC2    C6 2194   3.768   4.082  14.146 -0.4250  0.4432  0.0941
  141TMC2     C 2195   3.884   3.957  13.775  0.1927  0.6648  0.6524
  141TMC2     O 2196   3.872   3.834  13.781  0.3323  0.5580  0.2394
  141TMC2     H 2197   3.663   3.874  13.899 -1.1204 -0.8422  3.0318
  141TMC2    H1 2198   3.945   4.189  13.879 -1.8083  2.6641 -0.3994
  141TMC2    H2 2199   3.751   4.105  14.250  2.1285  0.4369  0.5223
  141TMC2    C7 2200   3.912   4.276  14.114  0.4287  0.1528  0.8793
  141TMC2    C8 2201   3.598   3.922  14.164 -0.4605  0.2852 -0.1716
  141TMC2    O1 2202   3.912   4.380  14.048  0.2144 -0.9469  0.0619
  141TMC2    O2 2203   3.544   3.974  14.257  0.0477  0.4095 -0.4244
  141TMC2    O5 2204   3.531   3.848  14.075 -0.4411  0.5094 -0.3745
  141TMC2    H5 2205   3.601   3.788  14.041 -0.5473 -0.0106  0.3203
  142TMC2    C1 2206   2.546   3.126  10.313  1.0392  0.6617  0.0545
  142TMC2    C2 2207   2.579   3.199  10.202  0.3115  0.7540 -0.0021
  142TMC2    C3 2208   2.535   3.329  10.196 -0.7606  0.2804  0.0040
  142TMC2    C4 2209   2.463   3.177  10.408  0.5218 -0.3125  1.0620
  142TMC2    C5 2210   2.409   3.303  10.400  0.4045  0.4781 -0.5882
  142TMC2    C6 2211   2.442   3.374  10.288 -0.6187  0.1662  0.4186
  142TMC2     C 2212   2.555   2.980  10.288 -0.0214  0.7067 -0.3038
  142TMC2     O 2213   2.593   2.935  10.178  0.2904  0.6109 -0.3242
  142TMC2     H 2214   2.642   3.153  10.126  3.4689  2.5908  1.4810
  142TMC2    H1 2215   2.435   3.117  10.495 -1.4406 -1.7599 -0.5816
  142TMC2    H2 2216   2.419   3.480  10.282 -0.0690  0.0501 -3.5682
  142TMC2    C7 2217   2.285   3.317  10.478 -0.2400 -0.1632 -0.4644
  142TMC2    C8 2218   2.556   3.407  10.069  0.8731 -0.4656 -0.4447
  142TMC2    O1 2219   2.277   3.254  10.584 -0.0797  0.7204  1.2172
  142TMC2    O2 2220   2.486   3.501  10.029 -1.0472  0.4536  0.4738
  142TMC2    O5 2221   2.672   3.369  10.012 -0.1782  0.1167 -0.4413
  142TMC2    H5 2222   2.723   3.313  10.075 -1.1785  1.7956  1.8870
  143MPD2     C 2223   2.337   2.561  10.486  0.5048  0.9143  0.1302
  143MPD2    C1 2224   2.368   2.594  10.356 -0.2443  0.3415 -0.0468
  143MPD2    C2 2225   2.449   2.704  10.328  0.7097 -0.1805 -0.5755
  143MPD2    C3 2226   2.480   2.797  10.431  0.1461  1.0650  0.1230
  143MPD2    C4 2227   2.445   2.767  10.567 -0.2838  0.0005  0.4082
  143MPD2    C5 2228   2.374   2.649  10.588 -1.0043 -0.2807  0.2608
  143MPD2     H 2229   2.486   2.728  10.228 -2.4712  2.2065 -1.1761
  143MPD2    H1 2230   2.475   2.832  10.648 -1.3103  1.4208 -0.3522
  143MPD2    H2 2231   2.287   2.467  10.508  3.3560 -0.8806 -1.0443
  143MPD2    H3 2232   2.338   2.623  10.687 -1.1485  1.4211  0.6569
  143MPD2     N 2233   2.530   2.922  10.406 -0.7554  0.1671  0.2062
  143MPD2    H5 2234   2.544   2.978  10.490  1.4777  0.7980 -0.5971
  143MPD2    N1 2235   2.320   2.499  10.262 -0.2598 -0.3585 -0.3076
  143MPD2    H7 2236   2.272   2.418  10.301  0.2061  0.3298  1.7351
  144TMC2    C1 2237   4.663   0.584   0.478 -0.1806 -0.0879  0.2808
  144TMC2    C2 2238   4.688   0.457   0.521 -0.5972 -0.2275  0.1611
  144TMC2    C3 2239   0.066   0.438   0.594  0.6948  0.7455  0.7099
  144TMC2    C4 2240   4.730   0.696   0.523 -0.4567 -0.0018  0.0811
  144TMC2    C5 2241   0.101   0.668   0.605 -0.3746  0.3877  0.2536
  144TMC2    C6 2242   0.142   0.541   0.633 -0.7287 -0.1002  0.3008
  144TMC2     C 2243   4.530   0.607   0.414 -0.1416 -0.2057 -0.2473
  144TMC2     O 2244   4.483   0.511   0.352 -0.6413 -0.5740  0.1890
  144TMC2     H 2245   4.620   0.383   0.480 -1.9856  1.3267 -0.3405
  144TMC2    H1 2246   4.706   0.796   0.487 -0.6248 -0.3412 -0.7393
  144TMC2    H2 2247   0.233   0.521   0.688  1.9697  1.7247 -3.5555
  144TMC2    C7 2248   0.207   0.770   0.619 -0.0611 -0.0551 -1.1022
  144TMC2    C8 2249   0.116   0.305   0.623  0.6870 -0.3180 -0.3308
  144TMC2    O1 2250   0.324   0.739   0.652  0.2310  0.0247  0.3063
  144TMC2    O2 2251   0.186   0.276   0.718  0.3803 -0.0472  0.2754
  144TMC2    O5 2252   0.063   0.227   0.518 -0.2415  0.3138  0.2820
  144TMC2    H5 2253   0.041   0.291   0.448 -1.7987 -0.3391  0.1761
  145MPD2     C 2254   4.140   0.910   0.255 -0.4143  0.2778  0.0763
  145MPD2    C1 2255   4.186   0.794   0.205 -0.0206  0.8124 -0.3040
  145MPD2    C2 2256   4.286   0.730   0.273  0.4134  0.4258 -0.5682
  145MPD2    C3 2257   4.354   0.781   0.385 -0.0588  0.8268 -0.7574
  145MPD2    C4 2258   4.313   0.905   0.422  0.1678  0.3216  0.2399
  145MPD2    C5 2259   4.210   0.968   0.357 -0.2314 -0.3806  0.1645
  145MPD2     H 2260   4.321   0.633   0.237  0.1232  0.0321  0.2223
  145MPD2    H1 2261   4.356   0.949   0.512  1.2940 -2.7132  1.1803
  145MPD2    H2 2262   4.058   0.970   0.216 -0.1556 -0.4969 -1.6550
  145MPD2    H3 2263   4.183   1.069   0.387 -0.2828  0.1870 -1.8428
  145MPD2     N 2264   4.473   0.733   0.440  0.2446  0.3618 -0.3986
  145MPD2    H5 2265   4.521   0.794   0.505 -0.6236  1.2144 -0.5500
  145MPD2    N1 2266   4.144   0.730   0.089  0.4520 -0.6946  0.0068
  145MPD2    H7 2267   4.167   0.633   0.071  0.8407 -0.1500 -2.4502
  146TMC2    C1 2268   0.878   0.022  12.667 -0.8461 -0.3979  0.6007
  146TMC2    C2 2269   0.798   0.060  12.566 -0.7746  0.0267 -0.3837
  146TMC2    C3 2270   0.819   0.007  12.440 -0.2511 -0.1825  0.2945
  146TMC2    C4 2271   0.976   4.667  12.642  0.4634  0.4651  0.2964
  146TMC2    C5 2272   0.998   4.612  12.516 -0.8383 -0.2074  0.0390
  146TMC2    C6 2273   0.921   4.662  12.412  0.7423  0.8111  0.4275
  146TMC2     C 2274   0.865   0.089  12.797 -0.4865 -0.7027  0.5300
  146TMC2     O 2275   0.797   0.193  12.793  0.2029  0.2926 -0.2480
  146TMC2     H 2276   0.715   0.129  12.573  0.9345  1.8850  1.6534
  146TMC2    H1 2277   1.039   4.631  12.723 -0.9672  3.6064  2.8113
  146TMC2    H2 2278   0.948   4.639  12.309 -3.5287 -1.1013 -0.2549
  146TMC2    C7 2279   1.109   4.521  12.488 -0.5228 -0.1430 -0.4096
  146TMC2    C8 2280   0.711   0.017  12.352  0.2376 -0.5175 -0.3293
  146TMC2    O1 2281   1.124   4.490  12.369 -0.0860 -0.0001  0.3861
  146TMC2    O2 2282   0.636   0.110  12.348  0.4458 -0.3464  0.8014
  146TMC2    O5 2283   0.688   4.641  12.278  0.4223 -0.1208 -0.4559
  146TMC2    H5 2284   0.756   4.570  12.279 -1.2985 -1.7543 -0.2976
  147MPD2     C 2285   1.463   4.185  12.616  0.1416 -1.4174 -0.5426
  147MPD2    C1 2286   1.429   4.247  12.732 -0.2977  0.1186 -0.1276
  147MPD2    C2 2287   1.334   4.343  12.724 -0.2161  0.7206 -0.6018
  147MPD2    C3 2288   1.273   4.383  12.604 -0.1355  0.1400  0.3426
  147MPD2    C4 2289   1.316   4.325  12.491 -0.1135  0.2613  0.4591
  147MPD2    C5 2290   1.410   4.228  12.500 -0.5231 -0.1198 -0.2932
  147MPD2     H 2291   1.318   4.403  12.812 -0.7148  0.6927 -0.6684
  147MPD2    H1 2292   1.288   4.337  12.387 -0.0833  0.4563  0.4740
  147MPD2    H2 2293   1.547   4.117  12.624 -0.0663 -1.7013 -0.7742
  147MPD2    H3 2294   1.458   4.197  12.408 -0.6496 -0.1828 -0.3371
  147MPD2     N 2295   1.171   4.476  12.605  0.8640  0.4061  0.6775
  147MPD2    H5 2296   1.134   4.508  12.694 -0.5225  1.1258 -0.1499
  147MPD2    N1 2297   1.500   4.200  12.845 -0.5131  0.4630 -0.0610
  147MPD2    H7 2298   1.569   4.125  12.841  0.1598  1.1362 -1.0407
  148TMC2    C1 2299   1.636   3.790  10.099  0.6035 -0.0806 -0.0122
  148TMC2    C2 2300   1.758   3.844  10.121 -0.6442  0.1508  0.0644
  148TMC2    C3 2301   1.868   3.760  10.094 -0.0532 -0.3471 -0.3968
  148TMC2    C4 2302   1.628   3.659  10.064 -0.1435  0.4300 -1.3493
  148TMC2    C5 2303   1.735   3.582  10.028  0.5470 -0.0134 -0.0342
  148TMC2    C6 2304   1.857   3.636  10.045 -0.0696 -0.0022  0.4821
  148TMC2     C 2305   1.516   3.870  10.118  0.3019  0.2802  0.8978
  148TMC2     O 2306   1.526   3.991  10.134  0.0358 -0.2100 -0.1734
  148TMC2     H 2307   1.778   3.949  10.139 -3.4710  0.7333 -0.2013
  148TMC2    H1 2308   1.530   3.616  10.047 -0.6048  0.5560  1.0283
  148TMC2    H2 2309   1.945   3.574  10.052  1.1673  1.6145 -0.5443
  148TMC2    C7 2310   1.715   3.441  10.049  0.1087  0.3733 -0.3244
  148TMC2    C8 2311   2.001   3.820  10.097 -0.4477 -0.5178 -0.3670
  148TMC2    O1 2312   1.615   3.413  10.111  0.1372 -0.4591  0.5946
  148TMC2    O2 2313   2.083   3.770  10.024 -0.7378  0.4020 -0.0484
  148TMC2    O5 2314   2.010   3.834  10.237  0.0074 -0.1387  0.4370
  148TMC2    H5 2315   1.930   3.861  10.287 -1.1143 -1.2476 -0.7825
  149MPD2     C 2316   1.241   3.952  10.165  0.6248  0.2073 -0.0702
  149MPD2    C1 2317   1.282   3.822  10.150 -0.0304 -0.0424 -0.3298
  149MPD2    C2 2318   1.191   3.718  10.153  0.2479 -0.0458 -0.2544
  149MPD2    C3 2319   1.057   3.738  10.181 -0.8641  0.6329  0.0070
  149MPD2    C4 2320   1.022   3.867  10.212  0.2397  0.5694  0.2137
  149MPD2    C5 2321   1.107   3.976  10.195 -0.8142 -0.2185 -1.0668
  149MPD2     H 2322   1.242   3.623  10.145  2.6891  1.0348  2.7516
  149MPD2    H1 2323   0.920   3.891  10.239  0.1322 -0.4402  0.7229
  149MPD2    H2 2324   1.305   4.040  10.163 -0.1406  0.7246 -2.1001
  149MPD2    H3 2325   1.069   4.074  10.219  1.6793  0.6044 -0.4332
  149MPD2     N 2326   0.953   3.647  10.190 -0.2431 -0.7141  0.4987
  149MPD2    H5 2327   0.864   3.675  10.231 -0.6772  0.8889 -1.5423
  149MPD2    N1 2328   1.412   3.782  10.125  0.2240 -0.0662 -0.1630
  149MPD2    H7 2329   1.436   3.683  10.118  1.3289  0.1256  0.9269
  150TMC2    C1 2330   3.279   2.674  12.363 -0.0220 -0.2341 -0.6015
  150TMC2    C2 2331   3.270   2.793  12.290 -0.9270 -0.0564 -0.0973
  150TMC2    C3 2332   3.364   2.893  12.320  0.4883 -0.6463  0.1291
  150TMC2    C4 2333   3.360   2.666  12.473 -0.0309 -0.0598  0.1166
  150TMC2    C5 2334   3.451   2.771  12.497 -0.1629  0.3020  0.2567
  150TMC2    C6 2335   3.457   2.883  12.415  0.7482 -0.6675 -0.3020
  150TMC2     C 2336   3.203   2.559  12.325 -0.6737 -0.0887 -0.5202
  150TMC2     O 2337   3.200   2.464  12.398 -0.0927 -0.8417  0.3955
  150TMC2     H 2338   3.218   2.797  12.194  1.5294  3.7121 -1.2493
  150TMC2    H1 2339   3.378   2.570  12.518  3.1311  1.0018  1.1418
  150TMC2    H2 2340   3.540   2.951  12.430 -1.3732  1.7139  0.6619
  150TMC2    C7 2341   3.549   2.765  12.605 -0.2577 -0.9730 -0.0882
  150TMC2    C8 2342   3.369   3.006  12.221  0.1884 -0.2932 -0.0651
  150TMC2    O1 2343   3.597   2.870  12.637  0.1334  0.3346 -0.3146
  150TMC2    O2 2344   3.475   3.052  12.168 -0.2818 -0.1781 -0.2657
  150TMC2    O5 2345   3.242   3.037  12.191 -0.0886  1.0885  0.4193
  150TMC2    H5 2346   3.182   3.001  12.260 -0.7705  0.5053 -0.4637
  151MPD2     C 2347   2.917   2.289  11.981 -0.2570  0.0545  0.4182
  151MPD2    C1 2348   2.960   2.408  11.917 -0.0706 -1.2407  0.0046
  151MPD2    C2 2349   3.025   2.506  11.986 -0.8734 -1.0076  0.6751
  151MPD2    C3 2350   3.061   2.487  12.127  0.2727 -0.2776 -0.6020
  151MPD2    C4 2351   3.009   2.372  12.185  0.8482 -0.2917  0.3485
  151MPD2    C5 2352   2.945   2.277  12.113 -0.2498  0.4168  0.9913
  151MPD2     H 2353   3.066   2.595  11.941 -0.3689 -1.4297  0.3057
  151MPD2    H1 2354   3.022   2.348  12.290 -1.0391 -3.6772 -0.2091
  151MPD2    H2 2355   2.861   2.209  11.933 -1.4052 -0.0515  1.9393
  151MPD2    H3 2356   2.905   2.191  12.167 -0.4958 -0.4641 -0.5879
  151MPD2     N 2357   3.143   2.577  12.205  0.3526  0.5850  0.7014
  151MPD2    H5 2358   3.167   2.663  12.157  1.1047  0.5647  1.0504
  151MPD2    N1 2359   2.931   2.419  11.778  0.7966  0.5239  0.1383
  151MPD2    H7 2360   2.906   2.330  11.736  1.8371 -0.5168  1.7197
  152TMC2    C1 2361   3.306   2.419  12.936  0.0451  0.0517 -0.2402
  152TMC2    C2 2362   3.395   2.371  13.028 -0.9664 -0.1226  0.0422
  152TMC2    C3 2363   3.452   2.466  13.107 -0.0091  0.9081  0.1731
  152TMC2    C4 2364   3.284   2.555  12.922  0.3174 -0.3087 -0.7130
  152TMC2    C5 2365   3.332   2.646  13.007  0.7191  0.3149  0.2301
  152TMC2    C6 2366   3.424   2.602  13.101 -0.1742  0.0047  0.2728
  152TMC2     C 2367   3.213   2.332  12.866  0.0341 -0.2001  0.4055
  152TMC2     O 2368   3.093   2.362  12.852 -0.0888 -0.3400  0.4032
  152TMC2     H 2369   3.424   2.268  13.043  3.5976  1.3215  1.1495
  152TMC2    H1 2370   3.207   2.589  12.854 -0.9380 -0.4796  0.6284
  152TMC2    H2 2371   3.453   2.662  13.186  0.6728  0.2862 -0.2224
  152TMC2    C7 2372   3.344   2.776  12.949  0.4967 -0.2555 -0.8854
  152TMC2    C8 2373   3.536   2.427  13.224  0.5721  0.2124  1.0958
  152TMC2    O1 2374   3.257   2.825  12.878  0.1463 -0.0138 -0.0742
  152TMC2    O2 2375   3.594   2.510  13.289 -0.0112 -0.1395 -0.4614
  152TMC2    O5 2376   3.529   2.296  13.260  0.3288 -0.4114 -0.1029
  152TMC2    H5 2377   3.476   2.236  13.202  0.2271  1.2736 -1.7743
  153MPD2     C 2378   3.272   1.980  12.858 -0.8023  0.2742  0.0532
  153MPD2    C1 2379   3.209   2.094  12.820  0.3539  0.4483  0.0983
  153MPD2    C2 2380   3.093   2.084  12.741  0.0001  0.1019 -0.3830
  153MPD2    C3 2381   3.030   1.958  12.735 -0.0564  1.4257  0.2092
  153MPD2    C4 2382   3.094   1.841  12.780 -0.5413 -0.0076  0.0118
  153MPD2    C5 2383   3.214   1.857  12.839  0.2514 -0.2654  0.1114
  153MPD2     H 2384   3.050   2.174  12.699  0.5294  0.8219  0.6129
  153MPD2    H1 2385   3.046   1.744  12.780 -3.0299  1.2521 -0.0168
  153MPD2    H2 2386   3.367   1.972  12.909 -1.4173 -2.3447  0.8025
  153MPD2    H3 2387   3.281   1.776  12.867 -0.8857 -1.0077  0.6993
  153MPD2     N 2388   2.911   1.945  12.668  0.0520  0.3625 -0.8261
  153MPD2    H5 2389   2.878   2.033  12.629  0.5011  1.1328  0.5582
  153MPD2    N1 2390   3.272   2.211  12.863  0.3191 -0.6476 -0.8297
  153MPD2    H7 2391   3.368   2.208  12.897 -0.1682 -1.4649  0.4548
  154TMC2    C1 2392   4.411   2.029   0.451  0.4467 -0.0018  0.3371
  154TMC2    C2 2393   4.491   2.104   0.541  0.4343 -0.1431 -0.6274
  154TMC2    C3 2394   4.622   2.067   0.553  0.2480 -0.6141 -0.3062
  154TMC2    C4 2395   4.473   1.953   0.359 -0.0825  0.0819 -0.6738
  154TMC2    C5 2396   4.609   1.923   0.377  0.3896  0.1127  0.7938
  154TMC2    C6 2397   4.683   1.980   0.479  0.1632  0.0508  0.1838
  154TMC2     C 2398   4.285   2.087   0.430 -0.1754  0.0903 -1.1904
  154TMC2     O 2399   4.250   2.164   0.520 -0.1627 -0.1908 -1.0915
  154TMC2     H 2400   4.448   2.146   0.632  0.7770  0.5712 -0.7948
  154TMC2    H1 2401   4.420   1.910   0.276  0.7309 -0.7581 -0.7561
  154TMC2    H2 2402   0.041   1.937   0.507 -0.4444 -0.7305  1.0496
  154TMC2    C7 2403   4.685   1.849   0.278  0.4155  0.5442  0.0877
  154TMC2    C8 2404   4.693   2.138   0.657 -0.2281 -0.1672  0.0950
  154TMC2    O1 2405   0.065   1.874   0.281  0.5691  0.7672  0.4218
  154TMC2    O2 2406   4.641   2.186   0.754  0.5091  0.2213  0.7895
  154TMC2    O5 2407   0.075   2.176   0.609 -0.1012  0.3485  0.5678
  154TMC2    H5 2408   0.104   2.140   0.522  0.4712  2.5109 -0.1445
  155MPD2     C 2409   4.031   2.088   0.150  0.4817  0.2688 -0.6348
  155MPD2    C1 2410   4.094   2.113   0.272 -0.0562  0.6331 -0.2268
  155MPD2    C2 2411   4.022   2.198   0.353 -0.3984  0.7295  0.9783
  155MPD2    C3 2412   3.905   2.263   0.317 -0.0057 -0.1062 -0.2710
  155MPD2    C4 2413   3.854   2.244   0.189  0.2122 -0.4864 -0.1173
  155MPD2    C5 2414   3.914   2.156   0.104  0.1945 -0.0496 -0.1269
  155MPD2     H 2415   4.054   2.228   0.452  1.5247  1.8800 -0.0093
  155MPD2    H1 2416   3.772   2.304   0.151 -0.3565 -0.5616  0.9869
  155MPD2    H2 2417   4.064   2.013   0.079  1.5984  0.9501 -0.8179
  155MPD2    H3 2418   3.879   2.144   0.002 -0.5727  1.3711 -0.0260
  155MPD2     N 2419   3.841   2.330   0.427 -0.6091 -0.2090 -0.2958
  155MPD2    H5 2420   3.886   2.325   0.518  0.2662  2.2017 -0.5858
  155MPD2    N1 2421   4.213   2.053   0.308  0.2017  0.5524 -0.1431
  155MPD2    H7 2422   4.242   1.990   0.233  0.6367  1.0173 -0.3610
  156TMC2    C1 2423   3.839   0.156  11.492 -0.1678  0.1208 -0.4816
  156TMC2    C2 2424   3.970   0.193  11.483  0.6975  0.1401 -0.7829
  156TMC2    C3 2425   4.005   0.286  11.388 -0.3782 -0.2422 -0.7292
  156TMC2    C4 2426   3.751   0.193  11.398  0.4086  0.7212  0.2856
  156TMC2    C5 2427   3.793   0.284  11.298 -0.2185 -0.6448  0.0548
  156TMC2    C6 2428   3.919   0.328  11.286 -0.1353 -0.4591  0.1177
  156TMC2     C 2429   3.790   0.151  11.619 -0.2041 -0.7765 -0.5453
  156TMC2     O 2430   3.692   0.224  11.647 -0.0241  0.3867  0.1571
  156TMC2     H 2431   4.038   0.166  11.563 -0.1589 -1.0997 -0.4792
  156TMC2    H1 2432   3.646   0.174  11.417  0.0426  1.4907 -1.0069
  156TMC2    H2 2433   3.951   0.395  11.208  0.8668  0.2672  1.1594
  156TMC2    C7 2434   3.688   0.356  11.230  0.0911  0.0901  0.2870
  156TMC2    C8 2435   4.143   0.320  11.384 -0.1304  0.6137  0.6279
  156TMC2    O1 2436   3.704   0.471  11.199  0.1376  0.3290  0.4441
  156TMC2    O2 2437   4.216   0.258  11.459  0.3386  0.2596  0.8485
  156TMC2    O5 2438   4.156   0.450  11.360 -0.2358 -0.0692  0.4403
  156TMC2    H5 2439   4.076   0.503  11.342  0.5923  0.7159 -1.0338
  157MPD2     C 2440   3.920   4.684  11.901  0.2871  0.2312  0.1975
  157MPD2    C1 2441   3.832   0.027  11.826 -0.6951  0.6424 -0.8244
  157MPD2    C2 2442   3.715   0.066  11.888  0.0522 -0.7351 -0.3430
  157MPD2    C3 2443   3.692   0.037  12.020 -0.1421 -0.0136 -0.1119
  157MPD2    C4 2444   3.777   4.697  12.095 -0.4369 -0.4831  0.7292
  157MPD2    C5 2445   3.889   4.661  12.033 -0.4180  0.0325 -1.0371
  157MPD2     H 2446   3.641   0.127  11.838 -0.1484 -0.6461  0.0627
  157MPD2    H1 2447   3.757   4.678  12.200  0.5162  0.8333  1.1443
  157MPD2    H2 2448   4.011   4.639  11.865 -0.6839 -0.3842 -1.5138
  157MPD2    H3 2449   3.953   4.602  12.098 -2.4450 -0.0266  0.8837
  157MPD2     N 2450   3.569   0.085  12.070  0.2999 -0.3447  0.2210
  157MPD2    H5 2451   3.519   0.147  12.006 -1.0234  0.9252  2.4921
  157MPD2    N1 2452   3.868   0.062  11.693  0.7342 -0.3695 -0.5703
  157MPD2    H7 2453   3.952   0.016  11.658  1.0316 -0.6500  0.5042
  158TMC2    C1 2454   3.720   3.365  13.270 -0.4898 -0.1647 -0.4298
  158TMC2    C2 2455   3.780   3.441  13.177 -0.1912 -0.0630  0.5257
  158TMC2    C3 2456   3.702   3.487  13.077  0.0517 -0.7204  0.8625
  158TMC2    C4 2457   3.586   3.331  13.262 -0.7426 -0.0937 -0.2567
  158TMC2    C5 2458   3.515   3.377  13.148  0.0434  0.1999 -0.0057
  158TMC2    C6 2459   3.567   3.468  13.061 -0.0919 -0.3189  0.3164
  158TMC2     C 2460   3.805   3.315  13.380  0.1023  0.8411 -0.2348
  158TMC2     O 2461   3.922   3.344  13.368  0.1406 -0.2682 -0.4424
  158TMC2     H 2462   3.887   3.460  13.176 -0.3961  1.0371 -0.0971
  158TMC2    H1 2463   3.547   3.249  13.320  0.0432 -1.2545 -1.3779
  158TMC2    H2 2464   3.504   3.516  12.987 -1.0205  0.2366  1.4606
  158TMC2    C7 2465   3.368   3.356  13.153 -0.1027  0.0693  0.2183
  158TMC2    C8 2466   3.750   3.593  12.986 -0.2703 -0.1455 -0.4956
  158TMC2    O1 2467   3.305   3.409  13.064 -0.2428 -0.2241 -0.5810
  158TMC2    O2 2468   3.694   3.626  12.881  0.0401  0.1723 -0.1521
  158TMC2    O5 2469   3.779   3.687  13.081  0.1711  0.1172 -0.1611
  158TMC2    H5 2470   3.820   3.668  13.168  1.4167 -0.9795 -0.9933
  159MPD2     C 2471   3.865   3.103  13.836  0.0708  0.2583 -0.5364
  159MPD2    C1 2472   3.735   3.118  13.814  0.1070  0.1663 -0.3901
  159MPD2    C2 2473   3.691   3.172  13.698  0.3327  0.5243 -0.4610
  159MPD2    C3 2474   3.782   3.210  13.600  0.8784 -0.1678  0.5189
  159MPD2    C4 2475   3.914   3.198  13.625 -0.5317  0.0149 -0.3730
  159MPD2    C5 2476   3.955   3.152  13.744 -0.3025 -0.7672  0.0977
  159MPD2     H 2477   3.592   3.186  13.654  0.1985 -2.6448 -1.1365
  159MPD2    H1 2478   3.989   3.235  13.556  0.3009 -1.3210 -0.1810
  159MPD2    H2 2479   3.909   3.058  13.924  0.9625  0.0317 -1.0976
  159MPD2    H3 2480   4.063   3.147  13.754 -0.2277  1.0612  0.0944
  159MPD2     N 2481   3.736   3.274  13.488  0.0700 -0.5761 -0.3831
  159MPD2    H5 2482   3.637   3.296  13.486 -0.1079 -1.1857  1.8204
  159MPD2    N1 2483   3.645   3.070  13.916  0.2375  0.1638  0.1004
  159MPD2    H7 2484   3.686   3.010  13.988 -1.6594 -2.1566 -0.7353
  160TMC2    C1 2485   2.670   1.482   1.285  0.6741  0.0675 -0.2155
  160TMC2    C2 2486   2.748   1.499   1.391 -0.3773 -0.7655  0.3899
  160TMC2    C3 2487   2.878   1.485   1.373 -0.2737  0.1216  0.2838
  160TMC2    C4 2488   2.723   1.441   1.166  0.4933  0.0054 -0.0201
  160TMC2    C5 2489   2.858   1.420   1.151  0.6568 -0.0329 -0.9145
  160TMC2    C6 2490   2.942   1.452   1.257  0.4023  0.9371 -0.4969
  160TMC2     C 2491   2.530   1.507   1.291 -0.3301 -0.2281  0.4119
  160TMC2     O 2492   2.474   1.502   1.401  0.9467 -0.4763 -0.1608
  160TMC2     H 2493   2.701   1.524   1.485 -2.4650  2.5962 -1.5347
  160TMC2    H1 2494   2.657   1.411   1.086 -1.3228 -0.3245  1.5972
  160TMC2    H2 2495   3.049   1.431   1.257  0.2514  0.1762  0.7293
  160TMC2    C7 2496   2.912   1.400   1.019 -0.9505  0.3665  0.5065
  160TMC2    C8 2497   2.959   1.497   1.489 -0.4164 -0.5374  0.3536
  160TMC2    O1 2498   2.840   1.381   0.922  0.0237 -0.7005 -0.1321
  160TMC2    O2 2499   3.074   1.531   1.478  0.2784  0.3038 -0.2134
  160TMC2    O5 2500   2.900   1.398   1.565 -1.1946  0.6990  0.4974
  160TMC2    H5 2501   2.814   1.362   1.536 -0.9572  0.6664 -0.1439
  161MPD2     C 2502   2.245   1.524   1.211 -0.2805 -0.2007 -0.3505
  161MPD2    C1 2503   2.350   1.575   1.133 -0.2308 -0.1298 -0.1313
  161MPD2    C2 2504   2.325   1.650   1.018  0.6026 -0.7053 -0.2490
  161MPD2    C3 2505   2.191   1.674   0.981  0.6120  0.5828  0.8183
  161MPD2    C4 2506   2.093   1.621   1.064  0.4026  0.2410 -0.4532
  161MPD2    C5 2507   2.117   1.554   1.177 -0.3122  0.2058  0.4267
  161MPD2     H 2508   2.400   1.688   0.950  0.3752  0.0417 -0.0833
  161MPD2    H1 2509   1.989   1.642   1.044  0.0473  1.3785  2.6578
  161MPD2    H2 2510   2.267   1.466   1.300 -1.9304 -2.1949 -1.2320
  161MPD2    H3 2511   2.029   1.506   1.218 -0.7869  0.4687 -0.2831
  161MPD2     N 2512   2.144   1.753   0.868  0.3198 -1.3102 -0.4815
  161MPD2    H5 2513   2.044   1.761   0.850  0.1398 -0.4183  0.9246
  161MPD2    N1 2514   2.483   1.548   1.165  0.1788 -0.1764 -0.3348
  161MPD2    H7 2515   2.559   1.581   1.106  1.0623 -1.7037 -0.0376
  162TMC2    C1 2516   1.432   3.592   1.270  0.2329  0.1836 -0.3551
  162TMC2    C2 2517   1.545   3.665   1.288  0.0697  0.4580  0.3442
  162TMC2    C3 2518   1.637   3.611   1.371 -0.1007 -0.2108 -0.6916
  162TMC2    C4 2519   1.413   3.466   1.320  0.8905 -0.0067 -0.2662
  162TMC2    C5 2520   1.523   3.411   1.381  0.6313  0.0450  0.6533
  162TMC2    C6 2521   1.628   3.489   1.421  0.1484 -0.7539 -0.6584
  162TMC2     C 2522   1.334   3.640   1.171  0.6525 -0.1393  0.4828
  162TMC2     O 2523   1.377   3.689   1.068  0.1855  0.1747 -0.3357
  162TMC2     H 2524   1.561   3.759   1.236 -0.8448  0.2400 -0.3359
  162TMC2    H1 2525   1.341   3.403   1.268  2.2754 -2.1875  0.4566
  162TMC2    H2 2526   1.704   3.438   1.481  0.4620 -0.3990 -0.7567
  162TMC2    C7 2527   1.526   3.270   1.397  0.0673  0.5239 -0.4553
  162TMC2    C8 2528   1.769   3.646   1.341 -0.5267 -1.0056  0.1628
  162TMC2    O1 2529   1.631   3.218   1.360 -0.1549 -0.2184 -0.3199
  162TMC2    O2 2530   1.857   3.609   1.420 -0.1908 -0.0509  0.3129
  162TMC2    O5 2531   1.785   3.650   1.206  0.1943 -0.0942  0.4435
  162TMC2    H5 2532   1.706   3.676   1.155  1.0790  0.9857 -0.3841
  163MPD2     C 2533   0.869   3.654   0.948 -0.4701  0.2246  0.0180
  163MPD2    C1 2534   0.997   3.661   0.892  0.3975  0.6524  0.1113
  163MPD2    C2 2535   1.110   3.633   0.969 -0.8614  0.4562 -0.3779
  163MPD2    C3 2536   1.100   3.622   1.111 -0.0888  0.3847 -0.6112
  163MPD2    C4 2537   0.975   3.619   1.163 -0.1401  0.5506  0.4467
  163MPD2    C5 2538   0.864   3.631   1.083 -0.3010 -0.4566 -0.2418
  163MPD2     H 2539   1.200   3.608   0.914  0.2004 -0.1148  1.6115
  163MPD2    H1 2540   0.951   3.615   1.269 -1.8881  0.9854  0.0777
  163MPD2    H2 2541   0.776   3.673   0.897  0.3426 -2.1268 -2.3315
  163MPD2    H3 2542   0.768   3.629   1.132  0.1569 -0.1625  0.6789
  163MPD2     N 2543   1.207   3.598   1.199  0.3390  0.0746 -0.3179
  163MPD2    H5 2544   1.187   3.575   1.296  1.5855  1.6931  0.3067
  163MPD2    N1 2545   1.009   3.663   0.743  0.4882  0.2987 -0.1929
  163MPD2    H7 2546   0.929   3.638   0.685  0.1249  0.3697  0.2877
  164TMC2    C1 2547   1.963   3.346  11.218  0.8950  0.1571 -0.0136
  164TMC2    C2 2548   2.003   3.439  11.128  0.1120  0.1028 -0.0415
  164TMC2    C3 2549   1.953   3.560  11.136  0.0581  0.3448 -1.0222
  164TMC2    C4 2550   1.875   3.378  11.321 -0.8610 -0.2337 -0.4543
  164TMC2    C5 2551   1.826   3.504  11.326 -0.0032  0.0937 -0.5611
  164TMC2    C6 2552   1.860   3.598  11.231 -0.1917 -0.9637 -0.4100
  164TMC2     C 2553   2.009   3.211  11.209 -0.1642  0.7462 -0.4744
  164TMC2     O 2554   1.997   3.154  11.316  0.3047  0.1355  0.1342
  164TMC2     H 2555   2.086   3.425  11.060 -0.6086 -2.1819 -0.4533
  164TMC2    H1 2556   1.840   3.303  11.391  3.5310 -0.2554  1.7891
  164TMC2    H2 2557   1.844   3.704  11.245  0.3289 -0.8889 -0.3809
  164TMC2    C7 2558   1.699   3.525  11.380 -0.7432  0.3491  0.1144
  164TMC2    C8 2559   2.012   3.664  11.060  0.4601 -0.4179  0.2370
  164TMC2    O1 2560   1.638   3.610  11.318  0.2037 -0.1906  0.2847
  164TMC2    O2 2561   1.946   3.746  10.996 -0.4089  0.1106  0.3752
  164TMC2    O5 2562   2.130   3.688  11.116  0.0309  0.0453 -0.5066
  164TMC2    H5 2563   2.163   3.616  11.175 -0.6783  0.2567  0.1466
  165TMC2    C1 2564   2.525   0.869   0.846  0.8969 -1.1488  0.6770
  165TMC2    C2 2565   2.542   0.805   0.726 -0.5726 -0.3396  0.7421
  165TMC2    C3 2566   2.669   0.785   0.676 -0.3064 -0.7947  0.3258
  165TMC2    C4 2567   2.633   0.925   0.904 -0.2469 -0.4407  0.4128
  165TMC2    C5 2568   2.758   0.914   0.850 -0.1039 -0.1056  0.1676
  165TMC2    C6 2569   2.777   0.845   0.731  0.1271 -0.2764 -0.3115
  165TMC2     C 2570   2.390   0.876   0.909 -0.2736  0.2145 -0.3666
  165TMC2     O 2571   2.303   0.796   0.868 -0.4671  0.9823  0.5024
  165TMC2     H 2572   2.459   0.789   0.658 -0.2311  0.5990  0.1089
  165TMC2    H1 2573   2.629   0.952   1.009  1.2524  1.4636 -0.0127
  165TMC2    H2 2574   2.875   0.819   0.693  1.3866  2.3344  1.1582
  165TMC2    C7 2575   2.876   0.956   0.923  0.1481  0.0739  0.7087
  165TMC2    C8 2576   2.675   0.759   0.531  0.5473  0.3314 -0.6365
  165TMC2    O1 2577   2.979   0.952   0.860  0.5671  0.4306 -0.1322
  165TMC2    O2 2578   2.604   0.673   0.474  0.5133  0.2432 -0.7236
  165TMC2    O5 2579   2.679   0.882   0.485 -0.8057  0.1130 -0.9158
  165TMC2    H5 2580   2.715   0.949   0.547  1.0992 -1.4876 -0.2846
  166MPD2     C 2581   2.052   1.091   1.240  0.2539 -0.8019  0.1309
  166MPD2    C1 2582   2.056   0.965   1.192 -0.0606  0.3691  0.0398
  166MPD2    C2 2583   2.161   0.927   1.103 -0.2218  0.3010 -0.2245
  166MPD2    C3 2584   2.266   1.018   1.075  0.8725 -0.1415  0.4927
  166MPD2    C4 2585   2.262   1.151   1.128 -0.0790 -0.6274  0.5127
  166MPD2    C5 2586   2.155   1.176   1.210  0.0422  0.2681  0.1755
  166MPD2     H 2587   2.165   0.832   1.052  1.5534 -0.5526  1.5071
  166MPD2    H1 2588   2.343   1.221   1.114 -1.5225  0.6447 -1.3491
  166MPD2    H2 2589   1.973   1.124   1.306 -0.1973 -0.3464 -0.6392
  166MPD2    H3 2590   2.145   1.277   1.249 -2.0536  0.0188  0.2687
  166MPD2     N 2591   2.376   0.984   0.994 -0.5551 -0.5278  0.0012
  166MPD2    H5 2592   2.443   1.059   0.982 -1.7030  0.3530 -0.8496
  166MPD2    N1 2593   1.943   0.885   1.225 -0.2079  0.0662  0.2133
  166MPD2    H7 2594   1.882   0.915   1.301  2.1487  1.8199  1.4263
  167TMC2    C1 2595   0.757   3.067  12.868 -0.3994  0.3820 -0.6332
  167TMC2    C2 2596   0.627   3.045  12.900  1.0121 -0.0480 -0.0682
  167TMC2    C3 2597   0.588   2.924  12.952 -0.1561 -0.3992  0.2156
  167TMC2    C4 2598   0.851   2.965  12.862  0.1739  0.6334 -0.7289
  167TMC2    C5 2599   0.800   2.847  12.915  0.5444 -0.3572  0.0455
  167TMC2    C6 2600   0.676   2.821  12.957 -0.4474 -0.0437  0.7637
  167TMC2     C 2601   0.774   3.178  12.770 -0.0494 -0.6731  0.1759
  167TMC2     O 2602   0.681   3.260  12.776  0.4714  0.0410  0.7012
  167TMC2     H 2603   0.557   3.127  12.895  2.3192  0.9317 -2.0523
  167TMC2    H1 2604   0.956   2.979  12.842  0.5557 -1.7215 -0.4080
  167TMC2    H2 2605   0.651   2.730  13.010  0.8136 -0.5088  0.5608
  167TMC2    C7 2606   0.897   2.755  12.957 -1.1445  1.1237  0.1180
  167TMC2    C8 2607   0.452   2.902  12.994 -0.0496  0.2377  0.1190
  167TMC2    O1 2608   0.870   2.695  13.063 -0.3856  0.6311 -0.1056
  167TMC2    O2 2609   0.397   2.801  12.955  0.2671  0.3393  0.3763
  167TMC2    O5 2610   0.389   3.012  13.040  0.0073 -0.1778 -0.8324
  167TMC2    H5 2611   0.449   3.074  13.087 -1.3072  0.0621  0.5552
  168MPD2     C 2612   0.850   3.366  12.547  0.3162  0.3434 -0.5993
  168MPD2    C1 2613   0.904   3.237  12.561  0.6986  0.3060 -0.0486
  168MPD2    C2 2614   0.979   3.176  12.460 -0.6701  0.4807  0.0558
  168MPD2    C3 2615   1.001   3.242  12.336  0.2581  0.4563 -0.0068
  168MPD2    C4 2616   0.948   3.373  12.322  0.4972  0.0552  0.1529
  168MPD2    C5 2617   0.879   3.425  12.429  0.0912  0.2968  0.2036
  168MPD2     H 2618   1.002   3.069  12.464 -0.8448  0.5023  1.8108
  168MPD2    H1 2619   0.965   3.427  12.230 -1.4889  0.8932  0.2745
  168MPD2    H2 2620   0.790   3.420  12.619 -1.7773 -3.0383  0.1528
  168MPD2    H3 2621   0.832   3.519  12.402 -0.9879 -0.3241 -0.0954
  168MPD2     N 2622   1.061   3.185  12.219  0.5885  0.2587  0.1226
  168MPD2    H5 2623   1.078   3.248  12.141 -2.2597  1.9481  0.8647
  168MPD2    N1 2624   0.867   3.155  12.674 -0.4084 -0.1301  0.1460
  168MPD2    H7 2625   0.905   3.061  12.673  1.3619  0.5779  0.4974
  169MPD1     C 2626   3.137   2.948   8.726 -0.2060  0.2034 -0.7391
  169MPD1    C1 2627   3.046   2.937   8.829 -0.2953  0.9291  0.4168
  169MPD1    C2 2628   3.097   2.967   8.953  0.1862  0.1691 -0.1589
  169MPD1    C3 2629   3.225   3.002   8.975  0.0122  0.2715 -0.7995
  169MPD1    C4 2630   3.305   3.022   8.867  0.1552  0.2992  0.3044
  169MPD1    C5 2631   3.268   2.981   8.744 -0.2752 -0.3853  0.8923
  169MPD1     H 2632   3.028   2.970   9.037 -0.8619  1.5742 -1.0716
  169MPD1    H1 2633   3.402   3.069   8.880 -1.4567  3.9958 -1.3023
  169MPD1    H2 2634   3.109   2.934   8.622 -2.1208  2.8577 -0.5774
  169MPD1    H3 2635   3.332   2.974   8.657  2.4585  1.2118  2.7761
  169MPD1     N 2636   3.261   3.040   9.110  0.3450  0.1579 -0.0650
  169MPD1    H5 2637   3.191   3.039   9.184 -0.2086 -0.1584 -0.5869
  169MPD1    N1 2638   2.914   2.924   8.788  0.5750 -0.5277 -0.1880
  169MPD1    H6 2639   2.906   2.871   8.702  1.1037 -0.6529 -0.1579
  169MPD1    H7 2640   2.844   2.891   8.855 -1.0031  1.1697 -0.9950
  170MPD1     C 2641   1.505   0.464  12.722  0.4725  0.4427 -0.6693
  170MPD1    C1 2642   1.578   0.403  12.819 -0.2816  0.2950 -0.5611
  170MPD1    C2 2643   1.642   0.493  12.904  0.0536  0.0356  0.5661
  170MPD1    C3 2644   1.648   0.631  12.881  0.2889 -0.0924 -0.2419
  170MPD1    C4 2645   1.592   0.681  12.765  0.3963  0.4731 -0.1349
  170MPD1    C5 2646   1.507   0.597  12.692 -0.3796  0.1956  0.7897
  170MPD1     H 2647   1.693   0.459  12.993 -0.7156  0.0185  1.0055
  170MPD1    H1 2648   1.593   0.788  12.750 -0.2235  0.3113 -1.3509
  170MPD1    H2 2649   1.438   0.408  12.657 -0.9664 -0.2554  1.4285
  170MPD1    H3 2650   1.445   0.621  12.606  0.2582 -0.2841  0.1957
  170MPD1     N 2651   1.727   0.707  12.976 -0.0427 -0.2585 -0.3755
  170MPD1    H5 2652   1.761   0.671  13.065 -1.0159 -0.4481 -0.0819
  170MPD1    N1 2653   1.551   0.268  12.846 -0.1291  0.1352  0.5558
  170MPD1    H6 2654   1.637   0.231  12.885 -0.7922 -2.3932 -0.4131
  170MPD1    H7 2655   1.535   0.225  12.755  4.0519  2.2767 -1.1817
  171MPD1     C 2656   0.726   1.837  15.077 -0.1499  0.4396  0.3500
  171MPD1    C1 2657   0.628   1.743  15.095 -0.1726  0.0711  0.7798
  171MPD1    C2 2658   0.654   1.650  15.187  0.1959  0.2464 -1.3822
  171MPD1    C3 2659   0.762   1.663  15.273  0.5974 -0.4473  0.0048
  171MPD1    C4 2660   0.855   1.763  15.255  0.3544  0.1263  0.2059
  171MPD1    C5 2661   0.834   1.855  15.159 -0.1791  0.3389 -0.0039
  171MPD1     H 2662   0.581   1.572  15.208  1.4821 -0.5269  0.2248
  171MPD1    H1 2663   0.927   1.776  15.335  0.0691  0.5338  0.3936
  171MPD1    H2 2664   0.713   1.914  15.002  0.4825 -1.9244 -2.1921
  171MPD1    H3 2665   0.910   1.928  15.135 -0.4008  0.3800 -0.5805
  171MPD1     N 2666   0.789   1.576  15.381 -0.1823  0.6675 -1.0881
  171MPD1    H5 2667   0.876   1.598  15.429 -0.5012 -0.6892  0.1023
  171MPD1    N1 2668   0.523   1.740  15.004  0.2370  0.0396 -0.1706
  171MPD1    H6 2669   0.435   1.711  15.046 -1.3724  0.3275 -3.3146
  171MPD1    H7 2670   0.503   1.837  14.981 -0.1938  0.4394  1.9718
  172MPD1     C 2671   0.040   0.103  17.622 -0.4378 -0.1261 -0.2689
  172MPD1    C1 2672   4.667   0.150  17.685 -0.2231  0.0840 -0.4347
  172MPD1    C2 2673   4.650   0.285  17.694  0.3777 -0.5123  0.1248
  172MPD1    C3 2674   0.000   0.373  17.633  0.3535  0.2164 -0.9480
  172MPD1    C4 2675   0.105   0.323  17.564 -0.0981 -0.5551 -0.1524
  172MPD1    C5 2676   0.122   0.191  17.560 -0.2491 -0.1032 -0.8965
  172MPD1     H 2677   4.569   0.313   0.013  2.1341  0.7261  1.7636
  172MPD1    H1 2678   0.176   0.395  17.525 -1.9224  1.1357 -0.3605
  172MPD1    H2 2679   0.069   4.735  17.624  0.3188  0.0989  0.7086
  172MPD1    H3 2680   0.208   0.150  17.508 -0.5042 -0.1139 -1.3102
  172MPD1     N 2681   4.737   0.517  17.646  0.7916  0.4113  0.2392
  172MPD1    H5 2682   0.074   0.569  17.599 -0.0064 -0.1297 -1.6033
  172MPD1    N1 2683   4.587   0.069   0.022  0.1922 -0.3191  0.3539
  172MPD1    H6 2684   4.493   0.110   0.022  0.4737  0.3666 -4.5580
  172MPD1    H7 2685   4.578   4.713  17.730 -0.0856 -0.4017  0.6123
  173MPD1     C 2686   1.444   1.699  14.205  0.7220 -0.8422  0.3057
  173MPD1    C1 2687   1.327   1.634  14.160  0.8068  0.3165 -0.3114
  173MPD1    C2 2688   1.325   1.492  14.161 -0.1655 -0.6069  0.5979
  173MPD1    C3 2689   1.443   1.415  14.187  0.0445  0.2103 -0.4019
  173MPD1    C4 2690   1.561   1.487  14.206  0.2040 -0.1376  0.5696
  173MPD1    C5 2691   1.554   1.626  14.228 -0.2454  0.8308 -0.4815
  173MPD1     H 2692   1.234   1.437  14.143 -1.9490  1.5917  2.8348
  173MPD1    H1 2693   1.651   1.437  14.237 -0.3626 -0.0941  2.2711
  173MPD1    H2 2694   1.436   1.806  14.223 -3.2428 -1.2422  0.8605
  173MPD1    H3 2695   1.650   1.672  14.250  0.4869 -0.5239 -0.8458
  173MPD1     N 2696   1.435   1.274  14.192 -0.0600  0.1396 -0.0805
  173MPD1    H5 2697   1.345   1.228  14.197  0.1658 -0.1498  1.1448
  173MPD1    N1 2698   1.210   1.716  14.151 -0.5348  0.8728 -0.9737
  173MPD1    H6 2699   1.228   1.814  14.128  0.9147  0.9908  0.6114
  173MPD1    H7 2700   1.141   1.677  14.087 -1.5067 -0.1549  0.7100
  174MPD1     C 2701   2.121   0.564  14.010 -0.3726  0.2839 -0.3960
  174MPD1    C1 2702   2.067   0.533  14.128 -0.8334 -0.1388 -0.2999
  174MPD1    C2 2703   1.941   0.590  14.161 -0.5657  0.1396  0.5812
  174MPD1    C3 2704   1.883   0.687  14.078  0.1064 -0.1469 -0.3851
  174MPD1    C4 2705   1.941   0.716  13.959 -0.4431 -0.4176 -0.0530
  174MPD1    C5 2706   2.057   0.649  13.924 -0.5626 -0.0687  0.3764
  174MPD1     H 2707   1.905   0.566  14.260 -0.1215  2.2968  1.2837
  174MPD1    H1 2708   1.884   0.787  13.900 -3.4017 -1.9878  0.9112
  174MPD1    H2 2709   2.211   0.524  13.964  0.1310  2.4699 -1.3176
  174MPD1    H3 2710   2.106   0.673  13.831  1.3678  2.2755  2.0027
  174MPD1     N 2711   1.767   0.761  14.110  0.3099  0.2481 -0.2238
  174MPD1    H5 2712   1.732   0.826  14.040  2.8307  1.8601  0.0049
  174MPD1    N1 2713   2.129   0.461  14.231  0.2689 -0.2728 -0.3145
  174MPD1    H6 2714   2.053   0.420  14.285 -1.3661  0.6689 -1.9086
  174MPD1    H7 2715   2.174   0.378  14.192  1.7110  0.5275 -0.3253
  175MPD1     C 2716   4.372   2.696  15.369  0.4285 -0.3557 -0.1720
  175MPD1    C1 2717   4.386   2.701  15.510  0.3518  0.3552  0.2950
  175MPD1    C2 2718   4.321   2.605  15.591 -0.8978 -0.4245  0.8004
  175MPD1    C3 2719   4.240   2.508  15.532  0.3796  0.3630 -0.0232
  175MPD1    C4 2720   4.241   2.495  15.389 -0.3565 -0.9310 -1.3231
  175MPD1    C5 2721   4.300   2.595  15.318  0.0012  0.2437 -0.1200
  175MPD1     H 2722   4.310   2.614  15.699 -1.3751  0.2482  0.6950
  175MPD1    H1 2723   4.180   2.421  15.339 -0.4237 -0.8706 -1.3320
  175MPD1    H2 2724   4.418   2.762  15.296 -0.6739  0.4040 -0.1920
  175MPD1    H3 2725   4.298   2.601  15.210 -0.1443  0.2654 -0.1161
  175MPD1     N 2726   4.174   2.409  15.606 -0.0002  0.3180  0.2982
  175MPD1    H5 2727   4.136   2.335  15.549 -0.6165  0.3719  0.6322
  175MPD1    N1 2728   4.459   2.804  15.569  0.9577 -0.7731 -0.2470
  175MPD1    H6 2729   4.435   2.821  15.666 -0.7875  3.3473 -1.4081
  175MPD1    H7 2730   4.461   2.885  15.508  0.9164 -0.4000  0.2541
  176MPD1     C 2731   0.369   3.588  17.529  0.4128  0.0365 -0.8462
  176MPD1    C1 2732   0.485   3.567  17.462 -0.6340  0.2462 -0.3658
  176MPD1    C2 2733   0.586   3.663  17.478 -0.5494  0.9767 -0.0148
  176MPD1    C3 2734   0.569   3.775  17.554  0.3391 -0.2230 -0.4192
  176MPD1    C4 2735   0.442   3.798  17.611  0.1962 -0.1009  0.4665
  176MPD1    C5 2736   0.348   3.704  17.597  0.0523  0.1336 -0.4648
  176MPD1     H 2737   0.685   3.641  17.439 -0.8344 -0.1777 -0.0743
  176MPD1    H1 2738   0.418   3.889  17.664 -0.4381  1.6855 -2.8990
  176MPD1    H2 2739   0.280   3.529  17.513 -0.8977  1.9265 -0.4710
  176MPD1    H3 2740   0.246   3.720  17.631 -0.1608  0.6407 -1.3362
  176MPD1     N 2741   0.675   3.863  17.579  0.0474 -0.3387 -0.6213
  176MPD1    H5 2742   0.766   3.836  17.544  0.2676  1.5490 -1.4910
  176MPD1    N1 2743   0.515   3.437  17.414  0.6533  0.2158 -0.1430
  176MPD1    H6 2744   0.433   3.380  17.392  0.7045 -0.6430  1.7997
  176MPD1    H7 2745   0.568   3.441  17.328 -0.3679  1.1623 -0.7297
  177MPD1     C 2746   4.513   3.966  10.174 -0.3453 -0.0534 -0.0842
  177MPD1    C1 2747   4.390   3.921  10.145 -0.0216  0.6197 -0.7468
  177MPD1    C2 2748   4.335   3.980  10.031 -0.2069  0.3726  0.4660
  177MPD1    C3 2749   4.389   4.083   9.954  0.4351  0.3061 -0.2417
  177MPD1    C4 2750   4.517   4.125   9.991 -0.3927 -0.3692 -0.1600
  177MPD1    C5 2751   4.572   4.057  10.097  0.2232  0.2870  0.2970
  177MPD1     H 2752   4.231   3.961  10.005 -0.5356  1.4446  0.9768
  177MPD1    H1 2753   4.579   4.191   9.931  1.0762 -1.1619  0.4988
  177MPD1    H2 2754   4.556   3.926  10.266  1.3844 -1.7447 -1.6232
  177MPD1    H3 2755   4.670   4.089  10.129  0.1241  1.7015 -0.8176
  177MPD1     N 2756   4.322   4.124   9.834  0.7380  0.2320  0.8384
  177MPD1    H5 2757   4.232   4.080   9.816  1.6554 -1.5438  0.6043
  177MPD1    N1 2758   4.324   3.836  10.234  0.1317  0.0082 -0.0812
  177MPD1    H6 2759   4.246   3.790  10.187  0.9797  0.1009 -1.5637
  177MPD1    H7 2760   4.382   3.768  10.284 -1.6017 -0.4901  1.2364
  178MPD1     C 2761   2.379   4.344   0.392  0.3064  0.0857  0.3106
  178MPD1    C1 2762   2.497   4.350   0.318  0.2691 -0.6514  0.4533
  178MPD1    C2 2763   2.484   4.387   0.189  0.6262 -0.0873  0.6047
  178MPD1    C3 2764   2.362   4.431   0.142 -0.6422  0.4106  0.0262
  178MPD1    C4 2765   2.242   4.431   0.217  0.2638  0.7197 -0.1720
  178MPD1    C5 2766   2.258   4.381   0.341  0.0913 -0.4250  0.3383
  178MPD1     H 2767   2.568   4.387   0.122  0.5302  1.8855  0.4759
  178MPD1    H1 2768   2.145   4.469   0.188  0.3948 -0.1229 -1.6907
  178MPD1    H2 2769   2.383   4.313   0.496  0.4397  0.6036  0.4580
  178MPD1    H3 2770   2.166   4.383   0.397  1.4504  2.6627  2.4551
  178MPD1     N 2771   2.356   4.464   0.003 -0.0702 -0.0561 -0.0374
  178MPD1    H5 2772   2.447   4.475  17.705 -0.5890  1.2688 -0.7503
  178MPD1    N1 2773   2.621   4.302   0.359  0.1123 -0.1054  0.4081
  178MPD1    H6 2774   2.640   4.312   0.459 -2.4606 -2.2519  1.1101
  178MPD1    H7 2775   2.690   4.356   0.308  0.4015 -2.4573 -1.7236
  179MPD1     C 2776   1.560   3.224  15.240  0.3885  0.9130  0.8902
  179MPD1    C1 2777   1.625   3.234  15.359  0.2429 -0.4368  0.3382
  179MPD1    C2 2778   1.574   3.153  15.465 -0.2369 -0.0644 -0.2424
  179MPD1    C3 2779   1.446   3.098  15.462 -0.6733  0.0580 -0.0198
  179MPD1    C4 2780   1.369   3.113  15.349 -0.4887  0.4269  0.3987
  179MPD1    C5 2781   1.432   3.169  15.237  0.2034  0.3363 -0.1778
  179MPD1     H 2782   1.632   3.140  15.555  1.0824  0.6753 -0.9835
  179MPD1    H1 2783   1.269   3.074  15.336 -0.0699  1.0418 -4.6356
  179MPD1    H2 2784   1.609   3.257  15.149 -0.7387  0.6269  0.1834
  179MPD1    H3 2785   1.386   3.183  15.139  2.3639  3.5697 -0.7303
  179MPD1     N 2786   1.381   3.030  15.569 -0.0701  0.5576  0.2821
  179MPD1    H5 2787   1.291   2.997  15.535 -0.1199  0.0641  0.8992
  179MPD1    N1 2788   1.759   3.273  15.363 -0.1625 -0.4404 -0.4597
  179MPD1    H6 2789   1.783   3.327  15.446  0.7431 -2.3009  0.4865
  179MPD1    H7 2790   1.782   3.326  15.279  1.0313  2.0981  1.4903
  180MPD1     C 2791   1.509   3.870  15.491  0.3640  0.4544  0.2143
  180MPD1    C1 2792   1.605   3.934  15.414  0.4254 -0.0269 -0.0416
  180MPD1    C2 2793   1.578   3.970  15.284 -0.6256 -0.1997  0.3431
  180MPD1    C3 2794   1.458   3.935  15.230 -0.1403  0.2413  0.1138
  180MPD1    C4 2795   1.362   3.872  15.301 -0.2081  0.5929 -0.2225
  180MPD1    C5 2796   1.392   3.844  15.433  0.3490 -0.1254  0.4975
  180MPD1     H 2797   1.656   4.028  15.235 -0.6690 -0.0188  0.4860
  180MPD1    H1 2798   1.272   3.828  15.260 -0.2223 -0.3688  0.8442
  180MPD1    H2 2799   1.521   3.844  15.596  0.4833  1.2451  0.3973
  180MPD1    H3 2800   1.319   3.787  15.489  0.0783 -0.3890 -0.1290
  180MPD1     N 2801   1.441   3.973  15.091 -0.0128 -0.1635 -0.6567
  180MPD1    H5 2802   1.519   4.024  15.051 -1.1515  1.5208 -0.7451
  180MPD1    N1 2803   1.738   3.950  15.463 -0.7070 -0.0882  0.1804
  180MPD1    H6 2804   1.746   3.988  15.557 -0.2773 -0.0546  0.1274
  180MPD1    H7 2805   1.790   4.016  15.406  0.0629  0.1485  1.1539
  181MPD1     C 2806   2.827   1.146  10.128 -0.7668 -0.3729  0.0874
  181MPD1    C1 2807   2.874   1.205  10.244 -0.3486  0.7270  0.1259
  181MPD1    C2 2808   3.004   1.233  10.248 -0.0822  0.2763  0.4184
  181MPD1    C3 2809   3.087   1.236  10.135 -0.4310 -0.6993  0.6611
  181MPD1    C4 2810   3.042   1.187  10.021 -0.0416  0.0866  0.2826
  181MPD1    C5 2811   2.908   1.140  10.022  0.1870 -0.0074 -0.4426
  181MPD1     H 2812   3.045   1.264  10.343 -0.6634  0.2671  0.6663
  181MPD1    H1 2813   3.098   1.180   9.928  2.7489 -1.9850  2.1105
  181MPD1    H2 2814   2.730   1.103  10.107 -0.7248 -0.0380 -0.7606
  181MPD1    H3 2815   2.877   1.102   9.925 -1.3786  0.6528 -0.2138
  181MPD1     N 2816   3.212   1.292  10.138 -0.8197  0.0103  0.2653
  181MPD1    H5 2817   3.265   1.289  10.051 -1.6472  1.1955 -0.2847
  181MPD1    N1 2818   2.798   1.193  10.361  0.1279 -0.4823  0.8074
  181MPD1    H6 2819   2.829   1.261  10.430 -1.2442  0.2449  0.7153
  181MPD1    H7 2820   2.702   1.214  10.333  0.2866  0.2594  0.8226
  182MPD1     C 2821   3.928   1.070   0.971  0.1400  0.0186 -0.1410
  182MPD1    C1 2822   3.847   1.025   1.072 -0.2161  0.4008 -0.2166
  182MPD1    C2 2823   3.727   0.971   1.034  0.7953 -0.3766  0.7709
  182MPD1    C3 2824   3.700   0.931   0.901  0.5543 -0.3006  0.1338
  182MPD1    C4 2825   3.784   0.983   0.802 -0.6853  0.9117 -0.2011
  182MPD1    C5 2826   3.895   1.052   0.837  0.3214  0.1428 -0.8054
  182MPD1     H 2827   3.656   0.952   1.113 -0.9083  1.7633 -0.2613
  182MPD1    H1 2828   3.772   0.966   0.695 -0.0825  0.4967 -0.2048
  182MPD1    H2 2829   4.022   1.123   0.983 -0.4964  0.6872  1.8843
  182MPD1    H3 2830   3.964   1.091   0.763  0.8452 -0.2106 -0.4994
  182MPD1     N 2831   3.588   0.846   0.863  0.3230 -0.1246 -0.0582
  182MPD1    H5 2832   3.591   0.796   0.775 -3.1675  0.6331 -0.6100
  182MPD1    N1 2833   3.876   1.059   1.206 -0.3437 -0.3661 -0.1706
  182MPD1    H6 2834   3.807   1.014   1.267 -0.1188 -1.1737 -0.5106
  182MPD1    H7 2835   3.972   1.034   1.232 -0.6611 -0.0909  1.3028
  183MPD1     C 2836   0.096   1.883   9.813 -0.1891 -0.3875  0.3171
  183MPD1    C1 2837   4.699   1.886   9.780  0.5606  0.3310 -0.2973
  183MPD1    C2 2838   4.647   1.762   9.753 -0.4298  0.4714 -0.7569
  183MPD1    C3 2839   4.712   1.644   9.780  0.4331  0.7761 -0.0082
  183MPD1    C4 2840   0.101   1.644   9.832  0.8187 -0.3604  0.4764
  183MPD1    C5 2841   0.166   1.767   9.832  0.6123 -0.3609  0.2512
  183MPD1     H 2842   4.546   1.756   9.714 -0.2916 -0.3998 -0.9824
  183MPD1    H1 2843   0.155   1.558   9.870 -0.7141 -2.6236 -2.4708
  183MPD1    H2 2844   0.149   1.975   9.834 -0.5222 -0.2207  0.4251
  183MPD1    H3 2845   0.266   1.765   9.873  0.0133  0.8248  1.7916
  183MPD1     N 2846   4.625   1.532   9.786  0.9257 -1.0481 -0.3662
  183MPD1    H5 2847   4.531   1.542   9.750  0.2937 -3.0206  0.7454
  183MPD1    N1 2848   4.628   2.004   9.754 -0.1898  0.5130 -0.3262
  183MPD1    H6 2849   4.527   1.988   9.758 -0.2082  0.9054  0.7418
  183MPD1    H7 2850   4.654   2.071   9.826  2.1374  0.0582 -0.7426
  184MPD1     C 2851   3.155   3.755   9.470 -0.1388  0.1346  0.1472
  184MPD1    C1 2852   3.207   3.820   9.580 -0.0088  0.0327 -0.1587
  184MPD1    C2 2853   3.301   3.915   9.550 -0.0522  0.4722 -0.0829
  184MPD1    C3 2854   3.328   3.961   9.428 -0.3937 -0.0686 -0.6772
  184MPD1    C4 2855   3.268   3.900   9.320 -0.0038 -0.2719 -0.9190
  184MPD1    C5 2856   3.178   3.796   9.340  0.2308 -0.6313  0.1157
  184MPD1     H 2857   3.338   3.961   9.641 -0.1868 -0.2589  0.3497
  184MPD1    H1 2858   3.296   3.928   9.219 -0.1879  1.2576 -0.5434
  184MPD1    H2 2859   3.081   3.678   9.492  0.3693 -0.2415  0.5343
  184MPD1    H3 2860   3.125   3.758   9.253 -2.9888  1.7291  1.0480
  184MPD1     N 2861   3.418   4.061   9.396  0.1684 -0.1733 -0.0752
  184MPD1    H5 2862   3.438   4.086   9.300  1.9382 -1.6383 -0.0990
  184MPD1    N1 2863   3.162   3.801   9.715 -0.7740  0.0799  0.2600
  184MPD1    H6 2864   3.111   3.713   9.722 -1.1566  0.4124  1.5970
  184MPD1    H7 2865   3.083   3.864   9.731  0.4254  1.9784 -1.3750
  185MPD1     C 2866   3.634   4.675   8.679  0.8487 -0.5528 -0.0656
  185MPD1    C1 2867   3.512   4.649   8.742 -0.0929  0.3541  0.5403
  185MPD1    C2 2868   3.505   4.585   8.867  0.0106 -0.4368 -0.4125
  185MPD1    C3 2869   3.623   4.567   8.942 -0.3319  0.7662  1.0473
  185MPD1    C4 2870   3.743   4.591   8.873 -0.2718  0.6820 -1.1359
  185MPD1    C5 2871   3.748   4.640   8.748 -0.4497  0.6267 -1.1098
  185MPD1     H 2872   3.414   4.539   8.902 -0.7657  1.1447 -0.3836
  185MPD1    H1 2873   3.837   4.572   8.924 -0.6921  4.0430  0.8576
  185MPD1    H2 2874   3.648   4.715   8.579 -1.1368  0.9554  0.2566
  185MPD1    H3 2875   3.842   4.657   8.697  0.5806 -1.1128  0.1745
  185MPD1     N 2876   3.626   4.507   9.072  0.4149  0.4806 -0.0315
  185MPD1    H5 2877   3.719   4.488   9.109  0.5621 -1.1912 -1.2681
  185MPD1    N1 2878   3.397   4.663   8.665  0.4850  0.1102  0.2926
  185MPD1    H6 2879   3.322   4.669   8.733 -0.6391 -0.5967 -0.8846
  185MPD1    H7 2880   3.395   0.014   8.615  3.8440  1.0943  1.9022
  186MPD1     C 2881   1.938   2.598  15.903 -0.4410 -0.2174  1.1270
  186MPD1    C1 2882   2.012   2.701  15.849 -0.2039 -0.2041  0.4210
  186MPD1    C2 2883   1.995   2.826  15.907 -0.0739 -0.0426 -0.9458
  186MPD1    C3 2884   1.889   2.851  16.000 -0.3627  0.2433 -0.1247
  186MPD1    C4 2885   1.825   2.735  16.055  0.2658 -0.4610 -0.5765
  186MPD1    C5 2886   1.844   2.611  16.003 -0.4873 -0.2856  0.1277
  186MPD1     H 2887   2.061   2.906  15.875  2.3976 -1.6508  0.1302
  186MPD1    H1 2888   1.760   2.741  16.141  0.2596 -1.2369 -0.5270
  186MPD1    H2 2889   1.955   2.497  15.868  1.3062  0.3209  0.4102
  186MPD1    H3 2890   1.790   2.525  16.041 -1.9931 -0.1046 -1.6381
  186MPD1     N 2891   1.880   2.978  16.070 -0.0099  0.4035 -0.5618
  186MPD1    H5 2892   1.817   2.980  16.150 -1.7044 -2.4813 -1.8328
  186MPD1    N1 2893   2.118   2.667  15.766  0.0412  1.1675  0.6949
  186MPD1    H6 2894   2.141   2.741  15.700 -1.1134  0.7986 -0.1263
  186MPD1    H7 2895   2.115   2.580  15.713 -0.6742  1.4789  0.2224
  187MPD1     C 2896   1.762   0.030  17.644 -0.1294  0.0439 -0.2597
  187MPD1    C1 2897   1.624   0.029  17.675  0.2522  0.8028  0.2149
  187MPD1    C2 2898   1.543   0.025  17.559  0.5919  0.3971  1.1300
  187MPD1    C3 2899   1.587   0.011  17.432  0.0300 -0.4603  0.0978
  187MPD1    C4 2900   1.721   0.018  17.409 -0.0772 -0.1285  0.3844
  187MPD1    C5 2901   1.810   0.017  17.519 -0.4939 -0.8456  0.0918
  187MPD1     H 2902   1.436   0.031  17.578  0.3813  2.5210 -0.7634
  187MPD1    H1 2903   1.760   0.013  17.308  0.8220  1.5497  0.6573
  187MPD1    H2 2904   1.831   0.038  17.726 -0.0930  0.7611 -0.3666
  187MPD1    H3 2905   1.917   0.032  17.511 -0.8285  0.7665 -1.4039
  187MPD1     N 2906   1.493   0.004  17.323 -0.4590 -0.0110  0.3893
  187MPD1    H5 2907   1.536   0.028  17.235 -0.9945  1.2580  0.4778
  187MPD1    N1 2908   1.585   0.069   0.052  0.9719 -0.1775 -0.4194
  187MPD1    H6 2909   1.488   0.040   0.066  0.8249 -0.4958 -2.1328
  187MPD1    H7 2910   1.647   0.024   0.120 -0.8818 -1.6654  0.2919
  188MPD1     C 2911   1.166   0.699  10.257 -0.2427  0.2281  0.2323
  188MPD1    C1 2912   1.246   0.607  10.319 -0.5956  0.6898 -0.1439
  188MPD1    C2 2913   1.252   0.480  10.263 -0.4123  1.4245  0.2860
  188MPD1    C3 2914   1.159   0.436  10.175 -0.2443  0.6088 -0.1616
  188MPD1    C4 2915   1.065   0.526  10.133  0.1155  0.1706 -0.8177
  188MPD1    C5 2916   1.072   0.654  10.169 -0.0543  0.0897  0.0838
  188MPD1     H 2917   1.333   0.417  10.298  1.4871  2.3641 -2.4138
  188MPD1    H1 2918   0.990   0.501  10.059  1.2421 -0.6581 -1.6788
  188MPD1    H2 2919   1.170   0.804  10.282 -1.0358  0.3209 -0.0425
  188MPD1    H3 2920   0.990   0.714  10.131  1.9134  2.1682 -0.8542
  188MPD1     N 2921   1.159   0.305  10.121  0.6953  0.0827  0.3153
  188MPD1    H5 2922   1.080   0.276  10.066  0.9684 -0.0775  0.0072
  188MPD1    N1 2923   1.365   0.644  10.389  0.2302 -0.7654  0.7001
  188MPD1    H6 2924   1.399   0.560  10.435  0.9816 -1.6145 -1.4371
  188MPD1    H7 2925   1.352   0.719  10.457  2.3746  0.9013 -0.7434
  189MPD1     C 2926   2.140   1.019   0.496  0.2922  0.3047 -0.2228
  189MPD1    C1 2927   2.055   1.053   0.392 -0.5230 -0.2629  0.0539
  189MPD1    C2 2928   2.066   1.174   0.339  0.1280 -0.1291 -0.1421
  189MPD1    C3 2929   2.176   1.250   0.347 -0.5145 -0.4482  0.0407
  189MPD1    C4 2930   2.266   1.214   0.445 -0.0162 -0.6351  0.0464
  189MPD1    C5 2931   2.249   1.099   0.526  0.2202  0.9047  0.0989
  189MPD1     H 2932   1.994   1.201   0.262 -1.1618  2.0700  1.8134
  189MPD1    H1 2933   2.353   1.269   0.478 -1.2143  1.6681 -0.6222
  189MPD1    H2 2934   2.113   0.938   0.564  0.1903  1.0712  0.6499
  189MPD1    H3 2935   2.301   1.079   0.619 -0.9118 -2.4798  0.0256
  189MPD1     N 2936   2.185   1.373   0.278  0.2479  0.5160  0.0488
  189MPD1    H5 2937   2.129   1.392   0.196 -0.1638  1.4283  0.5391
  189MPD1    N1 2938   1.939   0.972   0.361 -0.5069  0.4697  0.3295
  189MPD1    H6 2939   1.950   0.874   0.387  0.3444  1.2361  2.8382
  189MPD1    H7 2940   1.890   0.973   0.272  0.1547  0.1745 -0.0374
  190MPD1     C 2941   1.650   4.693  15.174  0.0589  0.6651  0.1329
  190MPD1    C1 2942   1.781   4.688  15.133 -0.3434 -0.4844 -1.2773
  190MPD1    C2 2943   1.869   4.638  15.224 -0.1266  0.0227 -0.1664
  190MPD1    C3 2944   1.828   4.576  15.344  0.4334  0.1444 -0.5761
  190MPD1    C4 2945   1.697   4.563  15.360 -0.3321 -0.0033  0.1334
  190MPD1    C5 2946   1.603   4.618  15.276  0.0486 -0.4547 -0.1279
  190MPD1     H 2947   1.974   4.646  15.198  0.4244 -2.0942  1.4872
  190MPD1    H1 2948   1.653   4.515  15.447 -1.2444  0.8346  0.1454
  190MPD1    H2 2949   1.572   4.737  15.113 -0.0802 -0.6712 -0.6518
  190MPD1    H3 2950   1.497   4.613  15.299 -0.3182  1.6277 -1.3739
  190MPD1     N 2951   1.921   4.503  15.424  0.0745 -0.8576  0.2290
  190MPD1    H5 2952   2.019   4.505  15.398 -0.1195 -2.3749 -0.6581
  190MPD1    N1 2953   1.828   0.029  15.026 -0.2945  0.2055  0.3872
  190MPD1    H6 2954   1.758   0.045  14.954 -0.7971 -0.7004  0.6752
  190MPD1    H7 2955   1.900   4.712  14.978 -2.0748  0.2901 -2.3931
  191MPD1     C 2956   1.695   0.001  11.729 -0.0960 -0.4973 -0.3547
  191MPD1    C1 2957   1.620   0.062  11.831  0.1417 -0.7466  0.1060
  191MPD1    C2 2958   1.613   0.198  11.836 -0.4430  0.6879  0.3498
  191MPD1    C3 2959   1.692   0.276  11.745 -0.2478  0.4654 -0.0381
  191MPD1    C4 2960   1.773   0.207  11.658  0.4211 -0.3837  0.3447
  191MPD1    C5 2961   1.771   0.075  11.648  0.4504  0.2075 -0.1005
  191MPD1     H 2962   1.557   0.250  11.913 -2.0101  2.6426 -2.0898
  191MPD1    H1 2963   1.841   0.250  11.585 -0.2884  0.9908  0.4918
  191MPD1    H2 2964   1.691   4.631  11.711  0.2922 -1.0506  2.7876
  191MPD1    H3 2965   1.838   0.019  11.584 -0.0729 -0.9454  0.3516
  191MPD1     N 2966   1.676   0.416  11.758  0.4667 -0.2908 -0.6778
  191MPD1    H5 2967   1.611   0.448  11.829  0.5920 -1.2604 -0.1283
  191MPD1    N1 2968   1.537   4.722  11.909 -0.5632 -0.2839 -0.0522
  191MPD1    H6 2969   1.574   4.629  11.929  0.6449  0.2259  0.1126
  191MPD1    H7 2970   1.502   0.025  11.996 -2.8171  1.6246 -1.8346
  192MPD1     C 2971   1.091   1.184  11.597 -0.4599  0.6579  0.4180
  192MPD1    C1 2972   1.074   1.057  11.661 -0.4062 -0.9922  0.0784
  192MPD1    C2 2973   1.184   0.993  11.691  0.1747  0.3426 -0.1878
  192MPD1    C3 2974   1.311   1.039  11.662 -0.2731  0.0149  0.4715
  192MPD1    C4 2975   1.326   1.157  11.595  0.0859  0.0102 -0.3675
  192MPD1    C5 2976   1.217   1.228  11.560  0.8654  0.1018  0.3343
  192MPD1     H 2977   1.182   0.900  11.745 -3.0007  1.0926  1.0066
  192MPD1    H1 2978   1.423   1.200  11.574  0.8834 -1.6674 -0.0784
  192MPD1    H2 2979   1.008   1.240  11.555 -2.4675 -1.6421  1.3223
  192MPD1    H3 2980   1.228   1.323  11.510  0.1183 -1.1188 -2.1541
  192MPD1     N 2981   1.429   0.974  11.696 -0.0644  0.4271  0.5815
  192MPD1    H5 2982   1.519   1.013  11.669 -1.6787  0.4292 -4.7346
  192MPD1    N1 2983   0.944   1.007  11.696  0.6838  0.3000  0.1738
  192MPD1    H6 2984   0.873   1.044  11.633  0.3381 -0.1735  0.2835
  192MPD1    H7 2985   0.942   0.906  11.706 -0.0268  0.4076  1.1678
  193MPD1     C 2986   0.549   1.301  16.022  0.2346 -0.4353 -0.7977
  193MPD1    C1 2987   0.613   1.275  16.142  1.5090  1.2302 -0.8406
  193MPD1    C2 2988   0.669   1.375  16.212 -0.4210 -0.4335  0.5649
  193MPD1    C3 2989   0.653   1.504  16.177  0.0814 -0.6823  0.1090
  193MPD1    C4 2990   0.596   1.525  16.051 -0.8408  0.2145  0.6806
  193MPD1    C5 2991   0.555   1.430  15.965  1.0169  0.3964  0.5089
  193MPD1     H 2992   0.717   1.356  16.307 -1.0005  3.6899  1.6833
  193MPD1    H1 2993   0.591   1.628  16.016 -1.3265 -0.4764 -1.2860
  193MPD1    H2 2994   0.513   1.216  15.965  0.5517  0.1468 -1.8566
  193MPD1    H3 2995   0.505   1.455  15.872 -0.8683  1.9334  1.9196
  193MPD1     N 2996   0.713   1.603  16.257 -0.0284 -0.3918 -0.7350
  193MPD1    H5 2997   0.751   1.582  16.349 -1.7345 -3.4460 -0.7074
  193MPD1    N1 2998   0.649   1.135  16.165 -0.0349 -0.0743 -0.1697
  193MPD1    H6 2999   0.575   1.073  16.132 -1.6967  2.2583 -0.7523
  193MPD1    H7 3000   0.651   1.111  16.264  1.0197  0.5495 -0.0360
  194MPD1     C 3001   3.184   3.987  16.887 -0.4378  0.1646 -0.4582
  194MPD1    C1 3002   3.148   3.884  16.801  1.0509  0.4755  0.6369
  194MPD1    C2 3003   3.175   3.753  16.834 -0.4483 -0.1770  0.2526
  194MPD1    C3 3004   3.238   3.716  16.951  1.0661 -0.0046  0.1998
  194MPD1    C4 3005   3.271   3.815  17.039 -0.1326  0.0741 -0.1047
  194MPD1    C5 3006   3.228   3.944  17.009 -0.6500  0.6089 -0.3377
  194MPD1     H 3007   3.144   3.669  16.773  1.5171  1.0809 -2.4961
  194MPD1    H1 3008   3.310   3.789  17.136 -0.0868 -0.2688 -0.2169
  194MPD1    H2 3009   3.161   4.093  16.879  0.2867  0.3272 -0.4032
  194MPD1    H3 3010   3.239   4.018  17.088  2.3942  0.7316 -0.8797
  194MPD1     N 3011   3.259   3.582  16.998  0.0386 -0.2194 -0.4407
  194MPD1    H5 3012   3.309   3.559  17.083  0.0715  1.7506  0.0729
  194MPD1    N1 3013   3.101   3.924  16.675  0.4259 -0.3276 -0.6335
  194MPD1    H6 3014   3.078   4.023  16.668  2.6239  0.1599 -1.1084
  194MPD1    H7 3015   3.051   3.863  16.611  1.3258 -0.7478 -0.9346
  195MPD1     C 3016   0.791   4.196   1.688 -0.2382  0.2651  0.6063
  195MPD1    C1 3017   0.893   4.155   1.603 -0.7151 -0.0955  0.3895
  195MPD1    C2 3018   0.900   4.213   1.477 -0.0400 -0.6328 -0.0406
  195MPD1    C3 3019   0.808   4.306   1.432  0.7325  0.2856 -0.0867
  195MPD1    C4 3020   0.715   4.357   1.525  0.2423 -0.8336 -0.4494
  195MPD1    C5 3021   0.706   4.295   1.646  0.4772  0.4757 -0.6060
  195MPD1     H 3022   0.982   4.179   1.413  0.9191  1.6953 -0.0304
  195MPD1    H1 3023   0.648   4.438   1.501 -1.4544 -2.7617 -2.1605
  195MPD1    H2 3024   0.779   4.146   1.784  1.4640 -1.4349 -0.0746
  195MPD1    H3 3025   0.637   4.338   1.718  1.6704 -0.3451  1.0521
  195MPD1     N 3026   0.812   4.367   1.298  0.2678  0.2734 -0.3761
  195MPD1    H5 3027   0.744   4.439   1.279 -0.6919 -0.5956 -0.2735
  195MPD1    N1 3028   0.997   4.073   1.649 -0.0744  0.3721 -0.1585
  195MPD1    H6 3029   1.046   4.016   1.580  1.1070 -0.1657  1.1205
  195MPD1    H7 3030   0.964   4.018   1.729 -0.6686  1.6138  0.4438
  196MPD1     C 3031   3.989   4.459   0.539  0.6431 -0.2738 -0.0541
  196MPD1    C1 3032   4.108   4.524   0.514  0.3634 -0.6740 -0.3754
  196MPD1    C2 3033   4.168   4.585   0.623  0.6605 -0.3582 -0.4612
  196MPD1    C3 3034   4.104   4.593   0.748  0.5140 -0.4445 -0.1975
  196MPD1    C4 3035   3.976   4.535   0.765  0.0819 -0.7917 -0.0214
  196MPD1    C5 3036   3.925   4.470   0.660 -0.6569  0.2479 -0.4561
  196MPD1     H 3037   4.267   4.625   0.603  1.2238 -0.8983  1.2349
  196MPD1    H1 3038   3.923   4.542   0.859  0.4157  3.7058 -0.1935
  196MPD1    H2 3039   3.936   4.400   0.466  0.2632 -0.9801  0.7852
  196MPD1    H3 3040   3.829   4.420   0.662  0.8789 -2.6468  1.5606
  196MPD1     N 3041   4.154   4.656   0.858  0.2129 -0.1367  0.2083
  196MPD1    H5 3042   4.094   4.663   0.939 -1.4293 -1.7131 -0.8837
  196MPD1    N1 3043   4.180   4.503   0.393  0.1979 -0.4252  0.6503
  196MPD1    H6 3044   4.114   4.483   0.318  0.4974 -0.9241  0.5255
  196MPD1    H7 3045   4.231   4.586   0.363  1.1982  0.0787  3.7230
  197MPD1     C 3046   3.907   1.382  17.263 -0.0037  0.8925  0.1028
  197MPD1    C1 3047   4.034   1.429  17.265  0.4664 -0.2304 -0.5786
  197MPD1    C2 3048   4.070   1.520  17.166 -0.0314 -0.1885 -0.6336
  197MPD1    C3 3049   3.985   1.562  17.066 -0.3652 -0.6660 -0.3566
  197MPD1    C4 3050   3.855   1.512  17.064  0.8640 -0.1514  0.6189
  197MPD1    C5 3051   3.819   1.422  17.165 -0.4922 -0.1422 -1.1497
  197MPD1     H 3052   4.166   1.569  17.173  0.4110 -1.2858  0.8988
  197MPD1    H1 3053   3.793   1.543  16.982  1.0911  1.1435  0.9317
  197MPD1    H2 3054   3.880   1.293  17.319 -1.1009  0.9844 -0.2758
  197MPD1    H3 3055   3.718   1.382  17.159 -0.6593  0.1642 -0.3494
  197MPD1     N 3056   4.012   1.661  16.962 -0.2845 -0.3738 -0.2571
  197MPD1    H5 3057   3.940   1.682  16.894  0.1473  0.2305 -0.5255
  197MPD1    N1 3058   4.114   1.411  17.377  0.1555  0.4584 -0.2147
  197MPD1    H6 3059   4.212   1.433  17.359  0.4273 -1.5677 -1.2281
  197MPD1    H7 3060   4.100   1.328  17.434  1.2335 -0.0836 -0.7298
  198MPD1     C 3061   1.234   0.270  14.232 -0.3888 -0.1283  0.3604
  198MPD1    C1 3062   1.341   0.358  14.234  0.4462 -0.3772 -0.0838
  198MPD1    C2 3063   1.387   0.417  14.353  0.1595 -0.0927  0.0684
  198MPD1    C3 3064   1.321   0.382  14.473  0.7112 -0.4757  0.8176
  198MPD1    C4 3065   1.213   0.293  14.467  0.0975 -0.5538 -0.3621
  198MPD1    C5 3066   1.169   0.245  14.345  0.0190 -0.0388 -0.5264
  198MPD1     H 3067   1.468   0.489  14.355 -0.5337  0.7262 -0.9094
  198MPD1    H1 3068   1.180   0.248  14.560  0.8653  0.2404  0.2908
  198MPD1    H2 3069   1.197   0.226  14.140 -1.7192  2.5271 -0.3741
  198MPD1    H3 3070   1.078   0.187  14.339  1.4661 -2.3156 -0.5695
  198MPD1     N 3071   1.373   0.443  14.588 -0.4233  0.3538 -0.9729
  198MPD1    H5 3072   1.431   0.523  14.564  0.5777 -0.0974 -0.0723
  198MPD1    N1 3073   1.409   0.373  14.112  0.3210 -0.2128  0.2254
  198MPD1    H6 3074   1.348   0.354  14.033  0.9222 -1.3107  0.0242
  198MPD1    H7 3075   1.453   0.465  14.104  1.7147 -0.9230 -0.2471
  199MPD1     C 3076   4.390   2.901  10.338  0.1698  0.3093 -0.3631
  199MPD1    C1 3077   4.402   2.769  10.376 -1.0273  0.3445  0.3484
  199MPD1    C2 3078   4.303   2.685  10.325  0.1393 -0.3204  0.1985
  199MPD1    C3 3079   4.203   2.734  10.238  0.5603  0.2605 -0.4821
  199MPD1    C4 3080   4.189   2.866  10.214 -0.8134 -0.1524  0.4322
  199MPD1    C5 3081   4.284   2.951  10.263  0.0433 -0.3960  0.7911
  199MPD1     H 3082   4.313   2.583  10.358  0.2859 -0.2488  0.3700
  199MPD1    H1 3083   4.111   2.908  10.152 -2.1289 -0.6220  1.7636
  199MPD1    H2 3084   4.468   2.967  10.375  0.6492 -0.3018 -0.2867
  199MPD1    H3 3085   4.287   3.055  10.232  3.4497 -0.1446  2.0305
  199MPD1     N 3086   4.105   2.647  10.178 -0.4703  0.1490 -0.0563
  199MPD1    H5 3087   4.048   2.695  10.109 -0.8325  1.0816  0.8875
  199MPD1    N1 3088   4.507   2.721  10.446  0.5965 -0.0617  0.1464
  199MPD1    H6 3089   4.484   2.636  10.495  0.1213 -0.1733 -0.2713
  199MPD1    H7 3090   4.537   2.793  10.511  4.9312 -0.6896 -1.1213
  200MPD1     C 3091   2.520   1.417  15.081 -0.7156  0.6137 -0.3362
  200MPD1    C1 3092   2.485   1.437  14.948  0.3629 -0.0891 -0.0065
  200MPD1    C2 3093   2.564   1.519  14.872  0.7035 -0.1792 -0.0856
  200MPD1    C3 3094   2.682   1.565  14.924  0.5093  0.3490  0.2555
  200MPD1    C4 3095   2.710   1.544  15.057  0.2410 -0.2569  0.3088
  200MPD1    C5 3096   2.633   1.461  15.139  0.0111 -0.2026 -0.0931
  200MPD1     H 3097   2.532   1.530  14.769  1.3610  0.8282 -0.1799
  200MPD1    H1 3098   2.796   1.579  15.112  0.7883  0.1141 -0.7915
  200MPD1    H2 3099   2.454   1.366  15.150  1.0721 -2.2302 -0.7511
  200MPD1    H3 3100   2.650   1.446  15.245  0.2855  0.2228 -0.0779
  200MPD1     N 3101   2.760   1.655  14.847  0.3240  0.9253 -0.4387
  200MPD1    H5 3102   2.725   1.681  14.756 -0.1490 -0.5750 -0.6795
  200MPD1    N1 3103   2.358   1.409  14.903  0.3196 -0.5241 -0.1652
  200MPD1    H6 3104   2.361   1.391  14.803 -0.0551 -0.5079 -0.1806
  200MPD1    H7 3105   2.323   1.330  14.957  2.6081 -2.1573 -1.0967
  201MPD1     C 3106   4.572   0.909  13.219 -0.0688 -0.3650  0.1122
  201MPD1    C1 3107   4.548   0.777  13.196 -0.3094 -0.6242 -0.1957
  201MPD1    C2 3108   4.655   0.684  13.194  1.3535  0.2078 -0.5590
  201MPD1    C3 3109   0.048   0.727  13.203  0.5197  0.0329 -0.1557
  201MPD1    C4 3110   0.069   0.855  13.241 -0.2209 -0.1951  0.2040
  201MPD1    C5 3111   4.705   0.950  13.231 -0.4015 -0.0056 -0.1764
  201MPD1     H 3112   4.656   0.576  13.199  0.6081  0.2633  0.6362
  201MPD1    H1 3113   0.166   0.895  13.268 -0.6685  1.5822 -0.8095
  201MPD1    H2 3114   4.498   0.986  13.238  3.0943  2.7822 -0.0544
  201MPD1    H3 3115   4.733   1.050  13.263 -1.3027  0.3501 -0.4925
  201MPD1     N 3116   0.159   0.632  13.199  0.1631  0.3757 -0.0441
  201MPD1    H5 3117   0.128   0.537  13.179 -1.1176  0.8094 -0.1039
  201MPD1    N1 3118   4.416   0.734  13.213  0.1877 -0.6327 -0.4407
  201MPD1    H6 3119   4.350   0.807  13.187  1.0608  0.4636  0.4574
  201MPD1    H7 3120   4.384   0.653  13.160  0.2403 -0.9052 -0.0560
  202MPD1     C 3121   1.054   1.064  10.480 -0.1033 -0.6357 -0.3974
  202MPD1    C1 3122   0.949   1.114  10.403  0.4350  0.9129 -0.1753
  202MPD1    C2 3123   0.859   1.018  10.351  0.0246 -0.2585  0.0293
  202MPD1    C3 3124   0.856   0.890  10.398 -0.3199  0.4700  0.3147
  202MPD1    C4 3125   0.950   0.849  10.496  0.1768  0.3597  0.9532
  202MPD1    C5 3126   1.041   0.938  10.539 -0.3892  0.0462  0.4250
  202MPD1     H 3127   0.780   1.056  10.288  1.3210  0.3484 -1.2179
  202MPD1    H1 3128   0.947   0.747  10.535 -0.0829 -0.4654 -1.2073
  202MPD1    H2 3129   1.139   1.126  10.505 -0.7713  0.5022 -0.9474
  202MPD1    H3 3130   1.107   0.910  10.620  1.6489  0.0470 -1.2096
  202MPD1     N 3131   0.766   0.783  10.351  0.1301 -0.2414  0.3327
  202MPD1    H5 3132   0.777   0.690  10.390  2.2923  0.0195  0.3381
  202MPD1    N1 3133   0.979   1.229  10.331  0.2867 -0.2419  0.9135
  202MPD1    H6 3134   1.033   1.285  10.395  0.8311  0.0072  0.2362
  202MPD1    H7 3135   0.901   1.278  10.287  2.4512  1.8306 -0.6260
  203MPD1     C 3136   3.043   0.834  12.351  0.4908 -0.3682 -0.8922
  203MPD1    C1 3137   3.171   0.831  12.306 -0.0463 -0.8333 -0.1861
  203MPD1    C2 3138   3.264   0.759  12.377  0.2881  0.6126  0.2276
  203MPD1    C3 3139   3.223   0.683  12.488 -0.2478 -1.2886 -0.4086
  203MPD1    C4 3140   3.094   0.687  12.538  0.5717  0.5766 -0.9817
  203MPD1    C5 3141   3.007   0.766  12.463  0.0960 -0.1427  0.0709
  203MPD1     H 3142   3.366   0.776  12.344 -0.2527  3.8627  0.2651
  203MPD1    H1 3143   3.070   0.635  12.630  1.6507  2.8611  0.5766
  203MPD1    H2 3144   2.965   0.893  12.303 -0.1987  1.3169  2.2941
  203MPD1    H3 3145   2.903   0.773  12.492  0.3008 -0.9245  1.0182
  203MPD1     N 3146   3.326   0.595  12.540 -0.2256  0.4764 -0.2179
  203MPD1    H5 3147   3.402   0.579  12.475  0.0404  0.7911  0.0173
  203MPD1    N1 3148   3.219   0.930  12.216 -0.0121 -0.6312 -0.2231
  203MPD1    H6 3149   3.313   0.902  12.187 -0.1000  0.1677 -1.2958
  203MPD1    H7 3150   3.158   0.927  12.134 -1.9645 -2.8100  1.2862
  204MPD1     C 3151   2.856   2.683  17.618 -0.4037 -0.3656 -0.2878
  204MPD1    C1 3152   2.965   2.673  17.539 -0.3013 -0.4292 -0.5255
  204MPD1    C2 3153   3.003   2.553  17.485  0.5771 -0.1622  0.0545
  204MPD1    C3 3154   2.929   2.434  17.505  0.5558  0.1324  0.7346
  204MPD1    C4 3155   2.815   2.448  17.584 -0.4677 -0.5487  0.6693
  204MPD1    C5 3156   2.787   2.575  17.643  0.6536 -0.0915 -0.2708
  204MPD1     H 3157   3.095   2.559  17.428  1.3603 -1.6679  1.1464
  204MPD1    H1 3158   2.758   2.358  17.609 -0.6787  0.0867  2.4940
  204MPD1    H2 3159   2.831   2.777  17.666  2.0507  0.8445 -1.3853
  204MPD1    H3 3160   2.706   2.587  17.715  0.3126  1.0748 -0.8503
  204MPD1     N 3161   2.965   2.315  17.434  0.1932  0.1463  0.1187
  204MPD1    H5 3162   3.048   2.326  17.377 -0.8120 -0.6228 -1.5058
  204MPD1    N1 3163   3.054   2.787  17.521 -0.1140  0.2016 -0.2538
  204MPD1    H6 3164   2.999   2.872  17.508  2.7109  2.0860  0.2886
  204MPD1    H7 3165   3.121   2.780  17.445  0.3972 -0.5827  0.2784
  205MPD1     C 3166   3.304   0.883  16.793  0.4509  0.1623 -1.4778
  205MPD1    C1 3167   3.226   0.778  16.822  0.1579  0.5119  0.6586
  205MPD1    C2 3168   3.125   0.800  16.912 -1.0610  0.0393  0.7238
  205MPD1    C3 3169   3.108   0.924  16.979  0.5367 -0.2654  0.3314
  205MPD1    C4 3170   3.210   1.018  16.971 -0.2683 -0.6527  0.0619
  205MPD1    C5 3171   3.299   0.996  16.870  0.1791 -0.3148 -0.0148
  205MPD1     H 3172   3.048   0.723  16.910 -0.2783 -0.7163 -0.3937
  205MPD1    H1 3173   3.198   1.118  17.012 -2.1591 -0.0232 -2.0782
  205MPD1    H2 3174   3.365   0.884  16.704 -0.5188 -0.6382 -2.1550
  205MPD1    H3 3175   3.363   1.079  16.844  0.8914 -0.9686 -0.3661
  205MPD1     N 3176   2.998   0.953  17.062  0.1652  0.3111  0.0494
  205MPD1    H5 3177   2.998   1.037  17.119  2.3109  0.0320  0.4296
  205MPD1    N1 3178   3.233   0.666  16.739 -0.6031  0.0977  0.2160
  205MPD1    H6 3179   3.329   0.647  16.711 -0.0036  0.6149  1.9423
  205MPD1    H7 3180   3.202   0.588  16.797 -1.0154 -1.6986 -2.3919
  206MPD1     C 3181   3.655   3.541  17.030 -0.1368 -0.3462 -0.3308
  206MPD1    C1 3182   3.604   3.429  16.955  0.1799  0.0889  0.0909
  206MPD1    C2 3183   3.539   3.443  16.834 -0.2044 -0.1933  0.2501
  206MPD1    C3 3184   3.514   3.569  16.794  0.1392  0.2028 -0.5005
  206MPD1    C4 3185   3.550   3.677  16.874 -0.0132 -0.6670  0.1304
  206MPD1    C5 3186   3.623   3.665  16.985  0.6882 -0.4699 -0.0078
  206MPD1     H 3187   3.526   3.356  16.770  0.4264  0.2247 -0.4423
  206MPD1    H1 3188   3.519   3.775  16.840  0.5298 -0.1884  1.0323
  206MPD1    H2 3189   3.718   3.527  17.117 -1.9433  1.1572  1.2236
  206MPD1    H3 3190   3.657   3.752  17.039  1.5281 -1.1860  0.6059
  206MPD1     N 3191   3.442   3.597  16.678 -0.6382  0.6929  0.1394
  206MPD1    H5 3192   3.432   3.693  16.647  0.4453  0.1829 -1.8261
  206MPD1    N1 3193   3.652   3.300  16.991 -0.0458  0.0970 -0.4463
  206MPD1    H6 3194   3.592   3.223  16.961 -1.3558  1.4455 -1.2572
  206MPD1    H7 3195   3.674   3.281  17.089 -0.3466 -0.3689 -0.4655
  207MPD1     C 3196   2.429   2.487   9.236  0.1746 -0.0700  0.4826
  207MPD1    C1 3197   2.370   2.362   9.258  0.1673 -0.6091  0.5220
  207MPD1    C2 3198   2.328   2.327   9.386 -0.5429 -0.0931  0.6797
  207MPD1    C3 3199   2.337   2.427   9.488  0.7789  0.1715 -0.0376
  207MPD1    C4 3200   2.390   2.553   9.459 -0.6180 -0.2414  0.2597
  207MPD1    C5 3201   2.444   2.583   9.332 -0.4862  0.0165  1.7066
  207MPD1     H 3202   2.274   2.235   9.405 -0.9513 -0.0031 -0.0516
  207MPD1    H1 3203   2.405   2.628   9.535  2.2805 -1.5958  1.0029
  207MPD1    H2 3204   2.460   2.511   9.135  1.0106 -1.7942  0.3346
  207MPD1    H3 3205   2.487   2.680   9.308  0.8310 -0.9180  0.2859
  207MPD1     N 3206   2.301   2.410   9.631 -0.0630  0.0517 -0.2853
  207MPD1    H5 3207   2.323   2.487   9.693 -0.1756 -2.0396  2.3337
  207MPD1    N1 3208   2.366   2.263   9.156  0.4169 -0.4159 -0.1155
  207MPD1    H6 3209   2.274   2.224   9.138  0.0678 -0.8922  2.6365
  207MPD1    H7 3210   2.387   2.312   9.070  0.1294 -0.0116  0.0409
  208MPD1     C 3211   3.397   0.095  16.986 -0.3038  0.2689  0.5127
  208MPD1    C1 3212   3.314   0.197  17.018 -0.8290 -0.5403  0.1784
  208MPD1    C2 3213   3.271   0.212  17.150  0.6306 -0.2747 -0.3306
  208MPD1    C3 3214   3.314   0.134  17.254  0.0189 -0.1900  0.3845
  208MPD1    C4 3215   3.415   0.041  17.225 -0.2243 -0.5684  0.6677
  208MPD1    C5 3216   3.448   0.016  17.090  0.3975  0.0189 -0.6326
  208MPD1     H 3217   3.186   0.277  17.168  0.1383 -0.9593 -0.1895
  208MPD1    H1 3218   3.439   4.706  17.303  2.4176  1.5709  1.8188
  208MPD1    H2 3219   3.423   0.087  16.881  0.2788 -1.0481  0.7589
  208MPD1    H3 3220   3.508   4.667  17.064 -2.3065 -1.6680 -1.2617
  208MPD1     N 3221   3.261   0.153  17.385  0.1913  0.8837  0.5427
  208MPD1    H5 3222   3.184   0.220  17.387 -0.2137  0.4308  0.1882
  208MPD1    N1 3223   3.257   0.276  16.917 -0.0175  0.3027 -0.3066
  208MPD1    H6 3224   3.303   0.250  16.829 -2.6370  1.7525 -2.0831
  208MPD1    H7 3225   3.257   0.376  16.931  1.5091  0.0679  1.3804
  209MPD1     C 3226   1.487   1.241  10.919 -0.8758  0.0007 -0.6112
  209MPD1    C1 3227   1.596   1.325  10.888 -0.3444  0.6490  0.0942
  209MPD1    C2 3228   1.619   1.364  10.755 -0.3861  0.7827 -0.2656
  209MPD1    C3 3229   1.539   1.323  10.657  0.0785 -0.3385 -0.1738
  209MPD1    C4 3230   1.437   1.237  10.684  0.1123 -0.4961  0.1062
  209MPD1    C5 3231   1.405   1.199  10.815 -0.2924  0.4341 -0.3523
  209MPD1     H 3232   1.693   1.439  10.730 -0.7999  2.2152  2.8276
  209MPD1    H1 3233   1.379   1.207  10.597 -0.1944  1.1492 -0.2750
  209MPD1    H2 3234   1.465   1.224  11.024 -1.6541 -1.0015 -0.9302
  209MPD1    H3 3235   1.316   1.139  10.833 -1.0847  2.1490  1.4559
  209MPD1     N 3236   1.570   1.373  10.525  0.3626 -0.3553 -0.5028
  209MPD1    H5 3237   1.641   1.445  10.510  1.5792 -2.0061 -2.6587
  209MPD1    N1 3238   1.673   1.383  10.992  1.1716 -0.4479  0.3093
  209MPD1    H6 3239   1.677   1.329  11.077  1.3015  1.9324  1.8290
  209MPD1    H7 3240   1.769   1.398  10.961  1.0857 -1.2570 -0.3595
  210MPD1     C 3241   1.679   0.822   9.735 -0.4056  0.0968  0.6795
  210MPD1    C1 3242   1.754   0.936   9.723 -0.3320  0.4468 -0.3952
  210MPD1    C2 3243   1.729   1.051   9.795 -0.4563  0.1607  0.6473
  210MPD1    C3 3244   1.612   1.054   9.876 -0.6613 -0.2643 -0.1073
  210MPD1    C4 3245   1.537   0.937   9.890 -0.1306 -0.0276 -0.0990
  210MPD1    C5 3246   1.575   0.824   9.822 -0.3629 -0.5458  0.3716
  210MPD1     H 3247   1.787   1.142   9.786 -0.1035 -0.1595 -0.2573
  210MPD1    H1 3248   1.441   0.948   9.938  0.9368  2.0507  1.5470
  210MPD1    H2 3249   1.680   0.726   9.684 -0.1065 -0.6549  2.0886
  210MPD1    H3 3250   1.509   0.738   9.825  0.2167 -0.9795  0.8548
  210MPD1     N 3251   1.567   1.172   9.937  0.5091  0.2040  0.0720
  210MPD1    H5 3252   1.475   1.176   9.978  0.8206  3.4109  0.4338
  210MPD1    N1 3253   1.877   0.927   9.648  0.3702  0.8026 -0.3955
  210MPD1    H6 3254   1.880   0.852   9.579 -3.4659 -1.8445  2.3279
  210MPD1    H7 3255   1.901   1.011   9.594 -0.5314  0.5789 -1.1360
  211MPD1     C 3256   2.683   0.226  17.315  0.7815  0.7668 -0.1530
  211MPD1    C1 3257   2.771   0.235  17.209  0.5181  0.0086 -0.0378
  211MPD1    C2 3258   2.746   0.326  17.108  0.1253  0.5517 -0.0980
  211MPD1    C3 3259   2.625   0.391  17.097  0.5491 -0.0885  0.5131
  211MPD1    C4 3260   2.532   0.383  17.203 -0.5997  0.0205 -0.1661
  211MPD1    C5 3261   2.571   0.298  17.311 -0.4273 -0.1752 -0.6802
  211MPD1     H 3262   2.807   0.334  17.019  2.1338  0.9239  1.2997
  211MPD1    H1 3263   2.441   0.442  17.213 -0.7912  0.1149 -2.5944
  211MPD1    H2 3264   2.694   0.159  17.399  4.4234  0.0560 -1.2041
  211MPD1    H3 3265   2.514   0.301  17.402 -0.1872 -0.8595 -0.5102
  211MPD1     N 3266   2.606   0.468  16.975  0.0990 -0.3176  0.0283
  211MPD1    H5 3267   2.681   0.470  16.906  0.5671 -0.0477  0.5460
  211MPD1    N1 3268   2.899   0.185  17.223 -0.2463 -0.1701 -0.0007
  211MPD1    H6 3269   2.883   0.095  17.268  2.9624 -1.6185 -1.7737
  211MPD1    H7 3270   2.932   0.169  17.128 -1.4896 -1.6404 -0.1819
  212MPD1     C 3271   2.943   3.842  16.297  0.2360 -0.1922 -0.7646
  212MPD1    C1 3272   2.833   3.910  16.342 -0.6101  0.7264  0.2432
  212MPD1    C2 3273   2.773   3.855  16.456 -0.0847 -0.4651 -0.7853
  212MPD1    C3 3274   2.823   3.752  16.525  0.8347  0.4032  0.2158
  212MPD1    C4 3275   2.932   3.689  16.484  0.5620  0.0930 -0.4269
  212MPD1    C5 3276   2.993   3.738  16.374  0.3546 -0.9179 -0.3242
  212MPD1     H 3277   2.680   3.896  16.491 -1.1259 -2.4158 -1.2487
  212MPD1    H1 3278   2.975   3.605  16.537 -1.9957 -1.0838 -0.2239
  212MPD1    H2 3279   2.995   3.881  16.210 -0.6553  3.2442  0.2217
  212MPD1    H3 3280   3.072   3.695  16.314  0.2533  1.7827 -2.3923
  212MPD1     N 3281   2.754   3.697  16.633  0.0952 -0.4193 -0.0053
  212MPD1    H5 3282   2.775   3.603  16.666 -1.8828 -0.3217  1.5388
  212MPD1    N1 3283   2.768   3.999  16.258  0.8251  0.3923 -0.1964
  212MPD1    H6 3284   2.732   4.072  16.320  0.1008  0.8050 -1.1128
  212MPD1    H7 3285   2.829   4.047  16.193  1.0100  0.5490  0.0908
  213MPD1     C 3286   0.829   4.600  16.012 -0.2183 -0.1195 -0.0629
  213MPD1    C1 3287   0.730   4.507  16.013 -0.1581  0.0885 -0.1852
  213MPD1    C2 3288   0.687   4.483  15.881 -0.2003 -0.5331 -1.1841
  213MPD1    C3 3289   0.721   4.564  15.774  0.3824  0.1914 -0.3828
  213MPD1    C4 3290   0.796   4.676  15.792 -0.4909 -0.3737  0.4566
  213MPD1    C5 3291   0.856   4.686  15.910 -0.3712 -0.5293 -0.4109
  213MPD1     H 3292   0.622   4.399  15.858 -0.8530 -0.7188  1.3207
  213MPD1    H1 3293   0.810   0.010  15.712  1.7594 -0.4483  0.7823
  213MPD1    H2 3294   0.862   4.636  16.109  1.3348  0.5669 -0.8401
  213MPD1    H3 3295   0.924   0.033  15.921 -2.3453  1.1838 -1.3127
  213MPD1     N 3296   0.680   4.524  15.647 -0.5486 -0.1630  0.3149
  213MPD1    H5 3297   0.617   4.445  15.642 -0.9405  0.2788 -1.6756
  213MPD1    N1 3298   0.742   4.395  16.099  0.2650 -0.3097  0.3795
  213MPD1    H6 3299   0.667   4.327  16.083 -0.0113  0.2286 -0.6177
  213MPD1    H7 3300   0.752   4.414  16.198  2.0292 -0.6814  0.2774
  214MPD1     C 3301   0.421   3.720  15.409 -0.6660 -0.1741  1.1980
  214MPD1    C1 3302   0.409   3.779  15.284  0.0914  0.3165 -0.3706
  214MPD1    C2 3303   0.439   3.914  15.265 -0.4856 -0.0471 -0.2236
  214MPD1    C3 3304   0.474   3.996  15.376 -0.4761  0.7647  0.1994
  214MPD1    C4 3305   0.469   3.938  15.501 -0.1875 -0.5212  0.2058
  214MPD1    C5 3306   0.452   3.802  15.516  0.2486 -0.0576 -0.2792
  214MPD1     H 3307   0.440   3.956  15.165  0.6784 -1.0721 -0.6483
  214MPD1    H1 3308   0.500   3.990  15.590  0.3632  0.5307 -0.6010
  214MPD1    H2 3309   0.406   3.614  15.421  0.4016 -0.4686 -0.1043
  214MPD1    H3 3310   0.461   3.758  15.614  0.2718 -0.9999 -0.6936
  214MPD1     N 3311   0.513   4.131  15.373 -0.4797  0.5691 -0.5148
  214MPD1    H5 3312   0.532   4.163  15.468 -0.0303 -1.8049  0.2113
  214MPD1    N1 3313   0.382   3.707  15.171 -0.4892 -0.3236 -0.6148
  214MPD1    H6 3314   0.315   3.635  15.196 -0.4256 -0.6258 -1.3159
  214MPD1    H7 3315   0.331   3.761  15.102 -2.0822 -2.5273 -1.1755
  215MPD1     C 3316   0.366   0.354  10.540 -0.3703  0.1294  0.3204
  215MPD1    C1 3317   0.478   0.363  10.608  0.7405  0.3575  0.3244
  215MPD1    C2 3318   0.519   0.493  10.636  0.0707 -0.3904 -0.1110
  215MPD1    C3 3319   0.468   0.611  10.583  0.1167  0.4407 -0.9181
  215MPD1    C4 3320   0.357   0.593  10.502  0.4321 -0.0729  0.4065
  215MPD1    C5 3321   0.312   0.467  10.482 -0.2746  0.1569  0.0658
  215MPD1     H 3322   0.599   0.511  10.707 -0.2911  0.4742  0.0747
  215MPD1    H1 3323   0.318   0.674  10.442  0.1280 -1.1985 -0.9104
  215MPD1    H2 3324   0.315   0.259  10.527  1.8723 -1.0072 -0.1252
  215MPD1    H3 3325   0.230   0.456  10.411  0.1374  0.1029 -0.4000
  215MPD1     N 3326   0.529   0.731  10.623  0.4493 -0.6499 -0.0617
  215MPD1    H5 3327   0.612   0.714  10.680  0.5495  0.5895  0.1652
  215MPD1    N1 3328   0.531   0.250  10.676  0.0812  0.3183 -1.0048
  215MPD1    H6 3329   0.630   0.263  10.699  0.0754 -1.3714 -0.0319
  215MPD1    H7 3330   0.514   0.166  10.622  0.6667  0.0401 -0.7638
  216MPD1     C 3331   2.328   4.063   0.119 -0.2538  0.3419  0.1412
  216MPD1    C1 3332   2.421   3.987   0.191 -0.0294 -0.2936  0.7829
  216MPD1    C2 3333   2.459   3.864   0.136 -0.5270  0.4334  0.0282
  216MPD1    C3 3334   2.419   3.825   0.012  0.1969  0.0980 -0.1289
  216MPD1    C4 3335   2.345   3.918  17.685 -0.0969 -0.0204 -0.7325
  216MPD1    C5 3336   2.296   4.031  17.742 -0.3781  0.5131  0.4008
  216MPD1     H 3337   2.528   3.795   0.184 -0.1141  1.0741  0.3601
  216MPD1    H1 3338   2.298   3.903  17.588 -2.1879  1.5885  0.0463
  216MPD1    H2 3339   2.277   4.151   0.155 -1.1941 -1.4493  3.1777
  216MPD1    H3 3340   2.233   4.095  17.681 -0.6287  0.4375  0.5780
  216MPD1     N 3341   2.438   3.690  17.719 -0.4970 -0.2287 -0.2275
  216MPD1    H5 3342   2.494   3.628   0.030  2.7538  3.4853  0.6353
  216MPD1    N1 3343   2.457   4.011   0.324  0.0666 -0.4038  0.0270
  216MPD1    H6 3344   2.453   4.112   0.336  1.6675 -0.2876 -0.4277
  216MPD1    H7 3345   2.554   3.987   0.345  0.4285  1.4417  0.4791
  217MPD1     C 3346   4.007   1.296   9.220  0.6659 -0.1355 -0.1735
  217MPD1    C1 3347   4.121   1.226   9.172 -0.2154 -0.9367  0.3148
  217MPD1    C2 3348   4.141   1.088   9.195  0.1250 -0.5686 -0.2138
  217MPD1    C3 3349   4.054   1.022   9.280 -0.3976 -0.2256  0.1111
  217MPD1    C4 3350   3.947   1.093   9.334 -0.1884 -0.0123  0.9967
  217MPD1    C5 3351   3.927   1.225   9.303  0.1052 -0.6840  0.2954
  217MPD1     H 3352   4.214   1.033   9.137 -0.8853 -0.9131 -1.1497
  217MPD1    H1 3353   3.870   1.046   9.394 -0.2879 -0.2175  0.7075
  217MPD1    H2 3354   3.979   1.398   9.200  1.9082  0.1969 -0.2170
  217MPD1    H3 3355   3.834   1.271   9.334  1.5251  1.7229  0.9823
  217MPD1     N 3356   4.063   0.886   9.314  0.3118 -0.0513 -0.5935
  217MPD1    H5 3357   3.995   0.847   9.379  0.1133 -2.0045 -1.9491
  217MPD1    N1 3358   4.196   1.283   9.071 -0.3697  0.2973  0.4288
  217MPD1    H6 3359   4.288   1.240   9.064 -0.3731  0.0021  2.0857
  217MPD1    H7 3360   4.204   1.381   9.099 -2.4580  0.3776  0.7167
  218MPD1     C 3361   0.805   4.363  11.792 -0.1202 -0.9790 -0.3043
  218MPD1    C1 3362   0.728   4.461  11.725 -0.1606 -0.5009  0.1792
  218MPD1    C2 3363   0.750   4.591  11.762 -0.0978  0.0401  0.1223
  218MPD1    C3 3364   0.842   4.625  11.859  0.7472 -0.0060  0.5076
  218MPD1    C4 3365   0.921   4.523  11.912  0.1095 -0.5641 -0.7438
  218MPD1    C5 3366   0.907   4.394  11.872 -0.1518  0.5208  0.7987
  218MPD1     H 3367   0.677   4.670  11.745  1.0365  0.3292 -3.4044
  218MPD1    H1 3368   0.988   4.531  11.997  1.4586  2.6261 -2.0954
  218MPD1    H2 3369   0.790   4.257  11.772 -0.5936 -1.5625  3.1163
  218MPD1    H3 3370   0.968   4.318  11.920 -1.8161 -0.1889  1.7914
  218MPD1     N 3371   0.838   0.024  11.914 -0.7822 -0.3858  0.0212
  218MPD1    H5 3372   0.772   0.093  11.880  0.0243  1.0775  1.4032
  218MPD1    N1 3373   0.612   4.422  11.651  0.1765 -0.1111 -0.6492
  218MPD1    H6 3374   0.619   4.331  11.606  1.8630 -0.4102  0.2143
  218MPD1    H7 3375   0.574   4.488  11.583 -0.9117 -1.6461 -1.5459
  219MPD1     C 3376   0.135   0.561  12.009  0.4020 -0.1295 -0.3388
  219MPD1    C1 3377   0.173   0.550  12.135  0.3662  0.3969 -0.0892
  219MPD1    C2 3378   0.304   0.506  12.162 -0.3176 -0.1800 -0.1719
  219MPD1    C3 3379   0.383   0.462  12.056  0.1305 -0.0845 -0.3256
  219MPD1    C4 3380   0.329   0.453  11.925  0.6299  0.1696 -0.4260
  219MPD1    C5 3381   0.207   0.508  11.904  0.1620  1.0380 -0.5854
  219MPD1     H 3382   0.331   0.493  12.266  0.5754 -2.4901 -0.6926
  219MPD1    H1 3383   0.386   0.392  11.856 -1.1993 -2.4306  0.3671
  219MPD1    H2 3384   0.037   0.597  11.979  0.5734 -0.0230 -0.7657
  219MPD1    H3 3385   0.163   0.512  11.805  0.7235 -0.1697 -0.8777
  219MPD1     N 3386   0.513   0.407  12.069  0.0173 -0.0701  0.0704
  219MPD1    H5 3387   0.555   0.374  11.982  1.6118 -2.7479  1.8588
  219MPD1    N1 3388   0.094   0.609  12.232  0.4737 -0.1548 -0.3338
  219MPD1    H6 3389   0.104   0.563  12.322 -0.2908  0.9547  0.3184
  219MPD1    H7 3390   4.734   0.615  12.200  0.6134 -0.8387 -0.8771
  220MPD1     C 3391   4.517   2.561  10.053 -0.5129 -0.4989  0.6457
  220MPD1    C1 3392   4.649   2.513  10.072  0.3615 -0.0050  0.3822
  220MPD1    C2 3393   4.674   2.376  10.077 -1.0280 -0.2940 -0.6408
  220MPD1    C3 3394   4.575   2.279  10.084 -0.3682  0.0502  0.2249
  220MPD1    C4 3395   4.445   2.325  10.070  0.1228 -0.5015  0.5041
  220MPD1    C5 3396   4.420   2.463  10.058 -0.4868  0.1911  0.3499
  220MPD1     H 3397   0.041   2.347  10.088 -0.9407  0.5170  0.6800
  220MPD1    H1 3398   4.355   2.264  10.070  1.0673 -1.8907  2.4387
  220MPD1    H2 3399   4.497   2.667  10.045 -0.1321 -0.5176 -0.5682
  220MPD1    H3 3400   4.320   2.505  10.048 -0.0590  0.9496 -0.7635
  220MPD1     N 3401   4.614   2.142  10.110  0.7072 -0.3090 -0.2065
  220MPD1    H5 3402   4.713   2.125  10.120  1.0899  2.8678  1.4600
  220MPD1    N1 3403   0.013   2.602  10.067 -0.4951 -0.5030 -0.0071
  220MPD1    H6 3404   4.735   2.682  10.128  0.9110 -0.5701  0.4338
  220MPD1    H7 3405   0.095   2.548  10.093 -0.5660 -0.1727  0.9250
  221MPD1     C 3406   3.350   0.718  16.221  0.3151  0.4749  0.0694
  221MPD1    C1 3407   3.286   0.642  16.125 -0.4949  0.0178 -0.5538
  221MPD1    C2 3408   3.290   0.504  16.152  0.0266 -0.0533  0.3560
  221MPD1    C3 3409   3.363   0.449  16.248  0.2723 -0.4730  0.2939
  221MPD1    C4 3410   3.428   0.529  16.342  0.0105 -0.1839  0.5395
  221MPD1    C5 3411   3.425   0.666  16.323 -0.5290  0.7404 -0.1923
  221MPD1     H 3412   3.244   0.441  16.077 -1.0195  0.1617  0.8245
  221MPD1    H1 3413   3.470   0.481  16.430  1.1061 -0.4825 -0.1510
  221MPD1    H2 3414   3.341   0.825  16.204  0.2483  1.1500  4.3075
  221MPD1    H3 3415   3.474   0.733  16.393  1.6425 -2.3003  1.2081
  221MPD1     N 3416   3.388   0.312  16.256  0.4778  0.2839  0.9308
  221MPD1    H5 3417   3.465   0.281  16.315  1.8081  1.0692 -0.3910
  221MPD1    N1 3418   3.207   0.695  16.027  0.3488 -0.4321 -0.5187
  221MPD1    H6 3419   3.247   0.786  16.004 -0.3537 -0.0029 -0.0562
  221MPD1    H7 3420   3.197   0.634  15.946  0.5295  0.8846 -1.5364
  222MPD1     C 3421   3.046   3.456  17.500  0.0881 -0.3594 -0.4177
  222MPD1    C1 3422   2.972   3.483  17.390 -0.2629 -0.1019 -0.2231
  222MPD1    C2 3423   2.900   3.601  17.393 -0.2495 -0.5292 -0.0432
  222MPD1    C3 3424   2.868   3.669  17.520 -0.2402  0.0890  0.4151
  222MPD1    C4 3425   2.923   3.618  17.629  0.1008  0.7175  0.0237
  222MPD1    C5 3426   3.013   3.512  17.624 -0.1963 -0.3250  0.2914
  222MPD1     H 3427   2.848   3.640  17.306  0.8706 -1.5228 -1.1511
  222MPD1    H1 3428   2.905   3.650  17.731  3.3272  0.9458  0.5217
  222MPD1    H2 3429   3.113   3.371  17.505 -0.0591 -0.4950 -0.7567
  222MPD1    H3 3430   3.075   3.485  17.709 -1.7917 -0.5166  1.4128
  222MPD1     N 3431   2.787   3.779  17.532 -0.4124  0.2625 -0.4555
  222MPD1    H5 3432   2.783   3.817  17.626 -1.8307  0.7265 -0.7101
  222MPD1    N1 3433   2.986   3.422  17.271  0.9050  0.5790  0.4417
  222MPD1    H6 3434   3.016   3.324  17.279 -0.9138 -0.0863 -1.0749
  222MPD1    H7 3435   2.894   3.422  17.230  0.9344  2.1261  0.3789
  223MPD1     C 3436   2.266   4.316  16.853  0.1973  0.8461  0.3959
  223MPD1    C1 3437   2.367   4.218  16.841 -0.2898 -0.1182  0.2017
  223MPD1    C2 3438   2.413   4.162  16.954  0.3892 -0.1186  0.9137
  223MPD1    C3 3439   2.373   4.206  17.082 -0.5135 -0.5966  0.2450
  223MPD1    C4 3440   2.268   4.297  17.090  0.5936  0.1334  0.3100
  223MPD1    C5 3441   2.219   4.356  16.972  0.0150  0.5245  0.3585
  223MPD1     H 3442   2.479   4.078  16.938  0.2404  0.1772 -1.2702
  223MPD1    H1 3443   2.218   4.326  17.182  0.7297 -1.3422  0.8404
  223MPD1    H2 3444   2.229   4.354  16.758  0.8420 -1.1769 -0.6592
  223MPD1    H3 3445   2.139   4.428  16.976  1.5390  2.3184 -1.4004
  223MPD1     N 3446   2.432   4.150  17.202 -0.2779  0.5072 -0.3163
  223MPD1    H5 3447   2.510   4.086  17.188 -0.4764 -0.0734  1.1540
  223MPD1    N1 3448   2.408   4.174  16.716 -0.0666 -0.0427  0.6469
  223MPD1    H6 3449   2.409   4.255  16.656  0.3531 -0.7101 -0.2429
  223MPD1    H7 3450   2.504   4.141  16.726  0.4264  1.6920  1.5860
  224MPD1     C 3451   4.524   1.429   9.457 -0.2161 -0.4309 -0.3604
  224MPD1    C1 3452   4.600   1.321   9.484 -0.1743 -0.5740 -0.2007
  224MPD1    C2 3453   4.535   1.196   9.477 -0.3990 -0.1373 -0.0905
  224MPD1    C3 3454   4.400   1.187   9.465  0.3780 -0.3207 -0.2122
  224MPD1    C4 3455   4.327   1.295   9.456 -0.5391  0.8413 -0.6227
  224MPD1    C5 3456   4.390   1.415   9.444 -0.0340 -0.5545 -0.1067
  224MPD1     H 3457   4.592   1.105   9.462 -0.5722 -0.2056 -0.3219
  224MPD1    H1 3458   4.219   1.284   9.446 -0.5621  1.1521 -0.7409
  224MPD1    H2 3459   4.573   1.521   9.426 -0.1047 -0.0503  0.9508
  224MPD1    H3 3460   4.333   1.494   9.397 -0.3598 -0.1111  1.0304
  224MPD1     N 3461   4.328   1.068   9.473  0.4890 -0.1391 -0.1846
  224MPD1    H5 3462   4.227   1.070   9.463  0.3885  2.3456  1.3205
  224MPD1    N1 3463   0.008   1.324   9.461  0.3203  0.2960 -0.5930
  224MPD1    H6 3464   0.052   1.248   9.512 -2.3862 -0.1679  1.0490
  224MPD1    H7 3465   0.055   1.413   9.477  0.5729  0.4706 -2.2971
  225MPD1     C 3466   0.838   1.727  12.696  0.3817 -0.3417 -0.3823
  225MPD1    C1 3467   0.789   1.606  12.668 -0.1580  0.6524  0.1089
  225MPD1    C2 3468   0.660   1.580  12.687  0.1140  0.3618  0.2513
  225MPD1    C3 3469   0.583   1.670  12.760 -0.6726 -0.0157 -0.3768
  225MPD1    C4 3470   0.638   1.784  12.801 -0.2439 -0.1364 -0.4505
  225MPD1    C5 3471   0.764   1.818  12.761  0.0340  0.6149  0.1052
  225MPD1     H 3472   0.630   1.482  12.652  0.3175  0.4462 -0.1689
  225MPD1    H1 3473   0.581   1.856  12.858 -0.6405 -0.2943 -0.6492
  225MPD1    H2 3474   0.938   1.748  12.660  0.5165  1.4384  1.0508
  225MPD1    H3 3475   0.803   1.916  12.788 -0.5390  0.5776  1.0754
  225MPD1     N 3476   0.444   1.648  12.784 -0.1770 -0.4370 -1.1811
  225MPD1    H5 3477   0.394   1.733  12.810 -2.5475 -2.0560 -0.4745
  225MPD1    N1 3478   0.861   1.538  12.573 -0.1993 -0.3281 -0.0672
  225MPD1    H6 3479   0.843   1.438  12.577 -0.3482 -0.2304  1.7676
  225MPD1    H7 3480   0.961   1.555  12.574 -0.3217  0.0767  3.0476
  226MPD1     C 3481   2.840   2.084   9.963 -0.1736  0.6904 -0.6405
  226MPD1    C1 3482   2.864   1.979   9.877 -0.2060  0.0846 -0.3310
  226MPD1    C2 3483   2.996   1.937   9.855  0.3317 -0.4928  0.2921
  226MPD1    C3 3484   3.098   2.022   9.896 -0.6940 -0.3629  0.5686
  226MPD1    C4 3485   3.077   2.128   9.984  0.1110  0.1028  0.5416
  226MPD1    C5 3486   2.945   2.160  10.012  0.0822  0.2967 -0.6238
  226MPD1     H 3487   3.021   1.863   9.781 -2.0362  0.9185 -1.9061
  226MPD1    H1 3488   3.154   2.196  10.019  0.5403 -0.9023  1.5565
  226MPD1    H2 3489   2.738   2.099   9.998 -0.5507  1.4140 -2.0429
  226MPD1    H3 3490   2.935   2.233  10.091 -1.8203 -1.4196  0.7316
  226MPD1     N 3491   3.226   1.989   9.851  0.1672 -0.4852  1.0318
  226MPD1    H5 3492   3.233   1.904   9.797 -0.8628  2.5426 -3.9344
  226MPD1    N1 3493   2.753   1.898   9.844  0.2278 -0.1495 -0.2216
  226MPD1    H6 3494   2.661   1.940   9.856  0.1969 -0.2371 -0.1468
  226MPD1    H7 3495   2.758   1.850   9.755  1.4277 -0.7606  0.1751
  227MPD1     C 3496   4.121   2.499   9.705  0.0811 -0.6948 -0.1759
  227MPD1    C1 3497   4.011   2.530   9.636 -0.4849 -0.0950  0.5990
  227MPD1    C2 3498   3.902   2.441   9.637  0.3412 -0.2626  0.0359
  227MPD1    C3 3499   3.913   2.312   9.696  0.4764  0.0534 -0.2271
  227MPD1    C4 3500   4.028   2.275   9.758  0.6884  0.8651 -0.2571
  227MPD1    C5 3501   4.127   2.370   9.762  0.0837 -0.3432  0.0541
  227MPD1     H 3502   3.814   2.465   9.579  0.6025 -1.1759 -0.7307
  227MPD1    H1 3503   4.055   2.181   9.804  3.5491  0.6528 -2.3469
  227MPD1    H2 3504   4.202   2.571   9.707 -0.7430  0.2464 -1.0985
  227MPD1    H3 3505   4.217   2.330   9.808 -0.8437 -2.9827 -0.4159
  227MPD1     N 3506   3.809   2.220   9.697  0.0259 -0.3605 -0.3605
  227MPD1    H5 3507   3.719   2.263   9.677 -0.5698 -1.2933  0.3058
  227MPD1    N1 3508   4.001   2.658   9.570 -0.3674  0.7039  0.4298
  227MPD1    H6 3509   3.928   2.653   9.500  0.5375 -0.0448 -0.4586
  227MPD1    H7 3510   4.090   2.683   9.528 -1.6793  1.3746 -1.9577
  228MPD1     C 3511   2.367   3.918  13.217  0.1206  0.7036 -0.2311
  228MPD1    C1 3512   2.297   3.940  13.340 -0.0829 -0.1740 -1.1433
  228MPD1    C2 3513   2.161   3.964  13.334  0.5364  0.6360  0.5988
  228MPD1    C3 3514   2.096   3.991  13.215 -0.1004  0.5562  0.0569
  228MPD1    C4 3515   2.166   3.986  13.101  0.6084  0.5345  0.2681
  228MPD1    C5 3516   2.301   3.940  13.104 -0.2338  0.1433  0.0721
  228MPD1     H 3517   2.110   3.975  13.429 -0.2961 -2.8131  0.5469
  228MPD1    H1 3518   2.116   3.999  13.006  0.1303 -1.9164  0.1847
  228MPD1    H2 3519   2.466   3.875  13.208 -0.7181 -1.5973  1.4337
  228MPD1    H3 3520   2.349   3.920  13.008  1.7681  0.6237  0.9686
  228MPD1     N 3521   1.956   4.023  13.216  0.3945  0.2210 -0.2269
  228MPD1    H5 3522   1.908   3.986  13.298  0.5469 -0.7193 -0.5637
  228MPD1    N1 3523   2.364   3.904  13.460  0.1312 -0.5852  0.0597
  228MPD1    H6 3524   2.325   3.949  13.543 -1.7723 -1.3453 -0.4113
  228MPD1    H7 3525   2.461   3.934  13.464  0.5292 -2.0294  1.2354
  229MPD1     C 3526   1.701   3.319  14.705 -0.7217  0.0954  0.1467
  229MPD1    C1 3527   1.644   3.196  14.688 -0.2549 -0.0801 -0.1035
  229MPD1    C2 3528   1.661   3.112  14.802  0.3704 -0.3798  0.9468
  229MPD1    C3 3529   1.737   3.150  14.910  0.1914  0.4862 -0.4087
  229MPD1    C4 3530   1.804   3.266  14.905  0.2244  0.0368 -0.2351
  229MPD1    C5 3531   1.774   3.363  14.817 -0.0428  0.5619 -0.2119
  229MPD1     H 3532   1.607   3.018  14.797 -0.8997  0.2530  2.9459
  229MPD1    H1 3533   1.889   3.290  14.968 -0.4571  1.3129  0.2005
  229MPD1    H2 3534   1.696   3.403  14.637 -0.1280 -0.5805 -0.7270
  229MPD1    H3 3535   1.817   3.459  14.840  1.1782  0.1798 -0.9056
  229MPD1     N 3536   1.746   3.073  15.032 -0.1949 -0.6966 -0.4585
  229MPD1    H5 3537   1.826   3.105  15.085 -1.3289 -0.5877  1.1605
  229MPD1    N1 3538   1.538   3.179  14.595  0.3127 -0.1767 -0.2942
  229MPD1    H6 3539   1.519   3.079  14.595  0.4413 -0.2053  0.9839
  229MPD1    H7 3540   1.550   3.217  14.501 -0.0001 -0.1490 -0.3224
  230MPD1     C 3541   2.238   3.281  15.687 -0.3673 -0.4029 -0.5545
  230MPD1    C1 3542   2.176   3.336  15.580  0.6048 -0.0363 -0.0142
  230MPD1    C2 3543   2.115   3.253  15.483 -0.4572 -0.1866 -0.1081
  230MPD1    C3 3544   2.117   3.117  15.501 -0.1185 -0.1622 -0.2121
  230MPD1    C4 3545   2.192   3.060  15.604 -0.1911 -0.6233  0.3133
  230MPD1    C5 3546   2.249   3.142  15.696  0.2164 -0.4738  0.4849
  230MPD1     H 3547   2.058   3.296  15.401 -1.5388 -1.0904  0.1608
  230MPD1    H1 3548   2.223   2.956  15.604 -1.5595 -1.0428  1.9348
  230MPD1    H2 3549   2.288   3.335  15.767 -2.5530  0.4579  0.2281
  230MPD1    H3 3550   2.306   3.100  15.778  0.9041 -1.6249 -0.5951
  230MPD1     N 3551   2.045   3.041  15.399 -0.1640  0.1490 -0.0610
  230MPD1    H5 3552   2.011   3.098  15.323 -2.2067  0.6586  1.2273
  230MPD1    N1 3553   2.148   3.471  15.575 -0.0909 -0.7720 -0.1936
  230MPD1    H6 3554   2.212   3.527  15.631 -1.7293  1.9158 -0.9883
  230MPD1    H7 3555   2.160   3.506  15.479  1.0012 -0.9548 -0.1323
  231MPD1     C 3556   0.622   0.403  15.258 -0.3505 -0.5796  0.4097
  231MPD1    C1 3557   0.576   0.275  15.233 -0.1683 -0.1640 -0.3571
  231MPD1    C2 3558   0.537   0.243  15.106 -0.4062  1.2049 -0.6546
  231MPD1    C3 3559   0.550   0.334  15.004 -0.5696  0.5075  0.4308
  231MPD1    C4 3560   0.582   0.458  15.034 -0.6030  0.1245 -0.3474
  231MPD1    C5 3561   0.623   0.494  15.162 -0.0360  0.3172 -0.6768
  231MPD1     H 3562   0.524   0.138  15.084  0.0630  1.5125 -2.3945
  231MPD1    H1 3563   0.594   0.529  14.952 -2.3693  1.0868  0.2248
  231MPD1    H2 3564   0.664   0.424  15.355  0.3317  1.2715 -0.2838
  231MPD1    H3 3565   0.667   0.592  15.177 -2.4892  1.8061 -3.1347
  231MPD1     N 3566   0.547   0.290  14.868 -0.3288  0.3607  0.0073
  231MPD1    H5 3567   0.525   0.191  14.858  0.0442  0.6708 -4.1903
  231MPD1    N1 3568   0.582   0.175  15.331 -0.3993  0.2625  0.1198
  231MPD1    H6 3569   0.493   0.126  15.339 -0.7919  0.7798 -1.1139
  231MPD1    H7 3570   0.604   0.220  15.420 -2.3848  0.9097  0.2754
  232MPD1     C 3571   1.713   3.733   0.499  0.1662  0.4615  0.5875
  232MPD1    C1 3572   1.583   3.701   0.542 -0.2543 -0.0994 -0.2143
  232MPD1    C2 3573   1.536   3.576   0.522  0.1769  0.0880  0.1119
  232MPD1    C3 3574   1.626   3.473   0.485 -0.7528  0.7448 -0.3964
  232MPD1    C4 3575   1.760   3.504   0.449  0.1917 -0.0638 -0.7232
  232MPD1    C5 3576   1.794   3.632   0.446 -0.1313  0.2207 -0.3264
  232MPD1     H 3577   1.434   3.552   0.550  0.8436 -1.8793  0.8060
  232MPD1    H1 3578   1.832   3.431   0.410  0.4176 -0.5214  0.5589
  232MPD1    H2 3579   1.751   3.834   0.508  3.3043 -0.5631 -1.3180
  232MPD1    H3 3580   1.895   3.663   0.418 -0.8103  1.6766 -1.1705
  232MPD1     N 3581   1.574   3.336   0.484  0.5345  0.4175  0.6587
  232MPD1    H5 3582   1.474   3.323   0.497  0.5357  0.3360  0.5833
  232MPD1    N1 3583   1.501   3.814   0.573  0.3835 -0.4466  0.4282
  232MPD1    H6 3584   1.551   3.897   0.606  1.2294 -0.2768 -1.2681
  232MPD1    H7 3585   1.436   3.786   0.647 -0.8822 -1.7438 -1.1832
  233MPD1     C 3586   1.745   0.483   1.774 -0.0509 -0.5680 -0.1166
  233MPD1    C1 3587   1.812   0.409   1.680  0.3855 -0.2070 -0.7008
  233MPD1    C2 3588   1.930   0.464   1.627 -0.2586  0.2224  0.5860
  233MPD1    C3 3589   1.957   0.603   1.641 -0.1074 -0.0441 -0.9695
  233MPD1    C4 3590   1.865   0.679   1.713 -0.4030 -0.0229  0.2987
  233MPD1    C5 3591   1.771   0.615   1.782  0.4585 -0.1881  0.0692
  233MPD1     H 3592   1.992   0.394   1.572 -0.5959 -0.3249  0.9035
  233MPD1    H1 3593   1.870   0.786   1.727 -0.9128  0.1334 -0.7399
  233MPD1    H2 3594   1.666   0.430   1.826 -0.4510 -0.2618 -0.4156
  233MPD1    H3 3595   1.717   0.669   1.859  0.0928  0.5399 -0.7081
  233MPD1     N 3596   2.066   0.669   1.576  0.2437  0.0946  0.7440
  233MPD1    H5 3597   2.093   0.763   1.604  0.3317 -0.2223  1.7283
  233MPD1    N1 3598   1.784   0.275   1.672  0.1723 -0.1504  0.1184
  233MPD1    H6 3599   1.697   0.239   1.709 -0.4154  0.5379 -0.6027
  233MPD1    H7 3600   1.813   0.233   1.584 -0.6943 -3.5315  1.4571
  234MPD1     C 3601   4.456   3.914   9.436  0.6073 -0.2298  0.1747
  234MPD1    C1 3602   4.527   3.924   9.557 -0.5363  0.4859  0.0426
  234MPD1    C2 3603   4.593   4.044   9.583 -0.3214  0.5506  0.6374
  234MPD1    C3 3604   4.603   4.144   9.491  0.3757  0.8716 -0.4017
  234MPD1    C4 3605   4.538   4.131   9.364 -0.0648  0.5963 -0.0417
  234MPD1    C5 3606   4.456   4.021   9.348  0.4355 -0.6464 -0.3519
  234MPD1     H 3607   4.646   4.051   9.677 -1.0928  1.1522  1.0245
  234MPD1    H1 3608   4.531   4.206   9.286 -2.3502 -0.4361 -0.8182
  234MPD1    H2 3609   4.382   3.836   9.424  2.3329 -1.5800 -1.7025
  234MPD1    H3 3610   4.407   4.001   9.254 -0.9824 -0.9807  0.4666
  234MPD1     N 3611   4.676   4.257   9.533  0.1296 -0.0514  0.0466
  234MPD1    H5 3612   4.711   4.259   9.628 -1.1139  1.0690  0.4902
  234MPD1    N1 3613   4.509   3.825   9.655  0.2351  0.1446 -0.4895
  234MPD1    H6 3614   4.589   3.813   9.717  0.5892  0.3549 -0.9085
  234MPD1    H7 3615   4.512   3.738   9.602  0.6225  0.7684 -1.5089
  235MPD1     C 3616   1.245   1.510  10.181 -0.1441  0.0432  0.3813
  235MPD1    C1 3617   1.300   1.575  10.072  0.0627 -0.1923 -0.1873
  235MPD1    C2 3618   1.356   1.702  10.086  0.0548 -0.0991 -0.3713
  235MPD1    C3 3619   1.346   1.770  10.207 -0.2687  0.2978 -0.0529
  235MPD1    C4 3620   1.293   1.695  10.314 -0.5630  0.5071 -0.4018
  235MPD1    C5 3621   1.258   1.564  10.307 -0.0479  0.7030 -0.0647
  235MPD1     H 3622   1.409   1.750  10.004  2.9470  1.0498  2.1702
  235MPD1    H1 3623   1.283   1.739  10.413 -0.7668  2.0774 -1.1401
  235MPD1    H2 3624   1.215   1.407  10.167 -1.7443  0.4695  0.6500
  235MPD1    H3 3625   1.226   1.504  10.391  0.6826 -0.7727 -0.8427
  235MPD1     N 3626   1.389   1.894  10.219  0.1748  0.4209  0.1469
  235MPD1    H5 3627   1.424   1.925  10.129 -1.5398  1.2299 -0.2431
  235MPD1    N1 3628   1.309   1.518   9.946  0.2687 -0.6072 -0.6070
  235MPD1    H6 3629   1.355   1.577   9.878  1.5240 -1.2981 -0.3629
  235MPD1    H7 3630   1.303   1.418   9.927 -0.5211 -0.5335 -0.7725
  236MPD1     C 3631   0.064   3.227   9.948  0.7397  0.4334 -0.8680
  236MPD1    C1 3632   0.108   3.352   9.987  0.1684 -0.8192 -0.5364
  236MPD1    C2 3633   0.232   3.368  10.042 -0.8240  0.1380 -0.3151
  236MPD1    C3 3634   0.309   3.265  10.075 -0.2906 -0.5033  0.0207
  236MPD1    C4 3635   0.271   3.140  10.031 -0.7075  0.2212  0.4818
  236MPD1    C5 3636   0.156   3.126   9.963 -0.7203 -0.1111  0.0914
  236MPD1     H 3637   0.270   3.469  10.058 -0.1441 -0.1964  0.1917
  236MPD1    H1 3638   0.338   3.055  10.044 -0.7311  0.1876  0.3841
  236MPD1    H2 3639   4.713   3.209   9.887  1.1900 -0.8933 -1.1502
  236MPD1    H3 3640   0.115   3.032   9.929  0.1519 -0.9421  1.3635
  236MPD1     N 3641   0.437   3.268  10.138 -0.0335  0.0049 -0.0137
  236MPD1    H5 3642   0.482   3.180  10.164 -1.0817 -0.6213 -0.3108
  236MPD1    N1 3643   0.033   3.467   9.951 -0.2988 -0.1828 -0.1906
  236MPD1    H6 3644   0.050   3.553  10.003 -2.2373  1.0920 -1.6545
  236MPD1    H7 3645   4.670   3.455   9.942 -0.1849 -0.5582 -1.0103
  237MPD1     C 3646   0.934   0.894  14.438  0.0913 -0.0096  0.0714
  237MPD1    C1 3647   0.964   1.024  14.479  0.0064  0.2419  0.3520
  237MPD1    C2 3648   0.883   1.064  14.588 -0.6699 -0.4036  0.9897
  237MPD1    C3 3649   0.808   0.972  14.657 -0.1609  0.3511 -0.0916
  237MPD1    C4 3650   0.801   0.838  14.623 -0.3928 -0.1491  1.3095
  237MPD1    C5 3651   0.852   0.802  14.508  0.1681 -0.0836  0.0967
  237MPD1     H 3652   0.897   1.169  14.612  1.0272 -0.4479  0.1770
  237MPD1    H1 3653   0.740   0.765  14.676 -1.3679 -1.1901 -1.2487
  237MPD1    H2 3654   0.966   0.861  14.341  0.2009 -1.1097  0.4874
  237MPD1    H3 3655   0.831   0.704  14.467  1.1834 -0.1802 -0.1912
  237MPD1     N 3656   0.722   1.010  14.758 -0.5590  0.1431 -0.1346
  237MPD1    H5 3657   0.676   0.935  14.808  0.1250 -1.2661 -1.6368
  237MPD1    N1 3658   1.034   1.119  14.403 -0.0757 -0.0217  0.6928
  237MPD1    H6 3659   1.075   1.197  14.454  0.2258 -0.9829  1.9067
  237MPD1    H7 3660   1.120   1.081  14.364  0.4790 -0.9393  2.8153
  238MPD1     C 3661   2.468   4.507  15.134  0.1791 -0.7405 -0.7275
  238MPD1    C1 3662   2.393   4.409  15.184  0.0285  0.1699  0.2387
  238MPD1    C2 3663   2.258   4.414  15.156  0.6648  0.0126 -0.2690
  238MPD1    C3 3664   2.211   4.493  15.048  0.0339  0.4510 -0.3315
  238MPD1    C4 3665   2.295   4.586  14.993  0.3523 -0.1040  0.8343
  238MPD1    C5 3666   2.426   4.587  15.032  0.4554  0.1361  0.6246
  238MPD1     H 3667   2.203   4.323  15.175 -0.2376  0.0717 -2.6059
  238MPD1    H1 3668   2.265   4.659  14.919  1.0036 -1.1082 -0.4278
  238MPD1    H2 3669   2.574   4.512  15.151  0.2076  2.4083 -1.7518
  238MPD1    H3 3670   2.494   4.666  15.002  2.0617 -0.8324  1.6963
  238MPD1     N 3671   2.086   4.474  14.983 -0.1987 -0.1572 -0.1152
  238MPD1    H5 3672   2.065   4.549  14.918 -1.1903  0.6661  1.1499
  238MPD1    N1 3673   2.443   4.343  15.298  0.5974  0.1438 -0.1073
  238MPD1    H6 3674   2.536   4.303  15.286 -0.1228 -1.7357  0.7014
  238MPD1    H7 3675   2.388   4.262  15.324  0.3268  0.3188 -0.1299
  239MPD1     C 3676   2.302   0.181  14.704  0.7790  0.5425 -0.0646
  239MPD1    C1 3677   2.230   0.271  14.784 -0.2240  0.2668  0.0466
  239MPD1    C2 3678   2.174   0.382  14.722  0.0132 -0.3001  0.0821
  239MPD1    C3 3679   2.187   0.412  14.586  0.3782  0.4468 -0.0424
  239MPD1    C4 3680   2.257   0.322  14.509 -0.1216 -0.5929 -0.1409
  239MPD1    C5 3681   2.312   0.208  14.570  0.5885 -0.1955  0.3427
  239MPD1     H 3682   2.103   0.436  14.783  1.0207  3.1745 -1.8504
  239MPD1    H1 3683   2.270   0.334  14.402  2.5876 -1.2412  0.1187
  239MPD1    H2 3684   2.359   0.096  14.739  1.2941  0.2027 -1.7457
  239MPD1    H3 3685   2.364   0.135  14.509 -1.0052 -0.6390 -0.4581
  239MPD1     N 3686   2.140   0.526  14.517  0.5764  0.8408  0.1190
  239MPD1    H5 3687   2.166   0.520  14.420 -0.6178  1.1874 -0.2283
  239MPD1    N1 3688   2.193   0.227  14.911 -0.6331  0.0027 -0.0357
  239MPD1    H6 3689   2.281   0.185  14.941 -1.6179 -0.1356  2.6283
  239MPD1    H7 3690   2.167   0.305  14.971  2.8673  2.1722 -1.3829
  240MPD1     C 3691   1.869   0.356  13.749  1.0419 -0.5027  0.7381
  240MPD1    C1 3692   1.737   0.329  13.766 -0.1655 -0.6775 -0.0780
  240MPD1    C2 3693   1.689   0.307  13.893 -0.2674 -0.5903 -0.4261
  240MPD1    C3 3694   1.761   0.315  14.009 -0.5096  0.0669 -0.0770
  240MPD1    C4 3695   1.899   0.314  13.984  0.1584 -0.3886  0.0493
  240MPD1    C5 3696   1.949   0.342  13.858  0.1375 -0.2244 -0.5548
  240MPD1     H 3697   1.584   0.283  13.908 -0.3471  0.1818  0.2416
  240MPD1    H1 3698   1.976   0.311  14.060 -0.7293  2.8801  1.1068
  240MPD1    H2 3699   1.916   0.366  13.652 -2.4169  0.1432 -0.8670
  240MPD1    H3 3700   2.056   0.343  13.842  0.3335 -0.8907  0.7238
  240MPD1     N 3701   1.704   0.284  14.132 -0.2389 -0.4556  0.5273
  240MPD1    H5 3702   1.603   0.278  14.143 -0.5268 -1.4491 -2.5653
  240MPD1    N1 3703   1.647   0.335  13.654  0.9503  0.1468  0.1995
  240MPD1    H6 3704   1.561   0.281  13.666  0.4345  1.3602  1.9300
  240MPD1    H7 3705   1.697   0.321  13.566  0.3197  2.0046 -0.4517
  241MPD1     C 3706   1.863   0.501  15.140 -0.2506  0.8357 -0.1047
  241MPD1    C1 3707   1.768   0.405  15.130  0.4430 -0.7748  1.1587
  241MPD1    C2 3708   1.734   0.351  15.008  0.4716  0.3920 -0.1553
  241MPD1    C3 3709   1.795   0.392  14.894 -0.4913 -0.4316  0.1693
  241MPD1    C4 3710   1.887   0.492  14.909  0.1001 -0.2830 -0.2359
  241MPD1    C5 3711   1.924   0.540  15.025 -0.2155 -0.6036  0.1362
  241MPD1     H 3712   1.661   0.270  15.006  1.4284 -0.4921  0.4254
  241MPD1    H1 3713   1.928   0.535  14.819  1.0310  2.9668  1.7139
  241MPD1    H2 3714   1.898   0.542  15.234  0.9346 -0.3482 -0.0116
  241MPD1    H3 3715   1.997   0.620  15.035 -1.0494 -0.0540  1.8100
  241MPD1     N 3716   1.749   0.357  14.769 -0.2417 -0.3096  0.2916
  241MPD1    H5 3717   1.768   0.420  14.692 -1.2015 -0.2372  0.1126
  241MPD1    N1 3718   1.687   0.369  15.234  0.0045  0.3024 -0.1166
  241MPD1    H6 3719   1.753   0.342  15.306 -1.6589  1.9928  2.0252
  241MPD1    H7 3720   1.626   0.291  15.208  0.3537 -0.1061  0.2994
  242MPD1     C 3721   1.600   3.450  16.129 -0.5463  0.3285  1.0106
  242MPD1    C1 3722   1.479   3.440  16.064 -0.3276 -0.4355 -0.0828
  242MPD1    C2 3723   1.478   3.450  15.925 -0.3835  0.6683 -0.0745
  242MPD1    C3 3724   1.597   3.458  15.849  1.0776  0.3588  0.1368
  242MPD1    C4 3725   1.715   3.459  15.917 -0.3039 -0.3221  0.2601
  242MPD1    C5 3726   1.717   3.462  16.054 -0.5864  0.5465  1.0416
  242MPD1     H 3727   1.380   3.465  15.881 -0.2137 -1.7732 -1.3052
  242MPD1    H1 3728   1.804   3.483  15.860 -0.4330 -1.2273 -0.3209
  242MPD1    H2 3729   1.607   3.466  16.235  0.1271 -3.6077  1.5695
  242MPD1    H3 3730   1.813   3.480  16.101 -0.4705  0.7983  0.7098
  242MPD1     N 3731   1.598   3.472  15.712  0.1861  0.1061  0.0455
  242MPD1    H5 3732   1.694   3.475  15.680  0.5181 -1.3146  0.8728
  242MPD1    N1 3733   1.366   3.454  16.137 -0.7510 -0.6146 -0.1014
  242MPD1    H6 3734   1.377   3.412  16.229 -1.1240  0.8062  0.5922
  242MPD1    H7 3735   1.279   3.420  16.098 -0.4187  0.4958 -1.7953
  243MPD1     C 3736   2.452   2.948  17.672 -0.0718  0.0690  0.1603
  243MPD1    C1 3737   2.545   2.903  17.583 -0.1696 -0.2451 -0.6157
  243MPD1    C2 3738   2.531   2.772  17.549 -0.3630 -0.3398 -0.0794
  243MPD1    C3 3739   2.434   2.683  17.592 -0.0021  0.2323  0.3028
  243MPD1    C4 3740   2.345   2.731  17.686 -0.1214 -0.3893  0.0649
  243MPD1    C5 3741   2.364   2.858  17.721 -1.1155 -0.0836 -0.1867
  243MPD1     H 3742   2.609   2.740  17.480 -1.9639 -1.1226 -1.5308
  243MPD1    H1 3743   2.273   2.666  17.735  0.4491  1.8485  3.8568
  243MPD1    H2 3744   2.454   3.050  17.710 -0.6053  0.0594  0.2112
  243MPD1    H3 3745   2.295   2.899   0.047  0.9654  0.7156  1.2962
  243MPD1     N 3746   2.449   2.552  17.537  0.6449  0.0568  0.4870
  243MPD1    H5 3747   2.524   2.544  17.469 -1.6102 -1.7638 -1.7784
  243MPD1    N1 3748   2.656   2.982  17.541 -0.4543 -0.5500 -0.5081
  243MPD1    H6 3749   2.656   3.072  17.588  0.5800 -0.6824 -0.2738
  243MPD1    H7 3750   2.746   2.941  17.566 -0.4927 -1.2524 -1.5251
  244MPD1     C 3751   2.720   1.757   0.250 -0.4866 -0.2332 -0.1077
  244MPD1    C1 3752   2.818   1.843   0.207  0.1815  0.2388  1.0183
  244MPD1    C2 3753   2.781   1.931   0.113  0.0482  0.0596  0.4908
  244MPD1    C3 3754   2.668   1.920   0.035 -0.7970 -0.8577  0.8637
  244MPD1    C4 3755   2.584   1.815   0.063  0.5706 -0.1628 -0.2607
  244MPD1    C5 3756   2.605   1.737   0.174 -0.7017  0.4821 -0.5006
  244MPD1     H 3757   2.848   2.013   0.092 -0.2938  0.2075 -0.0121
  244MPD1    H1 3758   2.490   1.794   0.011 -0.5735  4.0590  0.1318
  244MPD1    H2 3759   2.734   1.686   0.330  1.5578  0.0671 -0.1986
  244MPD1    H3 3760   2.538   1.658   0.206  0.9781 -1.0601 -0.7284
  244MPD1     N 3761   2.648   2.013  17.678  0.4892 -0.4030  0.4662
  244MPD1    H5 3762   2.727   2.070  17.646  0.9760 -1.1799  0.2797
  244MPD1    N1 3763   2.927   1.863   0.292 -0.6799 -0.2146 -0.2435
  244MPD1    H6 3764   2.946   1.775   0.340 -0.0021 -1.2891 -2.5303
  244MPD1    H7 3765   3.014   1.886   0.245  1.4185 -2.0758  2.7071
  245MPD1     C 3766   4.422   2.541  13.183 -0.1029 -0.0328 -0.5633
  245MPD1    C1 3767   4.502   2.511  13.293  0.2087  0.5744 -0.0778
  245MPD1    C2 3768   4.614   2.595  13.310  0.7263  0.1862  0.0649
  245MPD1    C3 3769   4.640   2.706  13.232 -0.0038  0.5432  0.8681
  245MPD1    C4 3770   4.581   2.706  13.107 -0.3319  0.7889  0.3028
  245MPD1    C5 3771   4.472   2.624  13.086  0.1784 -0.1927  0.2371
  245MPD1     H 3772   4.666   2.591  13.405 -1.1614  1.3254  1.1501
  245MPD1    H1 3773   4.624   2.764  13.025  0.0195  1.3619  0.8950
  245MPD1    H2 3774   4.338   2.477  13.161 -1.6863  1.3543  1.3639
  245MPD1    H3 3775   4.420   2.628  12.991 -0.5094 -0.0450  0.6182
  245MPD1     N 3776   4.731   2.805  13.278 -0.1323  0.4581  0.4450
  245MPD1    H5 3777   0.040   2.789  13.367  0.6905  1.6776  0.2365
  245MPD1    N1 3778   4.484   2.388  13.361  0.2189 -0.1541 -0.2028
  245MPD1    H6 3779   4.394   2.342  13.344  0.5422 -0.8950  0.0522
  245MPD1    H7 3780   4.478   2.407  13.461 -0.1897 -1.0963 -0.0372
  246MPD1     C 3781   1.449   3.899   9.111 -0.1051  0.4419 -0.1423
  246MPD1    C1 3782   1.344   3.926   9.197 -0.3224 -0.3400 -0.2951
  246MPD1    C2 3783   1.362   4.044   9.270 -0.8668 -0.2684  0.5525
  246MPD1    C3 3784   1.461   4.138   9.247 -0.4850  0.6803  0.4561
  246MPD1    C4 3785   1.554   4.106   9.147 -0.3464  0.5545  0.0352
  246MPD1    C5 3786   1.549   3.990   9.078 -0.0448 -0.0525  0.4776
  246MPD1     H 3787   1.299   4.063   9.356 -1.6640  0.0546 -0.0994
  246MPD1    H1 3788   1.641   4.170   9.143  0.4024 -0.3555  1.8586
  246MPD1    H2 3789   1.459   3.805   9.059  0.0323 -0.1606  0.9717
  246MPD1    H3 3790   1.634   3.953   9.023 -2.5183 -2.4164 -1.7885
  246MPD1     N 3791   1.449   4.251   9.333  0.3330 -0.3178  0.0992
  246MPD1    H5 3792   1.372   4.248   9.399 -1.5392  0.5078 -2.0641
  246MPD1    N1 3793   1.243   3.841   9.235  0.1592  0.4656  0.5683
  246MPD1    H6 3794   1.159   3.894   9.254 -0.6917 -0.5999 -0.2137
  246MPD1    H7 3795   1.223   3.778   9.158 -2.8895  1.8041  0.2908
  247MPD1     C 3796   0.031   3.408  16.191 -0.4596 -0.8299 -0.6793
  247MPD1    C1 3797   4.639   3.439  16.229  0.2189  0.5156  0.4037
  247MPD1    C2 3798   4.552   3.338  16.273 -0.2692 -0.2176 -0.1204
  247MPD1    C3 3799   4.601   3.204  16.279 -0.2684 -0.2408  0.2791
  247MPD1    C4 3800   4.735   3.177  16.244  0.0014 -0.4061 -0.3688
  247MPD1    C5 3801   0.075   3.284  16.205  0.1070  0.3209  0.2942
  247MPD1     H 3802   4.454   3.369  16.308  0.3717 -0.4234  1.8157
  247MPD1    H1 3803   0.036   3.076  16.245  2.2779  0.4285 -2.4317
  247MPD1    H2 3804   0.104   3.484  16.164  1.0200 -2.0824 -0.2183
  247MPD1    H3 3805   0.176   3.265  16.169 -0.7352 -2.5919 -0.4956
  247MPD1     N 3806   4.518   3.092  16.308  0.1425 -0.4339  0.3459
  247MPD1    H5 3807   4.564   3.001  16.309 -0.2363 -0.5540  4.4915
  247MPD1    N1 3808   4.605   3.572  16.248 -0.7126 -0.4548  0.1123
  247MPD1    H6 3809   4.504   3.581  16.237 -0.7397 -1.1042 -0.1620
  247MPD1    H7 3810   4.648   3.639  16.184 -2.2989 -0.7501 -1.2437
  248MPD1     C 3811   0.047   1.510  17.668  0.0014  0.1105 -0.5349
  248MPD1    C1 3812   4.652   1.494  17.698 -0.1002  0.1373 -0.0501
  248MPD1    C2 3813   4.601   1.573   0.059 -0.0232 -0.2781 -0.1352
  248MPD1    C3 3814   4.673   1.673   0.113  0.7132 -0.5519  0.7141
  248MPD1    C4 3815   0.063   1.698   0.058 -0.7989  1.0536  0.4528
  248MPD1    C5 3816   0.122   1.613  17.720  0.1249  0.5829  0.6618
  248MPD1     H 3817   4.503   1.550   0.099 -0.3501  0.6803 -0.3876
  248MPD1    H1 3818   0.129   1.781   0.082  0.4411  0.2271 -0.1040
  248MPD1    H2 3819   0.090   1.438  17.598 -0.7217 -1.5785  0.7497
  248MPD1    H3 3820   0.227   1.624  17.695 -0.4800  0.7684 -1.7690
  248MPD1     N 3821   4.615   1.752   0.212 -0.1232 -0.0431  0.2787
  248MPD1    H5 3822   4.516   1.741   0.233 -0.5947  1.5206 -1.1340
  248MPD1    N1 3823   4.590   1.374  17.656 -0.5945 -0.0667  0.5978
  248MPD1    H6 3824   4.613   1.343  17.562  1.5608 -0.3972  1.2260
  248MPD1    H7 3825   4.491   1.395  17.661 -0.2928  1.5541 -0.1304
  249MPD1     C 3826   1.789   1.086  10.365 -0.0681  0.3075 -0.5565
  249MPD1    C1 3827   1.803   1.084  10.228 -0.4264 -0.2134 -0.0133
  249MPD1    C2 3828   1.886   1.182  10.173 -0.2437 -0.0519  1.1571
  249MPD1    C3 3829   1.922   1.298  10.240  0.2907 -0.3162 -0.5219
  249MPD1    C4 3830   1.891   1.301  10.375 -0.5125 -0.9672 -0.7674
  249MPD1    C5 3831   1.827   1.194  10.434 -0.3404  0.3997  0.1976
  249MPD1     H 3832   1.910   1.178  10.068  1.0017 -0.7229  1.4650
  249MPD1    H1 3833   1.922   1.375  10.447 -3.6228 -2.1848  1.8773
  249MPD1    H2 3834   1.745   1.005  10.421 -1.3573  1.1368 -0.3885
  249MPD1    H3 3835   1.806   1.198  10.541 -1.7195  2.2192 -0.1406
  249MPD1     N 3836   1.980   1.406  10.173 -0.5311 -0.1652  0.1073
  249MPD1    H5 3837   1.985   1.396  10.072  4.1417  1.0304  0.2182
  249MPD1    N1 3838   1.757   0.974  10.157  0.1457  0.2103  0.3847
  249MPD1    H6 3839   1.672   0.931  10.192  0.4833 -1.5063 -0.8761
  249MPD1    H7 3840   1.743   0.992  10.058  0.0785  0.9359  0.5262
  250MPD2     C 3841   3.672   0.820  13.115  0.0568 -0.0786 -0.9889
  250MPD2    C1 3842   3.583   0.922  13.105  0.0197  0.2177  0.1415
  250MPD2    C2 3843   3.459   0.909  13.056 -0.0454 -0.4315  0.5297
  250MPD2    C3 3844   3.417   0.789  12.996  0.1924  0.3478 -0.0101
  250MPD2    C4 3845   3.513   0.693  13.004  0.3219 -0.2908 -0.1168
  250MPD2    C5 3846   3.638   0.706  13.057  0.3071  0.3518 -0.2566
  250MPD2     H 3847   3.394   0.995  13.046  2.0147  0.7786 -2.3596
  250MPD2    H1 3848   3.491   0.600  12.953 -1.5812 -0.0192  0.2175
  250MPD2    H2 3849   3.773   0.832  13.152  0.1101 -1.0797 -0.8076
  250MPD2    H3 3850   3.705   0.622  13.070 -0.9439 -0.5713  0.2468
  250MPD2     N 3851   3.285   0.768  12.946 -0.5340 -0.1284 -0.4270
  250MPD2    H5 3852   3.262   0.676  12.909  2.6183 -0.2286 -2.1398
  250MPD2    N1 3853   3.613   1.043  13.167 -0.0873 -0.3924  0.0273
  250MPD2    H7 3854   3.709   1.038  13.199 -0.2116 -0.5391  0.3818
  251TMC3    C1 3855   3.580   1.253  13.279  0.1390  0.4401  0.1901
  251TMC3    C2 3856   3.511   1.316  13.377 -0.2845  1.0185 -0.8224
  251TMC3    C3 3857   3.553   1.442  13.423 -0.3390 -0.2203  0.2257
  251TMC3    C4 3858   3.698   1.299  13.233 -0.2365  0.5563 -0.4360
  251TMC3    C5 3859   3.726   1.429  13.259  0.4530  0.3905  0.2015
  251TMC3    C6 3860   3.663   1.499  13.362  0.8297 -0.5562  0.1941
  251TMC3     C 3861   3.524   1.138  13.213  1.0132  0.3173 -0.7039
  251TMC3     O 3862   3.404   1.129  13.219 -1.2885 -0.4836 -0.2001
  251TMC3     H 3863   3.411   1.280  13.401  0.4145 -1.0183 -0.9960
  251TMC3    H1 3864   3.730   1.263  13.136 -0.6158  0.4260 -0.5139
  251TMC3    H2 3865   3.680   1.604  13.380  0.6177 -0.1911 -1.7928
  251TMC3    C7 3866   3.841   1.491  13.203 -0.1599 -0.6018  0.1463
  251TMC3    C8 3867   3.455   1.524  13.498  0.4025  0.4140 -0.2423
  251TMC3    O1 3868   3.917   1.420  13.139 -0.5435  0.1203 -0.4814
  251TMC3    O2 3869   3.440   1.643  13.463 -0.5674  0.5593  0.0445
  252TMC3    C1 3870   3.390   3.098   9.303  0.0606  0.0326  0.4119
  252TMC3    C2 3871   3.502   3.168   9.353  0.4272  0.0005 -0.2721
  252TMC3    C3 3872   3.528   3.152   9.487 -0.1474  0.0591  0.4131
  252TMC3    C4 3873   3.315   3.028   9.384  0.3573 -0.3913 -0.0344
  252TMC3    C5 3874   3.335   3.025   9.521  0.9706 -0.7994 -0.0687
  252TMC3    C6 3875   3.451   3.076   9.568 -0.7708  0.0860  0.3234
  252TMC3     C 3876   3.384   3.091   9.152 -0.5682  0.0386  0.5103
  252TMC3     O 3877   3.479   3.134   9.087 -0.3020 -0.3128 -0.6757
  252TMC3     H 3878   3.576   3.215   9.289  1.0714 -1.8571 -0.8864
  252TMC3    H1 3879   3.234   2.968   9.344  0.1865  0.1280 -0.4723
  252TMC3    H2 3880   3.465   3.091   9.674 -2.0036  0.6503  0.4102
  252TMC3    C7 3881   3.267   2.917   9.593 -0.3369  0.1049  0.5445
  252TMC3    C8 3882   3.600   3.265   9.546  0.3517  0.0093  0.2388
  252TMC3    O1 3883   3.159   2.875   9.557  0.2356  0.1974  0.3205
  252TMC3    O2 3884   3.606   3.366   9.477 -0.0435 -0.7204  0.1031
  253MPD2     C 3885   4.535   1.212  15.265  0.3320  0.0840 -0.2107
  253MPD2    C1 3886   4.398   1.209  15.299  0.9632  0.2175 -0.4141
  253MPD2    C2 3887   4.370   1.240  15.430  0.3375 -0.8661 -0.1480
  253MPD2    C3 3888   4.473   1.265  15.526  0.0283 -0.3247 -0.4174
  253MPD2    C4 3889   4.607   1.256  15.490  0.3745  0.0637 -0.5442
  253MPD2    C5 3890   4.630   1.236  15.357  0.2328 -0.2754 -0.1426
  253MPD2     H 3891   4.265   1.243  15.454 -0.0707  2.3233 -2.2233
  253MPD2    H1 3892   4.691   1.271  15.556  2.0812  3.0766 -3.4049
  253MPD2    H2 3893   4.566   1.204  15.161  1.8868  1.0562  0.1936
  253MPD2    H3 3894   4.732   1.232  15.323  0.4571  2.2461  0.2071
  253MPD2     N 3895   4.437   1.295  15.663  0.3286  0.1403  0.2211
  253MPD2    H5 3896   4.509   1.290  15.735  0.6345  0.5633 -0.0594
  253MPD2    N1 3897   4.293   1.192  15.204 -0.0034  0.2948 -0.2112
  253MPD2    H7 3898   4.198   1.197  15.240 -0.5047 -1.7168 -1.2499
  254TMC3    C1 3899   4.292   1.412  15.833 -0.2591 -0.3309 -0.4525
  254TMC3    C2 3900   4.185   1.496  15.848  0.2105 -0.5647 -0.0233
  254TMC3    C3 3901   4.142   1.502  15.983  0.8360 -0.1682 -0.5353
  254TMC3    C4 3902   4.354   1.334  15.936 -0.7956 -0.1124  0.4436
  254TMC3    C5 3903   4.302   1.350  16.060  0.7010  0.4237 -0.0270
  254TMC3    C6 3904   4.194   1.423  16.083  0.6881  0.1621 -0.0873
  254TMC3     C 3905   4.317   1.364  15.694  0.0849 -0.8386 -0.0237
  254TMC3     O 3906   4.225   1.390  15.622  0.3997  0.2465  0.0563
  254TMC3     H 3907   4.140   1.553  15.768  2.4903  0.3436 -0.6645
  254TMC3    H1 3908   4.444   1.274  15.928 -1.1061 -0.2431 -2.0797
  254TMC3    H2 3909   4.157   1.435  16.184 -0.1510 -2.8691 -0.0355
  254TMC3    C7 3910   4.364   1.298  16.178  0.6835 -0.1869  0.0896
  254TMC3    C8 3911   4.024   1.576  16.015  0.8045 -0.0482 -0.4626
  254TMC3    O1 3912   4.285   1.252  16.260 -0.3396  0.4724 -0.2027
  254TMC3    O2 3913   3.962   1.554  16.120  0.1349  0.4584  0.3170
  255MPD2     C 3914   2.666   3.624  10.651 -0.1083  0.0151 -0.3098
  255MPD2    C1 3915   2.774   3.702  10.681 -0.1680 -0.1962 -0.2503
  255MPD2    C2 3916   2.861   3.656  10.781 -0.4048  0.2855  0.3256
  255MPD2    C3 3917   2.851   3.528  10.824 -0.2946  0.0095 -0.0754
  255MPD2    C4 3918   2.739   3.447  10.786  0.2421 -0.8932 -0.2899
  255MPD2    C5 3919   2.654   3.498  10.699 -0.4239 -0.4691  0.3206
  255MPD2     H 3920   2.947   3.714  10.812  2.5169 -3.5647 -0.4859
  255MPD2    H1 3921   2.723   3.345  10.819 -0.7810 -0.7658 -0.4087
  255MPD2    H2 3922   2.591   3.663  10.582  0.1379  1.1713  0.0632
  255MPD2    H3 3923   2.578   3.430  10.662 -0.7697  0.0724  0.0545
  255MPD2     N 3924   2.940   3.463  10.914  0.0869  0.0805  0.6561
  255MPD2    H5 3925   2.898   3.381  10.958  0.8002  0.2216  1.6081
  255MPD2    N1 3926   2.786   3.831  10.626 -0.1100  0.0197  0.1819
  255MPD2    H7 3927   2.720   3.862  10.555 -0.2994  0.9387  0.7683
  256TMC3    C1 3928   2.874   4.047  10.591  0.3446  0.0151  0.2382
  256TMC3    C2 3929   2.989   4.112  10.554  0.5726 -0.1098  0.7656
  256TMC3    C3 3930   2.988   4.215  10.467 -0.4918  1.2205  0.5152
  256TMC3    C4 3931   2.752   4.096  10.553  0.5091 -0.4272  0.3740
  256TMC3    C5 3932   2.753   4.206  10.465 -0.5072  0.3761 -1.0411
  256TMC3    C6 3933   2.869   4.264  10.409  0.7544  0.2198 -0.1968
  256TMC3     C 3934   2.886   3.920  10.654 -0.4582 -0.5431 -0.0087
  256TMC3     O 3935   2.984   3.908  10.727 -0.0127  0.0036 -0.3420
  256TMC3     H 3936   3.087   4.071  10.573  1.3169  1.1429 -0.3693
  256TMC3    H1 3937   2.663   4.058  10.601  1.1530 -1.2547  0.8955
  256TMC3    H2 3938   2.867   4.342  10.334  1.5014  0.5212  0.0883
  256TMC3    C7 3939   2.633   4.242  10.392 -0.7245  0.6423  0.3905
  256TMC3    C8 3940   3.113   4.248  10.401  0.6371 -1.2686  0.1369
  256TMC3    O1 3941   2.635   4.303  10.283 -0.7066 -0.1638  0.3494
  256TMC3    O2 3942   3.211   4.181  10.420  0.2102  0.0916  0.2091
  257MPD2     C 3943   2.167   1.567  12.992  0.3502 -0.1523 -0.5646
  257MPD2    C1 3944   2.112   1.479  12.900 -0.5102 -0.8573  0.0001
  257MPD2    C2 3945   2.033   1.377  12.938 -0.5621  0.1019 -0.2977
  257MPD2    C3 3946   2.017   1.356  13.077 -0.0845 -0.4479 -1.0514
  257MPD2    C4 3947   2.075   1.438  13.167  0.2172  0.2134  0.2304
  257MPD2    C5 3948   2.146   1.544  13.126 -0.0843  0.0629 -0.6774
  257MPD2     H 3949   1.999   1.299  12.869 -0.4922 -2.2891  2.3586
  257MPD2    H1 3950   2.059   1.426  13.273 -0.9258  0.8703  0.1290
  257MPD2    H2 3951   2.235   1.646  12.964 -1.3138  0.4696 -2.8604
  257MPD2    H3 3952   2.193   1.599  13.207  1.2836 -0.8927 -0.8307
  257MPD2     N 3953   1.958   1.232  13.103 -0.5374  0.1379  0.4988
  257MPD2    H5 3954   1.917   1.181  13.026  0.0157 -0.0282  0.3143
  257MPD2    N1 3955   2.146   1.499  12.762 -0.3583 -0.3979 -0.2114
  257MPD2    H7 3956   2.223   1.562  12.739 -0.0385 -1.0995 -1.0569
  258TMC3    C1 3957   1.933   1.033  13.215  0.3805 -0.3485 -0.2093
  258TMC3    C2 3958   1.842   1.002  13.124 -0.1230  0.2250 -0.6177
  258TMC3    C3 3959   1.846   0.880  13.068 -0.2117 -0.1140  0.2364
  258TMC3    C4 3960   2.022   0.946  13.267  0.2415  0.7812  0.2260
  258TMC3    C5 3961   2.023   0.818  13.209  0.8762 -0.5998  0.0840
  258TMC3    C6 3962   1.939   0.786  13.107 -0.4716  0.2083 -0.2342
  258TMC3     C 3963   1.971   1.170  13.226  0.0557 -0.2604 -0.2738
  258TMC3     O 3964   2.028   1.202  13.330 -0.2190  0.2469 -0.3683
  258TMC3     H 3965   1.767   1.066  13.080 -1.5063 -0.1270  1.1991
  258TMC3    H1 3966   2.081   0.977  13.353  1.1799  1.6116 -0.7175
  258TMC3    H2 3967   1.960   0.696  13.051 -0.9238  0.9830 -1.6513
  258TMC3    C7 3968   2.117   0.712  13.238 -0.2373 -0.5486 -0.6266
  258TMC3    C8 3969   1.755   0.840  12.963 -0.5997 -0.8381  0.4784
  258TMC3    O1 3970   2.103   0.597  13.194  0.0401 -0.0103 -0.0397
  258TMC3    O2 3971   1.702   0.920  12.887 -0.1369  0.2876 -0.0222
  259MPD2     C 3972   0.332   2.725   0.350  0.1728 -0.7072 -1.0309
  259MPD2    C1 3973   0.459   2.677   0.351  0.4657 -0.1370 -0.1801
  259MPD2    C2 3974   0.536   2.690   0.229  0.0728 -0.2122  0.5220
  259MPD2    C3 3975   0.477   2.745   0.119  0.5466 -0.1343 -0.2521
  259MPD2    C4 3976   0.347   2.800   0.121  0.1628  0.0698  0.0700
  259MPD2    C5 3977   0.280   2.794   0.244 -0.1366 -0.0461  0.6740
  259MPD2     H 3978   0.640   2.659   0.222 -0.0885 -0.5709 -0.2822
  259MPD2    H1 3979   0.292   2.842   0.037 -2.4298 -1.5727  0.9325
  259MPD2    H2 3980   0.274   2.712   0.440 -0.7225 -1.5150 -1.7179
  259MPD2    H3 3981   0.179   2.833   0.243  0.6387  1.8629 -2.0176
  259MPD2     N 3982   0.556   2.762   0.002  0.2059 -0.3869 -0.5768
  259MPD2    H5 3983   0.639   2.707  17.732  0.2295 -0.4291 -0.3163
  259MPD2    N1 3984   0.507   2.621   0.473  0.1361 -0.1366  0.2276
  259MPD2    H7 3985   0.441   2.631   0.550 -2.3515  1.0220 -2.0354
  260TMC3    C1 3986   0.605   2.844  17.534 -0.3886 -0.1064 -0.0732
  260TMC3    C2 3987   0.649   2.972  17.500  0.5190 -0.3897  0.3818
  260TMC3    C3 3988   0.762   2.985  17.422 -0.2102 -0.0110  0.1641
  260TMC3    C4 3989   0.688   2.733  17.517  0.1719 -0.4772  0.4158
  260TMC3    C5 3990   0.810   2.759  17.452 -0.2403  0.1502  0.2966
  260TMC3    C6 3991   0.841   2.878  17.398 -0.6661 -0.1492 -0.2010
  260TMC3     C 3992   0.527   2.858  17.656  0.1635 -0.8556  0.0414
  260TMC3     O 3993   0.452   2.957  17.659 -0.0156  0.5925  0.3499
  260TMC3     H 3994   0.589   3.058  17.528  1.9337  0.7573 -0.1080
  260TMC3    H1 3995   0.653   2.637  17.552 -0.7270 -0.5683 -0.7630
  260TMC3    H2 3996   0.937   2.891  17.349 -0.1871  3.2115  1.7114
  260TMC3    C7 3997   0.883   2.646  17.394  0.1605  0.2930 -0.1984
  260TMC3    C8 3998   0.832   3.109  17.447  0.3767 -0.4606  0.3267
  260TMC3    O1 3999   0.962   2.661  17.299  0.3647 -0.1086  0.1560
  260TMC3    O2 4000   0.768   3.212  17.425 -0.0340  0.6064 -0.2733
  261MPD2     C 4001   2.633   0.951  12.446  0.3806 -0.4287  0.3550
  261MPD2    C1 4002   2.732   1.025  12.510  0.0839 -0.9368 -0.5168
  261MPD2    C2 4003   2.763   1.145  12.446  0.1288 -0.0564 -1.1974
  261MPD2    C3 4004   2.705   1.186  12.332 -0.6405  0.0119 -0.5115
  261MPD2    C4 4005   2.612   1.101  12.264  0.3237  0.1390 -0.3242
  261MPD2    C5 4006   2.574   0.987  12.329 -0.0382 -0.2736 -0.3033
  261MPD2     H 4007   2.831   1.213  12.496 -1.9550 -1.2735  3.3632
  261MPD2    H1 4008   2.567   1.125  12.168  0.0827 -1.6636 -0.6674
  261MPD2    H2 4009   2.602   0.851  12.475 -1.1300 -0.3428 -0.9506
  261MPD2    H3 4010   2.505   0.919  12.281 -0.1133 -0.1752 -0.3352
  261MPD2     N 4011   2.754   1.302  12.261  0.4120 -0.3109  0.5472
  261MPD2    H5 4012   2.844   1.342  12.286  1.0351 -1.4286  0.1163
  261MPD2    N1 4013   2.791   0.988  12.635  0.0849  0.1679 -0.1603
  261MPD2    H7 4014   2.870   1.041  12.668  0.8574 -0.2413 -1.3513
  262TMC3    C1 4015   2.773   1.455  12.080 -0.3536 -0.4337  0.2526
  262TMC3    C2 4016   2.715   1.546  11.993 -0.2311 -0.7797 -0.6316
  262TMC3    C3 4017   2.791   1.628  11.914  0.0752  0.1010  0.3272
  262TMC3    C4 4018   2.916   1.464  12.097 -0.2289  0.1556 -0.1491
  262TMC3    C5 4019   2.982   1.557  12.022 -0.1724 -0.1794 -0.2677
  262TMC3    C6 4020   2.925   1.632  11.915 -0.1979 -0.5210 -0.3783
  262TMC3     C 4021   2.692   1.356  12.149 -0.5109 -0.0992  0.7657
  262TMC3     O 4022   2.572   1.349  12.127 -0.0721 -0.6224 -0.8132
  262TMC3     H 4023   2.609   1.565  12.006 -0.6234 -2.3484 -1.6561
  262TMC3    H1 4024   2.970   1.395  12.162 -1.6853 -0.3256  0.5583
  262TMC3    H2 4025   2.984   1.685  11.842  0.5359 -1.6643 -0.6219
  262TMC3    C7 4026   3.124   1.530  12.009 -1.4205 -0.0129 -0.2897
  262TMC3    C8 4027   2.735   1.759  11.872  0.0995 -0.4500  0.0659
  262TMC3    O1 4028   3.167   1.429  12.055 -0.1502 -0.6297  0.1888
  262TMC3    O2 4029   2.822   1.844  11.865 -0.5451 -0.4004  0.3457
  263MPD2     C 4030   3.576   0.530  11.573 -0.5089  0.2882  0.1539
  263MPD2    C1 4031   3.697   0.589  11.567  0.6552 -0.3543  0.1187
  263MPD2    C2 4032   3.717   0.707  11.500 -0.0137 -0.0290  0.4352
  263MPD2    C3 4033   3.621   0.757  11.418  0.4492 -0.6884  0.3005
  263MPD2    C4 4034   3.497   0.691  11.421  0.3781  0.3185  0.0304
  263MPD2    C5 4035   3.474   0.578  11.494 -0.0649 -0.2000  0.1781
  263MPD2     H 4036   3.815   0.754  11.496 -0.5491  1.0912  0.6992
  263MPD2    H1 4037   3.414   0.719  11.357  0.4312 -0.1735 -0.2564
  263MPD2    H2 4038   3.552   0.441  11.629 -1.2861 -0.6682 -1.6831
  263MPD2    H3 4039   3.378   0.529  11.498 -0.8598  1.2661 -0.8651
  263MPD2     N 4040   3.649   0.856  11.330 -0.0053 -0.6724 -0.1280
  263MPD2    H5 4041   3.735   0.909  11.333  0.0055 -0.7823  1.1952
  263MPD2    N1 4042   3.795   0.520  11.631  0.3726 -0.1008  0.0595
  263MPD2    H7 4043   3.767   0.429  11.667  0.1857  0.2619  0.8322
  264TMC3    C1 4044   3.651   0.977  11.139 -0.7733 -0.4128 -0.2189
  264TMC3    C2 4045   3.708   1.086  11.195  0.6847 -0.3041  0.4703
  264TMC3    C3 4046   3.803   1.156  11.124 -0.0822 -0.1735 -0.1672
  264TMC3    C4 4047   3.666   0.947  11.005  0.3578  0.1153  0.0602
  264TMC3    C5 4048   3.747   1.033  10.931 -1.1711  0.4171  0.0539
  264TMC3    C6 4049   3.830   1.126  10.992  0.3680  0.7407 -0.2324
  264TMC3     C 4050   3.589   0.874  11.209 -0.2577 -0.4263  0.9091
  264TMC3     O 4051   3.495   0.812  11.158  0.0570 -0.0815 -0.2166
  264TMC3     H 4052   3.695   1.100  11.302 -0.6344 -0.9118  0.3850
  264TMC3    H1 4053   3.609   0.865  10.963  0.7684 -0.3617  0.4428
  264TMC3    H2 4054   3.895   1.188  10.931 -0.0185 -0.2109 -1.6086
  264TMC3    C7 4055   3.776   1.004  10.792 -0.2789  0.2372  0.1502
  264TMC3    C8 4056   3.861   1.282  11.174 -0.3495  0.6128 -0.2482
  264TMC3    O1 4057   3.890   1.033  10.756 -0.0798 -0.9816 -0.4505
  264TMC3    O2 4058   3.960   1.318  11.114  0.1823 -0.5574 -0.5390
  265MPD2     C 4059   0.760   0.764  15.557  0.7235  0.7133  0.1683
  265MPD2    C1 4060   0.807   0.876  15.489 -0.1187 -1.1213  0.3412
  265MPD2    C2 4061   0.871   0.858  15.363  0.5878  0.7770 -0.0286
  265MPD2    C3 4062   0.903   0.735  15.317  0.0260  0.8967  0.4391
  265MPD2    C4 4063   0.867   0.623  15.389  0.3809 -0.4985  0.9682
  265MPD2    C5 4064   0.799   0.645  15.508  0.0518  0.4360 -0.3482
  265MPD2     H 4065   0.900   0.952  15.317 -0.0432  1.5620  1.1691
  265MPD2    H1 4066   0.894   0.522  15.359 -1.1464 -1.0995  1.5855
  265MPD2    H2 4067   0.700   0.768  15.647 -1.4576  1.7236 -1.3454
  265MPD2    H3 4068   0.790   0.556  15.570  0.7803  0.5720 -0.0450
  265MPD2     N 4069   0.966   0.710  15.194  0.4995 -0.0823 -0.3204
  265MPD2    H5 4070   0.974   0.613  15.164  1.0177  0.0230 -0.5172
  265MPD2    N1 4071   0.783   1.012  15.522 -0.1428  0.0308 -0.4092
  265MPD2    H7 4072   0.820   1.072  15.449  1.4643  2.0584  2.0563
  266TMC3    C1 4073   0.729   1.204  15.639  0.0508 -0.6109 -0.7301
  266TMC3    C2 4074   0.778   1.260  15.758 -0.0194  0.1056 -0.9375
  266TMC3    C3 4075   0.799   1.393  15.759 -0.2293  0.8771 -0.0125
  266TMC3    C4 4076   0.738   1.271  15.521  0.5935  0.1089  0.0972
  266TMC3    C5 4077   0.776   1.405  15.527  0.2066 -0.1293  0.0396
  266TMC3    C6 4078   0.800   1.470  15.645 -0.5383  0.3883 -0.4014
  266TMC3     C 4079   0.715   1.062  15.637 -0.4451 -0.1485 -0.5388
  266TMC3     O 4080   0.699   1.001  15.742  0.2412 -0.3871 -0.1076
  266TMC3     H 4081   0.795   1.193  15.841 -0.5381 -2.2647 -2.7323
  266TMC3    H1 4082   0.691   1.230  15.433 -2.6900  0.0169  1.8972
  266TMC3    H2 4083   0.836   1.572  15.647 -1.7179  0.7848  0.2901
  266TMC3    C7 4084   0.708   1.481  15.430  0.6170  0.1076 -0.6209
  266TMC3    C8 4085   0.887   1.426  15.862  0.1008  1.1539  0.2053
  266TMC3    O1 4086   0.593   1.449  15.418  0.3751  0.1071 -0.0350
  266TMC3    O2 4087   0.950   1.337  15.914 -0.2148  0.6923 -0.2051
  267MPD2     C 4088   2.593   2.869   0.315  0.0016  0.2448 -0.0798
  267MPD2    C1 4089   2.703   2.908   0.240  0.0603 -0.4364  0.0143
  267MPD2    C2 4090   2.699   3.028   0.170  0.4549  0.0792  0.4653
  267MPD2    C3 4091   2.583   3.111   0.180 -0.1112 -0.7004  0.2867
  267MPD2    C4 4092   2.493   3.079   0.276 -0.2827 -0.3969 -0.8524
  267MPD2    C5 4093   2.498   2.965   0.342  0.2664  0.5537 -0.0637
  267MPD2     H 4094   2.783   3.052   0.105  0.7135 -2.2297 -0.0479
  267MPD2    H1 4095   2.408   3.142   0.297 -1.1885 -1.6818 -0.6901
  267MPD2    H2 4096   2.593   2.771   0.360 -1.4546  0.0190 -0.5672
  267MPD2    H3 4097   2.420   2.936   0.411  3.9561 -1.5557  3.2063
  267MPD2     N 4098   2.568   3.230   0.104  0.0579  0.2861  0.0803
  267MPD2    H5 4099   2.484   3.283   0.123 -1.5469 -1.6957 -1.4197
  267MPD2    N1 4100   2.817   2.817   0.242 -0.3788 -0.3814  0.0066
  267MPD2    H7 4101   2.803   2.721   0.271  0.6059 -0.7387 -0.7096
  268TMC3    C1 4102   3.029   2.748   0.219 -0.3618  0.1965  0.7011
  268TMC3    C2 4103   3.132   2.738   0.135  0.2467  0.3077  0.3648
  268TMC3    C3 4104   3.256   2.690   0.175  0.0422  0.6616  0.3792
  268TMC3    C4 4105   3.038   2.704   0.347 -0.8587 -0.2233  0.3012
  268TMC3    C5 4106   3.157   2.664   0.392  0.1533 -0.6536 -0.4519
  268TMC3    C6 4107   3.266   2.656   0.308  0.0178  0.1926  0.0873
  268TMC3     C 4108   2.938   2.846   0.183  0.3161  0.2931  0.0987
  268TMC3     O 4109   2.965   2.929   0.099  0.0645  0.3158 -0.1566
  268TMC3     H 4110   3.117   2.772   0.033  2.3169 -1.2739 -0.4732
  268TMC3    H1 4111   2.960   2.734   0.416  0.4179 -1.2518  2.1677
  268TMC3    H2 4112   3.367   2.630   0.339  0.7022  2.4538 -0.2422
  268TMC3    C7 4113   3.157   2.618   0.528  0.6574  0.3578 -0.3181
  268TMC3    C8 4114   3.366   2.774   0.141  0.5874  0.8109  0.6954
  268TMC3    O1 4115   3.065   2.652   0.599 -0.1180 -0.8424 -0.1435
  268TMC3    O2 4116   3.430   2.822   0.234  0.2015  0.0240 -0.5739
  269MPD2     C 4117   3.591   1.468  15.606  0.4451  0.1086  0.1663
  269MPD2    C1 4118   3.516   1.507  15.717 -0.6027 -0.4471 -0.2122
  269MPD2    C2 4119   3.444   1.628  15.714  0.2251 -0.7486  0.4833
  269MPD2    C3 4120   3.458   1.717  15.608 -0.0276 -0.1988  0.0177
  269MPD2    C4 4121   3.523   1.674  15.495 -0.0636 -0.1562  0.1307
  269MPD2    C5 4122   3.596   1.557  15.499 -0.2984 -0.6746 -0.1113
  269MPD2     H 4123   3.382   1.654  15.799 -3.5578 -0.7897 -2.2545
  269MPD2    H1 4124   3.533   1.728  15.401 -0.0519  0.7988  0.6887
  269MPD2    H2 4125   3.640   1.371  15.606  0.6982  0.2406 -1.7093
  269MPD2    H3 4126   3.652   1.530  15.410 -1.4267  0.4512 -1.1743
  269MPD2     N 4127   3.412   1.849  15.620 -0.0505 -0.0056  0.3691
  269MPD2    H5 4128   3.343   1.855  15.694  0.0190  1.3518  0.3329
  269MPD2    N1 4129   3.524   1.420  15.831  0.2723  0.0660 -0.3630
  269MPD2    H7 4130   3.593   1.347  15.829 -0.1517 -0.3157 -1.0261
  270TMC3    C1 4131   3.483   1.333  16.039  0.4345 -0.0244  0.3960
  270TMC3    C2 4132   3.382   1.256  16.062 -0.1169  0.3712 -0.9258
  270TMC3    C3 4133   3.407   1.129  16.096  0.7351  0.0613  0.2908
  270TMC3    C4 4134   3.607   1.298  16.055  0.2719 -0.3536  0.0228
  270TMC3    C5 4135   3.639   1.179  16.110  0.3377 -0.2732 -0.4140
  270TMC3    C6 4136   3.536   1.092  16.127 -0.2112 -0.1680  0.4981
  270TMC3     C 4137   3.464   1.443  15.956  0.1228  0.0700  0.4173
  270TMC3     O 4138   3.368   1.513  15.977  0.5247 -0.0656  0.1196
  270TMC3     H 4139   3.285   1.294  16.033 -0.8708 -1.3062 -0.5983
  270TMC3    H1 4140   3.681   1.361  16.006 -0.8323  1.1636  0.2995
  270TMC3    H2 4141   3.556   0.985  16.126 -0.7939 -0.2499 -2.5515
  270TMC3    C7 4142   3.779   1.133  16.108  0.3412 -0.4273  0.3558
  270TMC3    C8 4143   3.333   1.039  16.009 -0.3152 -0.1578 -0.7053
  270TMC3    O1 4144   3.866   1.203  16.055 -0.1717  0.1442  0.2741
  270TMC3    O2 4145   3.392   0.940  15.970  0.0635  0.0940  0.3077
  271MPD2     C 4146   2.690   1.100  14.066 -0.5551 -0.5293  0.8688
  271MPD2    C1 4147   2.614   1.108  14.183  0.0743  0.0552 -0.0431
  271MPD2    C2 4148   2.494   1.170  14.177 -0.2009  0.6005  0.4859
  271MPD2    C3 4149   2.450   1.219  14.057  0.8319  1.0224 -0.6282
  271MPD2    C4 4150   2.523   1.207  13.940 -0.0883 -0.2926 -0.1656
  271MPD2    C5 4151   2.634   1.143  13.948 -0.4382  0.3363  0.0024
  271MPD2     H 4152   2.432   1.180  14.266  0.8825  0.6861  1.2368
  271MPD2    H1 4153   2.489   1.236  13.842  0.7556  1.2873  0.0063
  271MPD2    H2 4154   2.792   1.066  14.062 -0.5433 -0.5629  1.4808
  271MPD2    H3 4155   2.705   1.136  13.865 -0.6700 -0.4043 -0.1335
  271MPD2     N 4156   2.331   1.297  14.041  0.3534 -0.8543  0.5461
  271MPD2    H5 4157   2.320   1.329  13.946  1.8672 -1.2999  0.2167
  271MPD2    N1 4158   2.672   1.085  14.311  0.0285 -0.0298 -0.0540
  271MPD2    H7 4159   2.615   1.091  14.395 -0.6037  1.1478 -0.5695
  272TMC3    C1 4160   2.829   1.023  14.481 -0.4062  0.6592 -0.7316
  272TMC3    C2 4161   2.951   0.971  14.510  0.3667 -0.4735  0.3285
  272TMC3    C3 4162   2.981   0.910  14.627  0.4436  0.0131 -0.1117
  272TMC3    C4 4163   2.728   1.032  14.583  0.0554 -0.1596 -0.0476
  272TMC3    C5 4164   2.762   0.968  14.699  0.6424  0.2431 -0.0535
  272TMC3    C6 4165   2.883   0.910  14.725 -0.4476  0.0176  0.1102
  272TMC3     C 4166   2.800   1.046  14.338 -0.3744  0.3542  0.5670
  272TMC3     O 4167   2.895   1.028  14.257  0.2408 -0.7757 -0.3611
  272TMC3     H 4168   3.024   0.978  14.431 -0.6295 -2.8057 -0.8299
  272TMC3    H1 4169   2.642   1.093  14.558  1.3056  0.5470 -2.6865
  272TMC3    H2 4170   2.902   0.875  14.826  2.1385 -3.0409 -1.4295
  272TMC3    C7 4171   2.663   0.984  14.807  0.3273 -0.5638 -0.2384
  272TMC3    C8 4172   3.119   0.888  14.666 -0.0381 -0.0073 -0.7123
  272TMC3    O1 4173   2.543   0.999  14.779 -0.2447 -0.4130 -0.0656
  272TMC3    O2 4174   3.195   0.963  14.609 -0.1678 -0.0819 -0.7449
  273MPD2     C 4175   4.011   4.284  11.326 -0.6452  0.1580 -0.0976
  273MPD2    C1 4176   4.126   4.275  11.405 -0.2415 -0.0095  0.0709
  273MPD2    C2 4177   4.244   4.325  11.355 -0.7574 -0.1582 -0.2730
  273MPD2    C3 4178   4.251   4.390  11.233  0.7439  0.2736 -1.0808
  273MPD2    C4 4179   4.138   4.410  11.159  0.2192  0.3693  0.1966
  273MPD2    C5 4180   4.024   4.358  11.206 -0.2063 -0.4615  0.0155
  273MPD2     H 4181   4.336   4.317  11.412 -0.2186  1.7177 -0.8775
  273MPD2    H1 4182   4.131   4.451  11.059 -1.0033  0.5852  0.3700
  273MPD2    H2 4183   3.922   4.228  11.355  0.3869 -1.6093 -0.3485
  273MPD2    H3 4184   3.936   4.352  11.142 -1.5442  0.4461  1.7670
  273MPD2     N 4185   4.375   4.440  11.181  0.2379  0.1183  0.2016
  273MPD2    H5 4186   4.372   4.476  11.086 -1.0076  0.5130  0.3879
  273MPD2    N1 4187   4.119   4.214  11.530 -0.9033 -0.2767  0.0636
  273MPD2    H7 4188   4.027   4.180  11.559 -1.1566  0.1260 -0.2663
  274TMC3    C1 4189   4.596   4.506  11.162  0.2320  0.8328  0.4850
  274TMC3    C2 4190   4.552   4.518  11.033 -0.0180 -0.1655 -0.0658
  274TMC3    C3 4191   4.544   4.642  10.971  0.1017 -0.3827  0.1270
  274TMC3    C4 4192   4.676   4.603  11.214  0.0535  0.3303 -0.0467
  274TMC3    C5 4193   4.655   4.728  11.158 -0.6635  0.5405  0.0386
  274TMC3    C6 4194   4.593   0.009  11.036 -0.3417  0.1333  0.3561
  274TMC3     C 4195   4.500   4.452  11.251  0.1231 -0.8174 -0.0569
  274TMC3     O 4196   4.529   4.439  11.373 -0.1412  0.1261  0.3459
  274TMC3     H 4197   4.509   4.435  10.978  0.1120  0.6083 -1.3278
  274TMC3    H1 4198   4.732   4.578  11.303  0.4812 -0.1471 -0.4473
  274TMC3    H2 4199   4.563   0.110  11.010 -0.9108  0.0210  0.5856
  274TMC3    C7 4200   4.602   0.089  11.253 -0.1907 -1.1672  0.9636
  274TMC3    C8 4201   4.421   4.664  10.905  0.1341 -0.6801  0.2203
  274TMC3    O1 4202   4.491   0.132  11.228 -0.1456  0.0668  0.0326
  274TMC3    O2 4203   4.327   4.586  10.925 -0.2286  0.5610 -0.5721
  275MPD2     C 4204   3.779   2.368  15.029 -0.7244 -0.4468 -0.0794
  275MPD2    C1 4205   3.836   2.266  14.960  0.4457 -0.1523 -0.4278
  275MPD2    C2 4206   3.764   2.149  14.936  0.0081 -0.1781 -0.9991
  275MPD2    C3 4207   3.632   2.136  14.986 -0.5497  0.1348 -0.9730
  275MPD2    C4 4208   3.573   2.244  15.057 -0.4713 -1.2252  0.7562
  275MPD2    C5 4209   3.650   2.360  15.066 -0.0091  0.1510 -0.4150
  275MPD2     H 4210   3.809   2.073  14.874  0.5931  0.1681 -1.0006
  275MPD2    H1 4211   3.469   2.249  15.086 -0.9246  1.3044 -1.2825
  275MPD2    H2 4212   3.829   2.462  15.049 -1.3252 -0.1059 -0.1626
  275MPD2    H3 4213   3.608   2.449  15.111 -2.3157 -1.1285 -0.0716
  275MPD2     N 4214   3.540   2.032  14.953 -0.0567  0.2885  0.3940
  275MPD2    H5 4215   3.445   2.032  14.991 -0.0921  0.8342  0.3064
  275MPD2    N1 4216   3.970   2.270  14.921  0.4665  0.1084  0.0948
  275MPD2    H7 4217   3.992   2.182  14.875  2.3693  1.8804 -2.3746
  276TMC3    C1 4218   4.208   2.314  14.912 -0.6263  0.3972 -0.6106
  276TMC3    C2 4219   4.230   2.202  14.843 -0.1183  0.2455 -0.2704
  276TMC3    C3 4220   4.359   2.174  14.810 -0.4964  0.7463 -1.1422
  276TMC3    C4 4221   4.312   2.395  14.953 -0.1789 -0.0011 -0.1876
  276TMC3    C5 4222   4.439   2.355  14.929  0.5947 -0.0594  0.1232
  276TMC3    C6 4223   4.464   2.240  14.860  0.8191 -0.7394  0.1061
  276TMC3     C 4224   4.069   2.369  14.934 -0.2915 -0.2940  0.2879
  276TMC3     O 4225   4.055   2.487  14.979 -0.4512 -0.2437  0.3162
  276TMC3     H 4226   4.145   2.162  14.789 -0.8798  0.4370  0.7794
  276TMC3    H1 4227   4.285   2.485  15.006  1.0717 -0.2191  0.8259
  276TMC3    H2 4228   4.558   2.194  14.833  2.4811  0.1715  4.2124
  276TMC3    C7 4229   4.537   2.425  15.006 -0.2638 -0.1922  0.1419
  276TMC3    C8 4230   4.397   2.063  14.727 -0.6834  1.3172  0.2663
  276TMC3    O1 4231   4.504   2.492  15.104  0.7123  0.5427  0.1484
  276TMC3    O2 4232   4.499   2.058  14.665  1.2508  0.1201 -0.0517
  277MPD2     C 4233   1.587   1.174  13.326  0.1215  0.3992  0.1624
  277MPD2    C1 4234   1.456   1.194  13.314  0.2779 -0.0712  0.8473
  277MPD2    C2 4235   1.372   1.192  13.427  0.3915 -0.0485  0.1708
  277MPD2    C3 4236   1.425   1.162  13.554 -0.5937  0.4214  0.4806
  277MPD2    C4 4237   1.564   1.142  13.565 -0.0328 -0.4823 -0.0313
  277MPD2    C5 4238   1.637   1.143  13.450 -0.3357 -0.2026  0.1245
  277MPD2     H 4239   1.265   1.208  13.424  0.1070 -1.8559  0.5839
  277MPD2    H1 4240   1.605   1.125  13.663 -2.4519  0.0830  1.0885
  277MPD2    H2 4241   1.655   1.184  13.242 -0.9995 -0.4127 -0.8488
  277MPD2    H3 4242   1.741   1.113  13.442 -0.3356  0.1256 -1.0519
  277MPD2     N 4243   1.346   1.152  13.665  0.1185 -0.1531  0.0975
  277MPD2    H5 4244   1.246   1.164  13.646  0.1735 -0.3161 -0.2940
  277MPD2    N1 4245   1.404   1.250  13.194 -0.2204 -0.2597 -0.3286
  277MPD2    H7 4246   1.473   1.287  13.129  0.8076  0.0843  0.9605
  278TMC3    C1 4247   1.263   1.094  13.865  0.2889  0.4462  0.3709
  278TMC3    C2 4248   1.242   0.958  13.886 -0.6278  0.5978  0.2490
  278TMC3    C3 4249   1.113   0.904  13.867 -0.2233 -0.4083  0.4492
  278TMC3    C4 4250   1.150   1.172  13.843  0.2397  0.2321 -0.3100
  278TMC3    C5 4251   1.023   1.121  13.828  0.3562 -0.1377  0.0998
  278TMC3    C6 4252   1.005   0.983  13.842 -0.5713  0.3116  0.1380
  278TMC3     C 4253   1.377   1.126  13.794 -0.0454  0.7446  0.4155
  278TMC3     O 4254   1.481   1.084  13.841 -0.0614  0.1517  0.5038
  278TMC3     H 4255   1.332   0.898  13.890 -0.5965  0.4519 -2.2605
  278TMC3    H1 4256   1.157   1.280  13.843 -1.3632  0.3330  1.2306
  278TMC3    H2 4257   0.906   0.945  13.822 -0.4575 -0.2421  0.6431
  278TMC3    C7 4258   0.963   1.175  13.719  0.1891  0.0907  0.1757
  278TMC3    C8 4259   1.108   0.766  13.841 -0.7069  0.7984  0.4718
  278TMC3    O1 4260   1.036   1.215  13.631  0.2285  0.4484  0.0626
  278TMC3    O2 4261   1.204   0.697  13.871 -0.0258 -0.2884 -0.4613
  279MPD2     C 4262   0.309   1.265  17.738  0.0810 -0.1607 -0.5737
  279MPD2    C1 4263   0.288   1.162  17.649 -0.4562  0.2510  0.5037
  279MPD2    C2 4264   0.380   1.127  17.552  0.7695 -0.0046  0.5436
  279MPD2    C3 4265   0.489   1.215  17.542 -0.5270 -0.6933  0.5103
  279MPD2    C4 4266   0.504   1.320  17.630  0.0373  0.1747 -0.3020
  279MPD2    C5 4267   0.415   1.346  17.728 -0.4549  0.2659  0.6003
  279MPD2     H 4268   0.362   1.050  17.478 -0.0039 -0.5189  1.2605
  279MPD2    H1 4269   0.585   1.391  17.616 -0.1145  0.5223  0.5436
  279MPD2    H2 4270   0.245   1.281   0.077  0.9116 -0.0242  0.0152
  279MPD2    H3 4271   0.427   1.428   0.051 -1.5254 -0.4863  1.6506
  279MPD2     N 4272   0.563   1.191  17.429  0.7248 -0.1219 -0.0968
  279MPD2    H5 4273   0.545   1.101  17.386  1.3603  0.3774 -1.4003
  279MPD2    N1 4274   0.169   1.094  17.660 -0.2414  1.1057  0.6592
  279MPD2    H7 4275   0.114   1.119  17.742  0.8320 -1.3793  2.1159
  280TMC3    C1 4276   0.012   0.925  17.633  0.2310  0.5429 -0.3525
  280TMC3    C2 4277   0.025   0.791  17.649  0.4147 -0.1693 -0.1618
  280TMC3    C3 4278   4.662   0.733  17.721 -0.7591  0.0663 -0.8229
  280TMC3    C4 4279   4.645   1.000  17.690 -0.6913  0.7989  0.2424
  280TMC3    C5 4280   4.541   0.933  17.746 -0.4832  0.0601 -0.7712
  280TMC3    C6 4281   4.552   0.800   0.018  0.3193  0.0258  0.0352
  280TMC3     C 4282   0.133   0.990  17.583  0.0301 -0.6533 -0.2833
  280TMC3     O 4283   0.184   0.921  17.494  0.3698  0.6602  0.6086
  280TMC3     H 4284   0.108   0.736  17.609 -0.8187 -0.9751 -1.6091
  280TMC3    H1 4285   4.630   1.107  17.680  3.0543  1.2598 -0.5453
  280TMC3    H2 4286   4.466   0.746   0.056  0.1082  0.1225 -0.3069
  280TMC3    C7 4287   4.471   1.009   0.094  0.0395  0.5374 -0.5491
  280TMC3    C8 4288   4.646   0.587  17.723 -0.5192  0.4154 -0.3694
  280TMC3    O1 4289   4.528   1.016   0.202 -0.5664  0.0647 -0.1320
  280TMC3    O2 4290   4.557   0.542   0.047 -0.0843 -0.2643 -0.1383
  281TMC3    C1 4291   4.177   1.380  13.405  0.1698  0.1429 -0.3658
  281TMC3    C2 4292   4.256   1.483  13.359  0.4203 -0.1326 -0.1495
  281TMC3    C3 4293   4.324   1.464  13.247 -0.1902  0.0258  0.0391
  281TMC3    C4 4294   4.161   1.263  13.334  0.0618 -0.8440  0.3142
  281TMC3    C5 4295   4.235   1.252  13.220  0.2526  0.8029  0.0781
  281TMC3    C6 4296   4.326   1.350  13.174  0.5702  0.6394  0.1198
  281TMC3     C 4297   4.070   1.398  13.494 -0.2969 -0.6885  0.3316
  281TMC3     O 4298   4.042   1.309  13.575  0.4068 -0.2235 -0.8077
  281TMC3     H 4299   4.263   1.573  13.419 -0.4593 -0.0888 -0.1152
  281TMC3    H1 4300   4.077   1.196  13.349  0.3583 -1.0036  1.2687
  281TMC3    H2 4301   4.381   1.330  13.083  2.2125 -1.1582  1.5145
  281TMC3    C7 4302   4.223   1.132  13.137 -0.1921  0.2874 -0.1132
  281TMC3    C8 4303   4.394   1.576  13.186  0.2472  0.1072 -0.0699
  281TMC3    O1 4304   4.302   1.132  13.042 -0.2818 -0.3927  0.1036
  281TMC3    O2 4305   4.504   1.549  13.143  0.1434 -0.5716 -0.0546
  282MPD2     C 4306   1.108   2.853  15.218  0.5821  0.7740  0.0624
  282MPD2    C1 4307   0.971   2.863  15.223  0.2096  0.2792  0.0502
  282MPD2    C2 4308   0.896   2.867  15.101  0.5491 -0.2967  0.2930
  282MPD2    C3 4309   0.957   2.850  14.985  0.0380 -0.6074  0.3166
  282MPD2    C4 4310   1.092   2.854  14.981  0.7759  0.6649  0.9556
  282MPD2    C5 4311   1.164   2.864  15.095  0.3622 -0.0646  0.0212
  282MPD2     H 4312   0.788   2.865  15.100  0.5439  0.8621 -1.3751
  282MPD2    H1 4313   1.142   2.847  14.885  0.3200 -0.7320  0.8203
  282MPD2    H2 4314   1.172   2.840  15.305 -0.2517  1.9095  0.8374
  282MPD2    H3 4315   1.272   2.871  15.105  0.2849  1.0193  0.1793
  282MPD2     N 4316   0.870   2.840  14.874 -0.1190 -0.0395 -0.1089
  282MPD2    H5 4317   0.771   2.848  14.897 -0.2421  0.4793 -0.8045
  282MPD2    N1 4318   0.907   2.870  15.342  0.1593 -0.1161 -0.2453
  282MPD2    H7 4319   0.806   2.877  15.339  0.1200  1.3837  3.5939
  283TMC3    C1 4320   0.880   2.891  15.577  0.5455  0.2666 -0.1044
  283TMC3    C2 4321   0.888   2.996  15.674  0.2655 -0.7291  0.7413
  283TMC3    C3 4322   0.796   2.996  15.771 -0.4026  0.3455 -0.1253
  283TMC3    C4 4323   0.788   2.795  15.583  0.0266  0.2812 -0.0833
  283TMC3    C5 4324   0.695   2.801  15.683 -0.3446 -0.4172 -0.5509
  283TMC3    C6 4325   0.695   2.899  15.780 -0.4309  0.0626 -0.4043
  283TMC3     C 4326   0.969   2.888  15.467 -0.3716  0.3763 -0.4112
  283TMC3     O 4327   1.079   2.935  15.497 -0.3997 -1.0110 -0.1232
  283TMC3     H 4328   0.967   3.069  15.659  1.8298 -2.8415 -1.1416
  283TMC3    H1 4329   0.800   2.703  15.527 -2.1496 -1.2913  2.0403
  283TMC3    H2 4330   0.619   2.897  15.857 -1.1900 -1.0848 -1.1893
  283TMC3    C7 4331   0.615   2.687  15.725  0.3242 -0.2670 -0.8334
  283TMC3    C8 4332   0.762   3.112  15.841 -0.5946  0.4497  0.2027
  283TMC3    O1 4333   0.592   2.675  15.847 -0.3196 -0.0754 -0.2108
  283TMC3    O2 4334   0.684   3.100  15.934  0.1690  0.4316 -0.1051
  284MPD2     C 4335   3.869   2.051  12.380  0.0141  0.3799  0.0366
  284MPD2    C1 4336   3.991   2.110  12.371  0.4759  0.3667  0.8091
  284MPD2    C2 4337   4.093   2.070  12.453  0.1246  0.2160 -0.9431
  284MPD2    C3 4338   4.088   1.956  12.529 -0.1932 -0.1908 -0.1396
  284MPD2    C4 4339   3.963   1.903  12.550 -0.0703  0.2454  0.3573
  284MPD2    C5 4340   3.860   1.960  12.482  0.0349  0.6167  0.4944
  284MPD2     H 4341   4.180   2.132  12.436 -1.2035  2.5942  0.8897
  284MPD2    H1 4342   3.944   1.819  12.615 -0.7011  0.7645  0.8375
  284MPD2    H2 4343   3.780   2.087  12.330 -0.1769 -0.2045 -0.0440
  284MPD2    H3 4344   3.760   1.932  12.511 -0.1196  0.6311 -0.0169
  284MPD2     N 4345   4.200   1.888  12.589 -0.2825 -0.1904  0.2078
  284MPD2    H5 4346   4.191   1.821  12.665  0.0829 -1.0564 -0.5252
  284MPD2    N1 4347   4.019   2.208  12.279 -0.6267  0.1121 -0.3879
  284MPD2    H7 4348   4.109   2.254  12.286  0.0218 -1.1600 -0.2760
  285TMC3    C1 4349   4.006   2.366  12.114  0.3190  0.5441 -0.8409
  285TMC3    C2 4350   4.132   2.343  12.069 -1.2572 -0.2513 -0.5254
  285TMC3    C3 4351   4.180   2.427  11.976  0.0526  0.3551 -0.5730
  285TMC3    C4 4352   3.937   2.483  12.085  0.7280  0.6479 -0.0155
  285TMC3    C5 4353   4.003   2.578  12.013 -0.2126  0.3414  0.4173
  285TMC3    C6 4354   4.128   2.557  11.964 -0.5142 -0.0293 -0.6180
  285TMC3     C 4355   3.933   2.266  12.191 -0.7006 -0.4142 -0.2347
  285TMC3     O 4356   3.809   2.274  12.188  0.0673  0.1972 -0.1221
  285TMC3     H 4357   4.175   2.243  12.076 -1.4884 -0.3222 -0.1304
  285TMC3    H1 4358   3.834   2.494  12.116  0.8773  2.3630 -0.1363
  285TMC3    H2 4359   4.165   2.632  11.896 -1.7421  0.8823 -0.2707
  285TMC3    C7 4360   3.925   2.671  11.936  0.9052  0.1659  0.3863
  285TMC3    C8 4361   4.259   2.379  11.862  0.5835  0.4268  0.2698
  285TMC3    O1 4362   3.974   2.780  11.906  0.0853  0.0541 -0.1227
  285TMC3    O2 4363   4.273   2.259  11.858 -0.1615 -0.0499  0.3446
  286MPD2     C 4364   4.135   1.454   1.397  0.0018 -0.2036  0.1328
  286MPD2    C1 4365   4.088   1.342   1.334 -0.1294 -0.7219 -0.6158
  286MPD2    C2 4366   4.178   1.235   1.316  0.2133  0.0863  0.8452
  286MPD2    C3 4367   4.301   1.230   1.371  0.1828  0.3867 -0.0914
  286MPD2    C4 4368   4.347   1.344   1.437 -0.6478 -0.3961 -0.3484
  286MPD2    C5 4369   4.262   1.455   1.443  0.0593 -0.4428  0.5642
  286MPD2     H 4370   4.139   1.156   1.252 -0.7762  1.0187  0.2905
  286MPD2    H1 4371   4.446   1.344   1.482 -1.5153 -1.3175  1.5812
  286MPD2    H2 4372   4.079   1.545   1.409  2.5722  1.4247 -0.3343
  286MPD2    H3 4373   4.299   1.540   1.499 -1.7571  0.5432  0.2892
  286MPD2     N 4374   4.390   1.117   1.356 -0.1520  0.2012 -0.2495
  286MPD2    H5 4375   4.484   1.121   1.394 -0.2960 -1.4700  0.2611
  286MPD2    N1 4376   3.959   1.324   1.281 -0.0665  0.0826 -0.0555
  286MPD2    H7 4377   3.943   1.243   1.221 -0.8554 -0.3404  0.7131
  287TMC3    C1 4378   4.454   0.894   1.291  0.0277  0.0784 -0.6026
  287TMC3    C2 4379   4.409   0.769   1.243 -0.2518  0.0754  0.3931
  287TMC3    C3 4380   4.502   0.676   1.203 -0.3817 -0.3097 -0.4262
  287TMC3    C4 4381   4.588   0.916   1.316 -0.1453 -0.1312 -0.2818
  287TMC3    C5 4382   4.675   0.810   1.289 -0.2968  0.6590  0.2704
  287TMC3    C6 4383   4.632   0.694   1.234 -0.0538 -0.2602 -0.0687
  287TMC3     C 4384   4.350   0.994   1.308 -0.6012  0.1287  0.0923
  287TMC3     O 4385   4.234   0.953   1.292  0.0881 -0.4998 -0.1836
  287TMC3     H 4386   4.304   0.747   1.226  0.4409 -1.6812 -1.5921
  287TMC3    H1 4387   4.617   1.011   1.358 -3.4371 -0.2488  2.2742
  287TMC3    H2 4388   4.699   0.621   1.188 -1.9032 -2.0699  0.1226
  287TMC3    C7 4389   0.075   0.830   1.332  0.8903  0.3238 -0.3764
  287TMC3    C8 4390   4.442   0.569   1.129  0.0683 -0.5392 -0.0324
  287TMC3    O1 4391   0.107   0.935   1.389  0.0292 -0.3396  0.0671
  287TMC3    O2 4392   4.326   0.539   1.148 -0.1402 -0.4650  0.1205
  288TMC3    C1 4393   1.574   0.827  14.209  0.6130 -0.4450 -0.2437
  288TMC3    C2 4394   1.467   0.786  14.280  0.3170 -0.3143 -0.7909
  288TMC3    C3 4395   1.368   0.874  14.310  0.1831 -0.0837 -0.5229
  288TMC3    C4 4396   1.597   0.961  14.187  0.1719  0.0846 -0.0282
  288TMC3    C5 4397   1.499   1.048  14.221  0.3827  0.7417 -0.1674
  288TMC3    C6 4398   1.385   1.009  14.289 -0.1205 -0.0142  0.3420
  288TMC3     C 4399   1.693   0.742  14.217  0.3404  0.3080 -0.5505
  288TMC3     O 4400   1.700   0.667  14.314  0.4705 -0.6905  0.0693
  288TMC3     H 4401   1.454   0.679  14.295  0.3805 -0.0450  1.2576
  288TMC3    H1 4402   1.690   0.994  14.143 -0.2141  1.1995 -0.0095
  288TMC3    H2 4403   1.318   1.090  14.317 -1.9178 -1.2926 -0.2878
  288TMC3    C7 4404   1.543   1.186  14.200 -0.6283 -0.0440  0.8584
  288TMC3    C8 4405   1.227   0.843  14.271 -0.3167 -0.5789 -0.0403
  288TMC3    O1 4406   1.655   1.208  14.179 -0.2358  0.1778  0.1125
  288TMC3    O2 4407   1.167   0.932  14.210 -0.2672 -0.3790  0.7726
  289MPD2     C 4408   1.234   4.513  14.638 -0.3657  0.2994  0.1802
  289MPD2    C1 4409   1.245   4.588  14.528  0.3191  0.1540 -0.1623
  289MPD2    C2 4410   1.149   4.595  14.431 -0.2178  0.3679  0.2646
  289MPD2    C3 4411   1.039   4.508  14.435  0.3662 -0.3433  0.0423
  289MPD2    C4 4412   1.031   4.410  14.536  0.0561 -0.0338  0.3085
  289MPD2    C5 4413   1.129   4.423  14.637 -0.1922 -0.3227 -0.3489
  289MPD2     H 4414   1.164   4.654  14.342  0.5221 -1.2878 -0.7165
  289MPD2    H1 4415   0.952   4.337  14.548 -0.8762  0.5099 -2.5247
  289MPD2    H2 4416   1.303   4.519  14.721 -0.0487 -1.4396  0.0362
  289MPD2    H3 4417   1.125   4.360  14.725 -0.9344 -0.5442 -0.5371
  289MPD2     N 4418   0.928   4.519  14.357 -0.3521  0.1858 -0.2821
  289MPD2    H5 4419   0.866   4.442  14.382  0.6633 -0.1414  1.2334
  289MPD2    N1 4420   1.367   4.659  14.508 -0.3180 -0.3132  0.2578
  289MPD2    H7 4421   1.434   4.669  14.583 -0.8775 -1.6993  0.9520
  290TMC3    C1 4422   0.807   4.578  14.147  0.1277  0.1099  0.0887
  290TMC3    C2 4423   0.773   4.687  14.068 -0.0241 -0.2056  0.0811
  290TMC3    C3 4424   0.669   4.670  13.971  0.5995 -0.0888  0.2701
  290TMC3    C4 4425   0.735   4.454  14.143 -0.2299  0.5832  0.0540
  290TMC3    C5 4426   0.641   4.444  14.044  0.1053  0.3430  0.0291
  290TMC3    C6 4427   0.609   4.549  13.962 -0.4562  1.3530  0.8955
  290TMC3     C 4428   0.913   4.603  14.244  0.6184  0.2441 -0.1107
  290TMC3     O 4429   0.983   4.693  14.204  0.6847  0.3736  0.3050
  290TMC3     H 4430   0.821   0.046  14.071  1.6619 -0.9977 -1.6588
  290TMC3    H1 4431   0.768   4.373  14.207 -1.7725  1.0602  1.4534
  290TMC3    H2 4432   0.541   4.521  13.882  0.3530  0.0352  0.6743
  290TMC3    C7 4433   0.520   4.375  14.083  0.6214 -0.1975  0.9030
  290TMC3    C8 4434   0.606   0.049  13.911  0.0733 -0.4051  0.0353
  290TMC3    O1 4435   0.413   4.432  14.078 -0.1148  0.2991 -0.3848
  290TMC3    O2 4436   0.539   0.021  13.814 -0.0050  0.3229  0.2366
  291MPD2     C 4437   0.101   4.401   0.575  0.0072 -0.0677 -0.2751
  291MPD2    C1 4438   0.158   4.297   0.651  0.1150  0.1910  0.0468
  291MPD2    C2 4439   0.275   4.320   0.722  0.5168 -0.7723 -0.2595
  291MPD2    C3 4440   0.328   4.445   0.732  0.6397  0.7679 -0.1121
  291MPD2    C4 4441   0.255   4.548   0.678 -0.2865  0.5177  0.2083
  291MPD2    C5 4442   0.145   4.528   0.597  0.0985  0.8314 -0.3498
  291MPD2     H 4443   0.325   4.234   0.765 -0.4349 -1.7238 -1.0449
  291MPD2    H1 4444   0.289   4.651   0.689  0.7008  0.3099 -0.9240
  291MPD2    H2 4445   0.016   4.394   0.508 -2.7776  5.0715  2.7019
  291MPD2    H3 4446   0.084   4.612   0.567 -0.7270 -0.0648 -1.2033
  291MPD2     N 4447   0.445   4.470   0.809  0.2851  0.0022  0.3071
  291MPD2    H5 4448   0.487   4.560   0.790  1.8663 -0.5771  1.0545
  291MPD2    N1 4449   0.093   4.169   0.670  0.6237 -0.2439  0.4449
  291MPD2    H7 4450   0.138   4.111   0.739  1.8410  0.7597  0.4923
  292TMC3    C1 4451   4.692   3.982   0.623  0.1790 -0.1184  0.0681
  292TMC3    C2 4452   0.001   3.925   0.732  0.2400 -0.3330 -0.4266
  292TMC3    C3 4453   4.727   3.792   0.743 -0.1472 -0.1455  0.3990
  292TMC3    C4 4454   4.648   3.910   0.511  0.1071 -0.3074  0.2094
  292TMC3    C5 4455   4.641   3.771   0.526 -0.5777 -0.0006  0.0347
  292TMC3    C6 4456   4.679   3.714   0.644 -0.7573 -0.1733  0.1726
  292TMC3     C 4457   4.719   4.124   0.600 -0.5920  0.5208  0.0587
  292TMC3     O 4458   4.663   4.175   0.501  0.1335  0.0597  0.1184
  292TMC3     H 4459   0.038   3.977   0.820 -0.6007 -1.2344  0.4658
  292TMC3    H1 4460   4.625   3.958   0.417 -1.2365  1.1310  1.2540
  292TMC3    H2 4461   4.682   3.606   0.653  2.3701 -0.1867 -1.1239
  292TMC3    C7 4462   4.626   3.678   0.414  0.1893 -0.6539 -0.3730
  292TMC3    C8 4463   0.014   3.732   0.871 -0.5310  1.2229 -0.1370
  292TMC3    O1 4464   4.694   3.577   0.413 -0.3100  0.1995  0.3531
  292TMC3    O2 4465   0.114   3.772   0.928 -0.2158  0.4017  0.4050
  293MPD2     C 4466   2.374   1.175  12.621  0.3036 -0.3192  0.0936
  293MPD2    C1 4467   2.275   1.123  12.705  0.7719  0.1922  0.5572
  293MPD2    C2 4468   2.279   1.159  12.840  0.6178 -0.7532 -0.1248
  293MPD2    C3 4469   2.374   1.239  12.899  0.1009  0.4074  0.0891
  293MPD2    C4 4470   2.476   1.284  12.815  0.0797  0.5781  0.2385
  293MPD2    C5 4471   2.474   1.254  12.682 -0.2496  0.6876  0.0605
  293MPD2     H 4472   2.206   1.123  12.912 -0.5758  1.7333 -0.0860
  293MPD2    H1 4473   2.553   1.354  12.845  0.9886 -0.0449 -0.6654
  293MPD2    H2 4474   2.384   1.150  12.516  2.0067 -1.5200  0.5501
  293MPD2    H3 4475   2.554   1.283  12.614 -1.8299  4.8455 -0.0275
  293MPD2     N 4476   2.350   1.270  13.034 -0.8778  0.1325 -0.3238
  293MPD2    H5 4477   2.272   1.227  13.082  0.6794 -0.9920  1.1955
  293MPD2    N1 4478   2.187   1.023  12.660 -0.1282  0.5115 -0.3107
  293MPD2    H7 4479   2.191   0.997  12.562 -0.1137 -0.6881  0.0125
  294TMC3    C1 4480   2.040   0.838  12.667  0.1535  0.1987 -0.6039
  294TMC3    C2 4481   1.988   0.734  12.742  0.9908  0.6282 -0.3792
  294TMC3    C3 4482   1.899   0.651  12.683 -0.2043  0.1158  0.4037
  294TMC3    C4 4483   2.015   0.845  12.530  0.6059  0.3043 -0.1463
  294TMC3    C5 4484   1.931   0.748  12.477  0.8256 -0.3176 -0.0725
  294TMC3    C6 4485   1.862   0.665  12.555 -0.0965 -0.4434  0.7199
  294TMC3     C 4486   2.120   0.936  12.742 -0.3775  0.1734 -0.2130
  294TMC3     O 4487   2.120   0.922  12.863 -0.2459 -0.6957  0.0442
  294TMC3     H 4488   2.037   0.711  12.836  1.8310 -1.2885 -1.2878
  294TMC3    H1 4489   2.035   0.931  12.466 -1.1028  0.0334 -1.0527
  294TMC3    H2 4490   1.777   0.612  12.514 -1.3411  1.9572  0.2000
  294TMC3    C7 4491   1.942   0.713  12.339  0.6161 -0.1606  0.5289
  294TMC3    C8 4492   1.930   0.517  12.712 -0.3316 -0.7735 -0.2574
  294TMC3    O1 4493   1.911   0.597  12.321  0.2335 -0.0988 -0.2386
  294TMC3    O2 4494   2.005   0.479  12.801 -0.6319 -0.0672  0.0705
  295MPD2     C 4495   2.313   0.225   0.760 -0.4996 -1.1464 -0.4691
  295MPD2    C1 4496   2.367   0.101   0.759 -0.1131  0.8136 -0.1011
  295MPD2    C2 4497   2.320   0.010   0.849  0.4164 -0.0053 -0.7969
  295MPD2    C3 4498   2.209   0.035   0.929 -0.7102 -0.1878 -0.0457
  295MPD2    C4 4499   2.152   0.162   0.922 -0.0742 -0.3828 -0.3331
  295MPD2    C5 4500   2.202   0.254   0.837  0.2572 -0.1780  0.0500
  295MPD2     H 4501   2.357   4.645   0.848 -0.4203 -0.3257  0.5876
  295MPD2    H1 4502   2.067   0.195   0.981  0.3630 -0.2536  0.2251
  295MPD2    H2 4503   2.343   0.299   0.687 -1.8164  0.3368  0.4969
  295MPD2    H3 4504   2.152   0.349   0.820  0.1684 -0.1774  0.3226
  295MPD2     N 4505   2.154   4.678   1.023 -0.2758  0.6386 -0.2585
  295MPD2    H5 4506   2.072   4.719   1.068 -0.5641 -0.2391  0.0074
  295MPD2    N1 4507   2.465   0.070   0.659 -0.1846 -0.2239  0.0181
  295MPD2    H7 4508   2.496   0.151   0.607  1.4957 -0.3130  0.8743
  296TMC3    C1 4509   2.150   4.470   1.161  0.3861 -0.3295  0.0504
  296TMC3    C2 4510   2.026   4.510   1.206 -0.4015 -0.2817  0.1568
  296TMC3    C3 4511   1.959   4.422   1.285 -0.5075  0.0202  0.1386
  296TMC3    C4 4512   2.220   4.364   1.215  0.7273  0.4988  0.2402
  296TMC3    C5 4513   2.149   4.287   1.304  0.9293  0.0359  0.2316
  296TMC3    C6 4514   2.017   4.308   1.331  0.1453  0.8278 -0.2699
  296TMC3     C 4515   2.213   4.555   1.054 -0.4392  0.2507 -0.0873
  296TMC3     O 4516   2.307   4.502   0.997  0.3346 -0.1872  0.2428
  296TMC3     H 4517   1.963   4.588   1.165 -2.1559 -1.6491  0.2218
  296TMC3    H1 4518   2.327   4.350   1.205  0.8742  1.8124 -0.0344
  296TMC3    H2 4519   1.960   4.233   1.385 -0.4253  0.7735 -0.9425
  296TMC3    C7 4520   2.220   4.171   1.357 -0.0466  0.2966  0.2926
  296TMC3    C8 4521   1.826   4.460   1.322 -0.3881  1.0325 -0.1047
  296TMC3    O1 4522   2.315   4.130   1.289  0.1930 -0.0526 -0.5934
  296TMC3    O2 4523   1.735   4.376   1.310 -0.1620 -0.3700 -0.0896
  297MPD2     C 4524   4.438   1.774  15.699 -0.0920 -0.2549  0.0520
  297MPD2    C1 4525   4.471   1.890  15.758 -0.4003 -0.5373  1.3017
  297MPD2    C2 4526   4.603   1.922  15.784  1.1244 -0.1486  0.6527
  297MPD2    C3 4527   4.704   1.832  15.756  0.7017 -0.3252  0.5002
  297MPD2    C4 4528   4.668   1.713  15.693  0.2285  0.1674 -0.2844
  297MPD2    C5 4529   4.535   1.682  15.673  0.6783 -0.1237  0.3207
  297MPD2     H 4530   4.633   2.017  15.827 -0.1659 -0.0318  1.3005
  297MPD2    H1 4531   4.737   1.632  15.674 -0.3347 -0.5213  0.5916
  297MPD2    H2 4532   4.339   1.748  15.662  0.2848  0.4930 -1.4840
  297MPD2    H3 4533   4.506   1.587  15.629  1.4381 -1.0692  1.8534
  297MPD2     N 4534   0.098   1.865  15.797  0.5223 -0.4616  0.0952
  297MPD2    H5 4535   0.104   1.962  15.828  1.0189 -0.0109 -1.4073
  297MPD2    N1 4536   4.372   1.986  15.781 -0.7761  0.3161  0.2097
  297MPD2    H7 4537   4.400   2.082  15.796  0.4720 -0.0071 -0.0836
  298TMC3    C1 4538   4.162   2.065  15.820 -0.3591 -0.7788 -0.2651
  298TMC3    C2 4539   4.176   2.179  15.749  0.4881  0.1396  0.0684
  298TMC3    C3 4540   4.106   2.289  15.794 -0.2653 -0.2783  0.3807
  298TMC3    C4 4541   4.080   2.053  15.929 -0.2116  0.6058 -0.0159
  298TMC3    C5 4542   4.007   2.165  15.964 -0.6801 -0.1168 -0.1321
  298TMC3    C6 4543   4.015   2.277  15.892  0.8496 -0.2426  0.0908
  298TMC3     C 4544   4.244   1.946  15.801  0.1727 -0.3605 -0.3881
  298TMC3     O 4545   4.187   1.839  15.813  0.5016  0.2892 -0.4855
  298TMC3     H 4546   4.244   2.185  15.664  1.5207 -1.7385  0.7439
  298TMC3    H1 4547   4.062   1.961  15.983 -0.1782  0.1390 -0.7890
  298TMC3    H2 4548   3.962   2.369  15.915  1.4482  1.0897 -3.8419
  298TMC3    C7 4549   3.891   2.156  16.053 -0.1294  0.3602  0.1875
  298TMC3    C8 4550   4.130   2.417  15.735 -0.1568 -0.4891 -0.2971
  298TMC3    O1 4551   3.895   2.086  16.153  0.3601 -0.5209 -0.0941
  298TMC3    O2 4552   4.094   2.520  15.795  0.0939  0.1198  0.6929
  299MPD2     C 4553   1.257   1.576  10.714 -0.4012  0.6787  0.1749
  299MPD2    C1 4554   1.206   1.701  10.747 -0.2198 -0.6859 -0.2372
  299MPD2    C2 4555   1.066   1.728  10.731  0.5025 -0.1310  0.0589
  299MPD2    C3 4556   0.990   1.627  10.675  0.7723  0.3005 -0.8647
  299MPD2    C4 4557   1.045   1.496  10.652  0.3970 -0.1451 -0.1114
  299MPD2    C5 4558   1.177   1.468  10.670  0.3417 -0.6483  0.1173
  299MPD2     H 4559   1.016   1.816  10.769 -1.0437 -1.4182  0.9711
  299MPD2    H1 4560   0.986   1.412  10.619 -0.6849  0.6317 -0.1439
  299MPD2    H2 4561   1.362   1.549  10.725 -1.6513 -3.1289  2.8491
  299MPD2    H3 4562   1.211   1.368  10.651 -0.7998 -1.1539  0.7054
  299MPD2     N 4563   0.854   1.627  10.654 -0.3844  0.1837 -0.3143
  299MPD2    H5 4564   0.811   1.538  10.630  0.3273 -0.1375 -0.3859
  299MPD2    N1 4565   1.296   1.786  10.822  0.0673 -0.1682 -0.2012
  299MPD2    H7 4566   1.390   1.759  10.847 -0.1262 -0.0361  0.6508
  300TMC3    C1 4567   0.631   1.700  10.649 -0.5545 -0.8741  0.0029
  300TMC3    C2 4568   0.555   1.792  10.591  0.5846 -0.4342  0.3698
  300TMC3    C3 4569   0.419   1.786  10.595  0.5963  0.2926 -0.1699
  300TMC3    C4 4570   0.582   1.618  10.739 -0.1762  0.2742  0.0293
  300TMC3    C5 4571   0.444   1.631  10.765  1.0107 -0.2664  0.1773
  300TMC3    C6 4572   0.353   1.702  10.684 -0.1905  0.0294  0.5951
  300TMC3     C 4573   0.769   1.741  10.658 -0.2964 -0.0277 -0.2724
  300TMC3     O 4574   0.811   1.855  10.661 -0.7249 -0.6287  0.5468
  300TMC3     H 4575   0.597   1.866  10.524  0.3499 -0.0195  0.6795
  300TMC3    H1 4576   0.653   1.586  10.814 -1.4518  2.0926  2.0146
  300TMC3    H2 4577   0.248   1.706  10.708 -0.4586 -0.5847 -0.4893
  300TMC3    C7 4578   0.396   1.560  10.887  0.2425  0.2962  0.3668
  300TMC3    C8 4579   0.342   1.895  10.535 -0.2736 -0.4727  0.6499
  300TMC3    O1 4580   0.459   1.462  10.930 -0.0056 -0.1121  0.1569
  300TMC3    O2 4581   0.404   1.995  10.511  0.7326 -0.1468 -0.3010
  301MPD2     C 4582   2.522   2.616   0.614  0.4951 -0.3828 -0.3007
  301MPD2    C1 4583   2.379   2.618   0.605  0.0476 -0.8578  0.3176
  301MPD2    C2 4584   2.315   2.498   0.576 -0.6352 -0.4842  0.2740
  301MPD2    C3 4585   2.390   2.381   0.562 -0.2891  0.6776  0.3045
  301MPD2    C4 4586   2.527   2.381   0.562 -0.2218 -0.2135 -0.3009
  301MPD2    C5 4587   2.585   2.498   0.588 -0.4450 -0.0106 -0.1260
  301MPD2     H 4588   2.207   2.493   0.567 -0.5523 -1.7067 -0.1031
  301MPD2    H1 4589   2.586   2.294   0.535 -0.8652 -0.7871  0.1237
  301MPD2    H2 4590   2.580   2.705   0.634 -0.8938  0.1348  1.5126
  301MPD2    H3 4591   2.692   2.503   0.601 -0.1346 -0.1173 -2.6666
  301MPD2     N 4592   2.325   2.257   0.560 -0.1365  0.0202  0.2336
  301MPD2    H5 4593   2.384   2.175   0.555 -0.5067 -0.1959 -0.5587
  301MPD2    N1 4594   2.303   2.738   0.629 -0.0737 -0.2239 -0.1023
  301MPD2    H7 4595   2.201   2.731   0.635  0.0744 -2.6535 -0.6798
  302TMC3    C1 4596   2.152   2.099   0.569 -0.1768  0.4962  0.1801
  302TMC3    C2 4597   2.228   2.018   0.646 -0.3766  0.7401 -0.0679
  302TMC3    C3 4598   2.172   1.898   0.681 -0.1862  0.3575 -0.2096
  302TMC3    C4 4599   2.030   2.063   0.526 -0.3427  0.0722 -0.4332
  302TMC3    C5 4600   1.982   1.937   0.553  0.6723  0.2287 -0.0687
  302TMC3    C6 4601   2.056   1.849   0.631 -0.0514  0.0965 -0.0109
  302TMC3     C 4602   2.190   2.236   0.554 -0.4067  0.3822 -0.4649
  302TMC3     O 4603   2.093   2.311   0.554  0.0052 -0.4766  0.3264
  302TMC3     H 4604   2.319   2.053   0.693 -0.7147  1.0850  0.3313
  302TMC3    H1 4605   1.977   2.130   0.459  1.5951  0.9630 -1.0897
  302TMC3    H2 4606   2.025   1.746   0.640 -1.0430  0.4193  0.2662
  302TMC3    C7 4607   1.848   1.902   0.521  0.0095 -0.2847 -0.0949
  302TMC3    C8 4608   2.230   1.830   0.795  0.7996  0.0763 -0.9860
  302TMC3    O1 4609   1.824   1.784   0.503 -0.0482  0.6173  0.1655
  302TMC3    O2 4610   2.349   1.850   0.799 -0.5427 -0.1563 -0.0441
  303MPD2     C 4611   3.178   2.062  11.013 -0.0036  1.3431 -0.6290
  303MPD2    C1 4612   3.069   1.981  10.990 -0.5379 -0.2586  0.3938
  303MPD2    C2 4613   3.036   1.953  10.857 -0.5019  0.2145 -0.1117
  303MPD2    C3 4614   3.114   1.998  10.751 -0.2500  0.4933  0.3091
  303MPD2    C4 4615   3.219   2.091  10.779  0.2495 -0.7791  0.3856
  303MPD2    C5 4616   3.243   2.123  10.913 -0.2877  0.3126 -0.0788
  303MPD2     H 4617   2.966   1.874  10.831  0.5982 -1.2472  1.4424
  303MPD2    H1 4618   3.282   2.125  10.699 -1.5882  0.0468 -0.6961
  303MPD2    H2 4619   3.199   2.105  11.111  2.2609  1.2092 -1.0442
  303MPD2    H3 4620   3.304   2.211  10.930  1.8567 -1.2065  0.1230
  303MPD2     N 4621   3.093   1.954  10.619 -0.0376  0.6092  0.6238
  303MPD2    H5 4622   3.158   1.973  10.544 -0.6988  0.0012 -0.1072
  303MPD2    N1 4623   2.987   1.940  11.103 -0.0082 -0.5654  0.7476
  303MPD2    H7 4624   3.004   1.984  11.193 -3.9468 -0.6706  1.5477
  304TMC3    C1 4625   2.815   1.847  11.219  1.2158  0.2674 -0.2048
  304TMC3    C2 4626   2.681   1.854  11.220  0.2541  0.1553 -0.2698
  304TMC3    C3 4627   2.615   1.809  11.326  0.9245  0.2409  0.5731
  304TMC3    C4 4628   2.895   1.781  11.308  0.9496 -0.1538 -0.5266
  304TMC3    C5 4629   2.825   1.728  11.414 -0.1238  0.2930 -0.1230
  304TMC3    C6 4630   2.691   1.764  11.431  0.2636 -0.4860 -0.3249
  304TMC3     C 4631   2.870   1.870  11.096  0.7901 -0.8082 -0.0646
  304TMC3     O 4632   2.815   1.825  10.997  0.1242 -0.3477  0.0910
  304TMC3     H 4633   2.625   1.879  11.131 -1.7700 -1.1137  0.6663
  304TMC3    H1 4634   3.001   1.768  11.289  1.0550  0.3324 -0.2805
  304TMC3    H2 4635   2.636   1.721  11.514 -3.0056  2.4749 -0.9638
  304TMC3    C7 4636   2.825   1.584  11.403  0.1967  0.4351 -0.2373
  304TMC3    C8 4637   2.512   1.720  11.291  0.2243  0.6030 -0.2319
  304TMC3    O1 4638   2.724   1.526  11.433  0.4433  0.0861 -0.0100
  304TMC3    O2 4639   2.517   1.679  11.177  0.0505  0.0791  0.6578
  305MPD2     C 4640   0.748   3.339  14.080  0.0401 -0.2184 -0.4489
  305MPD2    C1 4641   0.814   3.215  14.097  0.5438 -1.0178 -0.1149
  305MPD2    C2 4642   0.815   3.121  13.998  0.4515 -0.1040 -0.4169
  305MPD2    C3 4643   0.754   3.151  13.880 -0.6400 -0.1360 -0.7767
  305MPD2    C4 4644   0.699   3.278  13.859 -0.0852 -0.2266  0.2219
  305MPD2    C5 4645   0.697   3.373  13.959 -0.8547  0.4267  0.0660
  305MPD2     H 4646   0.859   3.023  14.010 -0.1807 -0.5482 -1.7708
  305MPD2    H1 4647   0.645   3.298  13.768  1.3681 -2.5089 -1.1416
  305MPD2    H2 4648   0.742   3.404  14.167  0.5720 -0.7593 -0.0089
  305MPD2    H3 4649   0.649   3.468  13.939  0.9511  0.9209 -1.9598
  305MPD2     N 4650   0.738   3.057  13.780 -0.0027 -0.6418 -0.4418
  305MPD2    H5 4651   0.709   3.095  13.691  0.0586 -1.7657 -0.9487
  305MPD2    N1 4652   0.871   3.183  14.227  0.2744 -0.9095  0.6401
  305MPD2    H7 4653   0.863   3.256  14.296  0.9209  0.7534 -1.0272
  306TMC3    C1 4654   1.004   3.079  14.387  0.4909 -0.5452  0.2016
  306TMC3    C2 4655   1.114   2.999  14.396  0.4444 -0.1802 -0.3903
  306TMC3    C3 4656   1.197   3.017  14.504  0.0605 -0.1102  0.0130
  306TMC3    C4 4657   0.968   3.169  14.479  0.2803 -0.1879 -0.0932
  306TMC3    C5 4658   1.045   3.161  14.593 -0.4078  0.4838 -0.3434
  306TMC3    C6 4659   1.163   3.097  14.609 -0.6183 -0.2472 -0.1165
  306TMC3     C 4660   0.927   3.063  14.263 -0.0795  0.0124 -0.2722
  306TMC3     O 4661   0.944   2.959  14.204 -0.3477  0.1269 -0.2458
  306TMC3     H 4662   1.151   2.934  14.317  2.9663  0.5807  0.1338
  306TMC3    H1 4663   0.873   3.221  14.487 -1.0174 -2.7856  1.3863
  306TMC3    H2 4664   1.218   3.098  14.703 -1.1478  0.0184  0.1873
  306TMC3    C7 4665   0.976   3.195  14.718 -0.1243 -1.4913  0.0264
  306TMC3    C8 4666   1.311   2.926  14.503 -0.3585 -0.0667  0.1697
  306TMC3    O1 4667   0.858   3.170  14.729 -0.1744 -0.0243  0.5958
  306TMC3    O2 4668   1.359   2.886  14.399 -0.3416  0.1044  0.3334
  307MPD2     C 4669   3.095   1.018   0.241  0.0803  0.5813  0.2325
  307MPD2    C1 4670   3.094   1.155   0.229  0.4267  0.7021  0.8852
  307MPD2    C2 4671   3.025   1.231   0.321 -0.3626  0.2245 -0.5075
  307MPD2    C3 4672   2.953   1.166   0.421 -0.2987  0.0559  0.0517
  307MPD2    C4 4673   2.959   1.032   0.433  0.4417  0.2011  0.5014
  307MPD2    C5 4674   3.029   0.957   0.345 -0.1654  0.4175 -0.0890
  307MPD2     H 4675   3.013   1.337   0.302 -1.8083  0.0036 -0.8708
  307MPD2    H1 4676   2.916   0.981   0.518 -0.3432 -1.7348 -1.0428
  307MPD2    H2 4677   3.147   0.957   0.168  1.0739  2.0567 -0.2851
  307MPD2    H3 4678   3.036   0.850   0.357  1.3524  0.6437  1.1581
  307MPD2     N 4679   2.876   1.251   0.508  1.1348  0.3651 -0.0292
  307MPD2    H5 4680   2.889   1.349   0.487 -0.9061  0.8669  1.0266
  307MPD2    N1 4681   3.157   1.228   0.124  0.0812 -0.0958  0.4005
  307MPD2    H7 4682   3.154   1.329   0.126  0.5322 -0.0548 -1.3929
  308TMC3    C1 4683   2.482   1.401   0.688 -0.3225  0.0696  0.4293
  308TMC3    C2 4684   2.525   1.534   0.695 -0.0885 -0.1306  0.7441
  308TMC3    C3 4685   2.658   1.544   0.669  0.1269 -0.0467  0.1841
  308TMC3    C4 4686   2.563   1.292   0.660 -0.0605  0.6393 -0.7114
  308TMC3    C5 4687   2.700   1.318   0.651 -0.3255  0.1918 -0.4032
  308TMC3    C6 4688   2.747   1.444   0.642 -0.4085 -0.5156 -0.0554
  308TMC3     C 4689   2.363   1.375   0.759 -0.0602  0.2036 -0.3695
  308TMC3     O 4690   2.370   1.286   0.843 -0.1442  0.2908  0.5518
  308TMC3     H 4691   2.460   1.618   0.718 -0.7233  0.2029 -2.1947
  308TMC3    H1 4692   2.527   1.190   0.650  1.3917  0.0353  0.1457
  308TMC3    H2 4693   2.852   1.469   0.638 -0.1711 -0.9961  3.3369
  308TMC3    C7 4694   2.778   1.206   0.587 -0.5838 -0.1462  0.1861
  308TMC3    C8 4695   2.714   1.685   0.699 -0.1437  0.2631 -0.0782
  308TMC3    O1 4696   2.735   1.093   0.619  0.7613 -0.7825  0.2121
  308TMC3    O2 4697   2.632   1.775   0.694 -0.3087 -0.2475 -0.0846
  309MPD2     C 4698   2.713   1.810  17.205  0.2641 -0.4916  0.1526
  309MPD2    C1 4699   2.641   1.884  17.111  0.4287 -0.4350  0.2162
  309MPD2    C2 4700   2.519   1.934  17.147  0.7693 -0.0347  0.2281
  309MPD2    C3 4701   2.456   1.901  17.267  0.3110  1.0133  0.1294
  309MPD2    C4 4702   2.523   1.818  17.354  0.2150 -0.1192 -0.3297
  309MPD2    C5 4703   2.650   1.776  17.321  0.4629  0.5975  0.2963
  309MPD2     H 4704   2.470   1.996  17.074  0.9392 -1.0907 -0.7818
  309MPD2    H1 4705   2.477   1.784  17.447  3.3388  0.5960  1.4886
  309MPD2    H2 4706   2.815   1.776  17.199 -0.1333 -1.6689 -0.0351
  309MPD2    H3 4707   2.702   1.702  17.381  1.3845 -1.4444 -3.0521
  309MPD2     N 4708   2.333   1.951  17.311 -0.4687 -0.2106  0.1335
  309MPD2    H5 4709   2.301   1.911  17.399  0.4812  1.7837  1.3742
  309MPD2    N1 4710   2.692   1.913  16.981  0.0594 -0.3214 -0.2487
  309MPD2    H7 4711   2.616   1.936  16.917 -0.0178  0.4550  0.1233
  310TMC3    C1 4712   2.836   1.859  16.809 -0.3618  0.2456  0.4381
  310TMC3    C2 4713   2.723   1.886  16.731 -0.2383  0.8371 -0.4325
  310TMC3    C3 4714   2.700   1.793  16.628  0.6893  1.0250 -0.2114
  310TMC3    C4 4715   2.930   1.767  16.774  1.0758 -0.2933 -0.1310
  310TMC3    C5 4716   2.902   1.688  16.669 -0.0001  0.0238  0.0446
  310TMC3    C6 4717   2.784   1.691  16.603  0.9628 -0.1624 -0.0506
  310TMC3     C 4718   2.823   1.892  16.947 -0.6180 -0.2148 -0.8163
  310TMC3     O 4719   2.922   1.872  17.017 -0.0522  0.3056  0.2299
  310TMC3     H 4720   2.655   1.967  16.755 -2.9876 -0.7656 -2.6952
  310TMC3    H1 4721   3.019   1.755  16.834  1.8605  0.8061 -1.0955
  310TMC3    H2 4722   2.771   1.633  16.512  3.7410 -2.3111  0.9255
  310TMC3    C7 4723   2.984   1.570  16.661  0.4800 -0.7285  1.1814
  310TMC3    C8 4724   2.606   1.824  16.521  0.0662 -1.2154  0.5438
  310TMC3    O1 4725   3.105   1.572  16.683  0.5445  0.3813 -0.1148
  310TMC3    O2 4726   2.610   1.768  16.412  0.1788  0.1517 -0.0740
  311MPD2     C 4727   4.640   2.741  12.585  0.6476 -0.3250  0.5780
  311MPD2    C1 4728   4.692   2.822  12.680 -1.1600  0.0990  0.1193
  311MPD2    C2 4729   4.605   2.881  12.777 -0.3429 -0.9412 -0.0717
  311MPD2    C3 4730   4.478   2.828  12.786  0.2577 -0.8135  0.3806
  311MPD2    C4 4731   4.435   2.727  12.701  0.1825  0.1133  0.5733
  311MPD2    C5 4732   4.511   2.692  12.596  0.5146 -0.3297 -0.4785
  311MPD2     H 4733   4.638   2.959  12.844 -0.9247  1.3420 -2.4261
  311MPD2    H1 4734   4.341   2.674  12.714  1.4105 -2.2000 -0.0502
  311MPD2    H2 4735   4.691   2.713  12.493 -0.1467  1.9859 -0.5405
  311MPD2    H3 4736   4.481   2.612  12.530 -0.5681  0.0369 -0.4223
  311MPD2     N 4737   4.389   2.893  12.880 -0.2413 -1.1668  0.4787
  311MPD2    H5 4738   4.425   2.968  12.938 -0.6166 -0.2835 -0.4389
  311MPD2    N1 4739   0.096   2.861  12.678 -0.3702  0.2356  0.2994
  311MPD2    H7 4740   0.122   2.922  12.754  1.3699 -1.1906  0.8441
  312TMC3    C1 4741   4.208   2.927  13.039 -0.0586  0.0088  0.0674
  312TMC3    C2 4742   4.078   2.971  13.025  0.7812 -0.2221 -0.7959
  312TMC3    C3 4743   4.026   3.043  13.133  0.2563 -0.1470  0.1397
  312TMC3    C4 4744   4.284   2.927  13.154  0.1309 -0.2605  0.0690
  312TMC3    C5 4745   4.222   2.993  13.254 -0.4384 -0.3919  0.0809
  312TMC3    C6 4746   4.101   3.052  13.247 -0.0693 -0.2337 -0.0855
  312TMC3     C 4747   4.264   2.849  12.920 -0.3382 -0.3500  0.3122
  312TMC3     O 4748   4.186   2.774  12.863 -0.1715 -0.0755  0.5308
  312TMC3     H 4749   4.023   2.947  12.935  1.2970  0.5818 -1.3276
  312TMC3    H1 4750   4.384   2.887  13.150  1.2041  2.6589 -2.7475
  312TMC3    H2 4751   4.055   3.100  13.333  0.7628  1.8913 -0.8340
  312TMC3    C7 4752   4.289   3.010  13.384  0.1913 -0.3384 -0.1516
  312TMC3    C8 4753   3.882   3.049  13.148 -0.1961 -0.0024 -0.4877
  312TMC3    O1 4754   4.270   3.113  13.447  0.2336  0.4492 -0.4259
  312TMC3    O2 4755   3.827   3.019  13.254 -0.2843  0.4130  0.5425
  313MPD2     C 4756   3.835   1.757  11.011 -0.5389 -0.5336  0.1061
  313MPD2    C1 4757   3.928   1.858  10.998  0.3922 -1.1861 -0.2550
  313MPD2    C2 4758   4.057   1.828  10.957  0.3004  0.4948 -0.1652
  313MPD2    C3 4759   4.103   1.701  10.943 -0.3224 -0.0877  0.2658
  313MPD2    C4 4760   4.015   1.596  10.956  0.7850 -0.7688  0.8498
  313MPD2    C5 4761   3.879   1.627  10.984  0.2005  0.2417  0.4578
  313MPD2     H 4762   4.122   1.914  10.949  2.1776 -1.1230 -2.1289
  313MPD2    H1 4763   4.041   1.491  10.957  0.5686 -0.8176  3.0835
  313MPD2    H2 4764   3.732   1.767  11.043 -0.5668 -0.8314  0.1138
  313MPD2    H3 4765   3.814   1.543  11.008 -1.6918  1.6170  0.1461
  313MPD2     N 4766   4.242   1.685  10.907  0.8068  0.4009  0.1063
  313MPD2    H5 4767   4.302   1.767  10.912 -0.4960  1.4792 -2.1710
  313MPD2    N1 4768   3.899   1.993  11.012  0.0228  0.5337 -0.0611
  313MPD2    H7 4769   3.976   2.058  11.005 -0.4712  1.0389 -0.9070
  314TMC3    C1 4770   3.772   2.182  11.044  0.1595 -0.3434 -0.4441
  314TMC3    C2 4771   3.850   2.230  11.143  0.3111  0.7446 -0.3442
  314TMC3    C3 4772   3.858   2.372  11.150  0.1342 -0.0356 -0.0682
  314TMC3    C4 4773   3.682   2.258  10.978 -0.2544 -0.3684  0.3768
  314TMC3    C5 4774   3.704   2.395  10.976  0.1557 -0.4529  0.9438
  314TMC3    C6 4775   3.788   2.457  11.063 -0.2096 -0.2302 -0.5372
  314TMC3     C 4776   3.773   2.043  11.019 -0.2045 -0.4540 -0.3148
  314TMC3     O 4777   3.665   1.982  11.026 -0.2822  0.2802 -0.7522
  314TMC3     H 4778   3.913   2.169  11.207  0.3065  0.4917 -0.5823
  314TMC3    H1 4779   3.616   2.212  10.905  1.1182 -3.7423  1.2761
  314TMC3    H2 4780   3.803   2.564  11.066 -2.7859  0.0554  3.1439
  314TMC3    C7 4781   3.623   2.474  10.888 -0.6837  0.9504 -0.1617
  314TMC3    C8 4782   3.927   2.433  11.262  0.0281 -0.0761 -0.5354
  314TMC3    O1 4783   3.511   2.427  10.875  0.1248  0.8753  0.1550
  314TMC3    O2 4784   3.950   2.360  11.360 -0.5540 -0.1667  0.1105
  315MPD2     C 4785   3.565   0.962  17.358  0.3521  0.2025  0.4254
  315MPD2    C1 4786   3.648   0.972  17.471  0.6446 -0.4275 -0.3678
  315MPD2    C2 4787   3.667   1.087  17.534  0.3393 -0.0717  0.4525
  315MPD2    C3 4788   3.619   1.203  17.472 -0.2134 -0.0742 -0.3199
  315MPD2    C4 4789   3.530   1.204  17.366  0.1910  0.7357  0.3318
  315MPD2    C5 4790   3.518   1.081  17.306  0.0770 -0.2602 -0.2528
  315MPD2     H 4791   3.741   1.098  17.613 -3.1276 -0.6783  3.7458
  315MPD2    H1 4792   3.490   1.294  17.322  0.9713  2.0172  2.2302
  315MPD2    H2 4793   3.539   0.866  17.314  0.0179  0.3222  0.3583
  315MPD2    H3 4794   3.469   1.077  17.209 -1.0941 -0.6500  0.3574
  315MPD2     N 4795   3.655   1.321  17.535  0.0592  0.1306  0.5337
  315MPD2    H5 4796   3.725   1.318  17.608  0.8359  3.4598 -0.0951
  315MPD2    N1 4797   3.712   0.849  17.510 -0.1780 -0.4089  0.0258
  315MPD2    H7 4798   3.762   0.848  17.599 -0.2139  0.8147  0.0512
  316TMC3    C1 4799   3.730   1.545  17.545 -0.8284 -0.7071 -0.1713
  316TMC3    C2 4800   3.825   1.508  17.641  0.0728  0.1754 -0.0126
  316TMC3    C3 4801   3.884   1.604  17.718  0.3429 -0.0560 -0.8036
  316TMC3    C4 4802   3.707   1.669  17.511 -1.3299 -1.3034  0.2413
  316TMC3    C5 4803   3.775   1.766  17.578 -0.3509 -0.0073  0.3655
  316TMC3    C6 4804   3.862   1.737  17.683 -0.3170 -0.2996  1.6997
  316TMC3     C 4805   3.652   1.446  17.480 -0.4940 -0.2270 -0.0279
  316TMC3     O 4806   3.586   1.484  17.383  0.2778  0.3771 -0.4969
  316TMC3     H 4807   3.842   1.406  17.673 -1.4451  0.5816  2.0977
  316TMC3    H1 4808   3.651   1.698  17.423  0.5816  0.7988 -0.2868
  316TMC3    H2 4809   3.910   1.817  17.739 -2.6772  3.0625 -1.1203
  316TMC3    C7 4810   3.786   1.903  17.525 -0.4959  0.9336 -0.2884
  316TMC3    C8 4811   3.998   1.572   0.044 -0.6465  0.1062 -0.6714
  316TMC3    O1 4812   3.802   1.979  17.622 -0.4536  0.6094 -0.1381
  316TMC3    O2 4813   4.027   1.651   0.132  0.6068 -0.1618  0.0368
  317MPD2     C 4814   0.904   0.190  13.066 -0.0099  0.2552 -0.4126
  317MPD2    C1 4815   0.935   0.060  13.028 -0.3228 -0.3216 -0.1535
  317MPD2    C2 4816   0.996   4.715  13.120 -0.0077  0.2881 -0.3012
  317MPD2    C3 4817   1.008   0.021  13.250  0.6659  0.3099 -0.4138
  317MPD2    C4 4818   0.970   0.142  13.288 -0.2161 -0.0190 -0.2347
  317MPD2    C5 4819   0.920   0.234  13.197 -0.5779 -0.4621 -0.0536
  317MPD2     H 4820   1.026   4.615  13.089 -1.0952 -0.9039  2.4906
  317MPD2    H1 4821   0.979   0.175  13.391  0.9760 -1.1721  0.0196
  317MPD2    H2 4822   0.848   0.262  13.006 -0.3989  0.1506 -0.1723
  317MPD2    H3 4823   0.867   0.319  13.239 -0.7790  0.2071 -1.6486
  317MPD2     N 4824   1.064   4.660  13.336 -0.1531  0.2864  0.2100
  317MPD2    H5 4825   1.088   4.573  13.289 -2.0590  0.3887 -0.9379
  317MPD2    N1 4826   0.927   0.016  12.898  0.1155 -0.3982 -0.4663
  317MPD2    H7 4827   0.970   4.662  12.880  1.1731  0.2935 -1.4256
  318TMC3    C1 4828   1.146   4.539  13.524 -0.3891 -0.2081 -0.1400
  318TMC3    C2 4829   1.100   4.414  13.492  0.3569 -0.3314 -0.2937
  318TMC3    C3 4830   1.164   4.307  13.547 -0.0508 -0.5896 -0.1969
  318TMC3    C4 4831   1.252   4.552  13.613  0.4099 -0.0819  0.2609
  318TMC3    C5 4832   1.316   4.436  13.661 -0.1068 -0.0502 -0.3127
  318TMC3    C6 4833   1.268   4.311  13.629  0.3285 -0.2478 -0.0455
  318TMC3     C 4834   1.090   4.659  13.476  0.3860 -0.1472 -0.9991
  318TMC3     O 4835   1.080   0.021  13.542 -0.2909  0.3431 -0.3510
  318TMC3     H 4836   1.004   4.404  13.443 -0.3925 -0.0907  1.1101
  318TMC3    H1 4837   1.288   4.653  13.628 -0.2184  0.5374 -2.4433
  318TMC3    H2 4838   1.327   4.222  13.648  0.1542 -0.6441 -1.4198
  318TMC3    C7 4839   1.456   4.457  13.707  0.5280  0.3412 -0.3186
  318TMC3    C8 4840   1.105   4.177  13.522  0.0703 -0.6720  0.4445
  318TMC3    O1 4841   1.496   4.574  13.711 -0.0241  0.4821 -0.3527
  318TMC3    O2 4842   1.132   4.090  13.606  0.1269 -0.3192 -0.1646
  319MPD2     C 4843   1.802   1.237  16.759  0.0202 -0.0771 -0.3421
  319MPD2    C1 4844   1.802   1.100  16.784  0.4222 -0.3178 -0.5567
  319MPD2    C2 4845   1.718   1.016  16.728 -0.0949 -0.4608 -1.2330
  319MPD2    C3 4846   1.630   1.055  16.629 -0.1598 -0.6515  0.0520
  319MPD2    C4 4847   1.633   1.189  16.601  0.0077 -0.6039  0.0714
  319MPD2    C5 4848   1.705   1.278  16.671  0.1856  0.4475  0.3989
  319MPD2     H 4849   1.720   0.914  16.766 -0.2216  0.1427  0.4093
  319MPD2    H1 4850   1.579   1.223  16.514  3.4247  1.2572 -1.3256
  319MPD2    H2 4851   1.870   1.311  16.799 -0.3627 -0.0545  0.2634
  319MPD2    H3 4852   1.689   1.382  16.643 -2.6748  0.1246  0.8729
  319MPD2     N 4853   1.540   0.968  16.562 -0.0573 -0.6011 -0.4896
  319MPD2    H5 4854   1.476   1.012  16.497 -0.0462 -0.4247 -0.3816
  319MPD2    N1 4855   1.900   1.039  16.869 -0.7519 -0.1672 -0.5082
  319MPD2    H7 4856   1.888   0.939  16.882 -1.4416 -0.1853 -1.3137
  320TMC3    C1 4857   1.433   0.764  16.496 -0.2871  0.1361  0.1998
  320TMC3    C2 4858   1.369   0.830  16.395 -0.7276  0.0465  0.2107
  320TMC3    C3 4859   1.307   0.761  16.294 -0.1457  0.3467 -0.3765
  320TMC3    C4 4860   1.435   0.624  16.497 -0.7386  0.9404  0.3729
  320TMC3    C5 4861   1.374   0.558  16.383 -0.0570 -0.2031 -0.2702
  320TMC3    C6 4862   1.311   0.627  16.285 -0.1542  0.5848  0.1540
  320TMC3     C 4863   1.514   0.837  16.590 -0.0960  0.1977  0.3711
  320TMC3     O 4864   1.564   0.760  16.671  0.0202 -0.4079 -0.3220
  320TMC3     H 4865   1.367   0.938  16.397  0.6692  0.1050 -2.0464
  320TMC3    H1 4866   1.498   0.569  16.566  0.8120  1.6271 -0.4844
  320TMC3    H2 4867   1.276   0.573  16.198  1.0829  1.4637 -0.8925
  320TMC3    C7 4868   1.386   0.414  16.359 -0.3218 -0.0330 -0.1168
  320TMC3    C8 4869   1.276   0.843  16.178 -1.2244  0.8408  0.1038
  320TMC3    O1 4870   1.298   0.360  16.294 -0.0719  0.4905  0.3037
  320TMC3    O2 4871   1.281   0.963  16.192 -0.1873 -0.0984 -0.8681
  321TMC3    C1 4872   2.096   1.017  17.007 -0.2853  0.5334  0.3449
  321TMC3    C2 4873   2.096   0.881  16.991 -0.0499  0.5854  0.0370
  321TMC3    C3 4874   2.199   0.814  17.048 -0.7188 -0.3346 -0.4334
  321TMC3    C4 4875   2.203   1.081  17.058 -0.7218 -0.2219  0.4178
  321TMC3    C5 4876   2.311   1.004  17.091  0.1802 -0.2176 -0.2753
  321TMC3    C6 4877   2.312   0.869  17.084  0.9483 -0.9030 -0.0864
  321TMC3     C 4878   2.005   1.107  16.927  0.0571 -0.1073  0.3253
  321TMC3     O 4879   2.050   1.220  16.900 -0.3805  0.2451  0.1242
  321TMC3     H 4880   2.023   0.828  16.931  1.7894 -0.4787 -1.2925
  321TMC3    H1 4881   2.195   1.183  17.095 -0.3610 -0.1366  0.2502
  321TMC3    H2 4882   2.399   0.805  17.092  0.9615 -0.9664 -0.7489
  321TMC3    C7 4883   2.385   1.038  17.208 -0.1853 -0.0234 -0.4720
  321TMC3    C8 4884   2.150   0.722  17.144 -0.1687  0.2067 -0.1345
  321TMC3    O1 4885   2.411   0.946  17.287  0.0927 -0.2828 -0.2490
  321TMC3    O2 4886   2.041   0.679  17.123 -0.9054 -0.4424  0.4485
  322MPD2     C 4887   0.980   2.221  13.187 -0.3994 -0.7172  0.4835
  322MPD2    C1 4888   0.979   2.197  13.319  0.6369 -0.8667 -0.1897
  322MPD2    C2 4889   0.963   2.062  13.359  0.6022 -0.5292  0.1056
  322MPD2    C3 4890   0.944   1.964  13.266  0.2115  0.1254 -0.2300
  322MPD2    C4 4891   0.947   1.983  13.133 -0.1345 -0.5143  0.9326
  322MPD2    C5 4892   0.956   2.118  13.091  0.8877  0.2128  0.1428
  322MPD2     H 4893   0.967   2.030  13.462  1.2405 -0.6591  0.0398
  322MPD2    H1 4894   0.938   1.909  13.054 -1.1763 -1.4310  1.9284
  322MPD2    H2 4895   0.995   2.321  13.148  2.0799 -1.1097  0.4269
  322MPD2    H3 4896   0.957   2.147  12.987 -0.1078  1.6185  0.5241
  322MPD2     N 4897   0.947   1.837  13.328  0.1947  0.2033  0.1424
  322MPD2    H5 4898   0.956   1.835  13.429  1.8254  0.1079 -0.0116
  322MPD2    N1 4899   1.001   2.297  13.415  0.1524  0.5321 -0.0721
  322MPD2    H7 4900   1.023   2.387  13.371  0.0470 -0.5109 -2.2767
  323TMC3    C1 4901   1.019   2.415  13.619  0.2586 -0.6861  0.9625
  323TMC3    C2 4902   1.130   2.492  13.580  0.2412  0.2079 -0.1424
  323TMC3    C3 4903   1.189   2.561  13.683  0.1182  0.4654 -0.2715
  323TMC3    C4 4904   0.960   2.431  13.744 -0.3152  0.4102  0.2577
  323TMC3    C5 4905   1.019   2.517  13.829  0.7500  0.2188  0.6278
  323TMC3    C6 4906   1.140   2.573  13.810 -0.3174 -0.6417 -0.9651
  323TMC3     C 4907   0.993   2.287  13.553 -0.0572 -0.5055  0.1419
  323TMC3     O 4908   0.983   2.190  13.624  0.1873 -0.0288 -0.8777
  323TMC3     H 4909   1.187   2.471  13.491  0.8112 -1.7824  0.6863
  323TMC3    H1 4910   0.866   2.377  13.752 -0.5171  0.8170  0.6281
  323TMC3    H2 4911   1.197   2.626  13.886  0.7458 -1.9464 -0.8500
  323TMC3    C7 4912   0.993   2.484  13.966 -0.5085 -0.0090 -0.5404
  323TMC3    C8 4913   1.321   2.610  13.673  0.1638 -0.2237  0.0349
  323TMC3    O1 4914   0.956   2.369  13.980  0.4324  0.4495  0.2767
  323TMC3    O2 4915   1.399   2.571  13.758  0.0970  0.0810  0.5032
  324MPD2     C 4916   2.513   2.920  14.312  0.9189 -0.5700  1.2827
  324MPD2    C1 4917   2.529   3.055  14.309 -0.8673 -0.2213  1.3821
  324MPD2    C2 4918   2.430   3.147  14.300 -0.6107  0.3731  0.4457
  324MPD2    C3 4919   2.299   3.100  14.315 -0.0958  0.9526 -0.6051
  324MPD2    C4 4920   2.279   2.963  14.309  0.0519  0.0836 -0.0770
  324MPD2    C5 4921   2.384   2.874  14.314  0.0330 -1.2171 -0.5930
  324MPD2     H 4922   2.453   3.253  14.299 -1.5368  0.5750  0.0414
  324MPD2    H1 4923   2.175   2.935  14.323 -0.9596  4.4197  1.0374
  324MPD2    H2 4924   2.599   2.854  14.308  2.3752  1.4208 -0.1662
  324MPD2    H3 4925   2.366   2.769  14.334 -0.6443 -0.7683  1.1184
  324MPD2     N 4926   2.190   3.185  14.326  0.0103  0.4978 -0.3239
  324MPD2    H5 4927   2.097   3.144  14.323  0.3308 -0.1055 -1.8648
  324MPD2    N1 4928   2.662   3.106  14.305  0.3934 -0.3920 -0.3086
  324MPD2    H7 4929   2.666   3.205  14.283  3.3255 -1.1496 -3.2000
  325TMC3    C1 4930   2.070   3.384  14.354 -0.0605 -0.2511  0.3503
  325TMC3    C2 4931   1.952   3.316  14.373 -0.5489 -0.3899 -0.2559
  325TMC3    C3 4932   1.835   3.386  14.364  0.2584 -0.0297  0.2639
  325TMC3    C4 4933   2.073   3.520  14.333 -0.0971 -0.3245 -0.1866
  325TMC3    C5 4934   1.960   3.589  14.317 -0.5341  0.1314 -0.3784
  325TMC3    C6 4935   1.839   3.523  14.341  0.0549  0.0661 -0.6710
  325TMC3     C 4936   2.199   3.324  14.326  0.5727  0.5968  0.2796
  325TMC3     O 4937   2.295   3.400  14.308 -0.6316  0.2747  0.2654
  325TMC3     H 4938   1.945   3.209  14.387 -0.9011 -0.1689  1.2322
  325TMC3    H1 4939   2.163   3.578  14.319  0.0776 -0.7973 -1.0375
  325TMC3    H2 4940   1.747   3.574  14.314  1.3688  2.3345 -0.8294
  325TMC3    C7 4941   1.971   3.730  14.308 -0.1551 -0.2675 -0.0651
  325TMC3    C8 4942   1.713   3.312  14.339 -0.5106  0.5263  0.7094
  325TMC3    O1 4943   2.046   3.781  14.226 -0.2061 -0.1909  0.3260
  325TMC3    O2 4944   1.722   3.192  14.335 -0.0854  0.0870 -0.1006
  326MPD2     C 4945   3.944   4.724  11.144  0.0699  0.1739  0.3355
  326MPD2    C1 4946   3.950   0.087  11.046  0.4963  0.1012 -0.5402
  326MPD2    C2 4947   4.062   0.164  11.028  0.3158  0.5863  0.6297
  326MPD2    C3 4948   4.164   0.146  11.117  0.2211  0.5187  0.0822
  326MPD2    C4 4949   4.157   0.049  11.209 -0.3892 -0.2748 -0.4111
  326MPD2    C5 4950   4.048   4.704  11.224 -0.0030 -0.1347 -0.3073
  326MPD2     H 4951   4.067   0.237  10.948 -0.2470 -0.3564 -0.2644
  326MPD2    H1 4952   4.244   0.020  11.268  0.1666  1.7323 -0.2632
  326MPD2    H2 4953   3.856   4.667  11.171  0.8140 -0.9458  0.4017
  326MPD2    H3 4954   4.044   4.635  11.307 -2.1260  1.0387  0.5805
  326MPD2     N 4955   4.279   0.232  11.114 -0.5862 -0.3161 -0.0132
  326MPD2    H5 4956   4.358   0.208  11.174 -0.1878 -1.1469 -0.8710
  326MPD2    N1 4957   3.845   0.095  10.945 -0.6310  0.0526  0.3620
  326MPD2    H7 4958   3.867   0.154  10.866 -0.9889 -0.5044 -0.1550
  327TMC3    C1 4959   3.652   0.048  10.830 -0.0820 -0.5060  0.3216
  327TMC3    C2 4960   3.545   0.134  10.808  0.3343 -0.0072 -0.1853
  327TMC3    C3 4961   3.546   0.193  10.685  0.7129  0.7935 -0.5906
  327TMC3    C4 4962   3.754   0.026  10.744 -0.1195  0.5354  0.6816
  327TMC3    C5 4963   3.752   0.089  10.620  0.4986 -0.0601 -0.1054
  327TMC3    C6 4964   3.655   0.183  10.596 -0.0964  0.1776 -0.0793
  327TMC3     C 4965   3.711   0.057  10.962  0.4244 -0.0060 -0.2199
  327TMC3     O 4966   3.644   0.011  11.058 -0.1262  0.4574 -0.5568
  327TMC3     H 4967   3.470   0.146  10.886  0.3097 -2.3073  0.1281
  327TMC3    H1 4968   3.802   4.666  10.744 -1.9087 -0.3508 -0.6067
  327TMC3    H2 4969   3.665   0.250  10.511  0.1086  1.0868  0.6668
  327TMC3    C7 4970   3.882   0.110  10.556 -0.4042 -0.0654 -0.3876
  327TMC3    C8 4971   3.438   0.283  10.642  0.2632 -0.5132 -0.1108
  327TMC3    O1 4972   3.883   0.196  10.465 -0.2267  0.5473  0.0476
  327TMC3    O2 4973   3.453   0.338  10.533 -0.3952  0.1737  0.1615
  328MPD2     C 4974   1.281   4.332  17.172 -0.2802 -0.4619 -0.2593
  328MPD2    C1 4975   1.161   4.266  17.184  0.4545 -0.4280 -0.7905
  328MPD2    C2 4976   1.068   4.298  17.088  0.6768  0.2066 -0.1087
  328MPD2    C3 4977   1.089   4.390  16.986 -0.3146 -0.0866  0.6365
  328MPD2    C4 4978   1.205   4.457  16.978 -0.1789 -0.4111 -0.1360
  328MPD2    C5 4979   1.304   4.423  17.068  0.0874  0.2732  0.3149
  328MPD2     H 4980   0.970   4.253  17.080  0.6766  0.0826  0.5445
  328MPD2    H1 4981   1.233   4.523  16.896 -1.5797  1.6113  1.0095
  328MPD2    H2 4982   1.367   4.316  17.236  0.7344  0.9135 -1.2797
  328MPD2    H3 4983   1.399   4.474  17.063  0.7467 -1.0598 -0.9313
  328MPD2     N 4984   0.985   4.424  16.895  0.9836 -0.7634  0.3908
  328MPD2    H5 4985   0.999   4.511  16.846 -2.5677 -0.5502 -0.2145
  328MPD2    N1 4986   1.129   4.193  17.296 -0.0128  0.0516  0.5082
  328MPD2    H7 4987   1.200   4.199  17.368  0.2464 -1.2776  0.3541
  329TMC3    C1 4988   0.964   4.125  17.461 -0.5610 -0.0511  0.5151
  329TMC3    C2 4989   0.996   4.239  17.536 -0.6416 -0.2043 -0.7605
  329TMC3    C3 4990   0.922   4.264  17.651 -0.3010  0.1442  0.4356
  329TMC3    C4 4991   0.877   4.031  17.500  0.3287 -0.3671  0.7482
  329TMC3    C5 4992   0.798   4.063  17.609 -0.1468  0.7006  0.7737
  329TMC3    C6 4993   0.823   4.174  17.688 -0.1567 -0.2248  0.8794
  329TMC3     C 4994   1.007   4.132  17.325 -0.1759  0.2271 -0.0697
  329TMC3     O 4995   0.933   4.092  17.240 -0.3850 -0.0780  0.8202
  329TMC3     H 4996   1.059   4.319  17.497 -1.0298  1.2683  1.6442
  329TMC3    H1 4997   0.851   3.953  17.429  0.6083  0.4392 -0.2407
  329TMC3    H2 4998   0.765   4.189   0.031 -0.2791  0.6550  0.6586
  329TMC3    C7 4999   0.664   3.993  17.633  0.3621 -0.3588  0.8706
  329TMC3    C8 5000   0.987   4.354  17.746 -0.5952 -1.1621  0.7907
  329TMC3    O1 5001   0.579   4.048  17.702  0.4959  0.5783  0.1127
  329TMC3    O2 5002   1.072   4.433  17.703  0.5879  0.0852  0.6977
  330TMC3    C1 5003   4.236   4.379   9.454  0.8181  0.0886  0.0193
  330TMC3    C2 5004   4.150   4.290   9.398 -0.2419  0.2521  0.2447
  330TMC3    C3 5005   4.141   4.172   9.465 -0.0147  0.7097  0.5327
  330TMC3    C4 5006   4.308   4.354   9.568 -0.2520  0.5826 -0.1294
  330TMC3    C5 5007   4.283   4.238   9.630  0.6478 -0.0457  0.1380
  330TMC3    C6 5008   4.198   4.143   9.585 -0.0448  0.2613 -0.5527
  330TMC3     C 5009   4.274   4.495   9.379 -0.6277 -0.2638  0.2834
  330TMC3     O 5010   4.391   4.534   9.388 -0.1581 -0.4231 -0.5765
  330TMC3     H 5011   4.107   4.303   9.300 -3.1680 -2.5944  1.1665
  330TMC3    H1 5012   4.388   4.418   9.604  1.0413 -1.4126  0.4845
  330TMC3    H2 5013   4.210   4.042   9.623  1.0901  0.3377 -0.6855
  330TMC3    C7 5014   4.368   4.222   9.750 -0.2969 -0.5570 -0.5194
  330TMC3    C8 5015   4.037   4.080   9.420 -0.5109  0.3844  0.8372
  330TMC3    O1 5016   4.462   4.299   9.766 -0.3090 -0.2713  0.5309
  330TMC3    O2 5017   3.990   4.098   9.309  0.2758  0.1787 -0.0143
  331MPD2     C 5018   2.101   2.177  13.002 -0.3436  0.1016 -0.0036
  331MPD2    C1 5019   2.222   2.231  12.979 -0.3741 -0.3198 -0.2956
  331MPD2    C2 5020   2.305   2.155  12.897 -0.0982  0.2716 -0.1788
  331MPD2    C3 5021   2.265   2.034  12.844  0.3364 -0.1607 -0.5534
  331MPD2    C4 5022   2.136   1.982  12.864 -0.2694 -0.3220  0.2859
  331MPD2    C5 5023   2.057   2.063  12.945 -0.1909  0.4656 -0.0724
  331MPD2     H 5024   2.406   2.185  12.876 -0.3595 -0.0076 -1.8680
  331MPD2    H1 5025   2.101   1.893  12.814  3.3282 -1.4188 -0.2690
  331MPD2    H2 5026   2.033   2.222  13.073  0.8595  1.9445 -0.0101
  331MPD2    H3 5027   1.961   2.021  12.973 -0.2037  0.6988  0.2387
  331MPD2     N 5028   2.365   1.967  12.773  0.0450 -0.1478 -0.2659
  331MPD2    H5 5029   2.456   2.012  12.771 -0.3352  0.6016 -0.7896
  331MPD2    N1 5030   2.250   2.360  13.041 -0.1893 -0.7627  0.3492
  331MPD2    H7 5031   2.176   2.406  13.093 -0.0105  1.5457 -1.4712
  332TMC3    C1 5032   2.458   1.828  12.624 -0.1954  0.6494  0.5259
  332TMC3    C2 5033   2.446   1.930  12.532 -0.0875  0.2263 -1.0377
  332TMC3    C3 5034   2.558   1.982  12.482 -0.1442 -0.5571  0.6971
  332TMC3    C4 5035   2.581   1.796  12.669  1.0493 -0.6993  0.5069
  332TMC3    C5 5036   2.691   1.856  12.621 -0.2866 -0.0857 -0.2178
  332TMC3    C6 5037   2.683   1.954  12.528  0.3205  0.3479  0.0238
  332TMC3     C 5038   2.355   1.840  12.720 -0.2106 -0.3063 -0.6111
  332TMC3     O 5039   2.270   1.758  12.741 -0.2264  0.3057  0.3399
  332TMC3     H 5040   2.346   1.956  12.499 -0.2480 -0.9157 -1.4431
  332TMC3    H1 5041   2.583   1.725  12.751  0.7736 -0.4399  0.7386
  332TMC3    H2 5042   2.769   1.996  12.477  0.8490 -0.3942  0.3165
  332TMC3    C7 5043   2.819   1.841  12.695 -1.3087  0.1107 -0.1892
  332TMC3    C8 5044   2.559   2.110  12.403 -0.1657  0.4266  0.2000
  332TMC3    O1 5045   2.826   1.754  12.781  0.6553 -0.1282  0.3199
  332TMC3    O2 5046   2.658   2.180  12.415 -0.1772  0.1849 -0.2724
  333MPD2     C 5047   2.239   2.941  11.496 -0.6249 -0.4328  0.3592
  333MPD2    C1 5048   2.290   2.875  11.386 -0.4634  0.1382  0.6614
  333MPD2    C2 5049   2.278   2.737  11.375  0.4720  0.1922  0.3814
  333MPD2    C3 5050   2.210   2.664  11.467 -0.0753 -0.1850 -0.8167
  333MPD2    C4 5051   2.164   2.733  11.582 -0.9527 -0.2394  0.0163
  333MPD2    C5 5052   2.180   2.870  11.591 -0.4380 -0.2658 -0.5064
  333MPD2     H 5053   2.313   2.680  11.290 -2.5846  1.2731 -1.6058
  333MPD2    H1 5054   2.101   2.694  11.661 -1.9685  2.3667  0.4655
  333MPD2    H2 5055   2.242   3.049  11.502  1.0283 -0.3966 -0.8865
  333MPD2    H3 5056   2.120   2.916  11.669 -0.9632 -0.0801 -1.0189
  333MPD2     N 5057   2.181   2.527  11.436  0.2394  0.0164  0.1118
  333MPD2    H5 5058   2.234   2.480  11.363 -0.9935 -0.5271 -0.4468
  333MPD2    N1 5059   2.358   2.958  11.287 -0.2139 -0.8116 -0.2464
  333MPD2    H7 5060   2.357   3.058  11.304  0.9185 -0.4229 -2.3940
  334TMC3    C1 5061   2.474   3.025  11.089 -0.0800  0.0973  0.2160
  334TMC3    C2 5062   2.566   2.981  10.993 -0.3192  0.0153  0.7456
  334TMC3    C3 5063   2.544   3.043  10.872 -0.5600  0.6208  0.3275
  334TMC3    C4 5064   2.388   3.129  11.071 -0.4175 -0.2573  0.2743
  334TMC3    C5 5065   2.373   3.188  10.950 -0.0700 -0.9430  0.2574
  334TMC3    C6 5066   2.452   3.140  10.847 -0.3534 -0.4531  0.4804
  334TMC3     C 5067   2.439   2.915  11.185 -0.0374 -0.5265  0.5443
  334TMC3     O 5068   2.474   2.802  11.155 -0.3815 -0.2225  0.2681
  334TMC3     H 5069   2.644   2.909  11.012 -0.3126 -0.4037 -0.8379
  334TMC3    H1 5070   2.314   3.158  11.144 -1.1881  1.2491 -1.1004
  334TMC3    H2 5071   2.460   3.200  10.757  0.8537 -0.6572  0.4520
  334TMC3    C7 5072   2.358   3.333  10.954  0.5145 -0.1824 -0.1592
  334TMC3    C8 5073   2.650   3.035  10.777 -0.7541 -0.3880 -0.0938
  334TMC3    O1 5074   2.398   3.387  11.055 -0.1706 -0.4545  0.2346
  334TMC3    O2 5075   2.614   3.039  10.659 -0.2606  0.4547  0.2888
  335TMC3    C1 5076   2.277   4.533  17.535  0.9248  0.0649  0.8434
  335TMC3    C2 5077   2.175   4.555  17.445 -0.1492  0.0776  0.1601
  335TMC3    C3 5078   2.208   4.593  17.319 -0.0726 -0.3016 -0.1459
  335TMC3    C4 5079   2.403   4.556  17.498  0.4132 -0.5582 -0.6353
  335TMC3    C5 5080   2.432   4.595  17.371  0.0667  0.0439  0.6335
  335TMC3    C6 5081   2.333   4.615  17.280  0.4784 -0.3637  0.2188
  335TMC3     C 5082   2.244   4.490  17.669 -0.4546 -0.1698  0.2480
  335TMC3     O 5083   2.126   4.464  17.699 -0.3494 -0.3762  0.5586
  335TMC3     H 5084   2.074   4.560  17.485 -0.5481  1.1221 -0.9785
  335TMC3    H1 5085   2.485   4.551  17.569 -1.0341 -0.6690  1.0054
  335TMC3    H2 5086   2.355   4.620  17.174 -2.9960 -1.6542 -0.5646
  335TMC3    C7 5087   2.562   4.642  17.333 -0.6337  0.9329 -0.6441
  335TMC3    C8 5088   2.096   4.617  17.223 -0.6809 -0.4358 -1.6007
  335TMC3    O1 5089   2.567   4.656  17.213 -0.0381 -0.4775  0.1719
  335TMC3    O2 5090   2.127   4.671  17.113 -0.0333  0.5972 -0.8121
  336MPD2     C 5091   1.501   2.595  16.331 -0.0703 -0.3942 -0.3668
  336MPD2    C1 5092   1.539   2.535  16.212  0.0495  0.2550 -0.6107
  336MPD2    C2 5093   1.618   2.425  16.217 -0.6152 -0.4156 -1.1745
  336MPD2    C3 5094   1.645   2.362  16.335 -0.0811  1.4651 -0.2344
  336MPD2    C4 5095   1.608   2.423  16.458 -0.2023  0.4927 -0.4566
  336MPD2    C5 5096   1.541   2.544  16.448 -0.8555 -0.5015  0.1840
  336MPD2     H 5097   1.645   2.378  16.123  4.1228  0.8214 -0.4118
  336MPD2    H1 5098   1.624   2.387  16.559  2.0851  2.2626 -0.1751
  336MPD2    H2 5099   1.445   2.688  16.331  0.8121  0.1350 -1.3354
  336MPD2    H3 5100   1.515   2.603  16.535 -1.0964  2.3340 -1.7810
  336MPD2     N 5101   1.708   2.237  16.342 -0.0774  0.0057 -0.0982
  336MPD2    H5 5102   1.719   2.201  16.437  0.1358  0.8512  0.1957
  336MPD2    N1 5103   1.493   2.592  16.084 -0.1970 -0.3052 -0.1505
  336MPD2    H7 5104   1.520   2.538  16.003 -0.3651 -0.1925 -0.2800
  337TMC3    C1 5105   1.414   2.728  15.925  0.2220  0.4537  0.3227
  337TMC3    C2 5106   1.335   2.634  15.866 -0.5527 -0.1538  0.2389
  337TMC3    C3 5107   1.284   2.668  15.742  0.3142  0.1946  0.5925
  337TMC3    C4 5108   1.425   2.854  15.879  0.5022  0.2014 -0.3478
  337TMC3    C5 5109   1.366   2.891  15.767  0.0167  0.3862 -0.5071
  337TMC3    C6 5110   1.297   2.796  15.702  0.1231  0.8417  0.6075
  337TMC3     C 5111   1.427   2.710  16.062 -0.2206 -0.2635  0.5985
  337TMC3     O 5112   1.406   2.797  16.147  0.2197  0.1997  0.3531
  337TMC3     H 5113   1.311   2.543  15.919  2.7672 -0.4835  1.1539
  337TMC3    H1 5114   1.480   2.925  15.940 -0.2585  2.3257 -2.1354
  337TMC3    H2 5115   1.245   2.819  15.609 -3.0520 -1.5053  1.8445
  337TMC3    C7 5116   1.430   3.005  15.696 -0.2938  0.4782  0.2236
  337TMC3    C8 5117   1.168   2.582  15.711  1.1904  1.0038 -0.5623
  337TMC3    O1 5118   1.522   3.056  15.759  0.6096 -0.2669 -0.2795
  337TMC3    O2 5119   1.123   2.515  15.803  0.1150  0.2160  0.1023
  338MPD2     C 5120   1.048   1.726   0.301  0.4765 -0.2696 -0.6417
  338MPD2    C1 5121   1.161   1.736   0.216 -0.0671 -0.4669 -0.1345
  338MPD2    C2 5122   1.158   1.844   0.127  0.3135 -0.3711  0.8793
  338MPD2    C3 5123   1.064   1.948   0.138 -0.1681 -0.1264 -1.0215
  338MPD2    C4 5124   0.958   1.931   0.218  0.7228  0.0336 -0.2357
  338MPD2    C5 5125   0.956   1.820   0.303 -0.5341 -0.6078  0.3574
  338MPD2     H 5126   1.240   1.863   0.060 -0.9141 -1.8587 -1.0495
  338MPD2    H1 5127   0.875   2.000   0.232  0.6066 -0.0698 -0.4050
  338MPD2    H2 5128   1.040   1.638   0.365 -1.0507 -0.4886 -1.1352
  338MPD2    H3 5129   0.869   1.806   0.366  1.5706  0.4974  3.4629
  338MPD2     N 5130   1.080   2.066   0.061  0.2406  1.0015 -0.2795
  338MPD2    H5 5131   1.171   2.066   0.016 -0.0022  1.2354 -0.7641
  338MPD2    N1 5132   1.271   1.648   0.215 -0.2795 -0.4295  0.6326
  338MPD2    H7 5133   1.353   1.673   0.159 -0.8092  1.5491  0.7280
  339TMC3    C1 5134   1.039   2.229  17.670  0.6758 -0.7775  0.3749
  339TMC3    C2 5135   1.064   2.132  17.574 -0.2902 -0.1470  0.1162
  339TMC3    C3 5136   1.168   2.149  17.492  0.5221  1.1678 -0.4103
  339TMC3    C4 5137   1.101   2.353  17.674 -0.3532  0.0072 -0.0614
  339TMC3    C5 5138   1.207   2.359  17.588  0.6403  0.0251  0.0295
  339TMC3    C6 5139   1.235   2.267  17.497 -0.3611 -0.0594  0.0794
  339TMC3     C 5140   1.007   2.178   0.048 -0.5448  0.0020 -0.3141
  339TMC3     O 5141   0.905   2.212   0.107 -0.6075  0.7257  0.3850
  339TMC3     H 5142   0.995   2.048  17.565  0.9524 -1.1005 -0.4547
  339TMC3    H1 5143   1.095   2.425   0.007 -0.5634  1.5242 -1.4420
  339TMC3    H2 5144   1.326   2.283  17.439 -0.6258 -0.3468 -0.4201
  339TMC3    C7 5145   1.306   2.452  17.619  0.5781 -0.1411  0.4337
  339TMC3    C8 5146   1.245   2.036  17.440 -0.3444  0.2032 -0.7280
  339TMC3    O1 5147   1.273   2.564  17.642 -0.1446  0.1534 -0.0672
  339TMC3    O2 5148   1.342   2.059  17.368 -0.0763  0.2761 -0.1186
  340MPD2     C 5149   2.141   4.141  10.319  0.3479 -0.1201  0.0869
  340MPD2    C1 5150   2.236   4.172  10.231 -1.2389 -0.2560  0.0011
  340MPD2    C2 5151   2.361   4.209  10.274 -0.0765  0.5212 -0.4407
  340MPD2    C3 5152   2.394   4.188  10.404  0.4359  0.0892 -0.3483
  340MPD2    C4 5153   2.296   4.157  10.492  0.1170  0.6106  0.5642
  340MPD2    C5 5154   2.171   4.138  10.452 -0.2595 -0.0645  0.0184
  340MPD2     H 5155   2.435   4.247  10.204  2.4012  0.1235  1.9703
  340MPD2    H1 5156   2.318   4.165  10.598 -0.1745  1.3694  0.5687
  340MPD2    H2 5157   2.036   4.125  10.300  0.3798 -2.1930  1.6561
  340MPD2    H3 5158   2.088   4.118  10.519 -1.7456 -0.9033 -2.0867
  340MPD2     N 5159   2.519   4.199  10.461  0.7127  0.1578 -0.2331
  340MPD2    H5 5160   2.540   4.167  10.555 -0.4464 -2.4678 -0.8741
  340MPD2    N1 5161   2.224   4.176  10.097  0.2039  0.2940  0.0402
  340MPD2    H7 5162   2.307   4.175  10.039 -0.5322 -0.4943 -1.0172
  341TMC3    C1 5163   2.151   4.155   9.879 -0.4809  0.6578 -0.4169
  341TMC3    C2 5164   2.107   4.043   9.811  0.2324  0.0674 -0.9679
  341TMC3    C3 5165   2.177   4.005   9.701  0.2070 -0.7924  0.3302
  341TMC3    C4 5166   2.264   4.223   9.843  0.0380 -0.2478  0.6247
  341TMC3    C5 5167   2.331   4.177   9.737 -0.6585 -0.5562  0.3767
  341TMC3    C6 5168   2.284   4.074   9.660 -0.0845 -0.8660 -0.8078
  341TMC3     C 5169   2.108   4.169  10.019 -0.2716 -0.2752  0.6752
  341TMC3     O 5170   1.992   4.162  10.054 -0.0516  0.5272  0.5010
  341TMC3     H 5171   2.034   3.975   9.852  1.4528 -0.0931  0.9479
  341TMC3    H1 5172   2.308   4.309   9.893  1.9227 -0.2827 -0.9534
  341TMC3    H2 5173   2.340   4.024   9.582  0.0025  0.4148 -1.5658
  341TMC3    C7 5174   2.465   4.210   9.741  0.0438 -0.4187 -0.2308
  341TMC3    C8 5175   2.146   3.893   9.620 -0.2864 -0.0961 -0.5593
  341TMC3    O1 5176   2.522   4.250   9.840  0.4222  0.1472 -0.3855
  341TMC3    O2 5177   2.215   3.862   9.521  0.2021 -0.3478  0.2672
  342MPD2     C 5178   4.470   2.380  17.521  0.2497 -0.2785 -0.5302
  342MPD2    C1 5179   4.564   2.438  17.440  0.0815 -0.6268  0.3292
  342MPD2    C2 5180   4.602   2.574  17.474 -0.0242  0.2400 -0.0505
  342MPD2    C3 5181   4.546   2.642  17.582  0.0772  0.4908  0.3137
  342MPD2    C4 5182   4.439   2.586  17.652 -0.4914 -0.4873  0.4729
  342MPD2    C5 5183   4.416   2.453  17.622  0.1698 -0.8090  0.2262
  342MPD2     H 5184   4.678   2.612  17.406  0.3941  0.6370  0.6459
  342MPD2    H1 5185   4.388   2.642  17.730  0.2987  1.5998 -0.5205
  342MPD2    H2 5186   4.436   2.280  17.498 -0.7414  0.2089 -1.1903
  342MPD2    H3 5187   4.338   2.405  17.680  0.4281 -1.5689 -0.0558
  342MPD2     N 5188   4.582   2.775  17.616  0.5064  0.2253  0.0450
  342MPD2    H5 5189   4.522   2.828  17.679 -0.7333 -0.6025 -0.4642
  342MPD2    N1 5190   4.638   2.371  17.332  0.1218 -0.1599 -0.4381
  342MPD2    H7 5191   4.690   2.434  17.272 -0.9111  0.7452 -0.3902
  343TMC3    C1 5192   4.666   2.214  17.153  0.3727 -0.4776 -0.9648
  343TMC3    C2 5193   0.036   2.280  17.095  0.7727 -0.2946  0.2064
  343TMC3    C3 5194   0.084   2.239  16.976  0.1707 -0.4671 -0.2156
  343TMC3    C4 5195   4.611   2.107  17.093  0.8489 -0.0398 -0.2859
  343TMC3    C5 5196   4.657   2.076  16.966  0.3532  0.0897  0.6166
  343TMC3    C6 5197   0.024   2.140  16.900  0.2069 -0.8609  0.0763
  343TMC3     C 5198   4.623   2.240  17.291 -0.3219 -0.1807  0.2105
  343TMC3     O 5199   4.547   2.154  17.336 -0.2417 -0.7452 -0.0899
  343TMC3     H 5200   0.081   2.360  17.152  0.1426  0.7859 -0.8400
  343TMC3    H1 5201   4.525   2.057  17.134 -0.0327 -0.4716 -2.6735
  343TMC3    H2 5202   0.053   2.129  16.796 -1.2859 -1.6630 -0.2436
  343TMC3    C7 5203   4.588   1.961  16.900 -0.9028  0.1916  0.2336
  343TMC3    C8 5204   0.193   2.318  16.921 -0.2409  0.2731 -1.3237
  343TMC3    O1 5205   4.535   1.872  16.970 -0.2831  0.4095 -0.2554
  343TMC3    O2 5206   0.225   2.421  16.976 -0.2116  0.1028 -0.0898
  344MPD2     C 5207   1.290   2.625  10.968  0.1991  0.0715 -0.2836
  344MPD2    C1 5208   1.277   2.523  10.877  0.2994  0.1291  0.5344
  344MPD2    C2 5209   1.248   2.552  10.744 -0.3737  0.3424 -0.7168
  344MPD2    C3 5210   1.238   2.681  10.696 -0.6385  1.0734  0.0138
  344MPD2    C4 5211   1.257   2.787  10.784  0.4351 -0.1819 -0.0069
  344MPD2    C5 5212   1.284   2.753  10.916  0.1370  0.0509 -0.6925
  344MPD2     H 5213   1.254   2.470  10.674  2.5984 -1.1744  1.2981
  344MPD2    H1 5214   1.257   2.893  10.762 -0.6255  0.0612  1.1535
  344MPD2    H2 5215   1.312   2.606  11.072  0.7177  1.1876 -0.1891
  344MPD2    H3 5216   1.303   2.836  10.983  1.0419 -0.1531 -0.6877
  344MPD2     N 5217   1.226   2.713  10.559 -0.1170  0.1032  0.2757
  344MPD2    H5 5218   1.225   2.812  10.538  2.1606  0.3231  1.2275
  344MPD2    N1 5219   1.287   2.386  10.913 -0.1981 -0.8110 -0.1499
  344MPD2    H7 5220   1.254   2.315  10.848 -0.9209 -0.7496  0.1501
  345TMC3    C1 5221   1.237   2.690  10.332  1.1320  0.1955 -0.0204
  345TMC3    C2 5222   1.373   2.700  10.308 -0.0377  0.4010 -0.8115
  345TMC3    C3 5223   1.411   2.814  10.240 -0.2443 -0.0639  0.0989
  345TMC3    C4 5224   1.145   2.783  10.302 -0.2831 -0.1572  0.4035
  345TMC3    C5 5225   1.188   2.891  10.233  0.6633 -1.0132 -0.0001
  345TMC3    C6 5226   1.317   2.909  10.198 -0.3238  0.2436 -1.0414
  345TMC3     C 5227   1.215   2.620  10.457 -1.0488  0.4340  0.1756
  345TMC3     O 5228   1.226   2.498  10.455 -0.2080  0.5088  0.6759
  345TMC3     H 5229   1.447   2.627  10.339 -1.0599  0.4696  1.7779
  345TMC3    H1 5230   1.044   2.770  10.337  0.0253 -0.7928  1.0611
  345TMC3    H2 5231   1.341   2.991  10.131 -1.0671  1.0222 -0.3558
  345TMC3    C7 5232   1.101   2.997  10.201  1.1369 -0.3725 -0.4862
  345TMC3    C8 5233   1.548   2.819  10.199  0.0932 -0.0479  0.1595
  345TMC3    O1 5234   1.169   3.097  10.195  0.1947  0.1131 -0.2665
  345TMC3    O2 5235   1.615   2.717  10.178  0.3937  0.7407  0.0780
  346MPD2     C 5236   0.718   3.803  14.406 -0.4336  0.3361  0.5017
  346MPD2    C1 5237   0.832   3.817  14.342  0.5522 -0.0053 -0.2133
  346MPD2    C2 5238   0.938   3.876  14.406 -0.0641 -0.4348  0.1819
  346MPD2    C3 5239   0.922   3.919  14.539  0.8055  0.0253 -0.6556
  346MPD2    C4 5240   0.792   3.903  14.596 -0.7423  0.4380 -0.2221
  346MPD2    C5 5241   0.695   3.832  14.537  0.1901 -0.8777  0.2683
  346MPD2     H 5242   1.033   3.891  14.356 -0.0765  3.5599  1.3449
  346MPD2    H1 5243   0.780   3.931  14.701 -2.0316 -3.5254  0.6934
  346MPD2    H2 5244   0.629   3.755  14.369  1.5876 -2.3257 -0.9014
  346MPD2    H3 5245   0.598   3.830  14.585  0.9948  1.4570  2.0028
  346MPD2     N 5246   1.022   3.978  14.616 -0.0869  0.4664  0.2107
  346MPD2    H5 5247   0.986   4.006  14.706  3.4173  3.6917  0.6087
  346MPD2    N1 5248   0.840   3.773  14.215  0.4697  0.0452  1.1032
  346MPD2    H7 5249   0.930   3.782  14.168 -0.6474  2.7275 -0.5352
  347TMC3    C1 5250   1.247   4.044  14.679  0.3708 -0.3368 -0.8112
  347TMC3    C2 5251   1.354   4.113  14.637 -0.1742 -0.4971  0.4300
  347TMC3    C3 5252   1.467   4.114  14.719  0.5564  0.1958  0.1509
  347TMC3    C4 5253   1.234   3.981  14.805  0.4205  0.3647  1.0331
  347TMC3    C5 5254   1.345   3.994  14.888 -0.5594 -0.3512 -0.1543
  347TMC3    C6 5255   1.462   4.057  14.846 -0.4785 -0.7494 -0.0977
  347TMC3     C 5256   1.148   4.009  14.570 -0.5612  0.0077 -0.0742
  347TMC3     O 5257   1.190   4.013  14.458 -0.1515 -0.2698  0.1693
  347TMC3     H 5258   1.364   4.139  14.532 -0.0621 -0.3829  0.4701
  347TMC3    H1 5259   1.143   3.928  14.829  0.3668  0.0128  0.0449
  347TMC3    H2 5260   1.553   4.055  14.905 -1.2092  0.1041  1.0581
  347TMC3    C7 5261   1.331   3.941  15.024 -0.6502  0.8271 -0.2831
  347TMC3    C8 5262   1.597   4.111  14.658  0.7533 -1.4177  0.1659
  347TMC3    O1 5263   1.221   3.919  15.068  0.2833  0.9841 -0.2124
  347TMC3    O2 5264   1.690   4.063  14.720 -0.8414 -0.8586  0.2644
  348MPD2     C 5265   4.396   3.415  11.894 -0.7814 -0.6830  0.5548
  348MPD2    C1 5266   4.512   3.400  11.824  0.0724  0.1350 -0.0562
  348MPD2    C2 5267   4.527   3.473  11.709  0.4423  0.6487 -0.5818
  348MPD2    C3 5268   4.433   3.566  11.673 -0.5197 -0.0442 -0.0504
  348MPD2    C4 5269   4.311   3.571  11.742 -0.0154  0.3920 -0.3767
  348MPD2    C5 5270   4.306   3.507  11.862 -0.2566 -0.3995  0.4249
  348MPD2     H 5271   4.611   3.450  11.645  0.5263 -2.1599  0.5462
  348MPD2    H1 5272   4.224   3.631  11.721  1.3177  1.5460 -2.6150
  348MPD2    H2 5273   4.380   3.356  11.983 -0.1382 -1.4554  0.1602
  348MPD2    H3 5274   4.214   3.503  11.920 -0.3808  1.5814  0.3815
  348MPD2     N 5275   4.459   3.637  11.557 -0.1819 -0.3223 -0.5282
  348MPD2    H5 5276   4.555   3.635  11.525  0.3791 -0.0906  1.1545
  348MPD2    N1 5277   4.610   3.305  11.860 -0.5220 -0.2468 -0.5096
  348MPD2    H7 5278   4.687   3.298  11.795  0.4954  0.7609  0.5775
  349TMC3    C1 5279   4.726   3.128  11.957  0.5230 -0.3613 -0.4061
  349TMC3    C2 5280   4.702   3.033  12.044 -0.1680 -0.5627  0.3193
  349TMC3    C3 5281   4.680   2.909  11.994 -0.2747 -0.0441 -0.3833
  349TMC3    C4 5282   4.735   3.095  11.826  0.7443  0.1550  0.3314
  349TMC3    C5 5283   4.693   2.978  11.775  0.2289  0.4002 -0.2603
  349TMC3    C6 5284   4.662   2.875  11.863 -0.5906 -0.4814  0.3749
  349TMC3     C 5285   4.624   3.229  11.973 -0.2488 -0.9188  0.1004
  349TMC3     O 5286   4.551   3.227  12.069  0.1052 -0.1233 -0.5760
  349TMC3     H 5287   4.690   3.055  12.149  0.5939  0.9930  0.0842
  349TMC3    H1 5288   0.034   3.176  11.763  0.9968 -0.4645 -0.3224
  349TMC3    H2 5289   4.625   2.778  11.831 -2.9447  0.7847 -0.7417
  349TMC3    C7 5290   4.592   3.002  11.666  0.4235 -0.0831 -0.5074
  349TMC3    C8 5291   4.699   2.807  12.093 -0.3202  0.0229  0.2654
  349TMC3    O1 5292   4.491   2.934  11.659  0.3149 -0.0789  0.0098
  349TMC3    O2 5293   4.727   2.849  12.203 -0.8299 -0.5519  0.2057
  350MPD2     C 5294   3.890   1.775  10.352  0.5057  0.3382  0.7252
  350MPD2    C1 5295   3.919   1.640  10.355  0.1658 -0.4101 -0.1553
  350MPD2    C2 5296   4.050   1.607  10.381  0.2833  0.6624  0.4314
  350MPD2    C3 5297   4.156   1.693  10.392  0.8738  0.4401 -0.2276
  350MPD2    C4 5298   4.129   1.829  10.370 -0.3785  0.0436  0.8247
  350MPD2    C5 5299   3.995   1.865  10.343 -0.5911 -0.0492  0.1340
  350MPD2     H 5300   4.080   1.504  10.398 -2.5951 -0.4437 -1.1176
  350MPD2    H1 5301   4.195   1.914  10.384  0.1241 -0.4746  1.6181
  350MPD2    H2 5302   3.790   1.811  10.330 -0.0105 -1.6018 -0.0643
  350MPD2    H3 5303   3.974   1.970  10.328 -0.9238 -0.3152 -1.2521
  350MPD2     N 5304   4.278   1.651  10.437  0.3005 -0.3203 -0.1600
  350MPD2    H5 5305   4.298   1.552  10.441 -2.0051 -0.8106 -0.3483
  350MPD2    N1 5306   3.827   1.537  10.345 -0.1487  0.2255 -0.2676
  350MPD2    H7 5307   3.865   1.444  10.331  1.6392  0.6439  1.7627
  351TMC3    C1 5308   3.632   1.428  10.308  0.0143  0.4986 -0.3087
  351TMC3    C2 5309   3.700   1.324  10.260 -0.4691 -0.1478  0.5930
  351TMC3    C3 5310   3.622   1.229  10.198  0.4100  0.2243 -0.3718
  351TMC3    C4 5311   3.498   1.444  10.292 -0.5857  0.2308  0.0698
  351TMC3    C5 5312   3.424   1.351  10.226 -0.0986 -0.5494  0.4929
  351TMC3    C6 5313   3.484   1.240  10.171 -0.3274  0.4673  0.0609
  351TMC3     C 5314   3.695   1.544  10.350 -0.4731  0.1226  0.0210
  351TMC3     O 5315   3.628   1.632  10.403  0.6884  0.0269  0.3294
  351TMC3     H 5316   3.807   1.310  10.266 -0.6039 -0.9989  1.0723
  351TMC3    H1 5317   3.452   1.536  10.328 -0.6224  0.2803 -0.1045
  351TMC3    H2 5318   3.431   1.169  10.109  0.1424 -0.7515  1.0500
  351TMC3    C7 5319   3.279   1.347  10.242  0.3536 -0.4019 -0.5265
  351TMC3    C8 5320   3.696   1.107  10.165  0.1966  0.0404  0.2031
  351TMC3    O1 5321   3.238   1.406  10.342  1.0654 -0.8017 -0.2641
  351TMC3    O2 5322   3.818   1.102  10.191  0.2029 -1.0278  0.6152
  352MPD2     C 5323   2.443   3.713   0.846 -0.1017 -0.4434  0.6403
  352MPD2    C1 5324   2.336   3.687   0.921  0.4940  0.5821  0.1878
  352MPD2    C2 5325   2.301   3.552   0.926  0.0805 -0.5313 -0.1249
  352MPD2    C3 5326   2.362   3.449   0.845  0.1494  0.6724 -0.5996
  352MPD2    C4 5327   2.474   3.487   0.771 -0.0689 -0.0468 -0.0850
  352MPD2    C5 5328   2.514   3.619   0.783 -0.1405 -0.6477 -0.1704
  352MPD2     H 5329   2.219   3.526   0.992 -1.4356 -0.2019 -1.8757
  352MPD2    H1 5330   2.526   3.421   0.702  0.4957  0.3392 -0.0310
  352MPD2    H2 5331   2.489   3.811   0.836  1.0356 -1.2201 -1.8568
  352MPD2    H3 5332   2.603   3.651   0.730  0.3677  0.6259  1.4479
  352MPD2     N 5333   2.319   3.313   0.831  0.5677  1.2385  0.0442
  352MPD2    H5 5334   2.378   3.251   0.776 -2.1077 -0.1932 -1.1870
  352MPD2    N1 5335   2.267   3.791   0.989 -0.5243 -0.4964  0.2228
  352MPD2    H7 5336   2.304   3.883   0.968 -0.4260 -0.7105 -0.5324
  353TMC3    C1 5337   2.177   3.124   0.840 -0.1198 -0.2907  0.2203
  353TMC3    C2 5338   2.282   3.054   0.788  0.2020  0.0513 -0.2047
  353TMC3    C3 5339   2.244   2.943   0.714 -0.2741  0.0068  0.4567
  353TMC3    C4 5340   2.047   3.088   0.821 -0.3858 -0.0225 -0.8508
  353TMC3    C5 5341   2.015   2.974   0.749  0.0772  0.6155  0.2064
  353TMC3    C6 5342   2.113   2.903   0.695 -0.4112  0.0209 -0.3268
  353TMC3     C 5343   2.203   3.260   0.880  0.6594 -0.2795 -0.2099
  353TMC3     O 5344   2.121   3.324   0.944  0.3021 -0.0912 -0.4197
  353TMC3     H 5345   2.388   3.074   0.803  0.1493  0.0310  0.1895
  353TMC3    H1 5346   1.976   3.160   0.859  0.6666 -0.8730  2.7075
  353TMC3    H2 5347   2.086   2.817   0.633 -1.0609  0.2498 -0.3570
  353TMC3    C7 5348   1.883   2.908   0.746  0.5016 -0.8262  0.3759
  353TMC3    C8 5349   2.353   2.858   0.669  0.3387  0.8891  0.0808
  353TMC3    O1 5350   1.871   2.826   0.655  0.4477  0.5171  0.0568
  353TMC3    O2 5351   2.469   2.895   0.683  0.0963 -0.1031  0.0306
  354TMC3    C1 5352   3.547   4.196  13.497  0.4127 -0.6307 -0.1687
  354TMC3    C2 5353   3.502   4.309  13.431  0.0384 -0.4434 -0.2323
  354TMC3    C3 5354   3.529   4.314  13.300 -0.0489 -0.1420 -0.6069
  354TMC3    C4 5355   3.616   4.096  13.430  0.4294 -0.2302 -0.4707
  354TMC3    C5 5356   3.654   4.114  13.300  0.1468  0.1556  0.5593
  354TMC3    C6 5357   3.600   4.217  13.231 -0.3407 -0.3956  0.3862
  354TMC3     C 5358   3.506   4.160  13.628  0.0393 -0.1197 -0.4517
  354TMC3     O 5359   3.512   4.042  13.658 -0.2162  0.1215 -0.2744
  354TMC3     H 5360   3.433   4.379  13.478 -0.8026 -2.1227  1.0092
  354TMC3    H1 5361   3.671   4.027  13.493  0.1870 -0.6038 -0.6618
  354TMC3    H2 5362   3.635   4.247  13.132  0.8240  0.4285  1.0520
  354TMC3    C7 5363   3.779   4.051  13.257 -0.6286 -0.5928 -0.3441
  354TMC3    C8 5364   3.508   4.434  13.232  0.0001  0.1053 -0.1081
  354TMC3    O1 5365   3.810   3.940  13.301 -0.0465 -0.0629 -0.4735
  354TMC3    O2 5366   3.493   4.430  13.113  0.7398 -0.1722  0.3096
  355MPD2     C 5367   3.882   0.832  11.829  0.0102 -0.0455 -0.0365
  355MPD2    C1 5368   3.996   0.900  11.801 -0.9249  0.0261  0.2383
  355MPD2    C2 5369   4.113   0.857  11.857  0.0695 -0.4029 -0.8902
  355MPD2    C3 5370   4.115   0.752  11.947 -0.4355  0.4391 -0.7416
  355MPD2    C4 5371   4.001   0.679  11.972  0.1929 -0.3801 -0.4525
  355MPD2    C5 5372   3.886   0.724  11.916 -0.2933 -0.5204  0.0476
  355MPD2     H 5373   4.205   0.908  11.831  0.1851  1.3960  3.2110
  355MPD2    H1 5374   3.984   0.602  12.046  2.1026  0.6258  1.0455
  355MPD2    H2 5375   3.789   0.859  11.781  0.0109  1.0069  0.5385
  355MPD2    H3 5376   3.793   0.675  11.942 -0.2594 -1.2158 -1.1376
  355MPD2     N 5377   4.234   0.720  12.008  0.1309  0.2185  0.1148
  355MPD2    H5 5378   4.307   0.786  11.982 -0.1843 -0.5054 -2.6380
  355MPD2    N1 5379   4.006   0.998  11.706  0.4703  0.4789 -0.5747
  355MPD2    H7 5380   4.093   1.047  11.683  1.3070 -1.6091 -1.9253
  356TMC3    C1 5381   4.395   0.633  12.145 -0.3884  0.3396  1.1681
  356TMC3    C2 5382   4.462   0.723  12.077  0.4074 -0.2383 -0.0126
  356TMC3    C3 5383   4.528   0.831  12.125 -0.5990  0.7527  0.2508
  356TMC3    C4 5384   4.407   0.638  12.283 -0.1081  0.6784 -0.0263
  356TMC3    C5 5385   4.456   0.762  12.331  0.1373 -0.2222  0.8098
  356TMC3    C6 5386   4.521   0.857  12.254 -0.1405 -0.2846 -0.1156
  356TMC3     C 5387   4.261   0.618  12.095  0.1384  0.3048 -0.1723
  356TMC3     O 5388   4.188   0.533  12.149 -0.6160 -0.6522  0.0361
  356TMC3     H 5389   4.465   0.705  11.971 -0.2508  1.1141 -0.2603
  356TMC3    H1 5390   4.354   0.561  12.338  2.4053 -3.2177 -3.0443
  356TMC3    H2 5391   4.537   0.959  12.288 -0.7660  0.0360 -0.7987
  356TMC3    C7 5392   4.452   0.775  12.482 -0.5437  0.5431  0.0391
  356TMC3    C8 5393   4.539   0.942  12.028  0.2337  0.1571  0.8014
  356TMC3    O1 5394   4.391   0.684  12.545 -0.3393 -0.0467 -0.3685
  356TMC3    O2 5395   4.453   0.938  11.943  0.3223  0.0849  0.6414
  357MPD2     C 5396   2.725   0.493   0.810  0.4044 -0.4443 -0.1791
  357MPD2    C1 5397   2.795   0.565   0.907  0.5087 -0.1002 -0.5521
  357MPD2    C2 5398   2.721   0.613   1.019 -0.8126 -0.1892 -0.0882
  357MPD2    C3 5399   2.585   0.583   1.023  0.2145 -0.3154  0.6186
  357MPD2    C4 5400   2.526   0.501   0.925 -0.1910  0.8352 -0.3150
  357MPD2    C5 5401   2.595   0.458   0.817 -0.3905 -0.0860 -0.2773
  357MPD2     H 5402   2.778   0.677   1.085 -2.4459 -0.8535  1.9417
  357MPD2    H1 5403   2.426   0.461   0.933 -0.7144  1.8241 -1.8254
  357MPD2    H2 5404   2.782   0.454   0.725 -0.2717 -0.3611 -0.6676
  357MPD2    H3 5405   2.549   0.380   0.757 -0.0635  2.6527 -4.0964
  357MPD2     N 5406   2.508   0.631   1.134  0.2930 -0.3038  0.1081
  357MPD2    H5 5407   2.412   0.600   1.125  0.5007 -0.3880 -1.7016
  357MPD2    N1 5408   2.931   0.600   0.879  0.2493  0.1101 -0.3820
  357MPD2    H7 5409   2.970   0.569   0.791  1.7732 -0.0996  0.3660
  358TMC3    C1 5410   3.154   0.665   0.894  0.0029  0.3346  0.0097
  358TMC3    C2 5411   3.189   0.565   0.808  0.1584  0.1611 -0.0252
  358TMC3    C3 5412   3.319   0.561   0.768 -0.1627 -0.6513  0.2722
  358TMC3    C4 5413   3.243   0.753   0.943  0.3591  0.2037 -0.0955
  358TMC3    C5 5414   3.373   0.738   0.894 -0.5376 -0.1354  0.2059
  358TMC3    C6 5415   3.418   0.647   0.803 -0.2154  0.0529 -0.4475
  358TMC3     C 5416   3.020   0.661   0.962 -0.0810 -0.9105 -0.6317
  358TMC3     O 5417   3.012   0.698   1.082  0.5252  0.1266  0.0958
  358TMC3     H 5418   3.118   0.485   0.790 -1.8676  1.2908  2.7202
  358TMC3    H1 5419   3.217   0.813   1.029  2.2612  1.0143 -0.0732
  358TMC3    H2 5420   3.520   0.610   0.811  0.2967  1.2334 -1.5158
  358TMC3    C7 5421   3.474   0.832   0.940 -0.3799 -0.0026 -0.5283
  358TMC3    C8 5422   3.343   0.474   0.656 -0.2184 -0.3338  0.5708
  358TMC3    O1 5423   3.443   0.913   1.029  0.0389 -0.6595 -0.2475
  358TMC3    O2 5424   3.246   0.408   0.611 -0.0478 -0.1247  0.4250
  359MPD2     C 5425   3.726   4.362  12.122  0.8146 -0.4545  0.0067
  359MPD2    C1 5426   3.765   4.230  12.144 -1.1578 -0.1828 -0.1730
  359MPD2    C2 5427   3.704   4.154  12.245  0.2390  0.1912 -0.7221
  359MPD2    C3 5428   3.597   4.208  12.311 -0.2910 -1.0184  0.2231
  359MPD2    C4 5429   3.556   4.337  12.284 -0.0668 -0.4869  0.1611
  359MPD2    C5 5430   3.622   4.416  12.194  0.4960  0.4710 -0.5716
  359MPD2     H 5431   3.743   4.054  12.263  0.3045  0.1885 -0.8770
  359MPD2    H1 5432   3.479   4.392  12.336 -0.8243 -0.0766 -1.4020
  359MPD2    H2 5433   3.787   4.429  12.063  2.0042 -1.0261  0.6035
  359MPD2    H3 5434   3.586   4.518  12.183  0.2623  0.6318  1.6273
  359MPD2     N 5435   3.517   4.141  12.405 -0.2903 -0.2449 -0.1316
  359MPD2    H5 5436   3.442   4.196  12.447  0.4627  1.5551 -1.1460
  359MPD2    N1 5437   3.875   4.181  12.073 -0.0631  0.4668 -0.4977
  359MPD2    H7 5438   3.893   4.083  12.090  1.0097  0.8471  0.5595
  360TMC3    C1 5439   4.051   4.150  11.924  0.2891 -0.4639 -0.0031
  360TMC3    C2 5440   4.136   4.070  11.997  1.0503  0.3933 -0.0508
  360TMC3    C3 5441   4.250   4.030  11.941 -0.0997 -0.3445 -0.2675
  360TMC3    C4 5442   4.077   4.176  11.792  0.5322  0.5340  0.2536
  360TMC3    C5 5443   4.190   4.119  11.732  0.1423  0.4683 -1.1244
  360TMC3    C6 5444   4.280   4.050  11.808 -0.4153  0.1266  0.4143
  360TMC3     C 5445   3.953   4.240  11.980  0.9623 -0.0398  0.3873
  360TMC3     O 5446   3.932   4.348  11.923 -0.6063 -0.1935  0.1728
  360TMC3     H 5447   4.124   4.065  12.105  0.7459  2.0434 -0.0031
  360TMC3    H1 5448   4.003   4.228  11.732  0.4272 -0.7734 -0.7319
  360TMC3    H2 5449   4.369   4.015  11.758 -0.6243  0.1215  0.0477
  360TMC3    C7 5450   4.223   4.160  11.598 -0.4409 -0.3916  0.3222
  360TMC3    C8 5451   4.332   3.943  12.020  0.5968  0.1930 -1.5470
  360TMC3    O1 5452   4.334   4.138  11.550  0.0397 -0.5634  0.1354
  360TMC3    O2 5453   4.278   3.891  12.116  0.2001  0.3905  0.0959
  361MPD2     C 5454   1.114   3.703  17.190 -0.6084 -0.0664 -0.3805
  361MPD2    C1 5455   1.029   3.593  17.183  0.5782  0.1573 -0.3810
  361MPD2    C2 5456   1.075   3.472  17.240 -0.0595  0.2976 -0.0341
  361MPD2    C3 5457   1.204   3.463  17.286  0.3307  0.1724 -0.2883
  361MPD2    C4 5458   1.275   3.577  17.294  0.5704  0.7114  0.4413
  361MPD2    C5 5459   1.236   3.699  17.247  0.0137 -0.2726  0.7375
  361MPD2     H 5460   1.009   3.386  17.247  0.3609  0.1574  2.1036
  361MPD2    H1 5461   1.371   3.573  17.345  0.6550  0.3391  0.2527
  361MPD2    H2 5462   1.086   3.798  17.147 -0.6782  0.5399  1.0379
  361MPD2    H3 5463   1.297   3.788  17.242 -0.2345 -0.0802  1.0941
  361MPD2     N 5464   1.260   3.341  17.346 -0.4296  0.2994 -0.1071
  361MPD2    H5 5465   1.354   3.343  17.383 -0.9242  2.2333  1.0573
  361MPD2    N1 5466   0.906   3.586  17.112  0.4557 -0.0769  0.0028
  361MPD2    H7 5467   0.843   3.507  17.122  1.2050 -0.5897  0.6325
  362TMC3    C1 5468   0.728   3.648  16.975  0.0830  0.2895  0.7301
  362TMC3    C2 5469   0.631   3.629  17.070  0.4919  0.4548 -0.4058
  362TMC3    C3 5470   0.501   3.649  17.030  0.3331  0.1875  1.2843
  362TMC3    C4 5471   0.692   3.686  16.846 -0.2816  0.0971 -0.5689
  362TMC3    C5 5472   0.560   3.694  16.815  0.4810  0.5775 -0.3029
  362TMC3    C6 5473   0.466   3.665  16.903  0.3448  0.1307 -0.9048
  362TMC3     C 5474   0.866   3.668  17.012  0.7559 -0.2902 -0.6707
  362TMC3     O 5475   0.924   3.755  16.948 -0.5863 -0.5944 -0.0170
  362TMC3     H 5476   0.645   3.600  17.173  1.9902  0.0435 -0.7218
  362TMC3    H1 5477   0.769   3.712  16.774 -1.0865  0.0599 -1.4466
  362TMC3    H2 5478   0.363   3.664  16.871 -0.4430  0.3575  1.5943
  362TMC3    C7 5479   0.513   3.708  16.674 -0.5178  0.0752  0.7007
  362TMC3    C8 5480   0.399   3.574  17.094  0.1583 -0.4343  0.4006
  362TMC3    O1 5481   0.394   3.706  16.658  0.1298  0.1140 -0.3372
  362TMC3    O2 5482   0.406   3.456  17.096  0.1802  0.2260 -0.1374
  363TMC3    C1 5483   4.530   1.315   9.836 -0.9139  0.3275  0.6395
  363TMC3    C2 5484   4.552   1.185   9.842  0.8545  0.0428 -0.1377
  363TMC3    C3 5485   4.441   1.105   9.838  0.1155 -0.3435 -0.6214
  363TMC3    C4 5486   4.400   1.366   9.819 -0.3265  0.7197  0.2250
  363TMC3    C5 5487   4.293   1.281   9.794 -0.9106 -0.1160 -0.6043
  363TMC3    C6 5488   4.306   1.147   9.810  0.1921  0.2304  0.1067
  363TMC3     C 5489   4.652   1.402   9.829  0.1546  0.7762 -0.3748
  363TMC3     O 5490   0.021   1.354   9.863  0.0011  0.1255  0.6709
  363TMC3     H 5491   4.653   1.149   9.855  1.2959  1.1462 -0.4563
  363TMC3    H1 5492   4.387   1.474   9.818 -0.9652  0.6423  0.5579
  363TMC3    H2 5493   4.232   1.070   9.794  0.2859  0.2077 -0.2096
  363TMC3    C7 5494   4.169   1.345   9.754 -0.2918 -0.4242  0.4613
  363TMC3    C8 5495   4.468   0.965   9.866 -0.1152 -0.0366 -0.0553
  363TMC3    O1 5496   4.182   1.463   9.738  0.9624  0.2576 -0.5792
  363TMC3    O2 5497   4.376   0.884   9.858 -0.2895  0.4808 -0.8371
  364MPD2     C 5498   2.943   0.450  10.631 -0.0518  0.0330  0.6345
  364MPD2    C1 5499   3.044   0.461  10.536 -0.1447 -0.0346 -0.5339
  364MPD2    C2 5500   3.169   0.396  10.562  0.0441 -0.1176  0.1899
  364MPD2    C3 5501   3.200   0.334  10.688  0.0523 -0.8749  0.4571
  364MPD2    C4 5502   3.085   0.308  10.770  0.3910  1.2347  0.2890
  364MPD2    C5 5503   2.965   0.370  10.741 -0.9486  0.2174  0.0567
  364MPD2     H 5504   3.234   0.392  10.476  0.6421  4.6184  0.3870
  364MPD2    H1 5505   3.084   0.241  10.855 -1.3986 -0.0975 -0.7923
  364MPD2    H2 5506   2.846   0.496  10.618 -0.4390 -0.7718  0.6589
  364MPD2    H3 5507   2.882   0.345  10.806 -0.3592  0.2964  0.8404
  364MPD2     N 5508   3.328   0.281  10.725 -0.2674 -0.1264  0.3515
  364MPD2    H5 5509   3.333   0.230  10.813  2.1877  0.6587  0.6472
  364MPD2    N1 5510   3.007   0.526  10.419 -0.0241  0.9393  0.6022
  364MPD2    H7 5511   2.920   0.578  10.411  0.2935  1.2663 -0.6654
  365TMC3    C1 5512   3.045   0.640  10.215  0.4607 -0.0197 -0.2260
  365TMC3    C2 5513   3.075   0.599  10.091 -0.6211 -0.0022 -0.0794
  365TMC3    C3 5514   3.141   0.695  10.017  0.3745  0.6125 -0.1337
  365TMC3    C4 5515   3.073   0.765  10.254  0.2189 -0.3015  0.0962
  365TMC3    C5 5516   3.130   0.862  10.177 -0.7986  0.2434  0.0321
  365TMC3    C6 5517   3.171   0.823  10.055  0.3541 -0.0026 -0.5093
  365TMC3     C 5518   3.084   0.532  10.306  0.6409 -0.0748  0.2276
  365TMC3     O 5519   3.159   0.443  10.262 -0.2264  0.7867 -0.9111
  365TMC3     H 5520   3.068   0.495  10.059 -0.8940  0.6954 -2.3375
  365TMC3    H1 5521   3.045   0.779  10.358  2.3680  0.9539  0.4969
  365TMC3    H2 5522   3.246   0.876   9.997  0.7578  0.8936  0.8177
  365TMC3    C7 5523   3.228   0.945  10.242  0.0579 -0.1716 -0.3378
  365TMC3    C8 5524   3.230   0.634   9.921 -0.2235  0.7249 -0.6737
  365TMC3    O1 5525   3.331   0.973  10.182 -0.6294 -0.4268  0.0454
  365TMC3    O2 5526   3.268   0.706   9.830 -0.1272  0.1894 -0.2307
  366MPD2     C 5527   1.680   1.294  14.919  0.7721  0.4292 -0.6815
  366MPD2    C1 5528   1.697   1.347  15.047 -0.5510 -0.7701  0.6883
  366MPD2    C2 5529   1.817   1.324  15.119  0.6555  0.2223 -0.2863
  366MPD2    C3 5530   1.921   1.270  15.052 -0.6423  0.4610  0.5451
  366MPD2    C4 5531   1.899   1.207  14.930  0.4609  0.0232  0.3832
  366MPD2    C5 5532   1.785   1.232  14.859 -0.0828  0.1253 -0.1517
  366MPD2     H 5533   1.831   1.378  15.212  0.5022  0.1575 -0.2258
  366MPD2    H1 5534   1.970   1.150  14.871  0.5738  1.7032 -1.0955
  366MPD2    H2 5535   1.585   1.284  14.868 -1.1835 -2.8835  3.6450
  366MPD2    H3 5536   1.760   1.187  14.764 -0.4691  2.3918 -1.1129
  366MPD2     N 5537   2.057   1.276  15.099 -0.2684  0.1844 -0.3394
  366MPD2    H5 5538   2.120   1.207  15.059  0.8537  0.3825  1.0924
  366MPD2    N1 5539   1.600   1.422  15.116 -0.0972  0.2803 -0.3273
  366MPD2    H7 5540   1.622   1.452  15.210  0.7575 -0.0656 -0.4128
  367TMC3    C1 5541   1.430   1.587  15.142  0.4279 -0.6701 -0.2169
  367TMC3    C2 5542   1.521   1.660  15.214 -0.0702  0.4702  0.4607
  367TMC3    C3 5543   1.480   1.786  15.260 -0.3132 -0.2274 -0.5474
  367TMC3    C4 5544   1.304   1.635  15.117  0.2381  0.1573 -0.0193
  367TMC3    C5 5545   1.271   1.761  15.160  0.1676  0.2565 -0.3390
  367TMC3    C6 5546   1.362   1.840  15.228  0.5514 -0.0852 -1.5970
  367TMC3     C 5547   1.479   1.464  15.071 -0.1637  0.2852  0.4748
  367TMC3     O 5548   1.413   1.420  14.975  0.1770  0.3413  0.8918
  367TMC3     H 5549   1.622   1.630  15.238  0.3816  1.4690 -0.2223
  367TMC3    H1 5550   1.238   1.564  15.069 -1.8607  2.1429 -0.0681
  367TMC3    H2 5551   1.316   1.925  15.277 -0.4944 -2.1537  0.9968
  367TMC3    C7 5552   1.187   1.851  15.078 -0.4858  0.0396  0.0397
  367TMC3    C8 5553   1.573   1.852  15.350 -0.2490 -0.3490  0.5227
  367TMC3    O1 5554   1.152   1.961  15.121  0.4827 -0.1484 -0.3495
  367TMC3    O2 5555   1.648   1.778  15.411  0.7954  0.1672 -0.1901
  368MPD2     C 5556   2.556   3.049  13.265 -0.0314 -0.0930 -0.1456
  368MPD2    C1 5557   2.501   3.149  13.187 -0.5214  0.0421  0.4999
  368MPD2    C2 5558   2.540   3.169  13.055  0.2021  0.2152  0.0595
  368MPD2    C3 5559   2.643   3.093  13.007  0.2937  0.5605 -0.4377
  368MPD2    C4 5560   2.708   3.000  13.091 -0.4666 -0.7819  0.1177
  368MPD2    C5 5561   2.659   2.971  13.219 -0.2559 -0.4168 -0.0582
  368MPD2     H 5562   2.480   3.233  12.991  1.8050  2.6006  0.9807
  368MPD2    H1 5563   2.800   2.949  13.064 -0.2975 -0.6725  0.4755
  368MPD2    H2 5564   2.541   3.032  13.371 -1.6296 -3.2539 -0.8526
  368MPD2    H3 5565   2.700   2.893  13.282  2.0592  0.3154 -0.6414
  368MPD2     N 5566   2.700   3.097  12.877  0.7879  0.0560  0.3642
  368MPD2    H5 5567   2.798   3.071  12.876  0.9043  0.4340  1.7312
  368MPD2    N1 5568   2.420   3.248  13.248 -0.1703 -0.5697 -0.3589
  368MPD2    H7 5569   2.370   3.211  13.328  1.0876  0.8588  1.0791
  369TMC3    C1 5570   2.276   3.437  13.254  0.0495 -0.1814  0.1516
  369TMC3    C2 5571   2.264   3.556  13.191 -1.2703  0.6675  0.8666
  369TMC3    C3 5572   2.154   3.592  13.120 -0.5910 -0.0289 -0.8004
  369TMC3    C4 5573   2.168   3.359  13.260  0.3116 -0.4166 -0.7941
  369TMC3    C5 5574   2.053   3.391  13.191  0.0550  0.0728 -0.1522
  369TMC3    C6 5575   2.049   3.508  13.120  0.7756 -0.4275  0.2667
  369TMC3     C 5576   2.394   3.367  13.197 -0.0869  0.0779 -0.3743
  369TMC3     O 5577   2.456   3.433  13.116 -0.1164 -0.2149 -0.4076
  369TMC3     H 5578   2.338   3.635  13.198  0.1026 -0.3694 -1.7913
  369TMC3    H1 5579   2.171   3.261  13.306  3.3135 -0.3539 -0.8615
  369TMC3    H2 5580   1.968   3.542  13.058  1.6694 -1.7030 -1.5951
  369TMC3    C7 5581   1.930   3.344  13.249 -0.1505  0.3339 -0.4222
  369TMC3    C8 5582   2.176   3.646  12.990  0.6883 -0.0838  0.5466
  369TMC3    O1 5583   1.940   3.275  13.351 -0.3547 -0.3365 -0.4661
  369TMC3    O2 5584   2.082   3.703  12.936 -0.4886 -0.1796  0.1944
  370TMC3    C1 5585   2.313   4.199  16.121  0.6898 -0.0542  0.1171
  370TMC3    C2 5586   2.211   4.186  16.208 -0.5193  0.2252  0.8111
  370TMC3    C3 5587   2.120   4.087  16.190 -0.5138  0.2066  0.1274
  370TMC3    C4 5588   2.328   4.118  16.014 -0.1428 -0.0028  0.5096
  370TMC3    C5 5589   2.246   4.009  16.005  0.1329 -0.0085 -0.4746
  370TMC3    C6 5590   2.139   3.991  16.093 -0.9987 -0.4974  0.4740
  370TMC3     C 5591   2.421   4.292  16.155  0.7765  0.6278 -0.1932
  370TMC3     O 5592   2.451   4.300  16.276 -0.3002  0.0244 -0.1986
  370TMC3     H 5593   2.200   4.260  16.287  1.1778 -1.1476  2.3134
  370TMC3    H1 5594   2.413   4.136  15.950  1.0088 -3.4825  1.0442
  370TMC3    H2 5595   2.064   3.914  16.080 -1.7635  0.0228  1.7981
  370TMC3    C7 5596   2.273   3.932  15.888  0.6935  0.7329 -0.5131
  370TMC3    C8 5597   2.039   4.046  16.303 -0.6107 -1.0330  0.4636
  370TMC3    O1 5598   2.312   3.989  15.788  0.6604 -1.3670 -0.9736
  370TMC3    O2 5599   1.970   3.950  16.281  0.5485  0.2208 -0.1337
  371TMC3    C1 5600   3.406   2.083  15.600 -0.6344 -0.7916 -0.4762
  371TMC3    C2 5601   3.295   2.088  15.685  0.0808  0.5613  0.4300
  371TMC3    C3 5602   3.220   2.211  15.683  0.2741  0.6026  0.2529
  371TMC3    C4 5603   3.460   2.196  15.536  0.3170  0.3161 -0.2170
  371TMC3    C5 5604   3.378   2.308  15.531 -0.2514 -0.4819 -0.2121
  371TMC3    C6 5605   3.255   2.309  15.599 -0.5560 -0.2536 -0.5552
  371TMC3     C 5606   3.446   1.955  15.540 -0.4661 -0.6785  0.3916
  371TMC3     O 5607   3.514   1.964  15.440  0.7495  0.2116 -0.0615
  371TMC3     H 5608   3.262   2.001  15.741  2.0765 -0.9988 -0.8304
  371TMC3    H1 5609   3.540   2.182  15.464 -0.5705 -0.3999 -1.0805
  371TMC3    H2 5610   3.193   2.397  15.583  1.3781  0.8471 -2.1503
  371TMC3    C7 5611   3.434   2.433  15.484  0.5628  0.2069  0.6064
  371TMC3    C8 5612   3.092   2.227  15.745 -0.0831 -0.6599 -0.2526
  371TMC3    O1 5613   3.362   2.531  15.474  0.1328 -0.3884 -0.1333
  371TMC3    O2 5614   3.026   2.129  15.768 -0.2502 -0.3589 -0.3207
  372MPD2     C 5615   3.095   3.282  13.178  0.6776 -0.0434 -0.6246
  372MPD2    C1 5616   3.193   3.242  13.268 -0.3724  0.4608  0.6236
  372MPD2    C2 5617   3.155   3.165  13.383  0.3244  0.7993  0.3146
  372MPD2    C3 5618   3.024   3.134  13.409  0.1738 -0.1391 -0.0543
  372MPD2    C4 5619   2.927   3.179  13.320 -0.4541  0.5108  0.1735
  372MPD2    C5 5620   2.963   3.255  13.212  0.5500  0.1379  0.5255
  372MPD2     H 5621   3.230   3.123  13.448  0.9348 -0.4502 -1.2012
  372MPD2    H1 5622   2.822   3.158  13.333 -1.2870  2.3441 -3.5345
  372MPD2    H2 5623   3.102   3.339  13.086  3.4361  1.2476  0.3679
  372MPD2    H3 5624   2.877   3.294  13.159  0.1574  1.5157  2.1758
  372MPD2     N 5625   2.995   3.065  13.526  0.3921  0.1808 -0.1163
  372MPD2    H5 5626   3.070   3.025  13.582 -0.6321 -0.1094  1.0517
  372MPD2    N1 5627   3.325   3.276  13.254 -0.4829 -0.0718 -0.3098
  372MPD2    H7 5628   3.386   3.247  13.329 -0.1085  0.2767 -0.4823
  373TMC3    C1 5629   2.879   2.936  13.676 -0.0509 -0.3366 -0.5464
  373TMC3    C2 5630   2.783   2.937  13.777  0.0866  0.2632 -0.4564
  373TMC3    C3 5631   2.756   2.816  13.831 -0.2991  0.2427 -0.8208
  373TMC3    C4 5632   2.955   2.827  13.646  0.1445  0.8255  0.1409
  373TMC3    C5 5633   2.922   2.711  13.709  0.5613  0.0656 -0.6967
  373TMC3    C6 5634   2.819   2.698  13.800 -0.4717  0.2630  0.3381
  373TMC3     C 5635   2.870   3.034  13.579 -0.1941 -0.3180 -0.0662
  373TMC3     O 5636   2.754   3.060  13.547  0.3280  0.5068 -0.4968
  373TMC3     H 5637   2.728   3.028  13.799 -0.7082 -0.2946 -0.1234
  373TMC3    H1 5638   3.043   2.831  13.583 -0.6197  0.8187 -0.9236
  373TMC3    H2 5639   2.788   2.606  13.846  1.2041 -1.1398 -1.2941
  373TMC3    C7 5640   3.026   2.607  13.710  0.2906  0.4006 -0.2627
  373TMC3    C8 5641   2.637   2.814  13.911 -0.0623 -0.5153  0.0974
  373TMC3    O1 5642   3.135   2.633  13.661 -0.1910  0.5135  0.4078
  373TMC3    O2 5643   2.546   2.886  13.867 -0.6427 -0.0065 -0.0471
  374TMC3    C1 5644   3.548   4.242   9.435  0.5235 -0.3062 -0.7949
  374TMC3    C2 5645   3.665   4.286   9.490 -0.5216  0.6894  0.4486
  374TMC3    C3 5646   3.722   4.400   9.444  0.0415  0.3100  0.3987
  374TMC3    C4 5647   3.502   4.292   9.314  0.2325  0.2078 -0.2571
  374TMC3    C5 5648   3.571   4.397   9.261  0.8989 -0.8845 -0.3289
  374TMC3    C6 5649   3.682   4.457   9.324  0.0871 -0.0259 -0.7395
  374TMC3     C 5650   3.492   4.124   9.490 -0.2467 -0.0102 -0.0644
  374TMC3     O 5651   3.509   4.097   9.608  0.2478 -0.6402  0.5820
  374TMC3     H 5652   3.696   4.245   9.586 -0.8328 -2.3364 -0.7478
  374TMC3    H1 5653   3.403   4.262   9.280  0.0039  0.3948  0.2419
  374TMC3    H2 5654   3.728   4.543   9.277  2.4846 -1.0469 -0.2081
  374TMC3    C7 5655   3.518   4.454   9.137  0.1809 -1.0579  0.6787
  374TMC3    C8 5656   3.855   4.439   9.486  0.2547 -0.0501 -0.4431
  374TMC3    O1 5657   3.405   4.430   9.097 -0.6041 -0.3390 -0.4433
  374TMC3    O2 5658   3.911   4.525   9.424 -0.8830 -0.0441  0.1683
  375MPD2     C 5659   3.764   4.243  16.876 -0.0801  0.8008 -0.0057
  375MPD2    C1 5660   3.656   4.187  16.811 -0.0909  0.1126  0.2821
  375MPD2    C2 5661   3.665   4.060  16.751  0.4163  0.1405 -0.4927
  375MPD2    C3 5662   3.787   3.986  16.758  0.1665  0.3107 -0.9259
  375MPD2    C4 5663   3.888   4.040  16.835  0.5166  0.0614  0.4424
  375MPD2    C5 5664   3.874   4.166  16.892 -1.2414 -0.8174  0.6525
  375MPD2     H 5665   3.574   4.028  16.701 -0.7666  2.2258  0.3149
  375MPD2    H1 5666   3.972   3.979  16.866  1.9690  2.9731  2.2431
  375MPD2    H2 5667   3.758   4.343  16.917 -0.4934  1.4662 -1.7238
  375MPD2    H3 5668   3.951   4.211  16.954 -1.6949 -1.6896  1.8602
  375MPD2     N 5669   3.805   3.858  16.716 -0.0258  0.4317 -0.4607
  375MPD2    H5 5670   3.893   3.813  16.736 -0.4124  0.2221  0.7667
  375MPD2    N1 5671   3.532   4.256  16.801  0.2868 -0.3073  0.7088
  375MPD2    H7 5672   3.457   4.217  16.745 -1.2539  0.1088  2.4922
  376TMC3    C1 5673   3.803   3.693  16.555 -0.7178 -0.5223  0.3448
  376TMC3    C2 5674   3.931   3.673  16.612  0.0395  0.9138 -0.2077
  376TMC3    C3 5675   4.044   3.700  16.545 -0.0820 -0.0700  0.3035
  376TMC3    C4 5676   3.804   3.724  16.421 -0.6212 -0.2806 -0.0910
  376TMC3    C5 5677   3.915   3.739  16.348  0.7145  0.6682  0.4911
  376TMC3    C6 5678   4.035   3.713  16.408  0.3800 -0.3829  0.1465
  376TMC3     C 5679   3.726   3.794  16.622 -0.5356  0.1222 -0.3842
  376TMC3     O 5680   3.627   3.832  16.561 -1.1852  0.3797  0.8097
  376TMC3     H 5681   3.938   3.652  16.718 -0.5256  1.4938 -0.0524
  376TMC3    H1 5682   3.711   3.749  16.371  0.2903  3.6573  0.1888
  376TMC3    H2 5683   4.122   3.717  16.344 -0.1704 -0.8956 -0.6256
  376TMC3    C7 5684   3.915   3.857  16.272  0.0159  0.1504  0.4868
  376TMC3    C8 5685   4.127   3.789  16.614  0.3809 -0.8030  1.3205
  376TMC3    O1 5686   4.017   3.926  16.269  0.1809  0.3487 -0.0888
  376TMC3    O2 5687   4.140   3.766  16.731  0.1033  0.3536  0.1619
  377MPD2     C 5688   1.771   3.729  13.086  0.0067  0.4883  0.6641
  377MPD2    C1 5689   1.715   3.791  12.974 -0.4233 -0.0082  0.3589
  377MPD2    C2 5690   1.577   3.792  12.965  0.1573  0.0638  0.0823
  377MPD2    C3 5691   1.495   3.724  13.049 -0.0542 -0.2135  0.1799
  377MPD2    C4 5692   1.545   3.666  13.163  1.1830 -0.3001  0.2192
  377MPD2    C5 5693   1.689   3.676  13.185 -0.8788  0.7341 -0.0390
  377MPD2     H 5694   1.523   3.826  12.877 -1.8486 -0.2002  1.1971
  377MPD2    H1 5695   1.490   3.619  13.243  0.0376  0.9587  0.1652
  377MPD2    H2 5696   1.878   3.721  13.095  0.0331  0.7604  0.6044
  377MPD2    H3 5697   1.718   3.614  13.269  0.1952  1.4442  0.1113
  377MPD2     N 5698   1.356   3.709  13.031  0.5019 -0.6071 -0.4300
  377MPD2    H5 5699   1.324   3.630  13.087  3.1051 -1.8353 -0.6944
  377MPD2    N1 5700   1.803   3.829  12.868 -0.3515  0.1646  0.7692
  377MPD2    H7 5701   1.898   3.794  12.883 -0.0029  0.0694 -1.6034
  378TMC3    C1 5702   1.868   3.931  12.421 -0.7390  0.1769  0.3683
  378TMC3    C2 5703   1.805   3.947  12.534  0.2475  0.7158 -0.3189
  378TMC3    C3 5704   1.842   3.878  12.642  0.0545 -0.1986 -0.6500
  378TMC3    C4 5705   1.962   3.837  12.402 -0.0409 -0.4080  0.2595
  378TMC3    C5 5706   2.007   3.768  12.515 -0.4136  0.0896  0.7037
  378TMC3    C6 5707   1.947   3.789  12.638 -0.1355 -0.1009 -0.1720
  378TMC3     C 5708   1.796   3.966  12.296  0.2141 -0.5219  0.1134
  378TMC3     O 5709   1.677   3.987  12.299  0.3607  0.0649 -0.0838
  378TMC3     H 5710   1.715   4.008  12.540 -1.2334 -1.7515  2.3709
  378TMC3    H1 5711   1.978   3.803  12.301 -0.2671  0.0153  0.0816
  378TMC3    H2 5712   1.981   3.720  12.715  1.4307  0.1080 -0.6788
  378TMC3    C7 5713   2.081   3.646  12.504  0.9411  0.5515  0.2733
  378TMC3    C8 5714   1.759   3.905  12.761  0.9304  0.2463 -0.4849
  378TMC3    O1 5715   2.035   3.553  12.565  0.1651 -0.2589 -0.1729
  378TMC3    O2 5716   1.668   3.986  12.757 -0.2630 -0.3874 -0.5567
  379MPD2     C 5717   2.198   2.096  16.350 -0.2586  0.1316 -0.7411
  379MPD2    C1 5718   2.297   2.032  16.276 -0.2788 -0.2739 -0.2314
  379MPD2    C2 5719   2.401   1.965  16.344 -0.3371  0.6195 -0.0932
  379MPD2    C3 5720   2.401   1.963  16.489 -0.9549  0.4084 -0.7336
  379MPD2    C4 5721   2.298   2.030  16.556 -0.2071 -0.2233 -0.2145
  379MPD2    C5 5722   2.201   2.095  16.486  0.9804  0.2941  0.0388
  379MPD2     H 5723   2.485   1.916  16.297  1.1924  3.7588 -0.6230
  379MPD2    H1 5724   2.298   2.039  16.664  1.0430  0.2835 -0.2628
  379MPD2    H2 5725   2.115   2.154  16.311 -1.6947  0.7974  3.3110
  379MPD2    H3 5726   2.138   2.158  16.547 -0.5093 -2.7846  1.7024
  379MPD2     N 5727   2.503   1.904  16.565 -0.0335  0.1162  0.0727
  379MPD2    H5 5728   2.497   1.938  16.660 -0.5114 -0.9227  0.4212
  379MPD2    N1 5729   2.286   2.047  16.135  0.4983 -0.0484  0.4994
  379MPD2    H7 5730   2.214   2.112  16.105  1.5209  1.0345  0.3925
  380TMC3    C1 5731   2.327   2.008  15.905 -0.2995 -0.0422 -0.3011
  380TMC3    C2 5732   2.412   1.968  15.806  0.8903  0.6090 -0.7705
  380TMC3    C3 5733   2.354   1.954  15.684 -0.2024  0.1736  0.6958
  380TMC3    C4 5734   2.197   2.050  15.888 -0.4498  0.7311  0.2736
  380TMC3    C5 5735   2.139   2.043  15.766  0.0513  0.3069  0.0617
  380TMC3    C6 5736   2.219   1.991  15.666 -0.4320  0.5721 -0.3986
  380TMC3     C 5737   2.378   1.990  16.043  0.7576  1.2632 -0.1872
  380TMC3     O 5738   2.479   1.923  16.056 -0.2330  0.6567 -0.0252
  380TMC3     H 5739   2.510   1.928  15.830  0.0619  0.4107  2.3087
  380TMC3    H1 5740   2.128   2.086  15.963 -1.3660  1.1821 -0.7916
  380TMC3    H2 5741   2.172   1.976  15.569 -3.0635 -0.2880  1.0242
  380TMC3    C7 5742   2.026   2.128  15.731 -0.0528  0.0489 -0.1382
  380TMC3    C8 5743   2.429   1.897  15.579  0.4170  0.2830 -0.8668
  380TMC3    O1 5744   1.991   2.214  15.807 -0.1680 -0.1058 -0.0705
  380TMC3    O2 5745   2.383   1.893  15.467 -0.0158  0.0338  0.0135
  381TMC3    C1 5746   1.944   3.200  16.142 -1.6387  0.3138  0.1691
  381TMC3    C2 5747   2.030   3.307  16.132 -0.6615 -0.7134 -0.8110
  381TMC3    C3 5748   2.033   3.408  16.227  0.0628  0.1577 -0.2626
  381TMC3    C4 5749   1.865   3.188  16.255  0.0912  0.4108  0.5828
  381TMC3    C5 5750   1.869   3.295  16.347 -0.3447  0.0414  0.4041
  381TMC3    C6 5751   1.957   3.403  16.340 -0.2846  0.4837  0.1202
  381TMC3     C 5752   1.958   3.089  16.046 -0.5608  0.0865  0.1474
  381TMC3     O 5753   2.033   3.113  15.952 -0.2351 -0.8447 -0.4090
  381TMC3     H 5754   2.102   3.308  16.051  1.8105 -0.1869  1.4149
  381TMC3    H1 5755   1.794   3.107  16.268 -0.4233  0.5500 -1.3370
  381TMC3    H2 5756   1.954   3.485  16.410 -1.6067 -0.7843  1.5503
  381TMC3    C7 5757   1.809   3.254  16.469  0.2670 -0.6955  1.0618
  381TMC3    C8 5758   2.142   3.502  16.203  0.2193  0.1237 -0.8153
  381TMC3    O1 5759   1.788   3.133  16.490  0.0756 -0.2947 -0.2075
  381TMC3    O2 5760   2.219   3.474  16.109  0.3401  0.4620 -0.4201
  382MPD2     C 5761   1.192   0.724  16.732 -0.0797  0.1200 -0.1778
  382MPD2    C1 5762   1.262   0.684  16.847 -0.5813  0.2025 -0.6269
  382MPD2    C2 5763   1.266   0.553  16.892 -0.9608  0.0413  0.5063
  382MPD2    C3 5764   1.187   0.464  16.837  0.2374  0.6565  0.2119
  382MPD2    C4 5765   1.100   0.502  16.732  0.3591  0.0539  0.3136
  382MPD2    C5 5766   1.103   0.632  16.674  0.6199 -0.1330 -0.2946
  382MPD2     H 5767   1.339   0.542  16.972  1.8951  0.6463 -2.0079
  382MPD2    H1 5768   1.024   0.432  16.698 -0.3645  1.4712 -1.0346
  382MPD2    H2 5769   1.190   0.825  16.693  0.8661  0.3206  0.2955
  382MPD2    H3 5770   1.034   0.661  16.595 -1.0672 -0.3505  1.0889
  382MPD2     N 5771   1.194   0.328  16.884  0.4648 -0.1126  0.0213
  382MPD2    H5 5772   1.146   0.256  16.831 -0.3242  0.3489  0.1084
  382MPD2    N1 5773   1.332   0.786  16.916  0.1996  0.1035 -0.3156
  382MPD2    H7 5774   1.375   0.754  17.002 -1.0492 -0.2754  0.1692
  383TMC3    C1 5775   1.250   0.148  17.032  0.7840 -0.3456 -0.2970
  383TMC3    C2 5776   1.126   0.088  17.014 -0.1733  0.9358 -0.2024
  383TMC3    C3 5777   1.081   4.733  17.099 -0.3468  0.0598 -0.4460
  383TMC3    C4 5778   1.330   0.104  17.134  0.1391 -0.4908  0.2560
  383TMC3    C5 5779   1.283   0.013  17.220  0.0438 -0.3951  0.0833
  383TMC3    C6 5780   1.160   4.693  17.204  0.6882 -0.2399  0.7377
  383TMC3     C 5781   1.264   0.289  16.998 -0.0211 -0.5242  0.1995
  383TMC3     O 5782   1.333   0.351  17.080  0.5781 -0.1696 -0.4455
  383TMC3     H 5783   1.056   0.121  16.938 -1.3024 -0.5354  0.1816
  383TMC3    H1 5784   1.422   0.159  17.154 -2.0379  3.0480  0.4207
  383TMC3    H2 5785   1.134   4.614  17.274 -1.6250 -0.4313 -0.3530
  383TMC3    C7 5786   1.361   4.710  17.340 -1.0340  0.9782  0.0155
  383TMC3    C8 5787   0.935   4.705  17.097  0.4721 -0.1107  0.8320
  383TMC3    O1 5788   1.301   4.660  17.436  0.0015 -0.6314  0.0829
  383TMC3    O2 5789   0.867   0.021  17.009  0.2876 -0.2920  0.6513
  384MPD2     C 5790   3.679   1.692  12.219 -0.0717 -0.8086 -0.4662
  384MPD2    C1 5791   3.602   1.587  12.262  0.5382 -0.5160  0.1410
  384MPD2    C2 5792   3.646   1.456  12.237 -0.3689 -0.6104  0.4999
  384MPD2    C3 5793   3.736   1.436  12.135  0.3497  0.4299 -0.2329
  384MPD2    C4 5794   3.808   1.538  12.084 -0.5717 -0.4079 -0.4516
  384MPD2    C5 5795   3.778   1.665  12.130  0.1038 -0.3795  0.3694
  384MPD2     H 5796   3.588   1.370  12.267 -0.9336 -0.5546 -0.4298
  384MPD2    H1 5797   3.890   1.531  12.012  1.4085  1.0678  1.6477
  384MPD2    H2 5798   3.657   1.796  12.237 -0.4360 -1.0230  0.3585
  384MPD2    H3 5799   3.832   1.755  12.101 -0.5170 -0.7888 -2.0398
  384MPD2     N 5800   3.738   1.303  12.091 -0.0350 -0.1088 -0.1560
  384MPD2    H5 5801   3.673   1.233  12.124 -0.0947 -0.5741 -1.2674
  384MPD2    N1 5802   3.493   1.593  12.348 -0.4685 -0.5368 -0.3143
  384MPD2    H7 5803   3.448   1.503  12.362 -1.0890 -0.0153  1.1259
  385TMC3    C1 5804   3.832   1.109  12.037 -0.1152 -0.0442 -0.0405
  385TMC3    C2 5805   3.716   1.054  11.996  0.1952  0.0341  0.2728
  385TMC3    C3 5806   3.658   0.948  12.063  0.6754 -0.3066  0.8740
  385TMC3    C4 5807   3.880   1.076  12.161  0.3260  0.1604  0.1405
  385TMC3    C5 5808   3.810   0.982  12.233 -0.0677 -0.2444  0.1897
  385TMC3    C6 5809   3.701   0.913  12.189 -0.1697 -0.0715  0.1095
  385TMC3     C 5810   3.836   1.251  12.013 -0.3681  0.2675 -0.8911
  385TMC3     O 5811   3.953   1.289  12.001 -0.1582  0.2244  0.1948
  385TMC3     H 5812   3.661   1.105  11.918  0.4828 -1.0254 -0.6253
  385TMC3    H1 5813   3.963   1.136  12.199  0.9418 -0.2176 -0.6009
  385TMC3    H2 5814   3.652   0.827  12.234 -0.8087 -0.0281 -0.5128
  385TMC3    C7 5815   3.802   1.027  12.372 -0.3084  0.4074 -0.3016
  385TMC3    C8 5816   3.534   0.889  12.022  0.3681  0.1457 -0.9643
  385TMC3    O1 5817   3.841   1.134  12.411  0.1751 -0.3862 -0.1440
  385TMC3    O2 5818   3.472   0.826  12.108 -0.0414 -0.6534 -0.5114
  386TMC3    C1 5819   3.207   3.897  12.009 -0.1597  0.4002  0.3353
  386TMC3    C2 5820   3.183   3.872  11.879  0.5008 -0.2960 -0.2133
  386TMC3    C3 5821   3.112   3.968  11.812 -0.2631  0.0496  0.6486
  386TMC3    C4 5822   3.157   4.010  12.069  0.6814 -0.1456  0.6720
  386TMC3    C5 5823   3.097   4.110  11.997 -0.6526  0.2822 -0.3936
  386TMC3    C6 5824   3.069   4.088  11.866 -0.4424 -0.4338  0.4355
  386TMC3     C 5825   3.282   3.800  12.089  0.4875  0.1623 -0.1483
  386TMC3     O 5826   3.325   3.834  12.200  0.1512 -0.3009 -0.2552
  386TMC3     H 5827   3.229   3.784  11.834 -0.6659 -1.3709  0.6882
  386TMC3    H1 5828   3.176   4.035  12.173 -0.4721 -1.5337  1.2149
  386TMC3    H2 5829   3.003   4.159  11.818  1.6528 -0.2624 -2.1406
  386TMC3    C7 5830   3.016   4.197  12.074 -0.4937  0.4203 -0.2768
  386TMC3    C8 5831   3.086   3.943  11.669 -0.1561  0.1495 -0.1289
  386TMC3    O1 5832   2.987   4.169  12.189 -0.4885  0.3849 -0.3100
  386TMC3    O2 5833   3.040   4.034  11.602 -0.1356  0.4947  0.4348
  387MPD2     C 5834   0.696   4.429  10.041  0.2631 -0.1360  0.4302
  387MPD2    C1 5835   0.829   4.383  10.063  0.5227 -0.1033  0.0118
  387MPD2    C2 5836   0.861   4.262  10.031 -0.3609 -0.6755  0.1006
  387MPD2    C3 5837   0.771   4.171   9.979 -0.6174  0.1067  0.3659
  387MPD2    C4 5838   0.642   4.211   9.954 -0.3359  0.5646 -0.3394
  387MPD2    C5 5839   0.601   4.334  10.000  0.1064  0.1921  0.1830
  387MPD2     H 5840   0.965   4.234  10.032 -0.4154 -0.8353  2.1135
  387MPD2    H1 5841   0.564   4.143   9.919 -1.7060  2.1323 -0.3215
  387MPD2    H2 5842   0.661   4.530  10.056  0.6270  0.0261  0.2041
  387MPD2    H3 5843   0.499   4.366   9.985 -0.7533 -3.0340 -0.8132
  387MPD2     N 5844   0.820   4.047   9.936  0.3182 -0.6652 -0.5801
  387MPD2    H5 5845   0.917   4.023   9.953 -0.7196 -2.7244  2.4144
  387MPD2    N1 5846   0.931   4.465  10.096  0.9832  0.4201  0.5461
  387MPD2    H7 5847   1.021   4.421  10.117  1.0000  0.6161  0.8879
  388TMC3    C1 5848   1.059   4.648  10.082  0.0425  0.4851 -0.3102
  388TMC3    C2 5849   1.088   0.038  10.116  0.6695 -0.2550 -0.2658
  388TMC3    C3 5850   1.223   0.076  10.090 -0.4037  0.1895  0.7358
  388TMC3    C4 5851   1.144   4.571  10.011 -0.3841 -0.0023  0.1005
  388TMC3    C5 5852   1.269   4.604   9.993 -0.3389  0.2288  0.0029
  388TMC3    C6 5853   1.313   4.729  10.035  0.0328 -0.5903 -0.4107
  388TMC3     C 5854   0.926   4.601  10.106  0.5469 -0.2491  0.5414
  388TMC3     O 5855   0.841   4.687  10.118  0.2678 -0.4116 -0.3770
  388TMC3     H 5856   1.017   0.103  10.166  1.0918 -0.9045  1.1862
  388TMC3    H1 5857   1.102   4.490   9.952 -2.4398  1.1370  0.0228
  388TMC3    H2 5858   1.413   0.029  10.020  1.0966 -3.2572  0.2363
  388TMC3    C7 5859   1.362   4.517   9.924  0.4033 -0.7673  0.4468
  388TMC3    C8 5860   1.261   0.213  10.135  0.3049 -0.5594 -0.3076
  388TMC3    O1 5861   1.467   4.562   9.877  0.0635  0.1667 -0.2320
  388TMC3    O2 5862   1.378   0.219  10.180  0.1906  0.2160  0.3472
  389MPD2     C 5863   0.368   2.622  11.230  0.6075 -0.3623  0.2689
  389MPD2    C1 5864   0.255   2.563  11.174 -0.1677 -0.0498  0.3055
  389MPD2    C2 5865   0.188   2.465  11.248  0.1561  0.0586  0.7111
  389MPD2    C3 5866   0.225   2.439  11.383 -0.2600  0.1457 -0.5262
  389MPD2    C4 5867   0.329   2.506  11.433 -0.2752  0.3495  0.3506
  389MPD2    C5 5868   0.400   2.593  11.359 -0.6004 -0.1441  0.3788
  389MPD2     H 5869   0.107   2.410  11.201 -0.2213  0.8795  0.3925
  389MPD2    H1 5870   0.367   2.481  11.531  0.7496 -0.6262 -0.2944
  389MPD2    H2 5871   0.426   2.692  11.171 -1.9628  1.1914 -0.3837
  389MPD2    H3 5872   0.485   2.648  11.398 -3.4881  1.9699  3.6889
  389MPD2     N 5873   0.160   2.344  11.468 -0.0852 -0.0922  0.0083
  389MPD2    H5 5874   0.204   2.331  11.559 -0.1824 -0.7662 -0.0391
  389MPD2    N1 5875   0.222   2.607  11.043 -0.3695 -1.0338  0.4232
  389MPD2    H7 5876   0.284   2.674  10.998 -1.1025 -0.5076  0.1989
  390TMC3    C1 5877   4.714   2.227  11.553 -0.3353  0.5616 -0.4611
  390TMC3    C2 5878   4.616   2.125  11.549 -0.2121 -0.4442  0.2540
  390TMC3    C3 5879   4.550   2.092  11.664 -0.5176  0.2298 -0.8084
  390TMC3    C4 5880   0.000   2.296  11.667 -0.3672 -0.2887 -0.1640
  390TMC3    C5 5881   4.675   2.260  11.784  0.0364 -1.1050  0.1322
  390TMC3    C6 5882   4.578   2.161  11.779 -0.4848 -0.3942 -0.0076
  390TMC3     C 5883   0.044   2.271  11.436 -0.2843 -0.1305  0.0926
  390TMC3     O 5884   4.734   2.239  11.329 -0.1687  1.0284 -0.2313
  390TMC3     H 5885   4.583   2.072  11.459  0.3715  0.6443 -0.6010
  390TMC3    H1 5886   0.068   2.379  11.680 -1.4308  0.3673  1.2241
  390TMC3    H2 5887   4.518   2.129  11.863  0.5852  2.3211  1.8265
  390TMC3    C7 5888   0.022   2.266  11.901 -0.4675 -0.7131  0.1082
  390TMC3    C8 5889   4.445   1.991  11.661 -0.2806 -0.4182 -0.1898
  390TMC3    O1 5890   0.094   2.361  11.907  0.3878 -0.5217  0.4733
  390TMC3    O2 5891   4.443   1.910  11.570 -0.6860  0.4619 -0.2069
  391MPD2     C 5892   4.039   3.738  10.909 -0.3892 -0.0309 -0.5278
  391MPD2    C1 5893   4.175   3.762  10.886 -0.0088  0.4824 -0.2966
  391MPD2    C2 5894   4.227   3.828  10.776 -0.3839 -0.4900 -0.1657
  391MPD2    C3 5895   4.134   3.871  10.684 -0.3550  0.3978 -0.7801
  391MPD2    C4 5896   3.997   3.854  10.700 -0.0771 -0.1085  0.2798
  391MPD2    C5 5897   3.954   3.783  10.809 -0.5831  0.1023  0.3058
  391MPD2     H 5898   4.330   3.856  10.759 -0.6812  1.7911  1.7469
  391MPD2    H1 5899   3.920   3.895  10.636 -0.6775 -1.1710  0.3227
  391MPD2    H2 5900   4.003   3.681  10.994  1.0467 -1.1539 -0.6845
  391MPD2    H3 5901   3.849   3.760  10.809 -0.8077  1.1191  0.5547
  391MPD2     N 5902   4.189   3.948  10.581 -0.1628  0.1816  0.1301
  391MPD2    H5 5903   4.290   3.953  10.582 -0.0082 -3.0748  1.2033
  391MPD2    N1 5904   4.255   3.726  11.001  0.4596 -0.2248 -0.0344
  391MPD2    H7 5905   4.209   3.684  11.081  1.5701 -0.8631  0.2678
  392TMC3    C1 5906   4.174   4.096  10.396 -0.0616 -0.9186  0.1409
  392TMC3    C2 5907   4.106   4.130  10.284  0.6940  0.3763 -0.1779
  392TMC3    C3 5908   4.172   4.214  10.197 -0.3500  0.6340  0.8146
  392TMC3    C4 5909   4.291   4.155  10.437 -0.6684 -0.0519 -0.0459
  392TMC3    C5 5910   4.345   4.242  10.352 -0.3769  0.0524 -0.2143
  392TMC3    C6 5911   4.288   4.280  10.237 -0.0548  0.1108  0.1943
  392TMC3     C 5912   4.109   4.008  10.484 -0.3555 -0.6384 -0.3473
  392TMC3     O 5913   3.989   4.001  10.468  0.0429  0.0726 -0.0568
  392TMC3     H 5914   4.013   4.082  10.255  2.0720 -2.4478 -0.0057
  392TMC3    H1 5915   4.336   4.149  10.535 -3.4144 -0.2022  1.2151
  392TMC3    H2 5916   4.337   4.341  10.161 -1.0746 -0.4694 -0.9287
  392TMC3    C7 5917   4.479   4.295  10.389 -0.7530  0.4254  0.1239
  392TMC3    C8 5918   4.094   4.262  10.084 -0.9025 -0.0772  0.4143
  392TMC3    O1 5919   4.532   4.252  10.492 -0.0534 -0.0107  0.1254
  392TMC3    O2 5920   3.991   4.198  10.054 -0.1226 -0.5620  0.2991
  393TMC3    C1 5921   3.594   1.804  10.727  0.6232 -0.1965 -0.1126
  393TMC3    C2 5922   3.523   1.796  10.844  0.0449 -0.0480 -0.0555
  393TMC3    C3 5923   3.498   1.668  10.885 -0.8277 -0.2556  0.7694
  393TMC3    C4 5924   3.665   1.702  10.678 -0.2177 -0.5252 -0.2000
  393TMC3    C5 5925   3.638   1.578  10.726  0.0856 -0.1659  0.0899
  393TMC3    C6 5926   3.556   1.560  10.829 -0.8117 -0.6078  0.4349
  393TMC3     C 5927   3.613   1.938  10.671  0.0342  0.0664  0.1190
  393TMC3     O 5928   3.528   2.017  10.704  0.1333 -0.5097 -0.3928
  393TMC3     H 5929   3.456   1.877  10.872 -0.4057 -0.5129  0.2091
  393TMC3    H1 5930   3.723   1.703  10.586 -1.3139  0.2383 -0.8826
  393TMC3    H2 5931   3.551   1.464  10.880  0.5512  0.1281  1.9322
  393TMC3    C7 5932   3.688   1.458  10.671 -0.3396 -0.1392 -1.3570
  393TMC3    C8 5933   3.443   1.652  11.020 -0.2015  0.2683 -0.3188
  393TMC3    O1 5934   3.617   1.357  10.661  0.0227 -0.6249  0.3735
  393TMC3    O2 5935   3.389   1.544  11.048 -0.4124  0.0948  0.3901
  394TMC3    C1 5936   0.139   2.579  10.819 -0.3364 -0.2516 -0.4711
  394TMC3    C2 5937   0.033   2.545  10.740 -0.2430 -0.3638 -0.2294
  394TMC3    C3 5938   0.048   2.556  10.603 -0.4577  0.8410 -0.8248
  394TMC3    C4 5939   0.261   2.617  10.772  0.2265 -0.8426 -0.2266
  394TMC3    C5 5940   0.276   2.607  10.635  0.6549  0.1721 -0.2126
  394TMC3    C6 5941   0.167   2.591  10.551 -0.4923 -0.6905  0.4005
  394TMC3     C 5942   0.128   2.549  10.961  0.2308  0.0181  0.3118
  394TMC3     O 5943   0.031   2.488  11.004 -0.3613  0.6410 -0.3522
  394TMC3     H 5944   4.675   2.507  10.776 -0.8061 -1.9341 -3.3410
  394TMC3    H1 5945   0.347   2.622  10.837  0.2807  0.8895 -0.4272
  394TMC3    H2 5946   0.192   2.588  10.446 -0.2493  0.6360  0.4154
  394TMC3    C7 5947   0.382   2.682  10.576  0.6386  0.2135  0.1450
  394TMC3    C8 5948   4.729   2.443  10.534  0.0013  0.1717  0.3856
  394TMC3    O1 5949   0.370   2.749  10.473  0.0368  0.2500 -0.3669
  394TMC3    O2 5950   4.606   2.439  10.542  0.2527  0.3754 -0.2985
  395TMC3    C1 5951   4.491   4.151  14.850  0.5867  0.0128 -0.2433
  395TMC3    C2 5952   4.370   4.208  14.819  0.6209 -0.8057 -0.0227
  395TMC3    C3 5953   4.382   4.346  14.802  0.1839 -0.4851  0.1491
  395TMC3    C4 5954   4.608   4.214  14.879 -0.5738  0.4726  0.2916
  395TMC3    C5 5955   4.614   4.352  14.860  0.6819 -0.0329 -1.0233
  395TMC3    C6 5956   4.500   4.418  14.827  0.3491 -0.2205 -0.2453
  395TMC3     C 5957   4.495   4.013  14.885  0.3139  0.8340  0.0759
  395TMC3     O 5958   4.555   3.976  14.983 -0.6228  0.3642  0.2650
  395TMC3     H 5959   4.282   4.149  14.796 -0.2033 -0.0014  1.0296
  395TMC3    H1 5960   4.697   4.158  14.906 -0.5665  2.1453  3.7094
  395TMC3    H2 5961   4.504   4.524  14.809  0.9516  0.1706  2.1195
  395TMC3    C7 5962   4.734   4.416  14.818 -0.0546  0.2425  0.3293
  395TMC3    C8 5963   4.280   4.429  14.729 -0.1229  0.5830 -0.0495
  395TMC3    O1 5964   0.001   4.536  14.825 -0.1872  0.3195  0.1908
  395TMC3    O2 5965   4.289   4.547  14.747 -1.3974 -0.3640  0.2867
  396MPD2     C 5966   4.035   0.298  17.121 -0.2596 -0.0240 -0.0027
  396MPD2    C1 5967   4.158   0.318  17.177  0.6267 -0.4084  0.2171
  396MPD2    C2 5968   4.242   0.413  17.123 -0.0104  0.1665 -0.5615
  396MPD2    C3 5969   4.206   0.491  17.020  0.5098 -0.3176  0.0214
  396MPD2    C4 5970   4.081   0.476  16.971  0.1989 -0.2513 -0.0968
  396MPD2    C5 5971   3.991   0.384  17.026 -0.6263  0.0144 -0.2176
  396MPD2     H 5972   4.339   0.419  17.171  0.5056  0.2861 -1.6352
  396MPD2    H1 5973   4.044   0.522  16.880  2.8435 -1.1107 -1.6056
  396MPD2    H2 5974   3.970   0.232  17.177  0.3337 -1.9958 -1.6581
  396MPD2    H3 5975   3.892   0.377  16.982 -0.7309 -2.6753  0.4326
  396MPD2     N 5976   4.298   0.593  16.979  0.4198  0.4722  0.4877
  396MPD2    H5 5977   4.392   0.585  17.016  0.6688  1.0095 -0.0208
  396MPD2    N1 5978   4.182   0.229  17.282 -0.1649 -0.1355  0.0739
  396MPD2    H7 5979   4.104   0.170  17.306 -1.8662  2.2967  0.4846
  397TMC3    C1 5980   4.286   0.113  17.455  0.2525  0.1636  0.5067
  397TMC3    C2 5981   4.402   0.041  17.427  0.1880 -0.2892  0.8562
  397TMC3    C3 5982   4.395   4.643  17.391 -0.4944 -0.2100 -0.0755
  397TMC3    C4 5983   4.164   0.051  17.460  0.2441 -0.3025  0.5945
  397TMC3    C5 5984   4.159   4.655  17.438 -0.5190  0.5863  0.6658
  397TMC3    C6 5985   4.274   4.582  17.414  0.7122  0.4052  0.8353
  397TMC3     C 5986   4.287   0.228  17.366 -0.7170  1.2208  0.7061
  397TMC3     O 5987   4.390   0.296  17.362 -0.1035 -0.3828  0.0811
  397TMC3     H 5988   4.489   0.098  17.398  0.9504 -1.9543 -0.1391
  397TMC3    H1 5989   4.071   0.104  17.477 -0.4015 -0.5741 -1.9566
  397TMC3    H2 5990   4.261   4.475  17.419  4.1174 -0.0737 -0.0900
  397TMC3    C7 5991   4.062   4.591  17.519  0.3908  0.4857 -0.4504
  397TMC3    C8 5992   4.516   4.562  17.383 -0.1399 -0.0085  0.1978
  397TMC3    O1 5993   4.055   4.469  17.503  0.2378  0.1718  0.0155
  397TMC3    O2 5994   4.497   4.447  17.417 -0.1984 -0.0875 -0.4518
  398MPD2     C 5995   2.319   2.228   0.212 -0.1316  0.9504  0.4004
  398MPD2    C1 5996   2.404   2.127   0.230  0.1499 -0.3427  0.5684
  398MPD2    C2 5997   2.533   2.153   0.250 -0.6940 -0.4284 -0.1616
  398MPD2    C3 5998   2.582   2.282   0.252  0.3084 -0.2697  0.1876
  398MPD2    C4 5999   2.493   2.386   0.231  0.6872 -0.6838  0.3549
  398MPD2    C5 6000   2.365   2.357   0.199  0.0830  0.4192 -0.4022
  398MPD2     H 6001   2.601   2.071   0.268 -2.0065 -1.7627 -1.3424
  398MPD2    H1 6002   2.516   2.491   0.239  0.4521 -0.6037  0.0168
  398MPD2    H2 6003   2.212   2.209   0.204  0.2690 -0.8708 -0.5411
  398MPD2    H3 6004   2.295   2.440   0.188 -0.2622 -0.0734 -1.8612
  398MPD2     N 6005   2.716   2.296   0.284  0.1370  0.4274 -0.9113
  398MPD2    H5 6006   2.768   2.214   0.313 -0.9467  1.0038  2.7319
  398MPD2    N1 6007   2.360   1.996   0.219 -0.0835  0.2691 -0.2336
  398MPD2    H7 6008   2.432   1.925   0.210 -0.7264 -0.2404 -1.2883
  399TMC3    C1 6009   2.236   1.805   0.182 -0.4675 -0.2985  0.2866
  399TMC3    C2 6010   2.254   1.707   0.267  0.0623 -0.1301 -0.3302
  399TMC3    C3 6011   2.260   1.585   0.212 -0.0824  0.0251  0.1430
  399TMC3    C4 6012   2.222   1.793   0.042 -0.7886  0.1248 -0.3970
  399TMC3    C5 6013   2.230   1.662  17.747  0.4371 -0.1932  0.2591
  399TMC3    C6 6014   2.251   1.557   0.083  0.2860 -0.1700 -0.6022
  399TMC3     C 6015   2.232   1.946   0.214  0.5230 -0.3357 -0.0128
  399TMC3     O 6016   2.131   2.003   0.239 -0.2555  0.2339  0.3423
  399TMC3     H 6017   2.280   1.718   0.372 -2.1181 -0.0591  0.2105
  399TMC3    H1 6018   2.214   1.885  17.733  2.6935  1.2792  1.0345
  399TMC3    H2 6019   2.263   1.456   0.044 -0.0441 -0.0850 -0.9175
  399TMC3    C7 6020   2.219   1.638  17.607  0.5508 -0.0046  0.3802
  399TMC3    C8 6021   2.277   1.473   0.310 -0.3041 -0.3660 -0.3947
  399TMC3    O1 6022   2.250   1.731  17.540 -0.0235 -0.1792 -0.0708
  399TMC3    O2 6023   2.352   1.481   0.405  0.4259  0.2292 -0.1444
  400TMC3    C1 6024   0.751   4.412  16.811  0.2175  0.1032 -1.0145
  400TMC3    C2 6025   0.639   4.338  16.787  0.1882 -0.3457 -0.6469
  400TMC3    C3 6026   0.533   4.390  16.726 -0.0302 -0.7049  0.4218
  400TMC3    C4 6027   0.744   4.550  16.775 -0.4952 -0.4823 -0.0641
  400TMC3    C5 6028   0.637   4.601  16.718  0.3750 -0.0169 -0.6379
  400TMC3    C6 6029   0.532   4.524  16.682  0.3284 -0.0019  0.0764
  400TMC3     C 6030   0.870   4.347  16.866  0.1340  0.2335 -0.2620
  400TMC3     O 6031   0.859   4.228  16.866 -0.4311 -0.9278 -0.2632
  400TMC3     H 6032   0.639   4.236  16.822  0.2685 -0.0127  0.3425
  400TMC3    H1 6033   0.830   4.613  16.794  0.5023 -1.5752 -0.9214
  400TMC3    H2 6034   0.447   4.568  16.631  0.7696  0.6941 -0.0553
  400TMC3    C7 6035   0.630   0.008  16.679  0.1406  0.0695  0.2793
  400TMC3    C8 6036   0.404   4.324  16.744 -0.2325  0.2925  0.2338
  400TMC3    O1 6037   0.542   0.036  16.597 -0.6807 -0.2698  0.7937
  400TMC3    O2 6038   0.385   4.269  16.851  0.3370  0.1116 -0.2243
  401MPD2     C 6039   3.617   3.213   0.951  0.5334 -0.5796  0.4560
  401MPD2    C1 6040   3.701   3.132   1.019  0.2258 -0.4302 -1.1308
  401MPD2    C2 6041   3.698   2.997   0.980 -0.4766 -0.0155  0.7042
  401MPD2    C3 6042   3.613   2.946   0.886  0.4014 -0.2707  0.4888
  401MPD2    C4 6043   3.519   3.032   0.826 -0.8562 -0.1186  0.2415
  401MPD2    C5 6044   3.534   3.160   0.854 -0.1898 -0.5627  0.3253
  401MPD2     H 6045   3.765   2.929   1.032  1.3731  0.2962 -1.3061
  401MPD2    H1 6046   3.453   3.000   0.746 -1.1071  1.9468 -0.3641
  401MPD2    H2 6047   3.606   3.320   0.965 -0.6844 -0.7537  0.7600
  401MPD2    H3 6048   3.470   3.226   0.796  0.5428  0.2658  0.4546
  401MPD2     N 6049   3.637   2.810   0.839  0.5274 -0.2421 -0.2299
  401MPD2    H5 6050   3.698   2.746   0.888 -1.0653 -1.9189 -0.4737
  401MPD2    N1 6051   3.793   3.166   1.119  0.5697 -0.3106 -0.1360
  401MPD2    H7 6052   3.853   3.092   1.153  1.6252  0.0651 -1.1968
  402TMC3    C1 6053   3.605   2.620   0.700 -0.3850 -0.4419  0.9585
  402TMC3    C2 6054   3.644   2.546   0.812 -0.0980 -0.5281  0.4289
  402TMC3    C3 6055   3.701   2.421   0.784  0.4655 -0.0067  0.3761
  402TMC3    C4 6056   3.630   2.583   0.574  0.2345  0.3597  0.3768
  402TMC3    C5 6057   3.686   2.462   0.554  0.4156  0.5256  0.8709
  402TMC3    C6 6058   3.704   2.374   0.654 -0.1011 -0.2543  0.6710
  402TMC3     C 6059   3.576   2.762   0.725 -0.2284 -0.2108 -0.7297
  402TMC3     O 6060   3.521   2.822   0.634 -0.2282  0.3541  0.3390
  402TMC3     H 6061   3.636   2.584   0.913 -0.4491 -1.6952  0.8431
  402TMC3    H1 6062   3.598   2.654   0.498 -0.6451 -0.7439 -0.2816
  402TMC3    H2 6063   3.738   2.273   0.637 -0.8401 -0.6421  1.4962
  402TMC3    C7 6064   3.736   2.415   0.422  0.0868  0.0279 -0.4240
  402TMC3    C8 6065   3.753   2.335   0.882  0.5633  0.0397  1.0541
  402TMC3    O1 6066   3.697   2.466   0.319  0.1984  0.0163 -0.6009
  402TMC3    O2 6067   3.837   2.254   0.841 -0.6267  0.3746 -0.2932
  403MPD2     C 6068   2.875   1.234  13.447  0.5195  1.0805  0.1134
  403MPD2    C1 6069   2.793   1.307  13.532 -0.4456  0.5387 -0.4485
  403MPD2    C2 6070   2.832   1.316  13.661  0.0308 -0.5035  0.3296
  403MPD2    C3 6071   2.947   1.266  13.717 -0.4642 -0.7363 -0.2661
  403MPD2    C4 6072   3.027   1.195  13.627  0.3376 -0.0793 -0.2705
  403MPD2    C5 6073   2.989   1.178  13.502  0.0313 -0.0244 -0.5890
  403MPD2     H 6074   2.762   1.369  13.725 -0.6525 -0.2307 -0.6345
  403MPD2    H1 6075   3.119   1.149  13.662  1.1030  1.5026 -0.1883
  403MPD2    H2 6076   2.854   1.222  13.342  2.7979 -0.2589 -0.1882
  403MPD2    H3 6077   3.047   1.111  13.439 -0.5826 -0.9103 -0.2089
  403MPD2     N 6078   2.973   1.286  13.855  0.3115 -0.3861  0.1824
  403MPD2    H5 6079   2.907   1.348  13.901 -1.2719 -1.3429 -0.7770
  403MPD2    N1 6080   2.667   1.351  13.474  0.2917  0.0531  0.3263
  403MPD2    H7 6081   2.647   1.325  13.378 -1.2782  2.0586  0.1154
  404TMC3    C1 6082   2.443   1.435  13.465  0.4980  0.5216  0.5943
  404TMC3    C2 6083   2.346   1.352  13.519 -0.1870 -0.5197  0.8401
  404TMC3    C3 6084   2.288   1.259  13.436  0.6150 -0.2407  0.6581
  404TMC3    C4 6085   2.469   1.431  13.333 -0.6779  0.0862  0.0674
  404TMC3    C5 6086   2.402   1.347  13.252 -0.3962 -1.1463  0.7527
  404TMC3    C6 6087   2.315   1.258  13.303  0.2133 -0.5233  0.2973
  404TMC3     C 6088   2.565   1.407  13.549 -0.0742 -0.2739 -0.0287
  404TMC3     O 6089   2.558   1.437  13.667 -0.0793 -0.4654  0.0425
  404TMC3     H 6090   2.334   1.347  13.626  0.8168 -1.1154  0.9217
  404TMC3    H1 6091   2.522   1.516  13.291 -1.6142  0.4468 -0.3729
  404TMC3    H2 6092   2.268   1.181  13.242  1.8984 -0.1580 -1.4525
  404TMC3    C7 6093   2.440   1.339  13.109 -0.0374  0.5588  0.6200
  404TMC3    C8 6094   2.264   1.133  13.496  0.0211  0.0438 -0.3451
  404TMC3    O1 6095   2.542   1.399  13.077  0.0066  0.2780  0.3084
  404TMC3    O2 6096   2.303   1.033  13.438 -0.6099 -0.3848  0.1106
  405MPD2     C 6097   2.895   2.401  15.038  0.5895 -0.2682  0.1562
  405MPD2    C1 6098   2.810   2.310  14.985 -0.0041  0.5388  0.4443
  405MPD2    C2 6099   2.677   2.322  14.993 -0.0219  0.3005  0.1610
  405MPD2    C3 6100   2.625   2.439  15.044 -0.5815 -0.6810  0.5616
  405MPD2    C4 6101   2.713   2.531  15.100 -0.2434 -0.0593  0.3291
  405MPD2    C5 6102   2.843   2.510  15.093 -0.2089  0.7928  0.2744
  405MPD2     H 6103   2.609   2.253  14.945  2.3299 -2.4708  0.8272
  405MPD2    H1 6104   2.680   2.619  15.154  1.1524 -0.6412  2.1479
  405MPD2    H2 6105   3.003   2.393  15.035  0.7260  2.6227 -2.3030
  405MPD2    H3 6106   2.913   2.580  15.136 -0.1086  0.3678  0.7949
  405MPD2     N 6107   2.483   2.449  15.032  0.1606 -0.5661 -0.2014
  405MPD2    H5 6108   2.437   2.384  14.970  1.8446 -2.3164  0.3800
  405MPD2    N1 6109   2.857   2.195  14.921  0.1066 -0.6375  0.3024
  405MPD2    H7 6110   2.786   2.130  14.888 -1.6804  1.8591 -0.7814
  406TMC3    C1 6111   2.066   2.631  14.989 -0.7045 -0.1891 -0.1482
  406TMC3    C2 6112   2.024   2.515  14.916 -0.2545 -1.3263 -0.5481
  406TMC3    C3 6113   2.111   2.409  14.916  1.0298  0.3525  0.2654
  406TMC3    C4 6114   2.195   2.635  15.047 -0.2693 -0.4157 -0.2920
  406TMC3    C5 6115   2.269   2.523  15.049 -0.4454 -0.1153 -0.0473
  406TMC3    C6 6116   2.223   2.403  14.994  0.4306 -0.2308  0.9098
  406TMC3     C 6117   2.036   2.754  14.927  0.4907 -0.3553  0.2417
  406TMC3     O 6118   2.058   2.864  14.985  0.1852  0.2086 -0.6825
  406TMC3     H 6119   1.932   2.504  14.860  0.4467  0.0391 -1.9724
  406TMC3    H1 6120   2.231   2.727  15.092 -0.3532 -1.2080  1.4160
  406TMC3    H2 6121   2.273   2.307  15.006  0.9315  0.1861  2.1368
  406TMC3    C7 6122   2.410   2.548  15.087  0.3872  1.1810  0.5104
  406TMC3    C8 6123   2.148   2.386  14.778  0.1151 -0.0075 -0.3843
  406TMC3    O1 6124   2.436   2.649  15.150 -0.6422  0.2512  0.0096
  406TMC3    O2 6125   2.083   2.453  14.698 -1.0442 -0.0770 -0.4493
  407MPD2     C 6126   0.193   4.147   9.925 -0.1428  0.1806 -0.2879
  407MPD2    C1 6127   0.302   4.068   9.942  0.1475  0.0825  0.3111
  407MPD2    C2 6128   0.362   4.064  10.066 -0.3514 -0.0865 -0.2805
  407MPD2    C3 6129   0.320   4.144  10.168  0.5307  0.6072 -1.0568
  407MPD2    C4 6130   0.203   4.218  10.155  0.4520  0.2936 -0.2354
  407MPD2    C5 6131   0.144   4.216  10.030 -0.0137  0.5031 -0.5191
  407MPD2     H 6132   0.449   3.999  10.076 -0.5356 -0.2196  0.4302
  407MPD2    H1 6133   0.160   4.277  10.235 -1.2383 -2.3261  0.7894
  407MPD2    H2 6134   0.142   4.175   9.833 -1.7868 -1.5651  0.0792
  407MPD2    H3 6135   0.067   4.291  10.018  0.9349  1.4452 -0.6355
  407MPD2     N 6136   0.405   4.161  10.282  0.2075 -0.0287 -0.0672
  407MPD2    H5 6137   0.365   4.222  10.352  0.4465  0.7134 -0.5805
  407MPD2    N1 6138   0.369   4.006   9.828 -0.4888 -0.1349  0.3428
  407MPD2    H7 6139   0.462   3.968   9.840 -0.7317 -0.7101  0.4214
  408TMC3    C1 6140   0.419   3.985   9.611 -0.1412  0.3230  0.5610
  408TMC3    C2 6141   0.459   3.859   9.567  0.2612  0.7321  0.1812
  408TMC3    C3 6142   0.584   3.848   9.506  0.2686  0.0412 -0.4570
  408TMC3    C4 6143   0.493   4.093   9.595  0.0846 -0.6759 -0.3044
  408TMC3    C5 6144   0.616   4.078   9.540  0.3753  1.0505 -0.4374
  408TMC3    C6 6145   0.658   3.963   9.485  0.4864 -0.4722 -0.0116
  408TMC3     C 6146   0.311   3.994   9.704 -0.2173  0.3655 -0.4560
  408TMC3     O 6147   0.194   3.995   9.671 -0.4208  0.0195  0.6542
  408TMC3     H 6148   0.399   3.771   9.586 -0.8834  0.9789 -2.2995
  408TMC3    H1 6149   0.462   4.187   9.638  1.9256  0.1280 -0.7390
  408TMC3    H2 6150   0.751   3.964   9.429  0.0864 -0.4706 -0.6711
  408TMC3    C7 6151   0.722   4.172   9.570 -0.1237 -0.1560 -0.3407
  408TMC3    C8 6152   0.653   3.718   9.512  0.0476 -0.5988  0.3812
  408TMC3    O1 6153   0.837   4.128   9.568  0.1815  0.5013 -0.2717
  408TMC3    O2 6154   0.588   3.619   9.502 -0.3126 -0.3142  0.6380
  409MPD2     C 6155   4.205   4.340  17.098  0.4417 -1.0406 -0.2720
  409MPD2    C1 6156   4.324   4.313  17.160  0.0964  0.1266  0.4644
  409MPD2    C2 6157   4.447   4.366  17.113  0.2591  0.5903  0.1647
  409MPD2    C3 6158   4.456   4.434  16.992 -0.2499  0.3224  0.3842
  409MPD2    C4 6159   4.329   4.459  16.928 -0.3195 -0.3781 -0.1878
  409MPD2    C5 6160   4.210   4.417  16.985 -0.1063  0.0610  0.6770
  409MPD2     H 6161   4.534   4.357  17.177  0.5276 -0.7565 -0.3983
  409MPD2    H1 6162   4.337   4.505  16.830  1.2680  0.5841  0.3747
  409MPD2    H2 6163   4.106   4.310  17.132  0.3413  0.3893  0.6917
  409MPD2    H3 6164   4.116   4.433  16.933 -0.5464  0.8688  1.7184
  409MPD2     N 6165   4.575   4.482  16.934 -0.3145  0.0652 -0.3776
  409MPD2    H5 6166   4.565   4.544  16.854  1.2702 -1.6437 -1.8838
  409MPD2    N1 6167   4.342   4.244  17.282  1.2989  0.4961 -0.3583
  409MPD2    H7 6168   4.431   4.248  17.331  0.8612  2.6936  0.2186
  410TMC3    C1 6169   0.076   4.507  16.905  0.1597 -0.3500 -0.0650
  410TMC3    C2 6170   0.184   4.544  16.983 -0.2884  0.5376 -0.4326
  410TMC3    C3 6171   0.278   4.633  16.937 -0.2450 -0.4347 -0.0594
  410TMC3    C4 6172   0.055   4.579  16.788 -0.3571  0.3647 -0.8869
  410TMC3    C5 6173   0.153   4.668  16.748  0.1384 -0.5060  0.6031
  410TMC3    C6 6174   0.265   4.699  16.817 -0.3506  0.6410  0.4889
  410TMC3     C 6175   4.701   4.443  16.979 -0.3256 -0.3194  0.2604
  410TMC3     O 6176   4.727   4.356  17.060 -0.4048 -0.1648 -0.3171
  410TMC3     H 6177   0.203   4.480  17.069  1.9950 -0.6301 -1.8081
  410TMC3    H1 6178   4.698   4.562  16.737 -0.8765 -0.8139  0.4652
  410TMC3    H2 6179   0.345   0.021  16.774 -1.9394  2.0275 -0.5523
  410TMC3    C7 6180   0.152   4.694  16.606 -0.4826 -0.1953  0.3371
  410TMC3    C8 6181   0.408   4.638  17.001  0.2102  0.0445 -0.2214
  410TMC3    O1 6182   0.092   4.615  16.535 -0.6892  0.5261  0.1740
  410TMC3    O2 6183   0.486   4.730  16.980 -0.3203 -0.1015  0.0344
  411MPD2     C 6184   0.374   0.171  14.228 -0.5755  0.9474 -0.0571
  411MPD2    C1 6185   0.302   0.218  14.331 -0.6322  0.4361  0.2490
  411MPD2    C2 6186   0.216   0.137  14.401  0.0813 -0.0009  0.3301
  411MPD2    C3 6187   0.190   0.011  14.355 -0.2505  0.1573 -0.1176
  411MPD2    C4 6188   0.258   4.705  14.246 -0.2513  0.1539  0.8439
  411MPD2    C5 6189   0.354   0.047  14.186 -0.2066  0.4765 -0.0570
  411MPD2     H 6190   0.160   0.176  14.485  2.0331  1.5735  0.8824
  411MPD2    H1 6191   0.241   4.608  14.202  1.4990  0.5551 -0.7337
  411MPD2    H2 6192   0.456   0.229  14.187  0.6399 -1.7851 -1.5462
  411MPD2    H3 6193   0.419   0.012  14.106  0.7320  0.1046  0.8668
  411MPD2     N 6194   0.080   4.671  14.415 -0.1169  0.0000  0.8192
  411MPD2    H5 6195   0.070   4.590  14.354 -0.2486  1.5281 -1.1776
  411MPD2    N1 6196   0.333   0.353  14.368  0.0040  0.0255 -0.2558
  411MPD2    H7 6197   0.366   0.405  14.288  1.6658 -2.7377 -1.3737
  412TMC3    C1 6198   4.633   4.607  14.523 -0.1212 -0.1001  0.4276
  412TMC3    C2 6199   4.515   4.670  14.538 -0.1407  0.0110  0.8092
  412TMC3    C3 6200   4.398   4.629  14.468 -0.3845  0.2268 -0.1267
  412TMC3    C4 6201   4.639   4.494  14.444 -0.5050  0.8561  0.5539
  412TMC3    C5 6202   4.531   4.455  14.369  1.2236  0.0676  0.0248
  412TMC3    C6 6203   4.408   4.520  14.387 -0.0047 -0.1105 -0.2550
  412TMC3     C 6204   0.004   4.701  14.520 -0.7148  0.4032 -0.3504
  412TMC3     O 6205   0.007   0.054  14.599  0.0046  0.3133 -0.3352
  412TMC3     H 6206   4.512   0.034  14.576 -0.4994 -0.2118  1.3585
  412TMC3    H1 6207   4.735   4.447  14.428  0.7662  3.5052  0.4216
  412TMC3    H2 6208   4.318   4.489  14.334  0.9042  1.4545 -2.6807
  412TMC3    C7 6209   4.541   4.380  14.248 -0.7891  0.2275 -0.3864
  412TMC3    C8 6210   4.335   0.001  14.388  0.1111 -0.8648 -0.3126
  412TMC3    O1 6211   4.446   4.400  14.171  0.1253  0.2645  0.1556
  412TMC3    O2 6212   4.273   0.083  14.456 -0.6602  0.4537  0.5064
  413MPD2     C 6213   2.056   3.789  15.352 -1.0123 -0.3703  0.2594
  413MPD2    C1 6214   1.990   3.682  15.305  0.6608 -0.1883  0.4857
  413MPD2    C2 6215   2.060   3.573  15.246 -0.1578  0.0509 -0.0142
  413MPD2    C3 6216   2.199   3.566  15.256  0.5137  0.2384  0.4093
  413MPD2    C4 6217   2.268   3.673  15.306 -0.7540 -0.6650 -0.5390
  413MPD2    C5 6218   2.197   3.785  15.344 -0.0272 -0.3198 -0.5416
  413MPD2     H 6219   2.003   3.490  15.205  1.1254 -0.9780  0.2777
  413MPD2    H1 6220   2.375   3.683  15.306 -0.6886 -1.3863  0.0121
  413MPD2    H2 6221   2.005   3.875  15.394 -1.5096 -0.1513 -0.7938
  413MPD2    H3 6222   2.256   3.868  15.381  1.7078 -1.7408 -0.1545
  413MPD2     N 6223   2.264   3.452  15.209 -0.6086  0.4621  0.4755
  413MPD2    H5 6224   2.209   3.388  15.153  0.9673 -1.2154  0.8715
  413MPD2    N1 6225   1.852   3.694  15.322 -0.1773  0.0572 -0.1477
  413MPD2    H7 6226   1.809   3.772  15.371  1.0207  0.9917 -0.6118
  414TMC3    C1 6227   2.435   3.280  15.210 -0.0026 -0.0415 -0.7447
  414TMC3    C2 6228   2.476   3.187  15.297  0.9621  0.4301  0.2414
  414TMC3    C3 6229   2.467   3.051  15.263  1.1857  0.0700 -1.0979
  414TMC3    C4 6230   2.399   3.233  15.087  0.5465 -0.5868  0.1159
  414TMC3    C5 6231   2.391   3.101  15.056  0.0002  0.0551  0.2693
  414TMC3    C6 6232   2.414   3.010  15.150  0.2367 -0.5451 -0.2524
  414TMC3     C 6233   2.390   3.410  15.250 -0.1482 -0.4175  0.1149
  414TMC3     O 6234   2.460   3.468  15.328 -0.0663  0.0965  0.5222
  414TMC3     H 6235   2.477   3.217  15.401  0.0454  0.6577  0.1846
  414TMC3    H1 6236   2.394   3.312  15.013 -1.8815 -0.7675  0.0822
  414TMC3    H2 6237   2.428   2.906  15.123 -0.4845 -0.6318 -0.2835
  414TMC3    C7 6238   2.300   3.074  14.943 -0.4175  0.4135  0.5127
  414TMC3    C8 6239   2.503   2.947  15.358  0.7226 -0.2126  0.4753
  414TMC3    O1 6240   2.225   3.165  14.915 -0.0217  0.1990  0.0510
  414TMC3    O2 6241   2.419   2.864  15.388 -0.5844 -0.2774  0.6003
  415TMC3    C1 6242   2.984   1.849  10.440 -0.1237  0.7708 -0.1295
  415TMC3    C2 6243   3.102   1.845  10.364 -0.3951 -0.3498 -0.3741
  415TMC3    C3 6244   3.103   1.770  10.248  0.4750  0.5416  0.5966
  415TMC3    C4 6245   2.873   1.782  10.394 -0.0492 -0.3867  0.1322
  415TMC3    C5 6246   2.881   1.722  10.266 -0.1378  0.4635  0.4266
  415TMC3    C6 6247   2.991   1.713  10.195 -0.1238  0.0176 -0.2740
  415TMC3     C 6248   2.983   1.889  10.581  0.1007 -0.6260 -0.5254
  415TMC3     O 6249   2.876   1.894  10.636 -0.5290 -0.1196  0.3838
  415TMC3     H 6250   3.200   1.877  10.394  0.6599 -2.6163 -1.3765
  415TMC3    H1 6251   2.785   1.780  10.458 -0.0608  2.7712  0.2532
  415TMC3    H2 6252   2.992   1.654  10.104  0.0368  0.3068 -0.4600
  415TMC3    C7 6253   2.775   1.630  10.231  1.2547  0.2411 -0.2131
  415TMC3    C8 6254   3.214   1.738  10.171  0.5996  0.3026 -0.0791
  415TMC3    O1 6255   2.739   1.620  10.116  0.6082 -0.4870 -0.3001
  415TMC3    O2 6256   3.212   1.637  10.095  0.1934 -0.0231  0.2864
  416MPD2     C 6257   4.635   0.310  11.711  0.3452  0.3476 -0.6919
  416MPD2    C1 6258   4.527   0.299  11.627 -0.5319 -0.3529  0.7902
  416MPD2    C2 6259   4.542   0.220  11.511 -0.6748 -0.5217  0.7913
  416MPD2    C3 6260   4.669   0.171  11.478 -0.1451  0.0092 -0.3747
  416MPD2    C4 6261   0.042   0.195  11.550 -0.0944  0.1169  0.2339
  416MPD2    C5 6262   0.019   0.273  11.666 -0.7248 -0.0213  0.0432
  416MPD2     H 6263   4.457   0.197  11.447 -0.3790 -0.7643  0.4767
  416MPD2    H1 6264   0.139   0.147  11.536 -0.3825  0.2694 -2.2005
  416MPD2    H2 6265   4.631   0.376  11.796  1.4916 -0.5735  0.0678
  416MPD2    H3 6266   0.102   0.297  11.730 -1.3685  0.2889  0.7577
  416MPD2     N 6267   4.688   0.096  11.363 -0.0159 -1.2665 -0.8950
  416MPD2    H5 6268   0.039   0.048  11.350  1.0477 -0.3010  2.6887
  416MPD2    N1 6269   4.394   0.354  11.657 -0.0397 -0.0778  0.1459
  416MPD2    H7 6270   4.324   0.336  11.585 -0.7972 -0.1875  0.9058
  417TMC3    C1 6271   4.217   0.421  11.793  0.5244 -0.1793  0.1574
  417TMC3    C2 6272   4.164   0.361  11.896  0.0035  0.2825  0.1477
  417TMC3    C3 6273   4.029   0.339  11.903  0.6936 -0.3202  0.1705
  417TMC3    C4 6274   4.134   0.458  11.695  0.2072 -0.1467 -0.1046
  417TMC3    C5 6275   4.002   0.449  11.704  0.4919 -0.1624  0.4175
  417TMC3    C6 6276   3.944   0.382  11.807 -0.3398  0.1137 -0.1810
  417TMC3     C 6277   4.361   0.419  11.775  0.1840  0.5898  0.0064
  417TMC3     O 6278   4.438   0.450  11.864 -0.5083  0.9944  0.2631
  417TMC3     H 6279   4.228   0.339  11.981  1.3164 -0.4377 -1.0537
  417TMC3    H1 6280   4.184   0.509  11.614 -0.0539 -1.1981 -0.9354
  417TMC3    H2 6281   3.838   0.383  11.829 -0.5055  0.9324 -0.9859
  417TMC3    C7 6282   3.927   0.548  11.632  0.3900 -0.0719 -0.5692
  417TMC3    C8 6283   3.957   0.295  12.024 -0.3733  0.0008  0.5174
  417TMC3    O1 6284   3.988   0.619  11.550  0.3899 -0.0490 -0.3707
  417TMC3    O2 6285   3.838   0.334  12.038  0.0417 -0.0260  0.1183
  418TMC3    C1 6286   3.138   2.303   0.203  0.0169  0.0621 -0.3639
  418TMC3    C2 6287   3.023   2.380   0.195  0.3175  0.1573 -0.0387
  418TMC3    C3 6288   2.939   2.381   0.304  0.5665 -0.2652  0.2132
  418TMC3    C4 6289   3.169   2.218   0.311  0.5498 -0.2255  0.0246
  418TMC3    C5 6290   3.079   2.207   0.414 -0.0858 -0.8598 -0.0215
  418TMC3    C6 6291   2.967   2.295   0.408  0.5821 -0.2003 -0.5249
  418TMC3     C 6292   3.202   2.273   0.076  0.0053 -0.1544 -0.1325
  418TMC3     O 6293   3.201   2.355  17.731 -0.1322 -0.2784  0.4216
  418TMC3     H 6294   3.000   2.439   0.107  0.8012 -0.3167 -0.4808
  418TMC3    H1 6295   3.267   2.171   0.311  0.2473 -0.8601  1.1392
  418TMC3    H2 6296   2.900   2.292   0.494 -0.8773 -0.8471 -1.6994
  418TMC3    C7 6297   3.108   2.122   0.533  0.1222  0.2664 -0.5056
  418TMC3    C8 6298   2.795   2.412   0.281  0.1289  0.3920  0.1678
  418TMC3    O1 6299   3.214   2.061   0.527 -0.6276  0.2347 -0.4170
  418TMC3    O2 6300   2.762   2.527   0.260 -0.2449  0.3121  0.1939
  419MPD2     C 6301   1.852   4.291  12.466  1.0745 -0.3920 -0.2862
  419MPD2    C1 6302   1.772   4.389  12.420  0.0294  0.0424  0.2127
  419MPD2    C2 6303   1.702   4.471  12.509 -0.4161 -0.0012 -0.5386
  419MPD2    C3 6304   1.711   4.452  12.641 -0.1611  0.2966  0.0356
  419MPD2    C4 6305   1.782   4.345  12.690 -0.3768 -0.1067 -0.0118
  419MPD2    C5 6306   1.848   4.270  12.600 -1.4717  0.2818  0.5343
  419MPD2     H 6307   1.634   4.547  12.472 -2.6973 -1.8941 -0.1775
  419MPD2    H1 6308   1.778   4.304  12.790  2.0319 -1.1921 -0.3654
  419MPD2    H2 6309   1.917   4.230  12.403  1.0747  0.2337 -0.8855
  419MPD2    H3 6310   1.906   4.182  12.627 -1.1689  0.4575  0.4529
  419MPD2     N 6311   1.631   4.538  12.717  0.0562 -0.0863  0.2672
  419MPD2    H5 6312   1.586   4.618  12.675  0.6407 -0.6616 -1.4596
  419MPD2    N1 6313   1.750   4.412  12.284 -0.3941  0.6154  0.3415
  419MPD2    H7 6314   1.678   4.481  12.266 -1.4593 -0.5110  0.2735
  420TMC3    C1 6315   1.513   4.614  12.914 -0.0857  0.4325  0.2984
  420TMC3    C2 6316   1.410   4.665  12.842  0.1729 -0.6501 -0.7168
  420TMC3    C3 6317   1.323   0.019  12.896  0.0554  0.2460 -0.6304
  420TMC3    C4 6318   1.521   4.634  13.052 -0.2291  0.0236  0.0918
  420TMC3    C5 6319   1.427   4.728  13.101 -1.0191 -0.1286  0.2923
  420TMC3    C6 6320   1.330   0.048  13.028 -0.1775 -0.6783  0.1765
  420TMC3     C 6321   1.618   4.528  12.856 -0.0589 -0.1489  0.3152
  420TMC3     O 6322   1.681   4.461  12.934  0.1023 -0.0713 -0.2207
  420TMC3     H 6323   1.403   4.643  12.736  0.1541 -0.7272 -0.6993
  420TMC3    H1 6324   1.600   4.585  13.108 -0.0873 -0.3403 -0.4303
  420TMC3    H2 6325   1.255   0.115  13.070  1.8420  1.3800  0.4724
  420TMC3    C7 6326   1.436   0.014  13.241 -0.4893  0.0492  0.2440
  420TMC3    C8 6327   1.251   0.106  12.802  0.2278  1.0137  0.0915
  420TMC3    O1 6328   1.498   4.679  13.318  0.4502 -0.2761 -0.0559
  420TMC3    O2 6329   1.241   0.065  12.688  0.1415  0.1258  0.3903
  421TMC3    C1 6330   3.059   1.246  14.077  0.3650 -0.3191  0.1959
  421TMC3    C2 6331   3.029   1.374  14.112 -0.2193  0.8568 -0.4063
  421TMC3    C3 6332   3.072   1.404  14.238 -0.0334 -0.2973 -0.4875
  421TMC3    C4 6333   3.143   1.162  14.149 -0.5238  0.3424 -0.0307
  421TMC3    C5 6334   3.178   1.199  14.272 -0.1802  0.7000 -0.3386
  421TMC3    C6 6335   3.145   1.323  14.318 -0.5790 -0.2671 -0.2635
  421TMC3     C 6336   3.062   1.212  13.932 -0.4345  0.1931  0.3020
  421TMC3     O 6337   3.148   1.136  13.894  0.0417  0.0226 -0.3574
  421TMC3     H 6338   2.981   1.446  14.047  0.4199 -0.7188 -2.5986
  421TMC3    H1 6339   3.179   1.068  14.111 -0.8750  0.8441 -1.5964
  421TMC3    H2 6340   3.170   1.349  14.420 -0.7660 -0.9048 -0.0611
  421TMC3    C7 6341   3.300   1.137  14.317  0.2340 -0.2729  0.5460
  421TMC3    C8 6342   3.045   1.536  14.283 -1.0758  0.4872 -0.7403
  421TMC3    O1 6343   3.390   1.207  14.367 -0.2371  0.1134  0.0828
  421TMC3    O2 6344   3.137   1.581  14.353  0.2716 -0.7788 -0.2508
  422TMC3    C1 6345   0.543   2.886  12.531 -0.0191 -0.1237 -0.5280
  422TMC3    C2 6346   0.549   3.015  12.578 -0.2536 -0.0954  0.1269
  422TMC3    C3 6347   0.440   3.076  12.622 -0.3948  0.2638 -0.0365
  422TMC3    C4 6348   0.428   2.812  12.550  0.0855  0.2468 -0.0341
  422TMC3    C5 6349   0.321   2.877  12.610 -0.1747  0.5777  0.4817
  422TMC3    C6 6350   0.326   3.011  12.651  0.0743  0.2086 -0.2229
  422TMC3     C 6351   0.658   2.844  12.453 -0.1573  0.4260 -0.2409
  422TMC3     O 6352   0.759   2.913  12.451 -0.3775  0.5451  0.8853
  422TMC3     H 6353   0.638   3.070  12.552  0.5934 -0.7999  1.5186
  422TMC3    H1 6354   0.413   2.714  12.507  0.3370 -0.3023  1.1287
  422TMC3    H2 6355   0.247   3.070  12.697  0.3313 -1.2339  2.0792
  422TMC3    C7 6356   0.198   2.796  12.614 -0.0456 -0.1287  0.1926
  422TMC3    C8 6357   0.434   3.225  12.606  0.2030  0.9660  0.0997
  422TMC3    O1 6358   0.206   2.685  12.568 -0.6650 -0.0773 -0.3528
  422TMC3    O2 6359   0.351   3.279  12.676 -0.6826 -0.3320  0.3370
  423MPD2     C 6360   1.928   4.272   0.615 -0.2532  0.2858 -0.0945
  423MPD2    C1 6361   1.977   4.143   0.631 -0.2493 -0.6727  0.0547
  423MPD2    C2 6362   2.001   4.062   0.524 -0.1666 -0.1766 -0.1778
  423MPD2    C3 6363   1.985   4.109   0.396 -0.2550  0.2016 -0.3411
  423MPD2    C4 6364   1.941   4.238   0.384  0.5144 -1.0333 -0.1192
  423MPD2    C5 6365   1.917   4.314   0.489  0.5958  0.0051 -0.1517
  423MPD2     H 6366   2.029   3.960   0.549  0.7349  0.3337  0.9201
  423MPD2    H1 6367   1.927   4.281   0.285 -1.2628 -0.6779  0.2781
  423MPD2    H2 6368   1.888   4.338   0.692 -1.6044  1.9157 -2.2012
  423MPD2    H3 6369   1.887   4.417   0.473  1.1962  0.1896 -0.1112
  423MPD2     N 6370   2.009   4.027   0.280 -0.0375  0.5009 -0.6509
  423MPD2    H5 6371   1.987   4.069   0.190  1.0840  2.2597 -0.1214
  423MPD2    N1 6372   1.978   4.082   0.758 -0.0638  0.0681  0.1625
  423MPD2    H7 6373   2.002   3.984   0.766 -2.3183 -0.3805  1.6085
  424TMC3    C1 6374   1.985   4.064   0.995 -0.7455  0.7974  0.7816
  424TMC3    C2 6375   2.081   3.975   0.994 -0.2390 -0.0662 -1.0404
  424TMC3    C3 6376   2.096   3.901   1.104  0.4517 -0.8260 -0.0835
  424TMC3    C4 6377   1.895   4.088   1.102  0.3516 -0.0907 -0.1531
  424TMC3    C5 6378   1.920   4.009   1.211  0.1025  0.3125 -0.2095
  424TMC3    C6 6379   2.009   3.909   1.207 -0.0066 -0.1724  0.1891
  424TMC3     C 6380   1.964   4.151   0.879 -0.1786 -0.3966 -0.7613
  424TMC3     O 6381   1.913   4.257   0.906 -0.5327 -0.1343  0.3492
  424TMC3     H 6382   2.148   3.977   0.908 -0.5071  1.4799 -1.2009
  424TMC3    H1 6383   1.820   4.166   1.094 -0.3189 -0.5316  2.1368
  424TMC3    H2 6384   2.013   3.854   1.300  0.9032 -1.9188 -0.8713
  424TMC3    C7 6385   1.817   4.001   1.312  0.5265 -0.5081 -0.3293
  424TMC3    C8 6386   2.169   3.777   1.079  0.6110  0.4428  0.0632
  424TMC3    O1 6387   1.850   3.953   1.421  0.1609 -0.6293 -0.5265
  424TMC3    O2 6388   2.133   3.678   1.135  0.3810  0.0903 -0.4852
  425MPD2     C 6389   0.537   3.038  17.079  0.6456 -0.4809  0.0562
  425MPD2    C1 6390   0.499   2.926  17.150 -0.1594 -0.1920  0.2348
  425MPD2    C2 6391   0.410   2.936  17.253  0.5308  0.0737  0.8156
  425MPD2    C3 6392   0.358   3.061  17.287  0.4554  0.3034 -0.8033
  425MPD2    C4 6393   0.398   3.170  17.211  1.2095 -0.7181 -0.7562
  425MPD2    C5 6394   0.489   3.162  17.112 -0.0170 -0.8477  0.2328
  425MPD2     H 6395   0.376   2.850  17.309 -0.9921  0.5588  0.6546
  425MPD2    H1 6396   0.346   3.265  17.220  0.3153 -1.2807  0.0518
  425MPD2    H2 6397   0.613   3.040  17.001 -1.6794 -4.1969 -2.3497
  425MPD2    H3 6398   0.529   3.251  17.066  1.4103 -0.9267  1.3400
  425MPD2     N 6399   0.263   3.063  17.395 -0.3326  0.4693  0.3400
  425MPD2    H5 6400   0.228   2.971  17.417 -1.2903  0.5611 -0.8715
  425MPD2    N1 6401   0.561   2.807  17.113  0.5580 -0.1175  0.8555
  425MPD2    H7 6402   0.607   2.806  17.023  2.5741  2.4731  1.8462
  426TMC3    C1 6403   0.622   2.589  17.085  0.4148 -0.2235  0.8773
  426TMC3    C2 6404   0.731   2.618  17.008 -0.3949 -0.6135 -0.3177
  426TMC3    C3 6405   0.800   2.501  16.966 -0.1351  0.0137 -0.2793
  426TMC3    C4 6406   0.574   2.463  17.098  0.1344 -0.3290  0.4197
  426TMC3    C5 6407   0.643   2.354  17.057 -0.2675  0.6122 -0.1346
  426TMC3    C6 6408   0.756   2.370  16.984 -0.2088  0.3253 -0.1036
  426TMC3     C 6409   0.554   2.689  17.175 -0.6680  0.2801  0.1038
  426TMC3     O 6410   0.483   2.641  17.261 -0.0374 -0.2459  0.2089
  426TMC3     H 6411   0.789   2.707  17.031 -1.7997 -0.5639  3.0708
  426TMC3    H1 6412   0.492   2.455  17.168  0.1550 -0.1266  0.4683
  426TMC3    H2 6413   0.822   2.287  16.962 -1.1083 -0.3604 -0.2507
  426TMC3    C7 6414   0.597   2.212  17.067  0.2580  0.3258 -0.4576
  426TMC3    C8 6415   0.897   2.517  16.862  0.4622  0.3051 -0.0452
  426TMC3    O1 6416   0.669   2.125  17.014  0.1738  0.1282 -0.0294
  426TMC3    O2 6417   0.983   2.432  16.841 -0.7671 -0.1434  0.0057
  427MPD2     C 6418   3.901   4.520  14.848  0.6386 -0.2286  0.1343
  427MPD2    C1 6419   3.892   4.518  14.989  0.3113 -0.6284  0.0897
  427MPD2    C2 6420   3.788   4.582  15.052 -0.3543 -0.3217 -0.0472
  427MPD2    C3 6421   3.692   4.657  14.973 -0.1956  0.2312 -0.3386
  427MPD2    C4 6422   3.709   4.652  14.833  0.3742 -0.1695  0.5727
  427MPD2    C5 6423   3.814   4.590  14.773  0.5370  0.8707  0.0731
  427MPD2     H 6424   3.774   4.569  15.158 -0.1230  3.1882  0.3944
  427MPD2    H1 6425   3.651   4.713  14.765  0.3436 -1.0040 -0.1433
  427MPD2    H2 6426   3.983   4.475  14.794  0.9084  0.7849 -0.2998
  427MPD2    H3 6427   3.830   4.589  14.666 -1.4870 -2.8179 -0.1797
  427MPD2     N 6428   3.585   4.729  15.035 -0.5299  0.2502 -0.2984
  427MPD2    H5 6429   3.517   0.038  14.975  0.0046  1.4457  0.0128
  427MPD2    N1 6430   3.987   4.448  15.072 -0.2859  0.2371  0.1686
  427MPD2    H7 6431   3.998   4.475  15.169 -2.6031 -1.1633  0.8242
  428TMC3    C1 6432   4.184   4.342  15.110  0.6577  0.4149  0.4465
  428TMC3    C2 6433   4.224   4.215  15.123 -0.0907  0.8206 -0.3478
  428TMC3    C3 6434   4.326   4.188  15.206  0.0006  0.4931 -0.4913
  428TMC3    C4 6435   4.240   4.445  15.170 -0.1573 -0.6807 -0.1042
  428TMC3    C5 6436   4.364   4.417  15.220 -0.0936  0.0490  0.2232
  428TMC3    C6 6437   4.402   4.290  15.248  0.2772 -0.4114  0.2070
  428TMC3     C 6438   4.073   4.364  15.020  0.4208  0.4085 -0.4024
  428TMC3     O 6439   4.068   4.293  14.921 -0.2885  0.0353 -0.2685
  428TMC3     H 6440   4.153   4.140  15.092  2.1817 -1.0731 -0.9449
  428TMC3    H1 6441   4.214   4.547  15.143  0.2745  0.0767  2.3884
  428TMC3    H2 6442   4.493   4.272  15.304 -0.4571 -0.4333  1.3717
  428TMC3    C7 6443   4.465   4.523  15.205  0.0237  0.2093 -0.3648
  428TMC3    C8 6444   4.321   4.055  15.273  0.7650 -0.0809 -0.6360
  428TMC3    O1 6445   4.428   4.634  15.174  0.2108 -0.0475  0.2995
  428TMC3    O2 6446   4.287   3.961  15.197 -0.3735 -0.2603 -0.3396
  429MPD2     C 6447   0.402   0.507  17.698  0.4042 -0.0268  0.1933
  429MPD2    C1 6448   0.495   0.419  17.660  0.0212 -0.1210  0.0511
  429MPD2    C2 6449   0.607   0.463  17.590  0.4614 -0.9495 -0.1145
  429MPD2    C3 6450   0.620   0.594  17.562  0.0228  0.1151 -0.2077
  429MPD2    C4 6451   0.520   0.688  17.598  0.0868  0.1732  0.0818
  429MPD2    C5 6452   0.405   0.643  17.671 -0.6880 -0.8928  0.6844
  429MPD2     H 6453   0.682   0.388  17.568 -1.5038 -2.1548 -2.6437
  429MPD2    H1 6454   0.529   0.791  17.567 -3.5361  0.1877 -0.9449
  429MPD2    H2 6455   0.324   0.478   0.021 -0.4916 -0.4563 -0.9816
  429MPD2    H3 6456   0.322   0.707  17.698  0.1608  1.0035 -1.1344
  429MPD2     N 6457   0.730   0.619  17.472 -0.2218  0.2370 -0.0044
  429MPD2    H5 6458   0.794   0.542  17.455 -1.9539 -1.2458  0.2447
  429MPD2    N1 6459   0.489   0.282  17.687  0.5121 -0.1245 -0.7629
  429MPD2    H7 6460   0.568   0.233  17.647 -0.2137  0.6694 -3.1743
  430TMC3    C1 6461   0.868   0.727  17.312  0.1323 -1.2729 -0.2546
  430TMC3    C2 6462   0.896   0.840  17.228  0.0170  0.0980  0.1894
  430TMC3    C3 6463   0.961   0.827  17.110  0.7396 -0.2734 -0.5254
  430TMC3    C4 6464   0.917   0.604  17.267  0.5192  0.1773 -0.3818
  430TMC3    C5 6465   0.966   0.595  17.137 -0.3017  0.3290 -0.1440
  430TMC3    C6 6466   0.992   0.704  17.062  0.1588  0.0985 -0.0356
  430TMC3     C 6467   0.753   0.741  17.402 -0.9239 -0.4813 -1.0255
  430TMC3     O 6468   0.689   0.846  17.401 -0.3278 -0.0035 -0.1429
  430TMC3     H 6469   0.871   0.942  17.254 -0.4281 -0.3010  1.3266
  430TMC3    H1 6470   0.895   0.511  17.318 -0.2046  1.1248  1.0331
  430TMC3    H2 6471   1.021   0.706  16.958  0.5480  0.1778  0.0753
  430TMC3    C7 6472   0.897   0.492  17.065 -0.0407 -0.2766 -0.2616
  430TMC3    C8 6473   0.879   0.881  17.008 -0.0592 -0.2614 -0.1824
  430TMC3    O1 6474   0.906   0.383  17.107 -0.0145  0.0447  0.3814
  430TMC3    O2 6475   0.796   0.807  16.962  0.4171  0.2317 -0.3840
  431MPD2     C 6476   1.913   0.217  12.692 -0.8779  0.4261 -0.1076
  431MPD2    C1 6477   1.911   0.303  12.584  0.2929  0.3520 -0.2151
  431MPD2    C2 6478   1.911   0.253  12.455  0.1868 -0.0840  0.2847
  431MPD2    C3 6479   1.901   0.112  12.432 -0.4303  0.4066  0.2693
  431MPD2    C4 6480   1.901   0.026  12.542 -0.2611  0.0118 -0.9001
  431MPD2    C5 6481   1.920   0.076  12.671 -0.4456  0.4796  0.3491
  431MPD2     H 6482   1.905   0.317  12.367  0.7881  1.3117  1.2674
  431MPD2    H1 6483   1.908   4.655  12.532 -0.7785 -0.2412  1.6330
  431MPD2    H2 6484   1.914   0.250  12.795  0.4120  1.2799 -0.3891
  431MPD2    H3 6485   1.920   0.013  12.759  3.0925  1.5654  1.1214
  431MPD2     N 6486   1.890   0.044  12.311 -0.0304  0.6524 -0.2871
  431MPD2    H5 6487   1.902   4.681  12.307 -0.5780  0.5584  0.4282
  431MPD2    N1 6488   1.895   0.446  12.598 -0.2928 -0.0265 -0.0307
  431MPD2    H7 6489   1.882   0.496  12.511  3.6568  0.3852 -0.3814
  432TMC3    C1 6490   1.847   0.004  12.076  0.3636  0.0306  0.5647
  432TMC3    C2 6491   1.921   4.732  11.962 -0.4108  0.7032 -0.0725
  432TMC3    C3 6492   1.966   4.605  11.927  0.0514 -0.3816 -0.6800
  432TMC3    C4 6493   1.804   4.627  12.130  1.1738  0.3048 -0.5476
  432TMC3    C5 6494   1.845   4.502  12.091 -0.8263  0.2389 -0.6143
  432TMC3    C6 6495   1.933   4.492  11.986 -0.3274  0.1773  0.2773
  432TMC3     C 6496   1.880   0.100  12.187 -0.3359 -0.4705 -1.0228
  432TMC3     O 6497   1.870   0.219  12.161  0.3195 -0.2527  0.2412
  432TMC3     H 6498   1.947   0.078  11.897  1.7459  0.4920  0.5155
  432TMC3    H1 6499   1.733   4.635  12.212  0.9002  0.3267 -0.7847
  432TMC3    H2 6500   1.972   4.400  11.944  1.8308  0.0491  2.5985
  432TMC3    C7 6501   1.841   4.387  12.186 -0.0742  0.4781 -0.3910
  432TMC3    C8 6502   2.013   4.584  11.799  0.3615  0.2381  0.3229
  432TMC3    O1 6503   1.950   4.331  12.186 -0.0575 -0.0194  0.3973
  432TMC3    O2 6504   1.975   4.488  11.736 -0.3294 -0.7481  0.6329
  433MPD2     C 6505   0.414   3.891  11.068  0.0477  0.4934  0.2986
  433MPD2    C1 6506   0.436   3.756  11.080  0.0043  0.6992 -0.0491
  433MPD2    C2 6507   0.432   3.699  11.206  0.5470 -0.5209 -0.1149
  433MPD2    C3 6508   0.410   3.774  11.320 -0.6936 -0.5457 -0.6647
  433MPD2    C4 6509   0.407   3.915  11.307  0.5557  0.1050 -0.2829
  433MPD2    C5 6510   0.401   3.972  11.183  0.3754 -0.3308 -0.3610
  433MPD2     H 6511   0.438   3.592  11.219  3.1077 -0.5708 -1.4775
  433MPD2    H1 6512   0.392   3.975  11.397 -0.7523 -2.4916  1.2305
  433MPD2    H2 6513   0.406   3.936  10.970 -1.0145 -1.4498 -0.4965
  433MPD2    H3 6514   0.394   4.079  11.175 -3.1457 -0.6476 -1.2721
  433MPD2     N 6515   0.436   3.709  11.440 -0.3853  0.3082  0.0995
  433MPD2    H5 6516   0.452   3.609  11.431 -2.4554 -0.1326  1.2859
  433MPD2    N1 6517   0.467   3.688  10.962 -0.3039 -0.2642  0.0178
  433MPD2    H7 6518   0.454   3.741  10.876 -2.4359 -0.6679  0.0832
  434TMC3    C1 6519   0.522   3.515  10.806  0.0181 -0.0867  0.4500
  434TMC3    C2 6520   0.574   3.386  10.803  0.4594  0.4002 -0.5235
  434TMC3    C3 6521   0.677   3.360  10.718  0.6229 -0.4375 -0.6707
  434TMC3    C4 6522   0.553   3.603  10.709 -0.5674  0.1541 -0.0051
  434TMC3    C5 6523   0.643   3.567  10.618 -0.0788  0.2505 -0.4003
  434TMC3    C6 6524   0.717   3.452  10.625 -0.2062  0.2462  0.7228
  434TMC3     C 6525   0.493   3.555  10.945 -0.5335 -0.2388 -0.3869
  434TMC3     O 6526   0.516   3.470  11.033 -0.8863  0.4578 -0.0264
  434TMC3     H 6527   0.555   3.308  10.875 -3.4627  0.9847 -0.8720
  434TMC3    H1 6528   0.501   3.698  10.698 -1.2727 -0.0136  1.8647
  434TMC3    H2 6529   0.800   3.442  10.557  0.1993 -1.0882  1.4055
  434TMC3    C7 6530   0.657   3.650  10.494 -0.7849 -0.7910 -0.0698
  434TMC3    C8 6531   0.771   3.257  10.767  0.3317  0.4600 -0.0355
  434TMC3    O1 6532   0.764   3.701  10.464 -0.1098  0.1119 -0.6188
  434TMC3    O2 6533   0.720   3.163  10.829 -0.0749 -0.2453  0.1605
  435MPD2     C 6534   2.484   3.990  15.360  0.1228 -0.0160  0.0035
  435MPD2    C1 6535   2.462   4.030  15.488 -0.6297 -0.1019  0.4901
  435MPD2    C2 6536   2.554   4.005  15.590  0.2186  0.3893  0.5337
  435MPD2    C3 6537   2.668   3.930  15.567 -0.1273 -0.2766 -0.5470
  435MPD2    C4 6538   2.698   3.891  15.435  0.4363  0.0596  0.5085
  435MPD2    C5 6539   2.606   3.923  15.334  0.2065 -0.6161 -0.6826
  435MPD2     H 6540   2.529   4.018  15.695 -0.2812  0.5843  0.3920
  435MPD2    H1 6541   2.785   3.830  15.415 -0.3073 -1.1841  1.0907
  435MPD2    H2 6542   2.420   4.003  15.274 -1.6510 -3.9032  0.7061
  435MPD2    H3 6543   2.629   3.884  15.235 -0.2865 -1.5120 -0.4406
  435MPD2     N 6544   2.723   3.876  15.682  0.4700 -0.0207  0.4009
  435MPD2    H5 6545   2.673   3.895  15.767 -0.2342 -0.7632  0.1541
  435MPD2    N1 6546   2.337   4.086  15.536  0.3359 -0.2925  0.2811
  435MPD2    H7 6547   2.321   4.082  15.637 -0.7121  0.6999  0.1633
  436TMC3    C1 6548   1.997   4.136  15.719  0.5442  0.4791 -0.6109
  436TMC3    C2 6549   2.080   4.087  15.622 -1.0221  0.2806 -0.0120
  436TMC3    C3 6550   2.125   4.167  15.523  0.5995  0.2528 -0.2889
  436TMC3    C4 6551   1.935   4.256  15.694 -0.2900  0.0714 -0.8510
  436TMC3    C5 6552   1.981   4.339  15.593  0.1146  0.4265  0.4624
  436TMC3    C6 6553   2.071   4.291  15.502 -0.8175  0.0110  0.1747
  436TMC3     C 6554   1.930   4.034  15.797 -0.4199  0.6801 -0.3775
  436TMC3     O 6555   1.940   3.918  15.758  0.0083 -0.4112  0.0320
  436TMC3     H 6556   2.112   3.983  15.623  1.6312  1.1145  1.2995
  436TMC3    H1 6557   1.851   4.289  15.755 -1.4900 -0.3010 -2.2755
  436TMC3    H2 6558   2.095   4.342  15.409  0.5694  0.8648  0.9973
  436TMC3    C7 6559   1.898   4.451  15.551  0.0408  0.5182 -0.7535
  436TMC3    C8 6560   2.239   4.125  15.448 -0.6067  0.3368 -0.1973
  436TMC3    O1 6561   1.806   4.482  15.624 -0.0636 -0.0231 -0.3702
  436TMC3    O2 6562   2.241   4.143  15.327 -0.1047  0.0190 -0.1889
  437TMC3    C1 6563   1.727   0.650  11.718 -0.6749 -0.4147  0.3873
  437TMC3    C2 6564   1.604   0.685  11.767 -0.2024 -0.2831 -0.0500
  437TMC3    C3 6565   1.576   0.818  11.786  0.3093  1.0138 -0.1055
  437TMC3    C4 6566   1.822   0.741  11.700 -0.2216 -0.6423  0.0528
  437TMC3    C5 6567   1.801   0.877  11.729  0.0881 -0.3680 -0.4807
  437TMC3    C6 6568   1.677   0.917  11.776  0.6516  0.8080  0.4254
  437TMC3     C 6569   1.754   0.511  11.689 -0.0781  0.0521  0.4149
  437TMC3     O 6570   1.854   0.491  11.618  0.1673 -0.5404  0.3488
  437TMC3     H 6571   1.525   0.611  11.765 -0.1984 -0.2314 -1.7998
  437TMC3    H1 6572   1.917   0.709  11.658  1.2720  0.1931  2.7560
  437TMC3    H2 6573   1.648   1.018  11.804 -2.0266  0.3219 -0.5580
  437TMC3    C7 6574   1.902   0.975  11.705 -0.3721  0.0846  0.3775
  437TMC3    C8 6575   1.440   0.853  11.763 -0.4367 -0.3809 -0.4209
  437TMC3    O1 6576   1.994   0.934  11.637  0.0226 -0.0050  0.0925
  437TMC3    O2 6577   1.357   0.766  11.773 -0.2521  0.4304 -0.7447
  438MPD2     C 6578   3.106   2.173  16.603  0.0534 -1.1173 -0.1061
  438MPD2    C1 6579   3.178   2.064  16.656  0.4541 -0.1804  0.7998
  438MPD2    C2 6580   3.173   2.053  16.793 -0.1535  0.3029 -0.3175
  438MPD2    C3 6581   3.102   2.144  16.879 -0.4111 -0.2315 -0.3950
  438MPD2    C4 6582   3.037   2.247  16.814 -0.2940 -0.1983 -0.0665
  438MPD2    C5 6583   3.039   2.264  16.681  0.2679 -0.1949 -0.1892
  438MPD2     H 6584   3.226   1.973  16.844  1.0860  1.7254  0.6448
  438MPD2    H1 6585   2.976   2.316  16.872  0.1388 -0.4361  0.6708
  438MPD2    H2 6586   3.099   2.196  16.497  0.8842  0.7489  0.2459
  438MPD2    H3 6587   2.993   2.348  16.631 -1.0658 -1.4535 -1.0618
  438MPD2     N 6588   3.085   2.127  17.018 -0.3153 -0.2835  0.5362
  438MPD2    H5 6589   3.003   2.164  17.065 -1.9300  0.4971 -2.8851
  438MPD2    N1 6590   3.255   1.964  16.586 -0.1150  0.1563  0.7214
  438MPD2    H7 6591   3.304   1.894  16.641  2.8046  1.8609  0.2985
  439TMC3    C1 6592   3.316   1.817  16.415 -0.3120  0.2818  0.0214
  439TMC3    C2 6593   3.363   1.811  16.287  0.0192  0.7856  0.3370
  439TMC3    C3 6594   3.403   1.690  16.236 -0.7719 -0.9894 -0.2706
  439TMC3    C4 6595   3.297   1.707  16.488  0.1407 -0.3147  0.2735
  439TMC3    C5 6596   3.339   1.583  16.445  0.5427 -0.1442 -0.0509
  439TMC3    C6 6597   3.392   1.577  16.315  0.2881  0.7658  0.0591
  439TMC3     C 6598   3.262   1.949  16.453 -0.0254  0.0159 -0.2672
  439TMC3     O 6599   3.225   2.030  16.367 -0.0753 -0.1177 -0.2372
  439TMC3     H 6600   3.391   1.906  16.243 -3.6991  1.2053 -1.1342
  439TMC3    H1 6601   3.244   1.712  16.583 -1.4798 -1.6844 -0.5575
  439TMC3    H2 6602   3.431   1.487  16.271 -0.8468 -0.6316  1.9077
  439TMC3    C7 6603   3.403   1.486  16.531 -0.4778 -0.2682 -0.3258
  439TMC3    C8 6604   3.534   1.694  16.164  0.4143 -0.5199 -0.7165
  439TMC3    O1 6605   3.473   1.399  16.481  0.0805 -0.4381  0.0922
  439TMC3    O2 6606   3.621   1.627  16.212  0.3160  0.0669  0.0001
  440MPD2     C 6607   1.885   2.259  15.188 -0.0385 -0.5020  0.1985
  440MPD2    C1 6608   1.964   2.353  15.247  0.0785  0.0860  0.9166
  440MPD2    C2 6609   2.099   2.328  15.267 -0.4077 -0.2248  0.3760
  440MPD2    C3 6610   2.144   2.200  15.251  0.5422  0.1500 -0.2514
  440MPD2    C4 6611   2.061   2.104  15.203 -0.2767 -0.1094  0.1557
  440MPD2    C5 6612   1.929   2.132  15.175 -0.1763 -0.3402 -0.2400
  440MPD2     H 6613   2.152   2.414  15.306  1.5424 -0.9366 -0.6638
  440MPD2    H1 6614   2.093   2.001  15.197  2.9798  0.8466  1.0614
  440MPD2    H2 6615   1.779   2.272  15.167  0.4462 -0.3387 -2.1706
  440MPD2    H3 6616   1.858   2.057  15.140  0.4348 -0.8013 -0.4922
  440MPD2     N 6617   2.280   2.168  15.264 -0.1384 -0.2722  0.7126
  440MPD2    H5 6618   2.310   2.078  15.228  0.7547  1.5091 -2.9076
  440MPD2    N1 6619   1.922   2.480  15.265 -0.0628  0.1462  0.1585
  440MPD2    H7 6620   1.987   2.541  15.314  0.3115  0.5652 -0.8688
  441TMC3    C1 6621   2.499   2.204  15.320 -0.6503  0.4410 -0.2090
  441TMC3    C2 6622   2.590   2.263  15.400 -0.0926 -0.6396 -0.3433
  441TMC3    C3 6623   2.722   2.242  15.377 -0.8218 -0.9240 -0.3373
  441TMC3    C4 6624   2.547   2.119  15.220  0.4584 -0.0940 -0.0519
  441TMC3    C5 6625   2.678   2.089  15.209  0.0048 -0.1150 -0.2064
  441TMC3    C6 6626   2.773   2.150  15.288 -0.4105 -0.0897  0.1705
  441TMC3     C 6627   2.364   2.257  15.337  0.2436  0.2284  0.3820
  441TMC3     O 6628   2.336   2.340  15.419  0.1410 -0.3339  0.5312
  441TMC3     H 6629   2.559   2.323  15.485 -0.8914 -1.5015 -0.0260
  441TMC3    H1 6630   2.486   2.073  15.143  2.3537  2.0559 -2.8202
  441TMC3    H2 6631   2.878   2.123  15.284 -1.0113 -1.7976 -3.7478
  441TMC3    C7 6632   2.705   1.982  15.119  0.4758 -0.0878 -0.2516
  441TMC3    C8 6633   2.807   2.357  15.407 -0.2767 -0.6979  0.1521
  441TMC3    O1 6634   2.668   2.001  15.007  0.6186  0.5615  0.7453
  441TMC3    O2 6635   2.922   2.365  15.380 -0.4780  0.3581  0.3604
  442MPD2     C 6636   0.533   2.562  16.302  0.0176 -0.3988  0.1049
  442MPD2    C1 6637   0.415   2.488  16.319 -0.3572  0.3376  0.1848
  442MPD2    C2 6638   0.397   2.363  16.261  0.3181 -0.1746  0.9471
  442MPD2    C3 6639   0.505   2.316  16.182 -0.1234  0.1819 -0.2746
  442MPD2    C4 6640   0.618   2.387  16.174  0.0490 -0.2941  0.3451
  442MPD2    C5 6641   0.635   2.511  16.233  0.0934 -0.3583  0.0180
  442MPD2     H 6642   0.305   2.306  16.263 -0.3585  0.8551 -0.8101
  442MPD2    H1 6643   0.703   2.352  16.116 -1.3690  2.6985 -3.4572
  442MPD2    H2 6644   0.555   2.651  16.361 -1.2357 -0.2436  0.3384
  442MPD2    H3 6645   0.719   2.579  16.220  0.5549 -1.5874 -3.4701
  442MPD2     N 6646   0.500   2.207  16.099  0.1036  0.1671 -0.1400
  442MPD2    H5 6647   0.581   2.198  16.038  0.8124  1.8981  0.5524
  442MPD2    N1 6648   0.311   2.537  16.404  0.0169 -0.5098  0.1329
  442MPD2    H7 6649   0.234   2.474  16.427 -0.1502 -0.3932 -0.1025
  443TMC3    C1 6650   0.204   2.689  16.569 -0.1039 -0.4365  0.3185
  443TMC3    C2 6651   0.150   2.817  16.559  0.2773 -0.2743  0.3429
  443TMC3    C3 6652   0.054   2.845  16.654  0.3219 -0.0299 -0.4185
  443TMC3    C4 6653   0.150   2.592  16.650 -0.1366 -0.0347 -0.6237
  443TMC3    C5 6654   0.069   2.628  16.750 -0.5142 -0.2418  0.1493
  443TMC3    C6 6655   0.018   2.756  16.752  0.7433 -0.0452 -0.8209
  443TMC3     C 6656   0.300   2.666  16.460  0.0653 -0.3333 -0.3933
  443TMC3     O 6657   0.367   2.767  16.439  0.1507 -0.2524 -0.5143
  443TMC3     H 6658   0.179   2.895  16.490  0.2755 -1.7001 -1.2517
  443TMC3    H1 6659   0.193   2.493  16.658  0.4028  0.2793  0.2892
  443TMC3    H2 6660   4.665   2.785  16.806  1.1671  0.6186 -0.4696
  443TMC3    C7 6661   4.704   2.524  16.786 -0.3391  0.3001 -0.2731
  443TMC3    C8 6662   4.703   2.960  16.635 -0.5718  0.5187  0.4250
  443TMC3    O1 6663   4.707   2.417  16.729  0.0813  0.3651  0.1208
  443TMC3    O2 6664   0.023   3.068  16.637 -0.1585 -0.3032 -0.0639
  444MPD2     C 6665   0.438   2.412  16.782  1.1274  0.1585 -0.4277
  444MPD2    C1 6666   0.379   2.291  16.756  0.4295 -0.2149  0.0001
  444MPD2    C2 6667   0.439   2.212  16.663  0.4233 -0.0742 -0.2036
  444MPD2    C3 6668   0.549   2.251  16.591 -0.4815  0.0120 -0.3835
  444MPD2    C4 6669   0.596   2.383  16.609  0.3316  1.1756 -0.2640
  444MPD2    C5 6670   0.544   2.459  16.710 -0.7437 -0.4593 -0.3702
  444MPD2     H 6671   0.395   2.113  16.658  1.1137 -0.4653  1.4543
  444MPD2    H1 6672   0.674   2.420  16.543  0.9224 -1.1000 -0.8280
  444MPD2    H2 6673   0.410   2.481  16.861  0.1656  1.2055 -1.6972
  444MPD2    H3 6674   0.575   2.561  16.729  0.4602 -0.7810 -0.5483
  444MPD2     N 6675   0.609   2.152  16.503  0.0933 -0.2236 -0.1973
  444MPD2    H5 6676   0.561   2.062  16.499 -1.3249  0.6105 -2.3171
  444MPD2    N1 6677   0.262   2.246  16.820 -0.0807 -0.4723 -0.1249
  444MPD2    H7 6678   0.224   2.157  16.790  1.1868 -1.0936  0.1502
  445TMC3    C1 6679   0.790   2.034  16.414  0.3432  0.0637 -0.4711
  445TMC3    C2 6680   0.705   1.945  16.356 -0.2082  0.5749  0.3646
  445TMC3    C3 6681   0.751   1.821  16.344 -0.4881 -0.4152 -0.0604
  445TMC3    C4 6682   0.913   2.003  16.454  0.1330 -0.4965 -0.4712
  445TMC3    C5 6683   0.959   1.878  16.439  0.2829  0.0957 -0.4040
  445TMC3    C6 6684   0.881   1.780  16.384  0.0279 -0.2128 -0.8966
  445TMC3     C 6685   0.740   2.164  16.457 -0.0499 -0.4180  0.2527
  445TMC3     O 6686   0.828   2.237  16.492  0.2712  0.2141  0.2110
  445TMC3     H 6687   0.611   1.961  16.304  0.8716  0.7515 -1.5365
  445TMC3    H1 6688   0.972   2.080  16.503  0.4939 -0.3580 -1.1232
  445TMC3    H2 6689   0.927   1.684  16.366 -1.3323 -0.9394 -0.4813
  445TMC3    C7 6690   1.098   1.861  16.480 -0.5311  0.2629  0.2584
  445TMC3    C8 6691   0.687   1.738  16.242  0.8089  0.2677  0.3545
  445TMC3    O1 6692   1.170   1.964  16.484  0.3474 -0.2068 -0.1913
  445TMC3    O2 6693   0.601   1.788  16.172  0.1732  0.3256 -0.0455
  446MPD2     C 6694   0.329   3.004  11.251 -0.3482 -0.1688 -0.4530
  446MPD2    C1 6695   0.294   3.123  11.190 -0.3730 -0.0800  0.2616
  446MPD2    C2 6696   0.403   3.214  11.164  0.8557  0.1359  0.0548
  446MPD2    C3 6697   0.537   3.182  11.199 -0.5264 -0.5196 -0.4739
  446MPD2    C4 6698   0.560   3.060  11.268  0.8316 -0.1590  0.1878
  446MPD2    C5 6699   0.459   2.972  11.282  0.3675 -0.0983  0.0454
  446MPD2     H 6700   0.375   3.306  11.115  1.9070  0.3655 -0.1195
  446MPD2    H1 6701   0.660   3.023  11.287  0.7878 -1.2596 -1.6890
  446MPD2    H2 6702   0.254   2.927  11.262 -0.1872 -0.1028  1.0825
  446MPD2    H3 6703   0.474   2.875  11.329 -0.8657 -0.3356 -0.0339
  446MPD2     N 6704   0.641   3.270  11.167  0.4465 -0.6356 -0.3563
  446MPD2    H5 6705   0.611   3.350  11.112  0.3927  0.9072  1.9195
  446MPD2    N1 6706   0.163   3.163  11.158 -0.1585 -0.4164  0.0887
  446MPD2    H7 6707   0.155   3.243  11.097 -0.9807 -1.3749 -1.0515
  447TMC3    C1 6708   0.856   3.374  11.180 -0.4115  0.0344 -0.2517
  447TMC3    C2 6709   0.842   3.441  11.064 -0.1377  0.2905 -0.2636
  447TMC3    C3 6710   0.943   3.528  11.037 -0.1049 -0.1997 -0.3058
  447TMC3    C4 6711   0.947   3.395  11.277 -0.4002  0.7270 -0.9758
  447TMC3    C5 6712   1.048   3.480  11.243  0.5969 -0.8723  0.1657
  447TMC3    C6 6713   1.054   3.542  11.121  0.7556  0.2858  0.6640
  447TMC3     C 6714   0.776   3.258  11.201 -0.2295 -0.0413  0.0742
  447TMC3     O 6715   0.841   3.163  11.242  0.4810 -0.1719 -0.0509
  447TMC3     H 6716   0.784   3.404  10.980  1.2155 -0.5560 -0.8353
  447TMC3    H1 6717   0.946   3.344  11.372 -0.6469 -0.6654 -1.7256
  447TMC3    H2 6718   1.118   3.627  11.103  1.4775  0.0137  1.9449
  447TMC3    C7 6719   1.178   3.482  11.311 -0.0155  0.1731 -0.2282
  447TMC3    C8 6720   0.947   3.600  10.906 -0.0405  0.5237 -0.5566
  447TMC3    O1 6721   1.263   3.544  11.247  0.3575 -0.2763  0.5920
  447TMC3    O2 6722   0.834   3.616  10.853  0.2479  0.0578  0.1833
  448TMC3    C1 6723   3.250   3.342  16.991 -0.7607  0.5746 -0.5307
  448TMC3    C2 6724   3.263   3.243  16.899  0.4389 -0.3448 -0.0320
  448TMC3    C3 6725   3.308   3.126  16.950  0.7845  0.1818 -0.6068
  448TMC3    C4 6726   3.275   3.326  17.127 -0.3194 -0.2097 -0.7770
  448TMC3    C5 6727   3.304   3.202  17.172 -0.1387  0.1880 -0.2331
  448TMC3    C6 6728   3.332   3.104  17.082 -0.0108  0.6172 -0.0068
  448TMC3     C 6729   3.199   3.469  16.943  0.4479 -0.0409  0.0013
  448TMC3     O 6730   3.126   3.465  16.846 -0.6761  0.2561  0.9003
  448TMC3     H 6731   3.243   3.253  16.793 -1.8972 -0.6248  0.3871
  448TMC3    H1 6732   3.252   3.404  17.199  3.0684  0.5617 -0.5064
  448TMC3    H2 6733   3.372   3.009  17.114 -1.0103 -0.0248 -0.6775
  448TMC3    C7 6734   3.378   3.202  17.300 -0.8308 -0.0382 -0.6963
  448TMC3    C8 6735   3.305   3.008  16.867 -0.1590 -0.3058  0.1974
  448TMC3    O1 6736   3.411   3.310  17.342  0.2845  0.1520 -0.4054
  448TMC3    O2 6737   3.358   2.905  16.910  0.3824  0.3801 -0.1655
  449MPD2     C 6738   0.373   1.551  13.857  0.3837  0.1110 -0.2342
  449MPD2    C1 6739   0.255   1.563  13.783  1.3379  0.0343 -0.0230
  449MPD2    C2 6740   0.143   1.502  13.833 -0.0116  0.7164  0.6236
  449MPD2    C3 6741   0.160   1.410  13.933  0.7360  0.3674 -0.1510
  449MPD2    C4 6742   0.271   1.410  14.008 -0.0686  0.0537  0.5962
  449MPD2    C5 6743   0.374   1.482  13.969  0.0388 -0.8630 -0.6582
  449MPD2     H 6744   0.045   1.511  13.787 -0.3037  0.2197  1.1492
  449MPD2    H1 6745   0.267   1.365  14.107 -0.8131 -1.0299  0.0687
  449MPD2    H2 6746   0.455   1.613  13.822 -0.9640  2.0066 -0.0851
  449MPD2    H3 6747   0.467   1.490  14.023 -0.2247  1.7137 -0.5786
  449MPD2     N 6748   0.043   1.332  13.964  0.4245 -0.2816  0.0822
  449MPD2    H5 6749   4.695   1.367  13.921  0.8252  0.0178 -0.4630
  449MPD2    N1 6750   0.233   1.649  13.671  0.4993 -0.6312  0.0421
  449MPD2    H7 6751   0.143   1.637  13.625 -0.6618  3.5460  1.2277
  450TMC3    C1 6752   0.264   1.786  13.486  0.0861  0.2020  0.3644
  450TMC3    C2 6753   0.330   1.752  13.367 -0.0290 -0.5941  0.3433
  450TMC3    C3 6754   0.246   1.719  13.268 -0.0469 -0.0778 -0.0142
  450TMC3    C4 6755   0.134   1.816  13.493  0.3670 -0.3610 -0.4648
  450TMC3    C5 6756   0.054   1.778  13.390 -0.8429 -0.0270  0.8448
  450TMC3    C6 6757   0.110   1.730  13.279 -0.1326  0.0991 -0.2624
  450TMC3     C 6758   0.326   1.724  13.606  0.0147 -0.7102  0.4174
  450TMC3     O 6759   0.450   1.724  13.606  0.3212 -0.0592 -0.2618
  450TMC3     H 6760   0.437   1.736  13.362 -0.0884 -1.4651  1.9669
  450TMC3    H1 6761   0.090   1.850  13.586  0.1729 -1.2413 -0.2373
  450TMC3    H2 6762   0.047   1.701  13.195 -0.3737  0.2876 -0.1478
  450TMC3    C7 6763   4.697   1.692  13.447 -0.2652  0.3910 -0.3112
  450TMC3    C8 6764   0.282   1.614  13.179 -0.2493 -0.0241 -0.1026
  450TMC3    O1 6765   0.010   1.598  13.511  0.7180  0.0085  0.0886
  450TMC3    O2 6766   0.190   1.537  13.159  0.1803 -0.1703 -0.5907
  451MPD2     C 6767   1.583   0.511   1.003  0.5688 -0.6487  0.5277
  451MPD2    C1 6768   1.594   0.381   0.976 -0.0490 -1.0826  1.0172
  451MPD2    C2 6769   1.690   0.340   0.893  0.1386 -0.5751  0.2263
  451MPD2    C3 6770   1.771   0.427   0.825 -0.2232  0.0531  0.0899
  451MPD2    C4 6771   1.756   0.565   0.852 -0.7716  0.7484  0.7591
  451MPD2    C5 6772   1.657   0.601   0.937  0.2100 -0.2137 -0.6826
  451MPD2     H 6773   1.703   0.234   0.876 -0.6488 -0.0732 -3.4538
  451MPD2    H1 6774   1.814   0.643   0.805 -1.5509 -0.6263 -2.4646
  451MPD2    H2 6775   1.517   0.550   1.079  0.0726 -1.2804  0.4239
  451MPD2    H3 6776   1.634   0.702   0.967  1.7025 -0.0373 -0.1251
  451MPD2     N 6777   1.860   0.386   0.726  0.0483 -0.3175 -0.4689
  451MPD2    H5 6778   1.926   0.459   0.701 -0.3846 -0.3893 -1.7717
  451MPD2    N1 6779   1.513   0.306   1.058 -0.2457 -0.5855  0.5768
  451MPD2    H7 6780   1.447   0.350   1.122 -2.7095 -0.5705 -1.9846
  452TMC3    C1 6781   1.922   0.256   0.541  0.7165 -1.0499  0.4052
  452TMC3    C2 6782   1.937   0.130   0.497 -1.1731  0.3737 -0.1591
  452TMC3    C3 6783   1.904   0.101   0.365 -0.4058  0.3309 -0.1812
  452TMC3    C4 6784   1.880   0.363   0.465 -0.1292  0.0813 -0.0116
  452TMC3    C5 6785   1.857   0.337   0.333  0.0802 -0.4999  0.0824
  452TMC3    C6 6786   1.862   0.206   0.284  0.4114  0.2950 -0.0184
  452TMC3     C 6787   1.874   0.259   0.676  0.1325  0.1152  0.0115
  452TMC3     O 6788   1.842   0.146   0.717 -0.8335  0.0288 -0.2318
  452TMC3     H 6789   1.975   0.051   0.560 -2.3149 -0.1917 -0.1793
  452TMC3    H1 6790   1.866   0.465   0.499  3.0323  1.1009 -1.7166
  452TMC3    H2 6791   1.822   0.190   0.184 -0.2037  1.4835  0.0328
  452TMC3    C7 6792   1.809   0.440   0.245  0.0610 -0.5901 -0.0443
  452TMC3    C8 6793   1.797   4.735   0.354 -0.5534  0.3923 -0.2964
  452TMC3    O1 6794   1.829   0.427   0.123 -0.3259 -0.0481  0.1587
  452TMC3    O2 6795   1.751   4.704   0.246 -0.4257 -0.0182 -0.3026
  453TMC3    C1 6796   2.864   2.509  11.578  0.1332  0.7216 -0.0463
  453TMC3    C2 6797   2.764   2.414  11.590  0.7098 -0.2905  0.8036
  453TMC3    C3 6798   2.672   2.397  11.490  0.0359  0.0824 -0.4517
  453TMC3    C4 6799   2.871   2.582  11.465 -0.6062  0.4770 -0.5157
  453TMC3    C5 6800   2.770   2.568  11.371  0.5740 -0.1150 -0.1779
  453TMC3    C6 6801   2.669   2.478  11.384  0.2139  0.5997 -0.1806
  453TMC3     C 6802   2.938   2.535  11.700 -0.2654 -0.4269  0.3605
  453TMC3     O 6803   2.977   2.645  11.725  0.6000  0.5573  0.4119
  453TMC3     H 6804   2.750   2.348  11.675  0.7577 -1.4581 -0.0906
  453TMC3    H1 6805   2.948   2.658  11.464  1.2725 -1.4086  1.1733
  453TMC3    H2 6806   2.593   2.465  11.308 -1.3465  2.8095  0.9635
  453TMC3    C7 6807   2.801   2.624  11.243 -0.2704  0.2045  0.4415
  453TMC3    C8 6808   2.575   2.289  11.487 -0.0102  0.2369  0.3837
  453TMC3    O1 6809   2.713   2.626  11.161 -0.1139  0.2249 -0.0144
  453TMC3    O2 6810   2.481   2.306  11.413 -0.6096  0.0258  0.3657
  454MPD2     C 6811   1.552   1.695  16.070  0.0208 -0.0398 -0.5299
  454MPD2    C1 6812   1.501   1.755  15.952  0.6627  0.7168  0.3352
  454MPD2    C2 6813   1.465   1.892  15.963  0.1851 -0.4217  0.4276
  454MPD2    C3 6814   1.472   1.961  16.086  0.3070 -0.3742 -0.1785
  454MPD2    C4 6815   1.511   1.892  16.194  0.6087 -0.1909  0.2364
  454MPD2    C5 6816   1.559   1.771  16.185 -0.3507  0.1531 -0.1128
  454MPD2     H 6817   1.409   1.939  15.882  1.4375 -0.0634 -0.2373
  454MPD2    H1 6818   1.511   1.940  16.292  1.4015  2.9977 -1.3235
  454MPD2    H2 6819   1.585   1.592  16.079  0.3873  0.0723 -0.5819
  454MPD2    H3 6820   1.591   1.725  16.278  2.0369 -2.4319 -2.2097
  454MPD2     N 6821   1.424   2.089  16.110 -0.3639  0.1476 -0.2038
  454MPD2    H5 6822   1.396   2.109  16.206  1.8259 -0.2050  0.5113
  454MPD2    N1 6823   1.471   1.687  15.833 -0.1444 -0.1922 -0.2016
  454MPD2    H7 6824   1.454   1.744  15.751 -1.9683 -0.0455  0.2588
  455TMC3    C1 6825   1.267   2.255  16.069  0.0767  0.3475  0.5345
  455TMC3    C2 6826   1.249   2.285  16.202  0.3990  0.4464 -0.8459
  455TMC3    C3 6827   1.119   2.283  16.247 -0.1415 -0.2426  0.2379
  455TMC3    C4 6828   1.167   2.194  16.004  0.0917  0.2020  0.6141
  455TMC3    C5 6829   1.039   2.190  16.054  0.3921  0.1478  0.1152
  455TMC3    C6 6830   1.017   2.248  16.172 -0.6278 -0.3162 -0.2771
  455TMC3     C 6831   1.388   2.189  16.022  0.0376 -0.0546 -0.1780
  455TMC3     O 6832   1.399   2.191  15.901 -0.2093 -0.4436 -0.1789
  455TMC3     H 6833   1.326   2.338  16.257 -0.7384 -0.9416  2.0995
  455TMC3    H1 6834   1.179   2.134  15.914 -1.0171  1.6661 -0.5250
  455TMC3    H2 6835   0.918   2.240  16.216  0.1733  0.1403  1.6129
  455TMC3    C7 6836   0.981   2.062  16.046  0.0141  0.3737 -0.1126
  455TMC3    C8 6837   1.096   2.360  16.366  0.6041 -0.7278  0.3292
  455TMC3    O1 6838   0.863   2.041  16.027 -0.1726  0.1370 -0.6872
  455TMC3    O2 6839   1.169   2.341  16.462 -0.3897 -0.0343  0.5895
  456MPD2     C 6840   3.555   2.288  15.972 -0.4808  0.3252 -0.4911
  456MPD2    C1 6841   3.654   2.231  16.050 -0.3823 -0.0988  0.7374
  456MPD2    C2 6842   3.624   2.203  16.183  0.0263 -0.5785  0.4795
  456MPD2    C3 6843   3.491   2.223  16.230  0.8028 -0.2083 -0.1474
  456MPD2    C4 6844   3.388   2.243  16.136 -0.4756 -0.3615  0.0876
  456MPD2    C5 6845   3.419   2.282  16.007 -0.2113  0.4364 -0.1628
  456MPD2     H 6846   3.703   2.174  16.251  0.7251 -1.2435 -0.6125
  456MPD2    H1 6847   3.283   2.245  16.162 -0.3114  3.2241  0.4362
  456MPD2    H2 6848   3.574   2.328  15.873  4.4071  0.4725  0.5344
  456MPD2    H3 6849   3.343   2.306  15.934  0.9645  1.4080 -1.0826
  456MPD2     N 6850   3.459   2.215  16.365  0.3761 -0.6290  0.2283
  456MPD2    H5 6851   3.368   2.239  16.403  0.9349  1.5408  0.1832
  456MPD2    N1 6852   3.781   2.214  15.992  0.4237 -0.6790 -0.3533
  456MPD2    H7 6853   3.803   2.247  15.898  1.0111  0.2501  0.1083
  457TMC3    C1 6854   3.485   2.207  16.593 -0.7313 -0.8474  0.2284
  457TMC3    C2 6855   3.412   2.323  16.598 -0.0020 -0.1166  0.5143
  457TMC3    C3 6856   3.388   2.379  16.719 -0.2490  0.5313 -0.1739
  457TMC3    C4 6857   3.524   2.144  16.713 -0.1578 -0.4916  0.1252
  457TMC3    C5 6858   3.494   2.198  16.831  0.7141 -0.7698 -0.0724
  457TMC3    C6 6859   3.430   2.320  16.838 -0.6177 -0.0754 -0.6616
  457TMC3     C 6860   3.533   2.160  16.465  0.4012 -0.2237 -0.1018
  457TMC3     O 6861   3.633   2.092  16.465  0.2785  0.0529 -0.2962
  457TMC3     H 6862   3.415   2.386  16.509  0.4021 -0.9725 -0.0816
  457TMC3    H1 6863   3.582   2.053  16.717 -0.2061 -0.5037  0.5875
  457TMC3    H2 6864   3.395   2.347  16.937 -0.4411  0.4746 -0.7468
  457TMC3    C7 6865   3.551   2.145  16.949 -0.1801 -0.2185 -0.2636
  457TMC3    C8 6866   3.357   2.518  16.724  0.5798  0.6549 -0.8780
  457TMC3    O1 6867   3.575   2.026  16.944 -0.2878  0.2725  0.3053
  457TMC3    O2 6868   3.402   2.582  16.820  0.0723  0.1342 -0.6864
  458MPD2     C 6869   2.116   1.430  11.819 -0.2835  0.0467  0.1766
  458MPD2    C1 6870   2.056   1.382  11.936 -0.3349 -0.0533  0.2227
  458MPD2    C2 6871   1.980   1.269  11.925 -0.7039  0.1312 -0.8730
  458MPD2    C3 6872   1.977   1.197  11.810 -0.5141  0.0433 -0.3049
  458MPD2    C4 6873   2.048   1.239  11.700  0.1569 -0.5735 -0.0011
  458MPD2    C5 6874   2.123   1.351  11.704 -0.6723 -0.1080 -0.4193
  458MPD2     H 6875   1.931   1.229  12.013 -0.2048  1.8184  0.1592
  458MPD2    H1 6876   2.048   1.175  11.612  1.4005  1.2391 -1.3340
  458MPD2    H2 6877   2.174   1.522  11.818  1.3175 -0.9757 -2.2108
  458MPD2    H3 6878   2.173   1.391  11.617  0.7253  1.5773  1.1676
  458MPD2     N 6879   1.890   1.082  11.800 -0.0920  0.3181  0.7049
  458MPD2    H5 6880   1.825   1.075  11.877 -0.6133 -3.0032 -0.0444
  458MPD2    N1 6881   2.073   1.455  12.052 -0.2191 -0.6706 -0.0643
  458MPD2    H7 6882   2.136   1.534  12.045  1.6632 -2.1179  0.5958
  459TMC3    C1 6883   2.091   1.487  12.286  0.4600  0.4303  0.0053
  459TMC3    C2 6884   2.224   1.531  12.272 -0.2764 -0.6883 -0.0132
  459TMC3    C3 6885   2.294   1.517  12.389  0.8882  0.1905 -0.2107
  459TMC3    C4 6886   2.038   1.455  12.408 -0.1361 -1.0095  0.3712
  459TMC3    C5 6887   2.118   1.473  12.523 -0.0488  0.0754 -0.0957
  459TMC3    C6 6888   2.253   1.491  12.517 -0.0232  0.2898  0.6817
  459TMC3     C 6889   2.017   1.434  12.173 -0.1073  0.2177  0.1866
  459TMC3     O 6890   1.921   1.370  12.207  0.5032 -0.2371 -0.3338
  459TMC3     H 6891   2.277   1.520  12.178 -1.2580 -1.0846 -0.5214
  459TMC3    H1 6892   1.930   1.445  12.417 -0.3105  1.9858  1.7157
  459TMC3    H2 6893   2.328   1.488  12.594  1.3470 -0.3634 -0.6860
  459TMC3    C7 6894   2.065   1.457  12.658  0.6834  0.7298 -0.4446
  459TMC3    C8 6895   2.437   1.555  12.380 -0.2138  0.6760  0.1534
  459TMC3    O1 6896   1.953   1.397  12.667  0.4528 -0.5669  0.3486
  459TMC3    O2 6897   2.509   1.512  12.470  0.3401  0.1304 -0.1099
  460MPD2     C 6898   1.247   3.713  10.716 -0.0457 -0.1106  0.3587
  460MPD2    C1 6899   1.113   3.700  10.751 -0.6125 -0.2913  0.0250
  460MPD2    C2 6900   1.016   3.778  10.689  0.7599  0.5443  0.3756
  460MPD2    C3 6901   1.045   3.865  10.592 -0.0330  0.3633 -0.3533
  460MPD2    C4 6902   1.175   3.863  10.543  0.7125 -0.2028 -0.5123
  460MPD2    C5 6903   1.276   3.799  10.611  0.1955 -0.2485 -0.5930
  460MPD2     H 6904   0.913   3.792  10.722  0.7760 -1.4437  1.2805
  460MPD2    H1 6905   1.215   3.921  10.460  0.1613 -0.7188 -1.1454
  460MPD2    H2 6906   1.326   3.664  10.772 -0.4521 -0.4810  0.6095
  460MPD2    H3 6907   1.377   3.795  10.572  1.5164  0.0343  2.7388
  460MPD2     N 6908   0.937   3.954  10.550  0.0607  0.2112 -0.1732
  460MPD2    H5 6909   0.841   3.928  10.574 -0.0788  0.0930 -0.8708
  460MPD2    N1 6910   1.074   3.620  10.859  0.5201 -0.1760  0.7253
  460MPD2    H7 6911   1.144   3.574  10.917  1.3150  2.1621  1.6077
  461TMC3    C1 6912   0.845   4.153  10.447  0.5983  0.1979  0.2133
  461TMC3    C2 6913   0.723   4.085  10.439  0.0808  0.4287 -0.1535
  461TMC3    C3 6914   0.614   4.152  10.396 -0.1517  0.8758  0.5218
  461TMC3    C4 6915   0.852   4.287  10.420 -0.4745  0.7925  0.1561
  461TMC3    C5 6916   0.736   4.355  10.404 -0.2118 -0.0538 -0.1978
  461TMC3    C6 6917   0.619   4.290  10.381  0.3417  0.2580 -0.0642
  461TMC3     C 6918   0.962   4.074  10.487 -0.5142  0.1930 -0.3185
  461TMC3     O 6919   1.071   4.128  10.460 -0.7219 -0.2985  0.1755
  461TMC3     H 6920   0.715   3.980  10.463  1.4280  0.2851 -0.3480
  461TMC3    H1 6921   0.943   4.344  10.431  1.1364 -1.7662  0.1136
  461TMC3    H2 6922   0.534   4.351  10.350 -2.0436 -3.0686 -0.0547
  461TMC3    C7 6923   0.734   4.503  10.405  0.5137  0.0658 -0.2732
  461TMC3    C8 6924   0.513   4.082  10.318 -0.8956 -0.1408  0.5160
  461TMC3    O1 6925   0.632   4.561  10.370  0.5467  0.0549  0.7184
  461TMC3    O2 6926   0.547   3.973  10.275  0.1410  0.3978 -0.2567
  462TMC3    C1 6927   0.838   4.388   1.068 -0.2043  0.5358 -0.4329
  462TMC3    C2 6928   0.921   4.381   0.955 -0.4814  0.0481 -0.8067
  462TMC3    C3 6929   0.868   4.381   0.831  0.9393  0.0851 -0.6057
  462TMC3    C4 6930   0.700   4.391   1.052 -0.1443 -0.2319  0.0861
  462TMC3    C5 6931   0.651   4.403   0.922  0.7062  0.8044  0.0853
  462TMC3    C6 6932   0.733   4.395   0.804 -0.1029 -0.7418 -0.0086
  462TMC3     C 6933   0.895   4.335   1.188 -0.0821 -0.5984 -0.0510
  462TMC3     O 6934   1.000   4.276   1.182  0.1033 -0.2848 -0.4640
  462TMC3     H 6935   1.028   4.365   0.967 -0.7077 -0.7604  0.1019
  462TMC3    H1 6936   0.626   4.383   1.130 -0.4016 -2.6952 -0.4063
  462TMC3    H2 6937   0.694   4.425   0.708 -1.7500 -1.4990  0.4157
  462TMC3    C7 6938   0.511   4.379   0.894  0.7377 -0.0166 -0.3333
  462TMC3    C8 6939   0.970   4.412   0.730  0.5304 -0.2100  0.4698
  462TMC3    O1 6940   0.470   4.276   0.945 -0.0027  0.0908  0.0833
  462TMC3    O2 6941   1.073   4.467   0.768  0.0428  0.0928 -0.0622
  463MPD2     C 6942   2.284   2.697   0.978 -0.4637  0.2382  0.4620
  463MPD2    C1 6943   2.199   2.778   1.038  0.0013  0.5796 -0.2471
  463MPD2    C2 6944   2.245   2.901   1.089 -0.6621  0.2016 -0.0747
  463MPD2    C3 6945   2.375   2.942   1.084  0.1274  0.3901  0.3599
  463MPD2    C4 6946   2.470   2.855   1.025 -0.7479 -0.1390 -0.0472
  463MPD2    C5 6947   2.420   2.734   0.969  0.0011 -0.1930 -0.7357
  463MPD2     H 6948   2.167   2.967   1.124  0.6698  0.3860  2.5118
  463MPD2    H1 6949   2.574   2.884   1.012 -0.6401 -1.0749 -1.3217
  463MPD2    H2 6950   2.255   2.605   0.930 -0.1214  0.6366 -0.5191
  463MPD2    H3 6951   2.486   2.672   0.909  1.4890  0.9980 -0.3190
  463MPD2     N 6952   2.422   3.073   1.112  0.1509 -0.2628 -0.5708
  463MPD2    H5 6953   2.521   3.092   1.103  0.0826  0.8993  1.1427
  463MPD2    N1 6954   2.057   2.751   1.042  0.1779 -0.2483 -0.1079
  463MPD2    H7 6955   1.997   2.816   1.092 -0.7409 -0.5402 -0.8372
  464TMC3    C1 6956   1.862   2.614   1.031 -0.1303 -0.2579 -0.0605
  464TMC3    C2 6957   1.832   2.652   1.157  0.7298 -0.4427  0.0990
  464TMC3    C3 6958   1.704   2.633   1.191 -0.1796  0.2239  0.4216
  464TMC3    C4 6959   1.782   2.533   0.954 -0.4614  0.4558  0.5408
  464TMC3    C5 6960   1.654   2.506   1.001  1.1593  0.5975 -0.0438
  464TMC3    C6 6961   1.607   2.562   1.118 -0.1632  0.2911 -0.1595
  464TMC3     C 6962   1.995   2.635   0.990  0.7600  0.4093  0.4081
  464TMC3     O 6963   2.032   2.572   0.889 -0.2087  0.5747  0.2858
  464TMC3     H 6964   1.901   2.701   1.226  1.1788 -1.0249  0.0615
  464TMC3    H1 6965   1.822   2.496   0.861 -2.0407  0.4172 -0.1314
  464TMC3    H2 6966   1.501   2.563   1.141 -0.3717  0.0206 -1.1014
  464TMC3    C7 6967   1.573   2.420   0.920 -0.3605  0.2981  0.3337
  464TMC3    C8 6968   1.658   2.745   1.277 -0.2056  0.3124  0.2037
  464TMC3    O1 6969   1.631   2.339   0.848 -0.3696  0.5509  0.0847
  464TMC3    O2 6970   1.730   2.845   1.275 -0.1098 -0.2205  0.2740
  465MPD2     C 6971   2.672   2.236  16.924  0.1574 -0.2054 -0.2550
  465MPD2    C1 6972   2.559   2.281  16.976 -0.0138  0.3923  0.6803
  465MPD2    C2 6973   2.455   2.331  16.890  0.3791  0.5770 -0.3300
  465MPD2    C3 6974   2.459   2.318  16.753  0.1866 -0.0209 -0.4671
  465MPD2    C4 6975   2.577   2.259  16.704  0.2123  0.6648  0.3989
  465MPD2    C5 6976   2.680   2.219  16.790  0.3394  0.6327  0.0894
  465MPD2     H 6977   2.363   2.361  16.939  1.6758  3.7654  0.1753
  465MPD2    H1 6978   2.590   2.226  16.602 -0.4606 -0.9432  0.8299
  465MPD2    H2 6979   2.756   2.205  16.984  0.2389 -0.6825 -0.6151
  465MPD2    H3 6980   2.777   2.182  16.759  0.9488  1.6744  0.7389
  465MPD2     N 6981   2.353   2.374  16.676 -0.0985  0.0257  0.6059
  465MPD2    H5 6982   2.275   2.412  16.729  1.0918  0.9908  1.6520
  465MPD2    N1 6983   2.541   2.289  17.120 -0.0146  0.0129  0.1248
  465MPD2    H7 6984   2.444   2.308  17.143  0.5470  0.6644  1.9758
  466TMC3    C1 6985   2.023   2.536  16.495 -0.1077  0.3347  0.5905
  466TMC3    C2 6986   2.041   2.638  16.400 -0.4262  0.6937  0.7127
  466TMC3    C3 6987   2.162   2.637  16.338  0.2117 -0.5623  0.0205
  466TMC3    C4 6988   2.123   2.454  16.535  0.1302 -0.2286 -0.1169
  466TMC3    C5 6989   2.246   2.466  16.475  0.0018 -0.0266 -0.0110
  466TMC3    C6 6990   2.264   2.551  16.375 -0.0800 -0.2158  0.1948
  466TMC3     C 6991   1.913   2.541  16.581 -0.4296  0.3050  0.5425
  466TMC3     O 6992   1.903   2.449  16.660 -0.4794  0.3293 -0.3516
  466TMC3     H 6993   1.957   2.699  16.367  0.5844  1.3414 -0.6721
  466TMC3    H1 6994   2.111   2.371  16.604 -1.6747  0.0770 -0.0559
  466TMC3    H2 6995   2.357   2.559  16.319 -1.2324  1.8837 -1.4546
  466TMC3    C7 6996   2.357   2.406  16.537 -0.2333 -0.3884  0.0640
  466TMC3    C8 6997   2.210   2.769  16.288  0.3932  0.0942 -0.4244
  466TMC3    O1 6998   2.459   2.393  16.470 -0.5404 -0.3655 -0.1467
  466TMC3    O2 6999   2.291   2.762  16.197 -0.6412  0.3698 -0.0612
  467TMC3    C1 7000   4.041   0.453  13.574 -0.0792 -0.7914  0.0816
  467TMC3    C2 7001   4.015   0.459  13.446  1.0895 -1.1406  0.5803
  467TMC3    C3 7002   3.891   0.510  13.416  0.6709 -0.2340  0.1081
  467TMC3    C4 7003   3.947   0.476  13.673  0.9198 -0.4138  0.3289
  467TMC3    C5 7004   3.830   0.524  13.643  0.0959  0.2334 -0.4182
  467TMC3    C6 7005   3.797   0.541  13.513  0.0992 -0.2277 -0.7611
  467TMC3     C 7006   4.171   0.506  13.623  0.4918  0.0178 -0.3956
  467TMC3     O 7007   4.173   0.582  13.720  0.2266 -0.1888  0.0082
  467TMC3     H 7008   4.082   0.443  13.363 -0.3718 -0.2702 -0.7615
  467TMC3    H1 7009   3.970   0.480  13.779  0.9175 -1.2891  0.3611
  467TMC3    H2 7010   3.709   0.595  13.481 -0.3012 -0.6488 -0.3735
  467TMC3    C7 7011   3.772   0.620  13.737  0.3820  1.2910  1.0168
  467TMC3    C8 7012   3.917   0.621  13.334 -0.2755  0.1521  0.9194
  467TMC3    O1 7013   3.856   0.662  13.816 -0.3513 -0.0535 -0.4913
  467TMC3    O2 7014   3.876   0.732  13.377 -0.9055 -0.3688  0.0051
  468MPD2     C 7015   2.306   3.798  10.746 -0.4866  0.3453 -0.0799
  468MPD2    C1 7016   2.399   3.750  10.830 -0.7499  0.2568  0.0347
  468MPD2    C2 7017   2.392   3.618  10.866  0.8705  0.2682 -0.3764
  468MPD2    C3 7018   2.298   3.532  10.813  0.1284 -0.5326  0.9780
  468MPD2    C4 7019   2.209   3.579  10.722  0.2823 -0.6223  0.2796
  468MPD2    C5 7020   2.215   3.712  10.688 -0.3330 -0.1213  0.3199
  468MPD2     H 7021   2.470   3.581  10.932  0.9978  2.3858  0.6634
  468MPD2    H1 7022   2.127   3.519  10.683  0.8013 -0.3493 -1.2162
  468MPD2    H2 7023   2.291   3.900  10.712 -1.6218  0.3600  0.4755
  468MPD2    H3 7024   2.149   3.744  10.608  0.2695  0.9832  0.2616
  468MPD2     N 7025   2.309   3.394  10.841 -0.0861  0.1063 -0.3594
  468MPD2    H5 7026   2.256   3.334  10.778 -2.3613  0.7008  1.0071
  468MPD2    N1 7027   2.503   3.824  10.885 -0.2724  0.8821 -0.0730
  468MPD2    H7 7028   2.564   3.774  10.949  0.3903  1.7630 -0.0197
  469TMC3    C1 7029   2.650   4.013  10.905 -0.0102  0.2435 -0.1028
  469TMC3    C2 7030   2.733   3.941  10.988 -0.5543  0.0093  0.1192
  469TMC3    C3 7031   2.848   3.995  11.034 -0.6562 -1.4073 -0.6425
  469TMC3    C4 7032   2.682   4.142  10.863  0.9589  0.0537 -0.5432
  469TMC3    C5 7033   2.809   4.186  10.894  0.0769 -0.7596 -0.2163
  469TMC3    C6 7034   2.889   4.117  10.982 -0.1645 -0.7684  0.5611
  469TMC3     C 7035   2.524   3.957  10.854 -0.2882  0.0108  0.7982
  469TMC3     O 7036   2.469   4.029  10.774 -0.0658 -0.2701  0.2700
  469TMC3     H 7037   2.706   3.854  11.046  0.1183  0.0066  0.4277
  469TMC3    H1 7038   2.618   4.210  10.809  1.2888  0.8910  0.1264
  469TMC3    H2 7039   2.986   4.156  11.011 -0.1327  0.2356 -0.9027
  469TMC3    C7 7040   2.830   4.328  10.877 -0.5712  0.0067  0.1503
  469TMC3    C8 7041   2.918   3.946  11.150 -0.2276 -0.7186  0.8973
  469TMC3    O1 7042   2.792   4.386  10.778  0.3358 -0.2744 -0.1943
  469TMC3    O2 7043   3.002   4.018  11.194  0.5530  0.3329 -0.3701
  470TMC3    C1 7044   4.317   0.027   0.996  0.8178  0.2500 -0.1862
  470TMC3    C2 7045   4.449   0.046   1.034 -0.2403 -0.1044  0.8648
  470TMC3    C3 7046   4.483   0.093   1.152 -0.1179  0.2735  0.0917
  470TMC3    C4 7047   4.215   0.077   1.065  0.0437  0.1748 -0.3331
  470TMC3    C5 7048   4.247   0.150   1.173  0.0320  0.2167  0.2500
  470TMC3    C6 7049   4.378   0.158   1.216 -0.5387  0.2198 -0.0631
  470TMC3     C 7050   4.285   4.695   0.869 -0.4033 -0.7170 -0.3177
  470TMC3     O 7051   4.382   4.684   0.795 -0.6494 -0.1044  0.7434
  470TMC3     H 7052   4.515   4.734   0.964  0.5252 -0.7434  2.0266
  470TMC3    H1 7053   4.115   0.084   1.023  0.3806 -0.3653 -1.2162
  470TMC3    H2 7054   4.402   0.220   1.302 -1.0036 -0.2818  0.4336
  470TMC3    C7 7055   4.140   0.212   1.246  0.7631  0.7089 -0.8712
  470TMC3    C8 7056   4.616   0.149   1.164 -0.1279 -0.3647  0.4538
  470TMC3    O1 7057   4.028   0.161   1.236  0.2950  0.5840 -0.0742
  470TMC3    O2 7058   4.623   0.260   1.217  0.2879 -0.0063  0.0844
  471MPD2     C 7059   0.701   1.183  16.615 -0.2640 -0.1314  0.2879
  471MPD2    C1 7060   0.668   1.053  16.656 -0.2918 -0.3346  0.3709
  471MPD2    C2 7061   0.725   0.994  16.769  0.0215 -0.6680 -0.2420
  471MPD2    C3 7062   0.824   1.062  16.852 -0.1569  0.5602  0.0440
  471MPD2    C4 7063   0.858   1.188  16.798 -1.0303 -0.5243 -0.6481
  471MPD2    C5 7064   0.797   1.252  16.690  0.2812 -0.8461 -0.7973
  471MPD2     H 7065   0.679   0.902  16.800  0.3033 -1.0562 -0.9876
  471MPD2    H1 7066   0.928   1.248  16.855 -0.7628 -1.4422 -0.0090
  471MPD2    H2 7067   0.638   1.240  16.547  1.1351  1.9373  0.7483
  471MPD2    H3 7068   0.838   1.349  16.663 -0.1290 -0.9691 -1.8840
  471MPD2     N 7069   0.901   1.011  16.965 -0.2960  0.1997 -0.2811
  471MPD2    H5 7070   0.960   1.076  17.017  2.3705 -1.2623 -1.4770
  471MPD2    N1 7071   0.569   0.973  16.586  0.0345 -0.0497  0.3076
  471MPD2    H7 7072   0.546   0.882  16.623 -0.4305  0.8686  2.2430
  472TMC3    C1 7073   0.404   0.922  16.443  0.2574  0.1162 -0.6905
  472TMC3    C2 7074   0.287   0.969  16.379  0.1129 -0.2398 -0.3376
  472TMC3    C3 7075   0.208   0.880  16.316  0.5524  0.6609  0.8626
  472TMC3    C4 7076   0.437   0.786  16.455 -0.5909  0.2697 -0.3860
  472TMC3    C5 7077   0.348   0.704  16.383 -0.0709 -0.7772 -0.2109
  472TMC3    C6 7078   0.243   0.752  16.314 -0.1361  0.1483  0.0476
  472TMC3     C 7079   0.499   1.016  16.476 -0.1334  0.4436 -0.6989
  472TMC3     O 7080   0.499   1.120  16.411  0.7552  0.3282  0.1211
  472TMC3     H 7081   0.262   1.075  16.379  0.4978 -0.1482  0.6478
  472TMC3    H1 7082   0.522   0.746  16.510 -1.4158 -2.1926 -0.9120
  472TMC3    H2 7083   0.170   0.681  16.277 -0.1963  0.2749 -0.0760
  472TMC3    C7 7084   0.344   0.565  16.420  1.0747 -0.4022 -0.0909
  472TMC3    C8 7085   0.065   0.913  16.318 -0.2508 -0.2850  0.1322
  472TMC3    O1 7086   0.393   0.540  16.528 -0.3970 -0.1616  0.0336
  472TMC3    O2 7087   0.038   0.994  16.233 -0.0647  0.7491  0.2029
  473MPD2     C 7088   0.411   2.907  13.897  0.3055  0.2330 -0.1147
  473MPD2    C1 7089   0.352   3.027  13.864 -0.0114  0.3657 -0.9043
  473MPD2    C2 7090   0.368   3.128  13.945 -0.4887 -0.1643 -0.1663
  473MPD2    C3 7091   0.433   3.117  14.071 -0.4766  0.1878  0.8316
  473MPD2    C4 7092   0.482   2.995  14.112  0.0516  0.1246  0.0110
  473MPD2    C5 7093   0.472   2.894  14.020  0.4784 -0.0410  0.3750
  473MPD2     H 7094   0.338   3.226  13.909  0.3085  0.5513  1.0906
  473MPD2    H1 7095   0.542   2.980  14.201  1.2840  0.6240 -0.7347
  473MPD2    H2 7096   0.407   2.819  13.834  1.2424 -0.4396  0.7650
  473MPD2    H3 7097   0.508   2.797  14.055 -0.0104 -0.3743 -0.0448
  473MPD2     N 7098   0.448   3.215  14.171 -0.5734  0.4785 -0.3342
  473MPD2    H5 7099   0.504   3.192  14.253 -0.1046  0.5627 -0.6321
  473MPD2    N1 7100   0.301   3.057  13.736 -0.4071  0.1962 -0.0533
  473MPD2    H7 7101   0.283   3.156  13.719  3.0044  0.5387 -1.7699
  474TMC3    C1 7102   0.456   3.434  14.260  0.0948  0.0891 -0.1637
  474TMC3    C2 7103   0.392   3.556  14.274  0.1667 -0.1706  0.2506
  474TMC3    C3 7104   0.401   3.611  14.400  0.0839  0.2819  0.1740
  474TMC3    C4 7105   0.544   3.382  14.359 -0.1836 -0.2778  0.1651
  474TMC3    C5 7106   0.552   3.446  14.480  0.5375 -0.2012 -0.6207
  474TMC3    C6 7107   0.476   3.557  14.506  1.0413 -0.3785 -0.7717
  474TMC3     C 7108   0.405   3.346  14.158  0.3305  1.0846  0.6522
  474TMC3     O 7109   0.335   3.392  14.072 -0.4350 -0.1192  0.0623
  474TMC3     H 7110   0.320   3.593  14.202 -0.8348  2.8989  2.8285
  474TMC3    H1 7111   0.598   3.292  14.332 -0.8118  0.0997 -2.3425
  474TMC3    H2 7112   0.477   3.609  14.601 -0.9797 -1.4617 -0.1482
  474TMC3    C7 7113   0.689   3.457  14.513  1.1787 -0.1828  0.7103
  474TMC3    C8 7114   0.346   3.746  14.414 -0.6765  0.2022 -0.3403
  474TMC3    O1 7115   0.762   3.427  14.419  0.3382 -0.2437 -0.1863
  474TMC3    O2 7116   0.314   3.766  14.531  0.0223  0.2593  0.3371
  475MPD2     C 7117   4.111   1.222  10.501  0.3514 -0.3094 -0.1069
  475MPD2    C1 7118   4.148   1.319  10.596 -0.0233 -0.5619 -0.0587
  475MPD2    C2 7119   4.046   1.388  10.655  0.1711  0.1392 -0.8204
  475MPD2    C3 7120   3.913   1.375  10.624  0.8391 -0.3242 -0.0673
  475MPD2    C4 7121   3.875   1.274  10.538  0.4037  0.1130 -0.1394
  475MPD2    C5 7122   3.978   1.194  10.482 -0.1530  0.0986 -0.6140
  475MPD2     H 7123   4.059   1.462  10.734  3.0360 -0.0682 -1.1032
  475MPD2    H1 7124   3.770   1.259  10.516  0.3322 -1.3545  1.2472
  475MPD2    H2 7125   4.180   1.156  10.450  3.1233  1.6950  1.0261
  475MPD2    H3 7126   3.951   1.118  10.410  0.4309 -1.0735  0.4214
  475MPD2     N 7127   3.821   1.467  10.677 -0.1526  0.0155 -0.3839
  475MPD2    H5 7128   3.866   1.553  10.709 -0.1225 -0.2066  0.1691
  475MPD2    N1 7129   4.279   1.336  10.638 -0.0651  0.3076  0.0972
  475MPD2    H7 7130   4.295   1.383  10.727 -2.2403 -0.8743  1.0988
  476TMC3    C1 7131   4.485   1.440  10.618  0.2569  0.9087 -0.1980
  476TMC3    C2 7132   4.493   1.547  10.537  0.1347 -0.4380  0.5677
  476TMC3    C3 7133   4.452   1.668  10.586 -0.8954  0.2361  0.4615
  476TMC3    C4 7134   4.453   1.459  10.754  0.5980 -0.3623  0.0628
  476TMC3    C5 7135   4.426   1.582  10.797  1.0058  0.6751 -0.2083
  476TMC3    C6 7136   4.431   1.695  10.717  0.0079 -1.1574 -0.2041
  476TMC3     C 7137   4.383   1.356  10.551 -0.1804 -0.6231 -0.2278
  476TMC3     O 7138   4.390   1.357  10.428  0.1434 -0.2560 -0.2250
  476TMC3     H 7139   4.521   1.539  10.433  2.8123 -1.4618  1.3578
  476TMC3    H1 7140   4.460   1.373  10.820 -0.6598 -1.1351 -0.7862
  476TMC3    H2 7141   4.384   1.790  10.742  0.5826 -1.3809  1.7813
  476TMC3    C7 7142   4.311   1.567  10.886  0.5015 -0.9269  0.1044
  476TMC3    C8 7143   4.361   1.741  10.502 -0.5856 -0.2499 -0.0511
  476TMC3    O1 7144   4.264   1.449  10.892  0.6392  0.5244  0.2673
  476TMC3    O2 7145   4.343   1.855  10.538 -0.5912  0.0825  0.0624
  477MPD2     C 7146   1.552   3.028  11.772  0.6416  0.2428 -1.0977
  477MPD2    C1 7147   1.473   2.917  11.753 -0.1567 -0.6078 -0.0236
  477MPD2    C2 7148   1.470   2.829  11.862 -0.3378  0.1814  0.3096
  477MPD2    C3 7149   1.546   2.851  11.976  0.0935 -0.0289 -0.5816
  477MPD2    C4 7150   1.614   2.972  11.994 -0.6840 -0.4071 -0.0275
  477MPD2    C5 7151   1.616   3.052  11.886  0.0514  0.3280  0.1837
  477MPD2     H 7152   1.404   2.743  11.858  0.0680  0.0209 -2.5634
  477MPD2    H1 7153   1.679   2.996  12.077  2.3493 -2.3535 -1.8184
  477MPD2    H2 7154   1.572   3.103  11.697 -2.7335  0.2788 -1.9854
  477MPD2    H3 7155   1.675   3.143  11.888  0.6833 -0.0853  0.4619
  477MPD2     N 7156   1.535   2.757  12.084  0.7280 -0.0288 -0.3640
  477MPD2    H5 7157   1.470   2.680  12.072 -0.1221  0.4752  1.0474
  477MPD2    N1 7158   1.404   2.906  11.632 -0.1079 -0.0008  0.6615
  477MPD2    H7 7159   1.408   2.981  11.563  0.8750 -0.6686 -0.0155
  478TMC3    C1 7160   1.246   2.815  11.483 -0.1003  0.8386  0.6218
  478TMC3    C2 7161   1.124   2.759  11.484  0.1975 -0.3439 -0.4381
  478TMC3    C3 7162   1.030   2.827  11.416 -0.0805  0.3078 -0.2147
  478TMC3    C4 7163   1.278   2.914  11.393  0.1869  0.2211  0.0161
  478TMC3    C5 7164   1.180   2.962  11.319 -0.4195 -0.4378  0.6504
  478TMC3    C6 7165   1.052   2.924  11.330 -0.7927 -0.1666 -0.4163
  478TMC3     C 7166   1.322   2.800  11.600  0.1298  0.0181  0.4885
  478TMC3     O 7167   1.318   2.693  11.659 -0.7360  0.5271 -1.0399
  478TMC3     H 7168   1.090   2.691  11.562 -0.1214  1.3075  0.8669
  478TMC3    H1 7169   1.377   2.952  11.374 -0.8224  2.4070 -0.8638
  478TMC3    H2 7170   0.972   2.964  11.269  1.9758  2.1062 -2.5345
  478TMC3    C7 7171   1.219   3.031  11.189  0.5751 -0.2709  0.1441
  478TMC3    C8 7172   0.893   2.799  11.450 -0.3884  0.6815  0.4087
  478TMC3    O1 7173   1.339   3.041  11.167 -0.1626 -0.1073 -0.1421
  478TMC3    O2 7174   0.868   2.680  11.473  0.2414 -0.1332 -0.0323
  479MPD2     C 7175   0.080   4.487  15.145 -0.0428  0.0451 -0.2316
  479MPD2    C1 7176   4.704   4.555  15.179  0.1815  0.0647 -0.4439
  479MPD2    C2 7177   4.711   4.687  15.214 -0.3159  0.4801  0.7132
  479MPD2    C3 7178   0.100   0.006  15.237  0.3689  0.3151  0.3045
  479MPD2    C4 7179   0.206   4.678  15.182 -0.1777 -0.1156  0.6644
  479MPD2    C5 7180   0.199   4.555  15.131  0.4861  0.4598  0.1442
  479MPD2     H 7181   4.622   4.734  15.254 -1.6023 -2.0487  0.8596
  479MPD2    H1 7182   0.305   4.721  15.179  0.0925 -0.8597 -1.1846
  479MPD2    H2 7183   0.083   4.380  15.128  2.4974 -0.1307  1.3071
  479MPD2    H3 7184   0.286   4.502  15.095  2.1711  3.0517  0.3870
  479MPD2     N 7185   0.109   0.137  15.294  0.1467  0.2125 -0.4192
  479MPD2    H5 7186   0.027   0.196  15.295 -0.4620 -0.6168 -1.6517
  479MPD2    N1 7187   4.590   4.479  15.209  0.0182 -0.2711  0.1333
  479MPD2    H7 7188   4.608   4.380  15.221  0.4848 -0.2024 -0.0040
  480TMC3    C1 7189   0.179   0.403  15.631 -0.3928  0.0286 -0.0806
  480TMC3    C2 7190   0.115   0.513  15.576  0.4309 -0.1884 -0.3564
  480TMC3    C3 7191   0.089   0.508  15.440  0.3983 -0.1325 -0.0763
  480TMC3    C4 7192   0.231   0.297  15.555  0.4289  0.3619 -0.2467
  480TMC3    C5 7193   0.182   0.294  15.430  0.0803 -0.5625  0.0089
  480TMC3    C6 7194   0.121   0.400  15.368 -0.0351 -0.3981 -0.0320
  480TMC3     C 7195   0.126   0.359  15.757  0.1945  0.1536  0.6609
  480TMC3     O 7196   0.123   0.242  15.784 -0.0873  0.0435 -0.2273
  480TMC3     H 7197   0.074   0.595  15.633 -3.1561 -1.8109 -0.6215
  480TMC3    H1 7198   0.262   0.205  15.604 -0.5741  0.4384  0.5249
  480TMC3    H2 7199   0.098   0.404  15.262  0.8984 -0.4311 -0.2357
  480TMC3    C7 7200   0.221   0.178  15.350  1.0205  0.2168 -0.2038
  480TMC3    C8 7201   0.035   0.630  15.371 -0.2883 -0.3134  0.6378
  480TMC3    O1 7202   0.313   0.109  15.388 -0.2521  0.2007  0.5720
  480TMC3    O2 7203   4.725   0.721  15.438 -0.1806  0.1254  0.3714
  481MPD2     C 7204   1.889   4.706  14.164  0.0267  0.1436  0.0742
  481MPD2    C1 7205   1.777   4.628  14.200  0.3604  0.5136  0.2117
  481MPD2    C2 7206   1.766   4.592  14.335  0.3569 -0.1376  0.4004
  481MPD2    C3 7207   1.865   4.613  14.430 -0.3306  0.1442  0.3725
  481MPD2    C4 7208   1.971   4.682  14.394 -0.1312  0.1494 -0.1018
  481MPD2    C5 7209   1.977   4.731  14.266 -0.1758 -0.1879 -0.3964
  481MPD2     H 7210   1.678   4.542  14.373 -0.8999  1.2737 -0.6628
  481MPD2    H1 7211   2.052   4.701  14.464 -0.0812  0.0784 -0.1398
  481MPD2    H2 7212   1.916   4.734  14.063 -0.1576  0.6667  0.1700
  481MPD2    H3 7213   2.055   0.064  14.243 -1.0354  1.3085  1.2653
  481MPD2     N 7214   1.856   4.567  14.561  0.1923  0.1430 -0.3998
  481MPD2    H5 7215   1.942   4.537  14.607  0.4293  0.0475 -0.9065
  481MPD2    N1 7216   1.674   4.603  14.106 -0.3703 -0.5070  0.0309
  481MPD2    H7 7217   1.681   4.658  14.020 -3.3404  1.7283  1.2152
  482TMC3    C1 7218   1.465   4.563  14.018 -0.6177  0.1166  0.1318
  482TMC3    C2 7219   1.357   4.488  14.041 -0.6187 -0.1865 -0.0633
  482TMC3    C3 7220   1.231   4.549  14.023 -0.0308  0.3157  0.3945
  482TMC3    C4 7221   1.463   4.699  13.988  0.4775  0.6889  0.1699
  482TMC3    C5 7222   1.336   0.014  13.973  0.0458 -0.1353  0.0285
  482TMC3    C6 7223   1.222   4.680  13.991  0.7537 -0.0053  0.3271
  482TMC3     C 7224   1.558   4.538  14.122  0.0536  0.3702 -0.5962
  482TMC3     O 7225   1.527   4.459  14.209 -0.0136  0.1580 -0.5472
  482TMC3     H 7226   1.369   4.380  14.041 -0.5635 -0.1787 -1.5390
  482TMC3    H1 7227   1.549   0.027  13.986 -1.0362  2.6659 -0.4313
  482TMC3    H2 7228   1.125   4.728  13.980 -0.2080 -1.7079  1.3784
  482TMC3    C7 7229   1.311   0.120  13.883  0.9840 -0.1844  0.3285
  482TMC3    C8 7230   1.116   4.454  13.994  0.0352  0.4250  0.0975
  482TMC3    O1 7231   1.212   0.194  13.897 -0.2420  0.4085  0.6050
  482TMC3    O2 7232   1.136   4.344  14.041 -0.1551  1.0224 -0.1717
  483TMC3    C1 7233   3.924   3.291   1.257 -1.0952 -0.0446  0.3672
  483TMC3    C2 7234   4.020   3.383   1.212  0.5429  0.4151  0.0820
  483TMC3    C3 7235   4.151   3.346   1.216 -0.2492 -0.2064 -0.9483
  483TMC3    C4 7236   3.965   3.168   1.291 -0.2575  0.1387 -0.2303
  483TMC3    C5 7237   4.098   3.131   1.287  0.0953  0.3580  0.5763
  483TMC3    C6 7238   4.189   3.228   1.255 -0.1520 -0.4410 -0.1780
  483TMC3     C 7239   3.803   3.291   1.176  0.1202  0.1323 -0.2816
  483TMC3     O 7240   3.733   3.390   1.162 -0.3410  0.0466  0.3865
  483TMC3     H 7241   3.988   3.486   1.204  2.5842  1.1074  0.6822
  483TMC3    H1 7242   3.891   3.108   1.343  1.9321 -1.0983  1.4381
  483TMC3    H2 7243   4.293   3.201   1.239  0.6293  0.9399  2.5500
  483TMC3    C7 7244   4.111   3.012   1.206 -0.1706  0.3233 -0.1531
  483TMC3    C8 7245   4.245   3.445   1.179  0.4658 -0.6555  0.0624
  483TMC3    O1 7246   4.016   2.982   1.138  0.3844 -0.1885 -0.1285
  483TMC3    O2 7247   4.206   3.520   1.092  0.4945  0.5036  0.0008
  484MPD2     C 7248   2.570   1.837  12.178 -0.0099  0.3979  0.7813
  484MPD2    C1 7249   2.576   1.730  12.266  0.5691  0.3485 -0.1100
  484MPD2    C2 7250   2.697   1.699  12.319  0.7542  0.1881  0.1387
  484MPD2    C3 7251   2.811   1.770  12.290 -0.0601 -0.0741  0.0127
  484MPD2    C4 7252   2.797   1.876  12.206 -0.8043  0.1001 -0.0814
  484MPD2    C5 7253   2.683   1.909  12.148 -0.0363 -0.1340  0.4792
  484MPD2     H 7254   2.698   1.618  12.392 -4.0852  2.2866  2.5092
  484MPD2    H1 7255   2.890   1.927  12.182 -0.7260 -0.3288 -0.6952
  484MPD2    H2 7256   2.477   1.861  12.127  0.1303 -0.0174  0.3310
  484MPD2    H3 7257   2.673   2.006  12.101  0.0112 -1.3166 -1.9902
  484MPD2     N 7258   2.940   1.740  12.348 -0.2082  0.3138 -0.4077
  484MPD2    H5 7259   3.007   1.817  12.343  0.0456  0.2694  2.2737
  484MPD2    N1 7260   2.457   1.658  12.286  0.0106 -0.3075  0.2778
  484MPD2    H7 7261   2.375   1.693  12.236 -1.1819 -1.4182  1.4332
  485TMC3    C1 7262   3.089   1.621  12.487  0.7616 -0.2555 -0.0403
  485TMC3    C2 7263   3.119   1.512  12.567 -0.6862  0.2864 -0.1499
  485TMC3    C3 7264   3.248   1.474  12.605 -0.1222 -0.4224 -0.2852
  485TMC3    C4 7265   3.191   1.703  12.444  0.5372 -0.9590  0.0166
  485TMC3    C5 7266   3.316   1.655  12.479 -0.3932  0.4809 -0.2393
  485TMC3    C6 7267   3.346   1.548  12.553  0.0641  0.2577 -0.2555
  485TMC3     C 7268   2.964   1.625  12.418 -0.2204 -0.2906  0.2456
  485TMC3     O 7269   2.898   1.524  12.419 -0.0926  0.4844 -0.6195
  485TMC3     H 7270   3.036   1.450  12.600  0.0522  0.4361  2.0056
  485TMC3    H1 7271   3.192   1.783  12.372 -0.0101  0.3405  1.4497
  485TMC3    H2 7272   3.449   1.528  12.582 -0.4006 -0.2046  1.0536
  485TMC3    C7 7273   3.426   1.702  12.387 -0.1110  0.0591 -0.2176
  485TMC3    C8 7274   3.268   1.330  12.611 -0.4473 -0.0868  0.0921
  485TMC3    O1 7275   3.436   1.817  12.348  0.5164 -0.0504  0.2337
  485TMC3    O2 7276   3.163   1.262  12.609 -0.1762 -0.5786 -0.2464
  486MPD2     C 7277   3.859   0.104  12.895 -0.0428 -0.9268  0.3577
  486MPD2    C1 7278   3.970   0.135  12.819  0.6755  0.2238  0.3199
  486MPD2    C2 7279   3.974   0.259  12.763  0.8418 -0.3170 -0.2834
  486MPD2    C3 7280   3.887   0.356  12.798 -0.2043  0.3304 -0.4823
  486MPD2    C4 7281   3.780   0.331  12.881  0.0505 -0.8018 -0.0607
  486MPD2    C5 7282   3.770   0.200  12.928  0.2870 -0.1366 -0.1429
  486MPD2     H 7283   4.055   0.292  12.698  1.3771 -0.9042  0.0851
  486MPD2    H1 7284   3.710   0.408  12.914 -0.1943 -2.0796  2.3939
  486MPD2    H2 7285   3.852   0.001  12.927 -0.1329 -0.8779  0.4966
  486MPD2    H3 7286   3.684   0.165  12.983  1.4573  0.4532  2.0525
  486MPD2     N 7287   3.911   0.493  12.747  0.3323 -0.0186  0.0924
  486MPD2    H5 7288   4.000   0.515  12.704 -0.1981 -1.2263 -1.6504
  486MPD2    N1 7289   4.056   0.025  12.794 -0.5641 -0.0502  0.1622
  486MPD2    H7 7290   4.039   4.676  12.845  0.2011  1.1740  2.4864
  487TMC3    C1 7291   4.233   4.641  12.694  0.0384 -0.2094 -0.6285
  487TMC3    C2 7292   4.167   4.521  12.702 -0.0304 -0.5662  0.2667
  487TMC3    C3 7293   4.237   4.415  12.663 -0.4887 -0.2556 -0.5927
  487TMC3    C4 7294   4.363   4.652  12.664  0.0987 -0.5472  0.4529
  487TMC3    C5 7295   4.429   4.544  12.642  0.5710  0.1252  0.0788
  487TMC3    C6 7296   4.370   4.424  12.625 -0.1195  0.0309  0.0692
  487TMC3     C 7297   4.169   0.036  12.711  0.1734  0.3817 -0.4166
  487TMC3     O 7298   4.224   0.130  12.660 -0.1193 -0.6185 -0.7225
  487TMC3     H 7299   4.059   4.515  12.716  0.2350 -0.7550  2.2685
  487TMC3    H1 7300   4.419   0.007  12.682 -2.4093  1.2109 -0.7434
  487TMC3    H2 7301   4.417   4.342  12.572  1.8244  0.9256  0.4093
  487TMC3    C7 7302   4.504   4.537  12.766 -0.1025 -0.0610  0.2747
  487TMC3    C8 7303   4.209   4.291  12.727  0.1788 -0.8346  0.4722
  487TMC3    O1 7304   4.497   4.632  12.843 -0.0775 -0.6572 -0.5300
  487TMC3    O2 7305   4.257   4.188  12.679  0.3636  0.1642 -0.2972
  488MPD2     C 7306   4.430   1.851  16.110 -0.2733 -0.2677  0.7718
  488MPD2    C1 7307   4.419   1.974  16.170  0.3762  0.1907  0.5601
  488MPD2    C2 7308   4.314   1.986  16.251 -0.1420  0.7951  0.8990
  488MPD2    C3 7309   4.234   1.884  16.298  0.1686 -0.7511 -0.4892
  488MPD2    C4 7310   4.258   1.753  16.250 -0.3225  0.5381  0.1275
  488MPD2    C5 7311   4.348   1.745  16.146  0.1638  0.3120 -0.1898
  488MPD2     H 7312   4.310   2.080  16.306  0.0858 -0.7510  3.5416
  488MPD2    H1 7313   4.195   1.669  16.281 -0.0817  0.4596  0.4072
  488MPD2    H2 7314   4.498   1.831  16.029  1.5320  0.8539  2.0179
  488MPD2    H3 7315   4.357   1.650  16.094  0.9570  1.3254 -1.8897
  488MPD2     N 7316   4.152   1.916  16.405 -0.4237 -0.2542  0.0581
  488MPD2    H5 7317   4.146   2.013  16.434  2.6325 -0.3522  1.0664
  488MPD2    N1 7318   4.508   2.086  16.159 -0.2088 -0.0414 -0.0887
  488MPD2    H7 7319   4.471   2.173  16.196 -1.5540 -0.1140 -1.2606
  489TMC3    C1 7320   4.104   1.884  16.636 -0.1363 -0.3547 -0.2020
  489TMC3    C2 7321   4.174   1.999  16.657  0.4500 -0.3426 -0.3340
  489TMC3    C3 7322   4.214   2.037  16.783  0.1745 -0.3919  0.0955
  489TMC3    C4 7323   4.082   1.797  16.739 -0.5022  0.0451  0.3298
  489TMC3    C5 7324   4.126   1.838  16.864 -0.4539 -0.1334  0.2900
  489TMC3    C6 7325   4.194   1.952  16.891 -0.7648 -0.2823 -0.0349
  489TMC3     C 7326   4.118   1.824  16.506 -0.0299  0.1668  0.3175
  489TMC3     O 7327   4.115   1.703  16.504  0.6883 -0.1419  0.9979
  489TMC3     H 7328   4.208   2.062  16.575  1.9797 -1.9527 -0.9342
  489TMC3    H1 7329   4.031   1.706  16.710 -1.2056 -0.1710  2.2539
  489TMC3    H2 7330   4.250   1.965  16.983  0.4275 -1.0143 -0.6439
  489TMC3    C7 7331   4.119   1.743  16.973  0.3105 -0.1100  0.2164
  489TMC3    C8 7332   4.303   2.152  16.798  0.0382 -0.1852  0.3795
  489TMC3    O1 7333   4.193   1.766  17.067 -0.1927 -0.6050  0.4603
  489TMC3    O2 7334   4.384   2.184  16.711  0.0913 -0.1978 -0.2374
  490MPD2     C 7335   0.568   1.702  16.812  0.0838 -0.5552  0.1330
  490MPD2    C1 7336   0.678   1.656  16.890 -0.1170 -0.3310  0.0540
  490MPD2    C2 7337   0.793   1.730  16.885 -0.5716  0.5526 -0.2478
  490MPD2    C3 7338   0.795   1.856  16.826  0.5944 -0.4349  0.1550
  490MPD2    C4 7339   0.681   1.908  16.772 -0.1360  0.8479  0.1794
  490MPD2    C5 7340   0.573   1.830  16.762 -0.3923  0.2184 -0.7519
  490MPD2     H 7341   0.879   1.700  16.944 -1.3880 -1.4286 -0.0790
  490MPD2    H1 7342   0.667   2.012  16.745 -0.2092  0.3864 -1.5530
  490MPD2    H2 7343   0.475   1.647  16.814 -0.6178  0.5883 -0.8605
  490MPD2    H3 7344   0.478   1.863  16.720 -0.1728 -0.4654 -1.7648
  490MPD2     N 7345   0.914   1.931  16.814 -0.0997  0.2259 -0.0297
  490MPD2    H5 7346   0.904   2.030  16.791  0.0437  0.3221  0.3163
  490MPD2    N1 7347   0.678   1.544  16.969 -0.0873 -0.0861 -0.2505
  490MPD2    H7 7348   0.765   1.532  17.020 -1.1763  2.1122  2.0983
  491TMC3    C1 7349   0.631   1.333  17.043 -0.4418  0.6398 -0.1143
  491TMC3    C2 7350   0.687   1.347  17.167 -0.4086 -0.0858 -0.2895
  491TMC3    C3 7351   0.700   1.236  17.247  0.1321  0.1115 -0.8825
  491TMC3    C4 7352   0.567   1.215  17.014 -0.3425 -0.1828 -0.6507
  491TMC3    C5 7353   0.575   1.113  17.099  0.4142 -0.1314 -0.4410
  491TMC3    C6 7354   0.650   1.122  17.211  0.5755  0.1473 -0.3534
  491TMC3     C 7355   0.591   1.442  16.962 -0.7569 -0.5876  0.1946
  491TMC3     O 7356   0.486   1.434  16.900 -0.1357 -0.4135  0.6247
  491TMC3     H 7357   0.722   1.439  17.211  0.3326 -1.1537  1.3291
  491TMC3    H1 7358   0.508   1.217  16.923 -2.2492 -0.6665  0.5605
  491TMC3    H2 7359   0.670   1.035  17.272  0.4485  2.1356  2.5142
  491TMC3    C7 7360   0.498   1.001  17.057  0.1791  0.2247 -0.6784
  491TMC3    C8 7361   0.668   1.267  17.382 -0.1856 -0.1991  0.4647
  491TMC3    O1 7362   0.422   1.007  16.960  0.5625  0.1381 -0.8003
  491TMC3    O2 7363   0.708   1.374  17.428 -0.5515  0.0951  0.0991
  492MPD2     C 7364   1.421   1.979  11.625 -0.1294  1.0973 -0.3000
  492MPD2    C1 7365   1.351   1.958  11.510  0.4153  0.5104  0.2004
  492MPD2    C2 7366   1.223   1.906  11.515 -0.0310 -0.5461  0.2628
  492MPD2    C3 7367   1.165   1.889  11.642  0.1942 -0.1912  0.7515
  492MPD2    C4 7368   1.232   1.921  11.758 -0.3932 -0.0007  0.1075
  492MPD2    C5 7369   1.365   1.961  11.747  0.6859 -0.4347 -0.5656
  492MPD2     H 7370   1.164   1.902  11.425  0.5641  1.2369 -0.2257
  492MPD2    H1 7371   1.187   1.920  11.856 -2.3007 -0.2888 -0.7726
  492MPD2    H2 7372   1.525   2.005  11.618  0.6687 -1.8130  0.6267
  492MPD2    H3 7373   1.419   1.982  11.839  1.4918 -1.4104 -0.8170
  492MPD2     N 7374   1.030   1.853  11.658 -0.4581 -0.0421  0.2297
  492MPD2    H5 7375   1.004   1.837  11.755 -0.1771 -1.0107  0.1495
  492MPD2    N1 7376   1.404   1.999  11.383  0.2703  0.4443  0.0175
  492MPD2    H7 7377   1.473   2.073  11.374  1.1194 -0.4561 -0.9489
  493TMC3    C1 7378   1.420   1.997  11.145  0.2316 -0.8001  0.1620
  493TMC3    C2 7379   1.407   2.135  11.138  0.1830  0.2338 -0.8919
  493TMC3    C3 7380   1.376   2.197  11.020 -0.2449  0.0219 -1.0210
  493TMC3    C4 7381   1.400   1.925  11.032  0.2841  0.1842  0.2394
  493TMC3    C5 7382   1.361   1.987  10.918  0.1385 -0.3865 -0.3759
  493TMC3    C6 7383   1.335   2.119  10.912 -0.5378 -0.1493  0.2750
  493TMC3     C 7384   1.371   1.937  11.266  0.5803  0.4464  0.0656
  493TMC3     O 7385   1.320   1.826  11.248  0.2933  0.2168  0.1451
  493TMC3     H 7386   1.395   2.194  11.228  0.3438 -2.9518  1.2061
  493TMC3    H1 7387   1.388   1.818  11.044 -3.4792  0.5163 -0.5877
  493TMC3    H2 7388   1.308   2.159  10.815  0.3720  0.2580  0.1917
  493TMC3    C7 7389   1.266   1.914  10.845 -0.6181  0.0475 -0.6350
  493TMC3    C8 7390   1.337   2.337  11.030 -0.2124  0.5694 -0.4264
  493TMC3    O1 7391   1.169   1.981  10.798 -0.0061  0.6388 -0.4625
  493TMC3    O2 7392   1.360   2.391  11.137  0.0527  0.6418  0.0096
  494TMC3    C1 7393   1.115   3.651   0.531 -0.3699 -0.1858  0.1496
  494TMC3    C2 7394   1.027   3.555   0.496  0.3918 -0.0028  0.7963
  494TMC3    C3 7395   1.032   3.510   0.367  0.0829 -0.0020  0.5676
  494TMC3    C4 7396   1.201   3.711   0.449 -0.4217 -0.1498 -0.4107
  494TMC3    C5 7397   1.205   3.672   0.320 -0.1712  0.1229 -0.0158
  494TMC3    C6 7398   1.123   3.569   0.278 -0.2043  0.6200  0.1547
  494TMC3     C 7399   1.130   3.685   0.672  0.0244 -0.1070 -0.6623
  494TMC3     O 7400   1.230   3.743   0.709  0.1037 -0.1690  0.2913
  494TMC3     H 7401   0.979   3.494   0.572  0.7352 -0.1534  0.8919
  494TMC3    H1 7402   1.256   3.796   0.488 -2.1070  0.2908  0.9778
  494TMC3    H2 7403   1.129   3.527   0.179  0.4395  0.4449  0.2693
  494TMC3    C7 7404   1.296   3.726   0.225 -0.5022  0.1410  0.5625
  494TMC3    C8 7405   1.028   3.368   0.353  0.0135 -0.7033  0.4286
  494TMC3    O1 7406   1.260   3.707   0.108 -0.1598  0.5943  0.0513
  494TMC3    O2 7407   1.073   3.299   0.443 -0.0126 -0.8462  0.2033
  495TMC3    C1 7408   0.283   0.554  14.473  0.4688 -0.6461 -0.2393
  495TMC3    C2 7409   0.197   0.602  14.385 -0.8540 -0.4952 -0.0048
  495TMC3    C3 7410   0.139   0.723  14.414 -0.0277 -0.0857  0.2099
  495TMC3    C4 7411   0.292   0.609  14.596 -0.6119 -0.1712 -0.4115
  495TMC3    C5 7412   0.224   0.721  14.630  0.4436 -0.3471  0.2967
  495TMC3    C6 7413   0.136   0.776  14.539  0.4098  0.0810 -0.5522
  495TMC3     C 7414   0.285   0.413  14.481 -0.4958  0.4854 -0.3054
  495TMC3     O 7415   0.248   0.360  14.584  0.2623  0.0354  0.2336
  495TMC3     H 7416   0.194   0.556  14.287  0.9029 -0.4924 -0.0630
  495TMC3    H1 7417   0.347   0.553  14.671 -1.4186  0.3722  0.5955
  495TMC3    H2 7418   0.085   0.869  14.560  0.1703 -0.3085  0.5995
  495TMC3    C7 7419   0.205   0.740  14.776  0.4650 -0.0509  0.3576
  495TMC3    C8 7420   0.009   0.729  14.364  0.1990 -0.3145  0.7183
  495TMC3    O1 7421   0.276   0.669  14.845  0.2204 -0.0067  0.6699
  495TMC3    O2 7422   4.658   0.770  14.441  0.3372  0.5411 -0.7676
  496MPD2     C 7423   2.071   0.900  15.124  0.2326  0.2826 -0.0709
  496MPD2    C1 7424   2.058   0.848  14.992 -0.1850  0.5092 -0.5693
  496MPD2    C2 7425   1.934   0.837  14.932  0.0294 -0.1131 -0.5507
  496MPD2    C3 7426   1.823   0.871  15.005  0.1210 -0.3357  0.2147
  496MPD2    C4 7427   1.833   0.924  15.138  0.2252  0.2375 -0.1585
  496MPD2    C5 7428   1.959   0.948  15.196 -0.0828  0.7193  0.4852
  496MPD2     H 7429   1.916   0.786  14.838  0.7784  1.2449 -1.4173
  496MPD2    H1 7430   1.750   0.954  15.201  1.1774  2.1068  0.2170
  496MPD2    H2 7431   2.167   0.921  15.170  0.2008 -0.7626  0.4699
  496MPD2    H3 7432   1.970   0.985  15.297  1.4220 -0.0050  0.5852
  496MPD2     N 7433   1.695   0.822  14.972  0.0010  0.3051  0.4945
  496MPD2    H5 7434   1.622   0.850  15.037  0.3111  1.1887  0.4699
  496MPD2    N1 7435   2.177   0.802  14.925 -0.1099 -1.0488 -0.1169
  496MPD2    H7 7436   2.155   0.764  14.833 -1.0350  3.7871 -1.9000
  497TMC3    C1 7437   1.541   0.673  14.889  0.8623  0.5488 -0.0022
  497TMC3    C2 7438   1.496   0.589  14.790 -0.0188 -0.7844  0.4644
  497TMC3    C3 7439   1.413   0.488  14.819  0.7292  0.1112  0.2278
  497TMC3    C4 7440   1.518   0.643  15.018  0.1437 -0.7767  0.0746
  497TMC3    C5 7441   1.440   0.529  15.042 -0.1462 -0.0575  0.1753
  497TMC3    C6 7442   1.371   0.462  14.946 -0.4636  0.0592  0.5923
  497TMC3     C 7443   1.655   0.754  14.857  0.7400 -0.1574 -0.6403
  497TMC3     O 7444   1.709   0.737  14.749  0.9906  0.6585 -0.1803
  497TMC3     H 7445   1.534   0.593  14.688  1.9276 -0.8101  1.1987
  497TMC3    H1 7446   1.554   0.702  15.101  1.3548 -1.1135 -0.2053
  497TMC3    H2 7447   1.313   0.374  14.972 -1.3527  0.5502  0.2578
  497TMC3    C7 7448   1.368   0.527  15.167 -0.3784 -0.3077 -0.1688
  497TMC3    C8 7449   1.331   0.420  14.715  0.1618  0.0366 -0.2908
  497TMC3    O1 7450   1.247   0.539  15.153  0.0572 -0.7416 -0.6987
  497TMC3    O2 7451   1.272   0.319  14.757  0.2090  0.2604  0.4644
  498MPD2     C 7452   3.702   1.860  10.080 -0.2184  0.3729 -0.0195
  498MPD2    C1 7453   3.635   1.970  10.122  0.0817  0.0190 -0.2072
  498MPD2    C2 7454   3.503   1.949  10.162  0.4261 -0.2630  0.7553
  498MPD2    C3 7455   3.438   1.829  10.142 -0.4609 -0.3857  0.4389
  498MPD2    C4 7456   3.508   1.721  10.097  0.3717 -0.6916  0.3093
  498MPD2    C5 7457   3.637   1.740  10.059  0.7913 -0.4455 -0.1600
  498MPD2     H 7458   3.446   2.032  10.201  2.2394 -0.0358  2.9746
  498MPD2    H1 7459   3.467   1.621  10.084 -0.9301 -0.1248 -0.0025
  498MPD2    H2 7460   3.808   1.856  10.057 -0.4380 -1.2313 -0.7413
  498MPD2    H3 7461   3.703   1.660  10.028 -1.1999 -1.7623 -0.9909
  498MPD2     N 7462   3.313   1.826  10.200  0.1088  0.3175 -0.0262
  498MPD2    H5 7463   3.293   1.904  10.262 -1.5904  1.0906 -1.5193
  498MPD2    N1 7464   3.695   2.097  10.125  0.1900  0.6315 -0.0630
  498MPD2    H7 7465   3.630   2.169  10.157 -0.0723  1.2979 -2.1181
  499TMC3    C1 7466   3.839   2.272  10.103  0.1364  0.5736  0.1091
  499TMC3    C2 7467   3.961   2.321  10.141 -0.5356  1.0458  0.2608
  499TMC3    C3 7468   3.981   2.453  10.119  0.2120 -0.1941 -0.1764
  499TMC3    C4 7469   3.740   2.349  10.045  0.6819  0.3259 -0.3674
  499TMC3    C5 7470   3.776   2.480  10.020 -0.2995 -0.0378 -0.3779
  499TMC3    C6 7471   3.895   2.534  10.058  0.2050 -0.7708  0.3994
  499TMC3     C 7472   3.827   2.127  10.108  0.0738  0.0269  0.2510
  499TMC3     O 7473   3.924   2.059  10.086 -0.4148  0.1097  0.5107
  499TMC3     H 7474   4.029   2.256  10.194 -1.4340 -0.8504 -0.8879
  499TMC3    H1 7475   3.653   2.309   9.995 -0.9987  1.1176  1.9386
  499TMC3    H2 7476   3.909   2.639  10.032 -1.5004 -0.1071  2.1313
  499TMC3    C7 7477   3.686   2.572   9.955  1.3574  0.1997  0.0720
  499TMC3    C8 7478   4.098   2.510  10.192 -0.2202 -0.6090 -0.3001
  499TMC3    O1 7479   3.738   2.670   9.902 -0.3928  0.1806 -0.0221
  499TMC3    O2 7480   4.171   2.431  10.247 -0.5140  0.2031 -0.0821
  500MPD2     C 7481   4.498   2.823  10.813  0.2518  0.3830 -0.3457
  500MPD2    C1 7482   4.537   2.931  10.749  0.7535 -0.6388 -0.7324
  500MPD2    C2 7483   4.448   3.006  10.678  0.6833 -1.0540  0.2697
  500MPD2    C3 7484   4.316   2.972  10.682  0.1514 -0.3011 -0.1869
  500MPD2    C4 7485   4.270   2.856  10.755  0.2545 -0.1575 -0.0034
  500MPD2    C5 7486   4.370   2.780  10.817  0.1078  0.1845  0.3373
  500MPD2     H 7487   4.480   3.089  10.617  2.4567 -1.6382  0.4136
  500MPD2    H1 7488   4.165   2.829  10.757  0.7522 -2.1743 -1.0861
  500MPD2    H2 7489   4.557   2.763  10.881 -0.0544  0.5592  0.0780
  500MPD2    H3 7490   4.343   2.701  10.886 -0.8209 -1.0699 -1.4564
  500MPD2     N 7491   4.216   3.036  10.617  0.3539 -0.0929  0.5987
  500MPD2    H5 7492   4.126   2.988  10.619  1.2245 -1.7267  0.8737
  500MPD2    N1 7493   4.662   2.987  10.746 -0.1821 -0.2198  0.1905
  500MPD2    H7 7494   4.679   3.074  10.697 -0.8178  0.3208  0.9263
  501TMC3    C1 7495   0.156   2.994  10.794 -0.2249  0.4466 -0.1038
  501TMC3    C2 7496   0.195   3.063  10.673  0.6275  0.8074  0.1645
  501TMC3    C3 7497   0.328   3.085  10.648  0.2751 -0.5511  0.3608
  501TMC3    C4 7498   0.253   2.960  10.883 -0.4034 -0.0518 -0.1528
  501TMC3    C5 7499   0.382   2.982  10.862 -0.2355 -0.0267  0.6676
  501TMC3    C6 7500   0.421   3.049  10.744  0.4006 -0.1804 -0.2562
  501TMC3     C 7501   0.028   2.927  10.809  0.2290  0.4563 -0.1274
  501TMC3     O 7502   0.033   2.837  10.888  0.4890  0.2634 -0.0768
  501TMC3     H 7503   0.110   3.090  10.611 -0.9854  0.8467  2.4119
  501TMC3    H1 7504   0.220   2.912  10.974 -2.1809  0.5297 -0.5009
  501TMC3    H2 7505   0.522   3.076  10.718 -0.6495  3.5623 -0.5197
  501TMC3    C7 7506   0.469   2.889  10.934 -0.2180  0.3170 -0.9751
  501TMC3    C8 7507   0.366   3.188  10.559  0.0843  1.4188 -0.2647
  501TMC3    O1 7508   0.414   2.787  10.969  0.6619 -0.5250 -0.0052
  501TMC3    O2 7509   0.486   3.199  10.534 -0.0955  0.9254  0.3472
  502TMC3    C1 7510   4.187   1.188  14.994 -0.3163 -0.4646  0.2365
  502TMC3    C2 7511   4.186   1.266  14.883  0.3001 -0.1331  0.6268
  502TMC3    C3 7512   4.071   1.326  14.848  0.1130  0.3994 -1.0253
  502TMC3    C4 7513   4.070   1.158  15.058 -0.6342  0.2209  0.5982
  502TMC3    C5 7514   3.949   1.199  15.010 -0.4955  0.7883  0.5211
  502TMC3    C6 7515   3.955   1.296  14.913  0.1055 -0.7594 -0.5438
  502TMC3     C 7516   4.308   1.186  15.071 -0.5357  0.0826  0.0169
  502TMC3     O 7517   4.407   1.210  15.001 -0.0810 -0.8468  0.4346
  502TMC3     H 7518   4.284   1.288  14.843 -0.0995  3.0557  1.4237
  502TMC3    H1 7519   4.078   1.097  15.147 -1.6789 -0.8270 -0.0240
  502TMC3    H2 7520   3.870   1.352  14.875  1.0233  0.4590 -0.8132
  502TMC3    C7 7521   3.831   1.197  15.087  0.2127  0.3796  0.0794
  502TMC3    C8 7522   4.086   1.459  14.794  0.1336 -0.3165  0.1251
  502TMC3    O1 7523   3.769   1.299  15.108  0.2595 -0.1569  0.6475
  502TMC3    O2 7524   4.017   1.546  14.856  0.6232  0.7117  0.2701
  503MPD2     C 7525   1.464   2.574  17.114 -0.4867  0.2163  0.1933
  503MPD2    C1 7526   1.479   2.582  17.250  0.1468  0.4028  0.3957
  503MPD2    C2 7527   1.573   2.508  17.309  0.5018 -0.4847  0.8675
  503MPD2    C3 7528   1.643   2.403  17.244  1.0095  0.3205 -0.2345
  503MPD2    C4 7529   1.612   2.382  17.110  0.5047  0.0479  0.4206
  503MPD2    C5 7530   1.529   2.472  17.047 -0.0305 -0.2962  0.1470
  503MPD2     H 7531   1.594   2.533  17.412  0.4832 -1.0136  0.9983
  503MPD2    H1 7532   1.657   2.299  17.057  2.7702  1.0574  0.7371
  503MPD2    H2 7533   1.402   2.636  17.050 -1.3106  2.2783  2.9924
  503MPD2    H3 7534   1.515   2.464  16.940  1.1557 -0.6727  0.0204
  503MPD2     N 7535   1.737   2.323  17.309 -0.4035  0.4911 -0.6736
  503MPD2    H5 7536   1.759   2.335  17.407 -2.7436 -0.4758 -0.0380
  503MPD2    N1 7537   1.408   2.678  17.333  0.7235  0.5363  0.5617
  503MPD2    H7 7538   1.436   2.687  17.430 -1.1978  0.5135  1.1223
  504TMC3    C1 7539   1.934   2.191  17.329  0.1525 -0.1864  0.1023
  504TMC3    C2 7540   1.896   2.118  17.437 -0.8966  0.1594  0.0563
  504TMC3    C3 7541   1.987   2.038  17.499  0.6822 -0.1293 -0.2073
  504TMC3    C4 7542   2.061   2.176  17.271 -0.2556  0.0382 -1.0282
  504TMC3    C5 7543   2.144   2.091  17.336 -0.1521 -0.0600  1.0362
  504TMC3    C6 7544   2.109   2.020  17.449  0.0503  0.0702  0.9987
  504TMC3     C 7545   1.838   2.253  17.243  0.4278  0.0890  0.5247
  504TMC3     O 7546   1.862   2.248  17.125  0.7597 -0.1124  0.1040
  504TMC3     H 7547   1.797   2.121  17.480 -0.9721 -4.2644  0.2656
  504TMC3    H1 7548   2.078   2.235  17.182  0.4439  0.6046 -0.5227
  504TMC3    H2 7549   2.170   1.942  17.492  0.4653 -0.3098 -0.2825
  504TMC3    C7 7550   2.266   2.057  17.264  0.0784  1.3674 -0.0917
  504TMC3    C8 7551   1.930   1.930  17.556 -0.7423  0.2419  0.2162
  504TMC3    O1 7552   2.284   2.119  17.164  0.4977  0.4728 -0.6409
  504TMC3    O2 7553   1.866   1.951  17.657 -0.0992 -0.3159  0.2908
  505MPD2     C 7554   2.108   1.429  11.349 -0.4154 -0.0389 -0.2743
  505MPD2    C1 7555   2.225   1.395  11.284 -0.0697 -0.7816  0.0438
  505MPD2    C2 7556   2.326   1.488  11.294  0.0106  0.2903  0.1562
  505MPD2    C3 7557   2.312   1.605  11.371  0.1018  0.6524 -0.2110
  505MPD2    C4 7558   2.197   1.626  11.444  0.1552  0.4418  0.4045
  505MPD2    C5 7559   2.098   1.531  11.439  0.3470  0.3690  0.1720
  505MPD2     H 7560   2.420   1.481  11.240 -0.0379  0.9724 -0.0172
  505MPD2    H1 7561   2.182   1.715  11.505 -0.9355  1.1318 -0.8935
  505MPD2    H2 7562   2.020   1.367  11.338 -0.5087  0.3787 -1.9074
  505MPD2    H3 7563   2.004   1.549  11.489 -0.1881  0.8719 -1.0073
  505MPD2     N 7564   2.416   1.697  11.384  0.1037  0.1358  0.2410
  505MPD2    H5 7565   2.409   1.759  11.464  0.0606  1.1429 -0.5474
  505MPD2    N1 7566   2.239   1.275  11.205 -0.8717 -0.2833 -0.2266
  505MPD2    H7 7567   2.155   1.221  11.187 -1.3503  0.9830 -1.7379
  506TMC3    C1 7568   2.354   1.127  11.049 -0.0403 -0.4870  0.4398
  506TMC3    C2 7569   2.312   1.191  10.934  0.7246 -0.1232 -0.1184
  506TMC3    C3 7570   2.394   1.189  10.821 -0.0911 -0.2430 -0.0983
  506TMC3    C4 7571   2.476   1.063  11.050 -0.0722 -0.2316 -0.6883
  506TMC3    C5 7572   2.559   1.072  10.943  0.2006 -0.7928  0.6043
  506TMC3    C6 7573   2.521   1.135  10.829  0.4485  0.1796  0.2694
  506TMC3     C 7574   2.362   1.222  11.158  0.6039 -0.2416  0.6323
  506TMC3     O 7575   2.475   1.253  11.175 -0.5115  0.1296  0.1318
  506TMC3     H 7576   2.215   1.239  10.939  0.1135 -1.2816 -0.9217
  506TMC3    H1 7577   2.496   1.017  11.146 -0.0254 -0.2647 -0.7143
  506TMC3    H2 7578   2.580   1.111  10.741 -1.1594 -0.5052 -0.6140
  506TMC3    C7 7579   2.702   1.088  10.970 -0.0591  0.1096 -1.2236
  506TMC3    C8 7580   2.364   1.268  10.706  0.4297 -0.4584  0.3017
  506TMC3    O1 7581   2.771   1.062  10.874  0.0697 -0.4067 -0.3672
  506TMC3    O2 7582   2.246   1.279  10.668 -0.2278 -0.1199  0.6875
  507TMC3    C1 7583   2.908   1.824  14.803  0.2050 -0.6955 -1.0649
  507TMC3    C2 7584   2.820   1.855  14.704 -0.1061  0.9776 -0.5479
  507TMC3    C3 7585   2.822   1.979  14.652  0.3313  0.1075 -0.0921
  507TMC3    C4 7586   2.991   1.923  14.851 -0.5356 -0.1095  0.1203
  507TMC3    C5 7587   2.979   2.051  14.806 -0.0914 -0.3779  0.7426
  507TMC3    C6 7588   2.894   2.083  14.703  0.2432 -0.1969 -0.0280
  507TMC3     C 7589   2.872   1.722  14.897  0.1387  0.3693 -0.8529
  507TMC3     O 7590   2.922   1.730  15.010 -0.1394 -0.1488 -0.3933
  507TMC3     H 7591   2.760   1.782  14.652  1.1669 -0.3598 -0.1302
  507TMC3    H1 7592   3.050   1.904  14.940 -0.3393 -1.2427 -0.2565
  507TMC3    H2 7593   2.887   2.184  14.664  1.4044 -0.1137 -0.0220
  507TMC3    C7 7594   2.982   2.150  14.905 -0.2227  0.1692 -0.5047
  507TMC3    C8 7595   2.685   2.022  14.626 -0.4897  0.2326 -0.0368
  507TMC3    O1 7596   3.092   2.197  14.933  0.1821  0.2863  0.1751
  507TMC3    O2 7597   2.587   1.953  14.663  0.2980  0.6765  0.3551
  508MPD2     C 7598   3.630   3.986  16.078  0.3399  0.9074 -0.7455
  508MPD2    C1 7599   3.754   3.990  16.134 -1.0936  0.2208  0.2459
  508MPD2    C2 7600   3.831   4.104  16.131 -0.7447  0.0136 -0.8393
  508MPD2    C3 7601   3.778   4.222  16.092 -0.2276 -0.0870  0.2832
  508MPD2    C4 7602   3.659   4.214  16.026 -0.2446 -0.0201  0.2505
  508MPD2    C5 7603   3.587   4.098  16.021 -0.3339 -0.4148 -0.2245
  508MPD2     H 7604   3.919   4.106  16.193 -0.8302 -0.4890 -0.6995
  508MPD2    H1 7605   3.598   4.295  15.987  0.0985 -0.0482 -0.3316
  508MPD2    H2 7606   3.565   3.899  16.082  1.4814 -0.0117 -1.8820
  508MPD2    H3 7607   3.490   4.107  15.973 -0.8263 -3.3450  0.2171
  508MPD2     N 7608   3.843   4.347  16.094  0.3538  0.2177  0.7745
  508MPD2    H5 7609   3.789   4.424  16.055  0.5481 -0.1110 -0.1350
  508MPD2    N1 7610   3.789   3.878  16.214  0.3019  0.3184  0.4057
  508MPD2    H7 7611   3.730   3.795  16.212 -1.1896  1.3728  0.7227
  509TMC3    C1 7612   3.912   0.005  16.104 -0.9351 -0.2317 -0.2389
  509TMC3    C2 7613   4.004   0.034  16.006 -0.4773  0.3650 -0.1344
  509TMC3    C3 7614   4.095   4.668  15.981 -0.0575 -0.0391 -0.2247
  509TMC3    C4 7615   3.899   4.615  16.160 -0.3999 -0.1262  0.0935
  509TMC3    C5 7616   3.990   4.517  16.121  0.5162  0.1940 -0.1234
  509TMC3    C6 7617   4.091   4.544  16.033 -0.3213 -0.0336  0.4401
  509TMC3     C 7618   3.796   0.085  16.087 -0.0825  1.5102  0.1486
  509TMC3     O 7619   3.725   0.109  16.180 -0.3773 -0.3704  0.3111
  509TMC3     H 7620   4.021   0.136  15.976 -0.9878  0.6272  0.4622
  509TMC3    H1 7621   3.802   4.603  16.207  0.0025  3.0110  1.7220
  509TMC3    H2 7622   4.152   4.457  16.012  1.2356  0.7035  1.8843
  509TMC3    C7 7623   3.961   4.378  16.145  0.4233  0.1059  0.2218
  509TMC3    C8 7624   4.216   4.683  15.905 -1.2726  0.2937 -0.1383
  509TMC3    O1 7625   4.047   4.300  16.182 -0.3830  0.1303 -0.2480
  509TMC3    O2 7626   4.264   4.585  15.854 -0.2691  0.3371  0.0816
  510MPD2     C 7627   1.389   1.146  14.672  0.5804  0.6409 -0.0355
  510MPD2    C1 7628   1.388   1.012  14.652  0.2677 -0.5594  0.2488
  510MPD2    C2 7629   1.502   0.947  14.600 -0.1147 -0.1924 -0.6233
  510MPD2    C3 7630   1.611   1.021  14.555  0.0388  0.4246  0.0120
  510MPD2    C4 7631   1.602   1.151  14.564  0.3291 -0.8133  0.2339
  510MPD2    C5 7632   1.493   1.209  14.612  0.0459 -0.3516 -0.6567
  510MPD2     H 7633   1.496   0.840  14.585  2.3513 -0.4746  0.3207
  510MPD2    H1 7634   1.671   1.218  14.513  0.3905 -0.4341  0.8217
  510MPD2    H2 7635   1.296   1.198  14.688  0.4719  0.3220  0.3856
  510MPD2    H3 7636   1.494   1.318  14.615  0.7149 -0.4013  0.7202
  510MPD2     N 7637   1.725   0.955  14.495 -0.0121  0.0360 -0.6605
  510MPD2    H5 7638   1.722   0.854  14.501 -1.4726  0.2343  2.3411
  510MPD2    N1 7639   1.274   0.947  14.714 -0.0930  0.4579  0.8672
  510MPD2    H7 7640   1.200   0.988  14.771 -1.1356  0.4280 -0.4452
  511TMC3    C1 7641   1.167   0.752  14.779 -0.5400  0.0033 -0.5071
  511TMC3    C2 7642   1.135   0.807  14.895 -0.6924  0.7142  0.3256
  511TMC3    C3 7643   1.036   0.740  14.967  0.4149 -0.5093 -0.3127
  511TMC3    C4 7644   1.105   0.646  14.727 -0.5261 -1.1341 -0.6332
  511TMC3    C5 7645   1.013   0.580  14.798 -0.3498 -0.0926  0.2015
  511TMC3    C6 7646   0.978   0.629  14.925 -0.2944 -0.8219 -0.3406
  511TMC3     C 7647   1.258   0.810  14.690 -0.3888 -0.3408  0.0431
  511TMC3     O 7648   1.315   0.739  14.606  0.0818 -0.2661 -0.8156
  511TMC3     H 7649   1.187   0.895  14.932  0.5959 -0.7480  2.0038
  511TMC3    H1 7650   1.134   0.598  14.634  0.8525 -1.2146 -0.1525
  511TMC3    H2 7651   0.892   0.586  14.975  1.3972 -2.0644  1.4742
  511TMC3    C7 7652   0.948   0.458  14.748  0.2449 -0.5795 -0.2952
  511TMC3    C8 7653   0.995   0.798  15.093 -0.6286 -0.0087  0.3985
  511TMC3    O1 7654   0.934   0.445  14.631 -0.8289 -0.3221  0.0972
  511TMC3    O2 7655   1.002   0.916  15.101  0.4622  0.2161  0.2646
  512TMC3    C1 7656   0.364   0.530  13.250  0.1619 -0.0580 -0.5662
  512TMC3    C2 7657   0.477   0.518  13.325  0.0428  0.1027  0.9198
  512TMC3    C3 7658   0.560   0.407  13.303 -0.8351  0.0971 -0.4169
  512TMC3    C4 7659   0.329   0.439  13.156 -0.1030 -0.0587 -0.0892
  512TMC3    C5 7660   0.409   0.326  13.146 -0.1738 -0.1031  0.6391
  512TMC3    C6 7661   0.515   0.296  13.232 -0.0608  0.5081 -0.6819
  512TMC3     C 7662   0.290   0.661  13.231 -0.2623 -0.0887  0.1507
  512TMC3     O 7663   0.346   0.767  13.254  0.4188  0.1537 -0.1799
  512TMC3     H 7664   0.484   0.589  13.406  1.4232  1.2050 -0.1813
  512TMC3    H1 7665   0.244   0.451  13.089  0.2407 -0.3954 -0.5790
  512TMC3    H2 7666   0.578   0.208  13.225 -1.3734 -0.5051  0.2662
  512TMC3    C7 7667   0.401   0.259  13.018  0.0921 -0.4696 -1.0751
  512TMC3    C8 7668   0.661   0.382  13.399 -0.2364  0.7102 -0.5305
  512TMC3    O1 7669   0.338   0.309  12.929 -0.5975  0.1330  0.1675
  512TMC3    O2 7670   0.697   0.267  13.417 -0.4411  0.1294 -0.1015
  513MPD2     C 7671   2.342   0.537  12.943  0.5625  0.1796 -0.4092
  513MPD2    C1 7672   2.358   0.408  12.901  0.0432  0.1743  0.0916
  513MPD2    C2 7673   2.468   0.343  12.962 -0.3864 -0.3153  0.5150
  513MPD2    C3 7674   2.549   0.395  13.062  0.0398 -0.3088  0.4423
  513MPD2    C4 7675   2.526   0.525  13.102 -0.8883  0.7606  0.7139
  513MPD2    C5 7676   2.422   0.594  13.042  0.1445 -0.3725 -0.3358
  513MPD2     H 7677   2.493   0.240  12.942 -1.0516 -0.2344 -0.7182
  513MPD2    H1 7678   2.578   0.576  13.183  0.8538 -0.5359  0.4002
  513MPD2    H2 7679   2.264   0.609  12.918 -1.1651 -1.3709  0.5661
  513MPD2    H3 7680   2.397   0.684  13.097 -1.1852 -0.9950  0.0890
  513MPD2     N 7681   2.649   0.315  13.110  0.2430  0.3677  0.4042
  513MPD2    H5 7682   2.658   0.222  13.069  0.6140  0.7384 -0.3655
  513MPD2    N1 7683   2.272   0.353  12.806  0.1094 -0.4053  0.0179
  513MPD2    H7 7684   2.199   0.416  12.776  0.1877 -0.4108 -0.1854
  514TMC3    C1 7685   2.232   0.224  12.610 -0.4630 -0.2239 -0.2680
  514TMC3    C2 7686   2.241   0.340  12.534  0.4892  0.3120 -0.0761
  514TMC3    C3 7687   2.265   0.325  12.407 -0.3998  0.0956  0.4178
  514TMC3    C4 7688   2.253   0.101  12.560 -0.0679  1.1591  0.4602
  514TMC3    C5 7689   2.307   0.093  12.438 -0.4481  0.0846  1.0489
  514TMC3    C6 7690   2.309   0.205  12.355  0.4943  0.6542  0.6140
  514TMC3     C 7691   2.284   0.230  12.745  0.0002 -0.7204 -0.3271
  514TMC3     O 7692   2.349   0.127  12.771 -0.2251 -0.2659  0.1465
  514TMC3     H 7693   2.221   0.435  12.582 -3.1060 -1.5293  2.1092
  514TMC3    H1 7694   2.254   0.013  12.623 -1.4104  2.3005  2.0542
  514TMC3    H2 7695   2.344   0.203  12.253 -0.4738 -0.8012  0.3163
  514TMC3    C7 7696   2.430   0.016  12.426 -0.1026  0.0870  0.0285
  514TMC3    C8 7697   2.292   0.455  12.342  0.4762 -0.0886  0.0895
  514TMC3    O1 7698   2.477   4.725  12.319  0.0432 -0.7584  0.7366
  514TMC3    O2 7699   2.326   0.548  12.419 -0.2141 -0.7641  0.4676
  515MPD2     C 7700   0.240   2.334  14.390 -0.6028  1.1770 -1.0935
  515MPD2    C1 7701   0.356   2.263  14.393  0.2251 -0.2127  0.2640
  515MPD2    C2 7702   0.460   2.296  14.477 -0.1097  0.4972 -0.5683
  515MPD2    C3 7703   0.454   2.410  14.551  0.0212 -0.2494  0.2455
  515MPD2    C4 7704   0.343   2.491  14.553 -0.4216 -0.5791 -0.0043
  515MPD2    C5 7705   0.243   2.449  14.470 -0.7039  0.2238 -0.7028
  515MPD2     H 7706   0.540   2.224  14.485  0.3501  0.9033 -1.4574
  515MPD2    H1 7707   0.344   2.583  14.611 -0.7749 -2.0009  2.2626
  515MPD2    H2 7708   0.145   2.319  14.340  0.1002  0.7973 -2.3132
  515MPD2    H3 7709   0.147   2.499  14.473 -0.9805 -0.3181 -0.4680
  515MPD2     N 7710   0.560   2.450  14.638  0.1146 -0.3514 -0.8036
  515MPD2    H5 7711   0.549   2.538  14.686 -1.9089  0.9719 -3.6989
  515MPD2    N1 7712   0.374   2.147  14.310 -0.3850 -0.1481 -0.5609
  515MPD2    H7 7713   0.465   2.101  14.312 -0.2834  0.1255  1.1557
  516TMC3    C1 7714   0.332   1.988  14.138 -0.4694 -0.1208  0.4346
  516TMC3    C2 7715   0.249   1.987  14.031  0.1541  0.0803  0.1044
  516TMC3    C3 7716   0.173   1.877  14.009  0.6589 -0.3816 -0.2676
  516TMC3    C4 7717   0.352   1.877  14.219 -0.7998  0.3111  0.0736
  516TMC3    C5 7718   0.274   1.770  14.194  0.1933 -0.4447 -0.8726
  516TMC3    C6 7719   0.190   1.764  14.091  0.2999 -0.0857 -0.4003
  516TMC3     C 7720   0.285   2.094  14.222  0.5879 -0.0226 -0.2722
  516TMC3     O 7721   0.182   2.143  14.180  0.0480  0.2202  0.6754
  516TMC3     H 7722   0.250   2.079  13.974 -1.8247 -0.1858 -0.3576
  516TMC3    H1 7723   0.407   1.887  14.312  1.2536  0.5045 -1.1586
  516TMC3    H2 7724   0.125   1.682  14.064  1.1011 -0.9882  0.4591
  516TMC3    C7 7725   0.273   1.673  14.300  0.4559  0.0343 -0.2963
  516TMC3    C8 7726   0.045   1.898  13.952  0.1826 -0.3596 -0.3410
  516TMC3    O1 7727   0.374   1.669  14.371 -0.5917 -0.5214 -0.7258
  516TMC3    O2 7728   4.694   1.832  14.005  0.2404  0.2579  0.1103
  517MPD2     C 7729   4.415   3.548  17.702 -0.3673  0.6097  0.7658
  517MPD2    C1 7730   4.525   3.497   0.020  0.6528  0.4325  1.0814
  517MPD2    C2 7731   4.575   3.564   0.132  0.0780 -0.8376 -0.1932
  517MPD2    C3 7732   4.502   3.667   0.191 -1.0890 -0.1573 -0.2296
  517MPD2    C4 7733   4.390   3.716   0.122 -0.2212 -0.2927 -0.6592
  517MPD2    C5 7734   4.346   3.654   0.016  0.0680  0.9894  0.3388
  517MPD2     H 7735   4.657   3.517   0.184  1.8459  1.4155 -0.9753
  517MPD2    H1 7736   4.325   3.790   0.168  2.5140  1.1194  0.9700
  517MPD2    H2 7737   4.372   3.492  17.620  0.0188 -0.8777  1.5766
  517MPD2    H3 7738   4.258   3.688  17.709  0.4380  0.4790 -0.5891
  517MPD2     N 7739   4.534   3.726   0.315  0.4439  0.0302 -0.3397
  517MPD2    H5 7740   4.492   3.816   0.336  0.4601 -0.2546  0.8809
  517MPD2    N1 7741   4.594   3.377  17.721  0.7176 -0.3308 -0.3475
  517MPD2    H7 7742   4.685   3.355   0.012  0.6525  0.6867  0.3970
  518TMC3    C1 7743   4.648   3.181  17.615 -0.6986  0.1457 -0.4611
  518TMC3    C2 7744   4.619   3.052  17.629  0.5560  0.2263 -0.1770
  518TMC3    C3 7745   4.728   2.969  17.621 -0.2466 -0.4952  0.2310
  518TMC3    C4 7746   0.031   3.240  17.590 -0.6525  0.3431  0.0273
  518TMC3    C5 7747   0.136   3.151  17.574 -0.8099 -0.4805  0.4000
  518TMC3    C6 7748   0.117   3.015  17.597 -0.2907  0.2063 -1.0888
  518TMC3     C 7749   4.540   3.272  17.647 -0.2537  0.5617  0.8560
  518TMC3     O 7750   4.425   3.237  17.629 -0.0810  0.7081 -0.5145
  518TMC3     H 7751   4.516   3.019  17.628  0.3513  0.8681 -1.1509
  518TMC3    H1 7752   0.035   3.342  17.555 -0.3601 -0.1503 -1.3753
  518TMC3    H2 7753   0.199   2.944  17.589 -1.3232 -0.8358 -2.4371
  518TMC3    C7 7754   0.227   3.174  17.466 -0.0162  0.3293  0.4338
  518TMC3    C8 7755   4.704   2.825  17.579 -0.1490 -0.1522  0.3297
  518TMC3    O1 7756   0.255   3.290  17.447  0.0415  0.6912 -0.7929
  518TMC3    O2 7757   0.056   2.788  17.508  0.5137 -0.1061  0.1567
  519MPD2     C 7758   1.669   2.035  14.436  0.0213 -0.3960 -0.2226
  519MPD2    C1 7759   1.683   2.026  14.296  0.6451  0.3569 -0.1855
  519MPD2    C2 7760   1.765   1.938  14.238 -0.7200  0.0770  0.3085
  519MPD2    C3 7761   1.838   1.850  14.324  0.1351 -0.9909 -0.4408
  519MPD2    C4 7762   1.821   1.849  14.462 -0.4793 -0.0001  0.5635
  519MPD2    C5 7763   1.741   1.948  14.516  0.4669  0.0943 -0.1339
  519MPD2     H 7764   1.773   1.941  14.129  2.5677  3.1176  0.6321
  519MPD2    H1 7765   1.879   1.782  14.525 -0.8455 -0.6195  0.2524
  519MPD2    H2 7766   1.599   2.105  14.480  1.3667  0.9356 -0.2297
  519MPD2    H3 7767   1.720   1.954  14.622  2.6661  0.3914  0.2751
  519MPD2     N 7768   1.926   1.750  14.266  0.1435  0.4952  0.3731
  519MPD2    H5 7769   1.970   1.685  14.331 -1.4279 -0.7568  0.2048
  519MPD2    N1 7770   1.614   2.122  14.222 -0.2808  0.2880  0.9267
  519MPD2    H7 7771   1.553   2.190  14.266 -2.6025 -0.4106 -1.2166
  520TMC3    C1 7772   1.972   1.589  14.091  0.7487  0.2243 -0.2888
  520TMC3    C2 7773   1.929   1.553  13.965  0.4565  0.6684 -0.4114
  520TMC3    C3 7774   1.990   1.453  13.893 -0.3734 -0.0173 -0.7867
  520TMC3    C4 7775   2.069   1.516  14.155 -0.0608  0.2725  0.0883
  520TMC3    C5 7776   2.136   1.425  14.077 -0.4212  0.1550 -0.4009
  520TMC3    C6 7777   2.102   1.397  13.948  0.3431  0.2030  0.3480
  520TMC3     C 7778   1.949   1.728  14.136 -0.3684  0.3027  0.1174
  520TMC3     O 7779   1.908   1.801  14.044  0.1117  0.2817  0.1431
  520TMC3     H 7780   1.846   1.607  13.920  0.6667  0.8278 -0.6087
  520TMC3    H1 7781   2.100   1.547  14.254  3.3138 -0.0321 -0.8986
  520TMC3    H2 7782   2.152   1.321  13.889  0.2620 -0.0128  0.5602
  520TMC3    C7 7783   2.239   1.340  14.135  0.6333  0.3733  0.4719
  520TMC3    C8 7784   1.963   1.425  13.757  0.2733  0.7232 -0.4027
  520TMC3    O1 7785   2.241   1.329  14.254 -0.3036  0.3630  0.2969
  520TMC3    O2 7786   2.049   1.368  13.696  0.0832  0.1875 -0.6104
  521MPD2     C 7787   2.878   4.589  17.508  0.4511 -0.1524 -0.0551
  521MPD2    C1 7788   2.800   4.602  17.399  0.1709 -0.0865  0.7395
  521MPD2    C2 7789   2.851   4.595  17.269  0.0059  0.5291 -0.0781
  521MPD2    C3 7790   2.984   4.553  17.254  0.4536  0.1266 -0.9145
  521MPD2    C4 7791   3.056   4.522  17.372 -0.2584  0.1572 -0.3411
  521MPD2    C5 7792   3.005   4.543  17.491  0.7982  0.5229  0.5912
  521MPD2     H 7793   2.793   4.606  17.179  0.9270  2.1832 -0.4732
  521MPD2    H1 7794   3.159   4.491  17.370 -0.6654 -1.2888  1.0493
  521MPD2    H2 7795   2.840   4.585  17.609 -0.4318 -1.9097 -0.4503
  521MPD2    H3 7796   3.062   4.529  17.582  0.3388  3.0179  1.2579
  521MPD2     N 7797   3.027   4.527  17.125  0.3780 -0.0081 -0.1330
  521MPD2    H5 7798   2.971   4.556  17.045  0.3679 -0.5930 -0.3363
  521MPD2    N1 7799   2.664   4.627  17.424 -0.3808 -0.5513  0.5842
  521MPD2    H7 7800   2.641   4.603  17.520  0.9693  2.5685  1.6911
  522TMC3    C1 7801   3.188   4.480  16.953  0.5136 -0.3285  0.2197
  522TMC3    C2 7802   3.298   4.404  16.924 -0.4176 -0.2560  0.0638
  522TMC3    C3 7803   3.375   4.438  16.815  0.4514 -0.8651 -0.0655
  522TMC3    C4 7804   3.152   4.590  16.884 -0.0915  0.5994 -0.1236
  522TMC3    C5 7805   3.240   4.623  16.785  0.8342 -0.0693 -0.3694
  522TMC3    C6 7806   3.353   4.556  16.760  0.4490  0.4710  0.4111
  522TMC3     C 7807   3.147   4.469  17.097  0.9050  0.3915  0.2098
  522TMC3     O 7808   3.203   4.383  17.164  0.2403  0.3045  0.3929
  522TMC3     H 7809   3.319   4.320  16.990  0.4115 -1.1029 -1.2762
  522TMC3    H1 7810   3.064   4.649  16.905 -0.5916 -0.2721  0.2297
  522TMC3    H2 7811   3.430   4.590  16.692  2.3807 -1.0874  1.8257
  522TMC3    C7 7812   3.220   0.003  16.699 -0.7085  0.4049 -0.1741
  522TMC3    C8 7813   3.512   4.390  16.835  0.9370  0.5278 -0.0467
  522TMC3    O1 7814   3.315   0.060  16.653 -0.4767 -0.4395 -0.1926
  522TMC3    O2 7815   3.583   4.480  16.883  0.2093 -0.2200 -0.1598
  523MPD2     C 7816   0.989   4.729  10.543  0.4331 -0.5157  0.2316
  523MPD2    C1 7817   0.878   4.697  10.463 -0.0991 -0.0291  0.2493
  523MPD2    C2 7818   0.796   0.054  10.404  0.1226 -0.3740 -0.2461
  523MPD2    C3 7819   0.835   0.190  10.421 -0.9035 -0.1030 -0.1781
  523MPD2    C4 7820   0.950   0.218  10.489  0.0622 -0.7872 -0.1013
  523MPD2    C5 7821   1.029   0.121  10.540 -0.2701  0.3714  0.3575
  523MPD2     H 7822   0.715   0.021  10.340  2.5595 -2.7719 -2.0707
  523MPD2    H1 7823   0.988   0.317  10.470 -1.5505 -0.4476 -1.5033
  523MPD2    H2 7824   1.055   4.655  10.586  1.0962  1.9454  3.5115
  523MPD2    H3 7825   1.123   0.145  10.588  0.0884  0.3882 -0.3551
  523MPD2     N 7826   0.765   0.305  10.368  0.8038 -0.5333 -0.2329
  523MPD2    H5 7827   0.794   0.395  10.404  0.2851 -0.5787  0.3039
  523MPD2    N1 7828   0.852   4.561  10.448  0.3376 -0.2746  0.2060
  523MPD2    H7 7829   0.917   4.493  10.487  0.4056 -0.4927 -0.2788
  524TMC3    C1 7830   0.600   0.426  10.257 -0.4793 -0.1853 -0.2694
  524TMC3    C2 7831   0.663   0.551  10.275  0.4150  0.4450  0.1438
  524TMC3    C3 7832   0.609   0.666  10.218  0.2541  0.2646 -0.1125
  524TMC3    C4 7833   0.480   0.422  10.188 -0.4264  0.1399  0.3300
  524TMC3    C5 7834   0.427   0.541  10.145 -0.5032  0.6447 -0.0192
  524TMC3    C6 7835   0.488   0.666  10.154 -0.2471 -0.5630 -0.2068
  524TMC3     C 7836   0.658   0.298  10.280  0.5848  0.0429  0.0258
  524TMC3     O 7837   0.605   0.196  10.240  0.2887 -0.0926 -0.1173
  524TMC3     H 7838   0.762   0.540  10.319  0.8416 -0.8695 -1.1473
  524TMC3    H1 7839   0.435   0.328  10.157 -1.5082  1.1038 -1.0310
  524TMC3    H2 7840   0.456   0.763  10.118  1.2660 -0.0980 -0.3033
  524TMC3    C7 7841   0.281   0.540  10.126 -0.4470  0.2146 -0.2105
  524TMC3    C8 7842   0.667   0.797  10.258  0.0249 -0.4280 -0.7405
  524TMC3    O1 7843   0.228   0.432  10.145 -0.2424 -0.1270 -0.2220
  524TMC3    O2 7844   0.622   0.898  10.201 -0.1423 -0.1475  0.7361
  525MPD2     C 7845   3.560   1.002  14.811 -0.1733 -0.7083  0.3531
  525MPD2    C1 7846   3.476   1.041  14.916 -0.0934 -0.0186  0.0930
  525MPD2    C2 7847   3.427   1.166  14.920 -0.3441  0.4837  0.6519
  525MPD2    C3 7848   3.466   1.256  14.820  0.5284 -0.7233 -0.2046
  525MPD2    C4 7849   3.550   1.215  14.716 -0.0328  0.0663  1.1453
  525MPD2    C5 7850   3.595   1.085  14.706  0.5880 -0.2682 -0.1811
  525MPD2     H 7851   3.372   1.210  15.002 -2.4382 -0.1726 -0.3859
  525MPD2    H1 7852   3.580   1.282  14.636  2.6406 -1.6850  0.6927
  525MPD2    H2 7853   3.588   0.898  14.800 -0.2311 -0.3770 -2.6770
  525MPD2    H3 7854   3.667   1.049  14.633  0.3641  1.4326 -1.2234
  525MPD2     N 7855   3.421   1.392  14.835 -0.0927 -0.1051 -0.5845
  525MPD2    H5 7856   3.368   1.417  14.919  1.1186 -0.6160  0.3378
  525MPD2    N1 7857   3.458   0.944  15.014 -0.6650 -0.5115  0.5423
  525MPD2    H7 7858   3.509   0.859  14.992  0.4951  0.6803 -1.3808
  526TMC3    C1 7859   3.375   0.840  15.209 -0.3032 -0.5402  0.2525
  526TMC3    C2 7860   3.297   0.847  15.323 -0.5526  0.2790  0.0952
  526TMC3    C3 7861   3.322   0.760  15.421  0.1569 -0.2339 -0.0249
  526TMC3    C4 7862   3.462   0.735  15.184  0.1507 -0.6790  0.1505
  526TMC3    C5 7863   3.484   0.653  15.291  0.6860 -0.7319  0.3038
  526TMC3    C6 7864   3.417   0.658  15.414  0.0709 -0.1087 -0.3731
  526TMC3     C 7865   3.377   0.958  15.122 -0.0952 -0.1837  0.2796
  526TMC3     O 7866   3.313   1.059  15.161 -0.3404  0.1899 -0.4300
  526TMC3     H 7867   3.231   0.932  15.338  0.8929  1.4580 -0.2155
  526TMC3    H1 7868   3.515   0.726  15.090  1.0557  0.3039  0.5759
  526TMC3    H2 7869   3.434   0.593  15.499 -0.1599 -0.8929 -0.9218
  526TMC3    C7 7870   3.582   0.538  15.274 -0.0865  0.3450  0.3028
  526TMC3    C8 7871   3.264   0.786  15.554 -0.2397  0.2487  0.4740
  526TMC3    O1 7872   3.589   0.459  15.365 -0.1168  0.1195 -0.5758
  526TMC3    O2 7873   3.323   0.739  15.646 -0.4038  0.0411 -0.2953
  527MPD2     C 7874   1.334   3.979   1.487 -1.2814  0.3204 -0.3166
  527MPD2    C1 7875   1.333   3.995   1.347  0.0793  0.4551  0.6375
  527MPD2    C2 7876   1.454   4.014   1.287 -0.9556 -0.1910 -0.0995
  527MPD2    C3 7877   1.574   4.011   1.351 -0.1222  0.6279 -0.1608
  527MPD2    C4 7878   1.572   4.003   1.486  0.0988 -0.2349  0.1659
  527MPD2    C5 7879   1.452   3.992   1.555 -0.4168  0.2260 -0.1134
  527MPD2     H 7880   1.442   4.022   1.179  0.7694  2.0635 -0.1329
  527MPD2    H1 7881   1.667   4.013   1.536 -0.8507  0.0860  1.8861
  527MPD2    H2 7882   1.243   3.969   1.546 -0.2278  0.5439  1.3340
  527MPD2    H3 7883   1.458   3.979   1.662 -0.2506 -0.5647 -0.2156
  527MPD2     N 7884   1.689   4.027   1.275 -0.0901 -0.7879 -0.1841
  527MPD2    H5 7885   1.672   4.041   1.175 -1.7974  0.3198  0.2539
  527MPD2    N1 7886   1.215   3.985   1.274 -0.4069  0.2229  0.6671
  527MPD2    H7 7887   1.228   4.023   1.181 -1.2504  2.4394  1.4545
  528TMC3    C1 7888   0.979   3.944   1.221 -0.2678 -0.2373 -0.2370
  528TMC3    C2 7889   0.994   3.970   1.084 -0.3530  0.1886 -0.8212
  528TMC3    C3 7890   0.896   3.986   0.995 -0.4287 -0.4098 -0.0868
  528TMC3    C4 7891   0.853   3.929   1.276  0.7856  0.7484 -0.0624
  528TMC3    C5 7892   0.749   3.945   1.182  0.3394 -0.7632  0.1260
  528TMC3    C6 7893   0.771   3.984   1.048  0.8945  0.0544 -0.2145
  528TMC3     C 7894   1.092   3.934   1.318 -0.1242  0.1293 -0.6939
  528TMC3     O 7895   1.066   3.875   1.423 -0.4049  1.0031  0.0415
  528TMC3     H 7896   1.097   3.964   1.050 -0.6099  1.2755 -1.8152
  528TMC3    H1 7897   0.844   3.905   1.381 -1.9077 -0.4947 -0.6017
  528TMC3    H2 7898   0.683   3.988   0.985 -0.0897 -1.0416  1.0819
  528TMC3    C7 7899   0.613   3.954   1.231  0.4097  0.0277  0.0801
  528TMC3    C8 7900   0.929   3.998   0.852  0.8934 -0.3855  0.3514
  528TMC3    O1 7901   0.525   4.000   1.159 -0.3081 -0.0720  0.6286
  528TMC3    O2 7902   1.041   4.042   0.827  0.1538  0.0963  0.3075
  529MPD2     C 7903   3.326   2.346   0.922 -0.6115  0.4709 -0.1554
  529MPD2    C1 7904   3.377   2.286   0.807 -0.1108 -0.5749 -0.2917
  529MPD2    C2 7905   3.340   2.338   0.680 -0.6149 -0.0553  0.3868
  529MPD2    C3 7906   3.276   2.460   0.671 -0.5639 -0.7790  0.0874
  529MPD2    C4 7907   3.247   2.524   0.788 -0.0419 -0.1345  0.1591
  529MPD2    C5 7908   3.254   2.461   0.910 -0.7459 -0.0732 -0.7193
  529MPD2     H 7909   3.366   2.295   0.584 -0.2719  0.4709  0.2415
  529MPD2    H1 7910   3.203   2.623   0.784 -2.3518 -1.1822 -0.2765
  529MPD2    H2 7911   3.338   2.306   1.021 -1.5427  1.3853  0.3337
  529MPD2    H3 7912   3.224   2.507   1.003  0.9545  0.1782 -0.2966
  529MPD2     N 7913   3.240   2.514   0.543 -0.5756  0.2781  0.4069
  529MPD2    H5 7914   3.283   2.475   0.460  0.1048  1.5171  0.1822
  529MPD2    N1 7915   3.452   2.167   0.804 -0.1242 -0.3068  0.1272
  529MPD2    H7 7916   3.460   2.137   0.707  0.1893 -0.4545  0.2000
  530TMC3    C1 7917   3.572   1.972   0.861 -0.4803 -0.5024 -0.0698
  530TMC3    C2 7918   3.696   1.943   0.919  0.2458  0.2612  0.1712
  530TMC3    C3 7919   3.749   1.817   0.888  0.0875  0.4610 -0.1558
  530TMC3    C4 7920   3.508   1.893   0.775  0.0399  0.1070  0.8287
  530TMC3    C5 7921   3.571   1.774   0.741 -0.3388  0.6140 -0.3196
  530TMC3    C6 7922   3.688   1.730   0.792  0.0240 -0.6469  0.0306
  530TMC3     C 7923   3.518   2.101   0.902  1.0073  0.4009  0.4397
  530TMC3     O 7924   3.523   2.131   1.019  0.5392 -0.5324  0.3424
  530TMC3     H 7925   3.754   2.017   0.973  0.0091  1.4821 -1.2599
  530TMC3    H1 7926   3.413   1.920   0.729  0.8927  0.1474 -0.8924
  530TMC3    H2 7927   3.735   1.635   0.768  1.4480  0.1561 -0.3483
  530TMC3    C7 7928   3.482   1.668   0.688  0.2185 -0.0422 -0.5143
  530TMC3    C8 7929   3.877   1.765   0.946  0.3541  0.5393  0.1748
  530TMC3    O1 7930   3.429   1.689   0.584  0.0652  0.1101 -0.1914
  530TMC3    O2 7931   3.950   1.693   0.880 -0.5521 -0.0885 -0.1118
  531MPD2     C 7932   2.902   4.702  12.616  0.5416  0.2831 -0.1007
  531MPD2    C1 7933   2.821   0.007  12.717 -1.1646 -0.1068  1.1562
  531MPD2    C2 7934   2.688   0.021  12.694 -0.2568  0.3078  0.6351
  531MPD2    C3 7935   2.630   4.714  12.574  0.0612 -0.1679  0.1497
  531MPD2    C4 7936   2.710   4.660  12.479  0.4669  0.5242 -0.4371
  531MPD2    C5 7937   2.845   4.658  12.499  0.2793 -0.7185  0.4568
  531MPD2     H 7938   2.633   0.074  12.771  0.4218  0.2004  1.1962
  531MPD2    H1 7939   2.666   4.622  12.388  1.2662 -0.8360 -0.2530
  531MPD2    H2 7940   3.010   4.690  12.619  0.7184  1.5951 -1.1332
  531MPD2    H3 7941   2.912   4.620  12.422 -2.5967  0.1332 -2.4528
  531MPD2     N 7942   2.496   0.009  12.552 -0.3954 -0.7075  0.2738
  531MPD2    H5 7943   2.450   0.067  12.622 -1.9835 -0.6139 -0.8488
  531MPD2    N1 7944   2.869   0.051  12.843  0.2714 -0.4622 -0.4380
  531MPD2    H7 7945   2.793   0.089  12.898  0.1830  1.2385 -1.7295
  532TMC3    C1 7946   2.996   0.135  13.018  0.2073 -0.0331  0.9390
  532TMC3    C2 7947   2.888   0.220  13.043 -0.4583  0.2636 -0.0204
  532TMC3    C3 7948   2.870   0.265  13.172 -0.4636 -0.3098 -0.2841
  532TMC3    C4 7949   3.079   0.099  13.123  0.7679 -0.1636 -0.4708
  532TMC3    C5 7950   3.055   0.153  13.248  0.1607  1.3865  0.5217
  532TMC3    C6 7951   2.945   0.232  13.279  0.1488  0.3516 -0.7125
  532TMC3     C 7952   2.998   0.060  12.892 -0.3530  0.0344 -0.0644
  532TMC3     O 7953   3.098   4.730  12.863 -0.8753 -0.4536 -0.2717
  532TMC3     H 7954   2.841   0.265  12.957  1.2152 -2.3584 -2.3137
  532TMC3    H1 7955   3.164   0.034  13.107  0.3415 -0.9430  0.4405
  532TMC3    H2 7956   2.912   0.260  13.378 -0.4157 -0.8255 -0.5722
  532TMC3    C7 7957   3.105   0.073  13.360 -0.5524 -0.3292  0.1115
  532TMC3    C8 7958   2.753   0.358  13.192  0.2678 -0.1887 -0.3844
  532TMC3    O1 7959   3.131   0.134  13.466 -0.0643 -0.8083  0.3603
  532TMC3    O2 7960   2.757   0.453  13.270  0.1933 -0.2012 -1.3001
  533TMC3    C1 7961   3.392   1.616  14.798  0.0311 -0.5472 -0.3662
  533TMC3    C2 7962   3.484   1.723  14.787  0.9379  0.1679  0.3006
  533TMC3    C3 7963   3.476   1.815  14.880  0.3170 -0.1317  0.2641
  533TMC3    C4 7964   3.287   1.612  14.883 -0.5344  0.1061 -0.1488
  533TMC3    C5 7965   3.285   1.711  14.976 -0.5867 -0.4675 -0.0180
  533TMC3    C6 7966   3.383   1.801  14.980 -0.1305 -0.3499 -0.1287
  533TMC3     C 7967   3.438   1.491  14.744 -0.3775  0.1843 -0.0459
  533TMC3     O 7968   3.506   1.497  14.645  0.1275 -0.5417  0.2421
  533TMC3     H 7969   3.565   1.722  14.716  0.2177  0.2991 -0.5261
  533TMC3    H1 7970   3.209   1.540  14.864 -0.6401  0.5599 -1.4553
  533TMC3    H2 7971   3.395   1.858  15.071  2.3463 -0.0638 -0.6213
  533TMC3    C7 7972   3.213   1.680  15.093  0.2402  0.2581 -0.0453
  533TMC3    C8 7973   3.579   1.922  14.883 -0.3139 -0.0434  0.8156
  533TMC3    O1 7974   3.187   1.563  15.113 -0.2046 -0.1204 -0.2632
  533TMC3    O2 7975   3.677   1.898  14.815  0.6024 -0.1870  0.4020
  534MPD2     C 7976   1.358   2.279   0.768  0.2356 -0.5019  0.8995
  534MPD2    C1 7977   1.332   2.389   0.849  0.4041  0.3640 -0.2652
  534MPD2    C2 7978   1.207   2.440   0.853 -0.0265  0.2480 -0.5131
  534MPD2    C3 7979   1.106   2.392   0.775  1.0340  0.2843  0.4475
  534MPD2    C4 7980   1.134   2.287   0.695 -0.1686  0.1463 -0.1415
  534MPD2    C5 7981   1.256   2.227   0.703  0.0280 -0.2041 -0.3044
  534MPD2     H 7982   1.187   2.526   0.916 -0.0911  0.0557 -0.2708
  534MPD2    H1 7983   1.048   2.252   0.639  1.4620 -2.0803 -1.2207
  534MPD2    H2 7984   1.453   2.228   0.763  1.0070  1.2215 -2.0899
  534MPD2    H3 7985   1.276   2.134   0.650 -1.0139 -0.1220 -0.8437
  534MPD2     N 7986   0.973   2.437   0.778  0.2810 -0.6032 -0.1438
  534MPD2    H5 7987   0.894   2.401   0.726  0.1588  1.3982 -1.3468
  534MPD2    N1 7988   1.441   2.454   0.917 -0.7057 -0.2296 -0.6010
  534MPD2    H7 7989   1.416   2.533   0.976  0.4012  0.4251 -1.0183
  535TMC3    C1 7990   0.794   2.565   0.823 -0.1306  0.4431  0.2265
  535TMC3    C2 7991   0.695   2.532   0.909  0.1225 -0.2537  0.3140
  535TMC3    C3 7992   0.572   2.503   0.856 -0.2173  0.1107  0.5284
  535TMC3    C4 7993   0.776   2.567   0.687 -0.3107 -0.6874  0.7038
  535TMC3    C5 7994   0.654   2.534   0.638  0.4860  0.4852 -0.0456
  535TMC3    C6 7995   0.545   2.500   0.718 -0.1298 -0.4422 -0.2795
  535TMC3     C 7996   0.928   2.534   0.864 -0.2770  0.3325 -0.5890
  535TMC3     O 7997   0.960   2.569   0.977  0.2368 -0.1254 -0.0526
  535TMC3     H 7998   0.712   2.512   1.015  1.5371 -0.9692 -0.0482
  535TMC3    H1 7999   0.854   2.599   0.620 -1.4528 -0.3587 -0.4729
  535TMC3    H2 8000   0.446   2.472   0.683 -0.6814 -0.3548  1.2447
  535TMC3    C7 8001   0.634   2.573   0.493  0.0235 -0.2132  1.0123
  535TMC3    C8 8002   0.464   2.457   0.943 -0.5265  0.0523  0.1528
  535TMC3    O1 8003   0.727   2.555   0.410  0.0772 -0.1020 -0.3784
  535TMC3    O2 8004   0.385   2.383   0.887 -0.0398 -0.8557 -0.0049
  536MPD2     C 8005   0.015   1.258  16.516  0.0711 -0.7034  0.7478
  536MPD2    C1 8006   4.627   1.196  16.511  0.3590  0.1659 -1.2765
  536MPD2    C2 8007   4.547   1.226  16.399 -0.1823  0.0116 -0.5449
  536MPD2    C3 8008   4.588   1.305  16.297 -0.1369  0.1847  0.4269
  536MPD2    C4 8009   4.716   1.359  16.308 -0.4308  0.3779  0.6695
  536MPD2    C5 8010   0.060   1.339  16.414 -0.2359  0.3933 -0.0252
  536MPD2     H 8011   4.453   1.173  16.384  0.7311 -1.7519 -0.0903
  536MPD2    H1 8012   0.026   1.423  16.234 -0.3802  1.6861  1.8447
  536MPD2    H2 8013   0.088   1.246  16.596 -0.4873 -0.5869  1.2678
  536MPD2    H3 8014   0.154   1.393  16.417  0.1581 -0.2502 -0.8907
  536MPD2     N 8015   4.497   1.331  16.190 -0.5864  0.6151 -0.0215
  536MPD2    H5 8016   4.546   1.380  16.117 -1.1529 -0.9998 -1.5027
  536MPD2    N1 8017   4.589   1.104  16.604  0.5577 -0.4940  0.1378
  536MPD2    H7 8018   4.663   1.087  16.670  1.5991  1.9389 -0.4217
  537TMC3    C1 8019   4.488   0.926  16.716 -0.0071  0.2995  0.2819
  537TMC3    C2 8020   4.609   0.899  16.770  0.1431  0.2504  0.2254
  537TMC3    C3 8021   4.614   0.822  16.885 -0.1783  0.5647  0.0326
  537TMC3    C4 8022   4.376   0.867  16.769  0.2981  0.7081  0.1413
  537TMC3    C5 8023   4.382   0.787  16.878 -0.0950 -0.3552  0.3445
  537TMC3    C6 8024   4.501   0.765  16.941  0.7201  0.0894  0.1758
  537TMC3     C 8025   4.476   1.032  16.608 -0.1598 -0.4295 -0.5221
  537TMC3     O 8026   4.367   1.053  16.561  0.1589  0.3818 -0.0830
  537TMC3     H 8027   4.704   0.932  16.731  0.4893  1.0982  1.8409
  537TMC3    H1 8028   4.283   0.882  16.715  1.0527  1.7116 -0.9047
  537TMC3    H2 8029   4.509   0.729  17.043 -3.3379 -2.2120 -0.3367
  537TMC3    C7 8030   4.269   0.700  16.897 -0.1471 -0.5516 -0.4472
  537TMC3    C8 8031   4.720   0.849  16.976  0.1401 -0.1756 -0.0597
  537TMC3    O1 8032   4.167   0.728  16.840  0.0633 -0.3618 -0.1587
  537TMC3    O2 8033   0.031   0.955  16.946  0.3213 -0.1206 -0.0271
  538TMC3    C1 8034   1.066   4.071  10.894  0.2516  0.3946 -0.0169
  538TMC3    C2 8035   1.196   4.044  10.886  0.1433  0.2722  0.1461
  538TMC3    C3 8036   1.268   4.132  10.800 -0.2166  0.2629  0.8495
  538TMC3    C4 8037   1.003   4.163  10.824 -0.2592 -0.0021  0.7830
  538TMC3    C5 8038   1.082   4.258  10.756 -0.8199  0.3870 -0.1696
  538TMC3    C6 8039   1.216   4.239  10.739  0.6602  0.0930  0.2465
  538TMC3     C 8040   0.977   3.990  10.976  0.5563  0.5968  0.6290
  538TMC3     O 8041   0.860   3.990  10.938 -0.0780 -0.3180 -0.0419
  538TMC3     H 8042   1.249   3.966  10.940  1.0890 -0.0190 -1.2121
  538TMC3    H1 8043   0.897   4.183  10.834 -0.0891  0.5482  1.4550
  538TMC3    H2 8044   1.283   4.317  10.705 -0.7027  1.0340 -0.2931
  538TMC3    C7 8045   1.021   4.380  10.731  0.2252  0.4361  0.4516
  538TMC3    C8 8046   1.404   4.098  10.784 -0.8219  0.3712  0.6854
  538TMC3    O1 8047   0.917   4.383  10.668 -1.0744  0.0982  0.0193
  538TMC3    O2 8048   1.455   4.044  10.880 -0.1176  0.2219 -0.7036
  539MPD2     C 8049   0.638   2.832  11.611  0.2499 -0.2782 -0.2597
  539MPD2    C1 8050   0.725   2.933  11.574 -0.4243 -0.4136 -0.4002
  539MPD2    C2 8051   0.694   3.065  11.615 -0.2572  0.5911  0.5032
  539MPD2    C3 8052   0.592   3.090  11.703  0.6409  0.0403 -0.8208
  539MPD2    C4 8053   0.510   2.985  11.740  0.7475  0.1060 -0.1507
  539MPD2    C5 8054   0.530   2.856  11.693 -0.5589  0.0555 -0.3994
  539MPD2     H 8055   0.767   3.142  11.592 -1.4845  0.8672 -2.3688
  539MPD2    H1 8056   0.434   3.012  11.813  0.3510  2.2618 -1.3721
  539MPD2    H2 8057   0.661   2.732  11.576 -0.7403  0.3276 -2.6831
  539MPD2    H3 8058   0.466   2.772  11.716  0.7585 -1.1096 -0.9195
  539MPD2     N 8059   0.552   3.215  11.752  0.0994 -0.7200 -0.0570
  539MPD2    H5 8060   0.485   3.222  11.828 -0.4261 -2.7459 -0.3476
  539MPD2    N1 8061   0.837   2.915  11.493  0.0127 -0.2494  0.0482
  539MPD2    H7 8062   0.891   2.997  11.467 -1.2709  0.5049 -0.2449
  540TMC3    C1 8063   0.499   3.451  11.746 -0.7410  0.3125 -0.0246
  540TMC3    C2 8064   0.506   3.561  11.663 -0.1030 -0.0920 -0.9140
  540TMC3    C3 8065   0.408   3.652  11.672 -0.1524  0.5915  0.0902
  540TMC3    C4 8066   0.398   3.444  11.838  0.4005  0.0429 -0.2983
  540TMC3    C5 8067   0.296   3.533  11.832 -0.7515  0.3477 -0.0228
  540TMC3    C6 8068   0.299   3.643  11.746 -0.4172  0.1016 -0.2166
  540TMC3     C 8069   0.578   3.338  11.696  0.3788 -0.0886  0.3674
  540TMC3     O 8070   0.653   3.365  11.599  0.1951 -0.0463  0.5602
  540TMC3     H 8071   0.588   3.583  11.596  0.1588  1.1051 -0.2003
  540TMC3    H1 8072   0.374   3.359  11.900 -1.7281  0.4778 -0.5212
  540TMC3    H2 8073   0.225   3.721  11.736 -0.7302 -0.1325  0.2836
  540TMC3    C7 8074   0.196   3.529  11.938  0.2156 -0.5455 -0.5241
  540TMC3    C8 8075   0.402   3.757  11.568 -0.3310 -0.2793  0.4586
  540TMC3    O1 8076   0.219   3.475  12.044 -0.1096 -0.2174 -0.5254
  540TMC3    O2 8077   0.323   3.847  11.596  0.6203 -0.2722 -0.3964
  541MPD2     C 8078   3.478   0.039  13.386 -0.3753  0.2865  0.0429
  541MPD2    C1 8079   3.481   4.684  13.282  0.5709 -0.9689  0.0194
  541MPD2    C2 8080   3.463   4.725  13.151  0.0643 -0.6439 -0.3526
  541MPD2    C3 8081   3.430   0.120  13.116 -0.1119  0.0638  0.1506
  541MPD2    C4 8082   3.425   0.216  13.220 -0.5810  0.1847  0.2609
  541MPD2    C5 8083   3.446   0.172  13.349 -0.0564  0.1873 -0.4429
  541MPD2     H 8084   3.485   4.658  13.069 -0.6304 -0.7588 -0.4483
  541MPD2    H1 8085   3.387   0.317  13.204 -0.1568  0.3707  0.4177
  541MPD2    H2 8086   3.489   0.024  13.493  0.8889 -0.4079 -0.1860
  541MPD2    H3 8087   3.450   0.248  13.427  0.5404  3.8325 -4.0104
  541MPD2     N 8088   3.412   0.173  12.985  0.4966  0.6138  0.1569
  541MPD2    H5 8089   3.376   0.268  12.977 -0.4777  0.2500  0.1969
  541MPD2    N1 8090   3.500   4.546  13.317 -0.6647  0.7084 -0.2181
  541MPD2    H7 8091   3.499   4.530  13.417  1.2080  0.8506 -0.1778
  542TMC3    C1 8092   3.451   0.207  12.765  0.1967 -0.2411  0.0627
  542TMC3    C2 8093   3.546   0.187  12.669 -0.4328 -0.1467 -0.3241
  542TMC3    C3 8094   3.578   0.291  12.581 -0.1795  0.2828  0.2461
  542TMC3    C4 8095   3.392   0.335  12.781  0.0224  0.1126 -0.4808
  542TMC3    C5 8096   3.416   0.422  12.681 -0.2351 -0.6200 -0.1051
  542TMC3    C6 8097   3.512   0.408  12.584  0.0663 -0.6149  0.3885
  542TMC3     C 8098   3.449   0.109  12.873 -0.0053 -0.4002 -0.5212
  542TMC3     O 8099   3.520   0.011  12.868  0.0187 -0.1805  0.0475
  542TMC3     H 8100   3.574   0.084  12.651  0.4957  0.4413 -2.2100
  542TMC3    H1 8101   3.303   0.342  12.842  0.2952 -1.4382  0.0799
  542TMC3    H2 8102   3.536   0.491  12.519  0.0391  1.2525  2.7690
  542TMC3    C7 8103   3.320   0.532  12.664  0.6111  0.5402  0.4082
  542TMC3    C8 8104   3.677   0.277  12.470  0.0392 -0.2754  0.4623
  542TMC3    O1 8105   3.255   0.553  12.767  0.3751  0.1620  0.4376
  542TMC3    O2 8106   3.687   0.374  12.395  0.5220 -0.4608 -0.2890
  543TMC3    C1 8107   3.105   2.016  17.220  0.8746  0.8239 -0.1592
  543TMC3    C2 8108   3.112   1.891  17.262  0.0511 -0.5653 -0.1050
  543TMC3    C3 8109   3.058   1.861  17.388  0.0180 -0.0357 -0.1970
  543TMC3    C4 8110   3.053   2.127  17.284  0.7371  0.0291 -0.0837
  543TMC3    C5 8111   3.017   2.098  17.408  0.2026 -0.1642 -0.4405
  543TMC3    C6 8112   3.011   1.966  17.459  0.0068  0.0064  0.3148
  543TMC3     C 8113   3.165   2.044  17.094  0.0261 -0.2558  0.2148
  543TMC3     O 8114   3.265   1.976  17.072  0.6198 -0.6275  0.2836
  543TMC3     H 8115   3.144   1.810  17.196  0.5280  0.1965 -0.8099
  543TMC3    H1 8116   3.075   2.223  17.239 -1.1600 -0.8900 -2.9514
  543TMC3    H2 8117   2.987   1.960  17.564 -0.4695 -2.4613  0.0621
  543TMC3    C7 8118   2.923   2.186  17.464  0.1352 -0.5211 -0.1041
  543TMC3    C8 8119   3.027   1.729  17.425 -0.3389 -0.3169 -0.5484
  543TMC3    O1 8120   2.859   2.144  17.559 -0.5510  0.0482  0.3961
  543TMC3    O2 8121   3.037   1.642  17.334 -0.4050 -0.1235 -0.1245
  544MPD2     C 8122   2.857   1.365  17.742  0.2744  0.0578 -0.2829
  544MPD2    C1 8123   2.865   1.367  17.605  0.2305  0.2318  0.0297
  544MPD2    C2 8124   2.916   1.482  17.543  0.0667 -0.3996 -0.5640
  544MPD2    C3 8125   2.955   1.596  17.622 -0.4476 -0.9835  0.8197
  544MPD2    C4 8126   2.949   1.591   0.011  0.1843 -0.0290 -0.1822
  544MPD2    C5 8127   2.897   1.480   0.067  0.2179 -0.3950  0.0556
  544MPD2     H 8128   2.909   1.491  17.435 -1.1244  1.6242 -0.3183
  544MPD2    H1 8129   2.987   1.680   0.060  0.8588  0.4507 -1.5740
  544MPD2    H2 8130   2.806   1.279   0.036 -1.3757  0.2641 -1.8828
  544MPD2    H3 8131   2.898   1.476   0.176  1.1295  0.4002  0.0773
  544MPD2     N 8132   3.006   1.712  17.562  0.4817 -0.0810  0.5120
  544MPD2    H5 8133   3.030   1.800  17.607 -1.0651 -0.0622  1.2991
  544MPD2    N1 8134   2.833   1.244  17.542 -0.2295  0.2468  0.7830
  544MPD2    H7 8135   2.813   1.167  17.605  0.1346  0.6090  1.3390
  545TMC3    C1 8136   2.806   1.095  17.361  0.5669  0.5432  0.8318
  545TMC3    C2 8137   2.847   1.056  17.233 -0.8135  0.0109 -0.1113
  545TMC3    C3 8138   2.819   0.933  17.197  0.1237 -0.2216 -0.0212
  545TMC3    C4 8139   2.731   1.017  17.436  0.0672 -0.6978  0.5908
  545TMC3    C5 8140   2.716   0.881  17.405  0.2481 -0.6972  0.2362
  545TMC3    C6 8141   2.762   0.839  17.286 -1.0086  0.0732  0.2605
  545TMC3     C 8142   2.842   1.227  17.407 -0.0681  0.0645 -0.0453
  545TMC3     O 8143   2.846   1.310  17.318  0.1566  0.1677  0.0790
  545TMC3     H 8144   2.866   1.135  17.161 -1.8428 -0.0460 -0.4545
  545TMC3    H1 8145   2.689   1.052  17.530 -0.4803  0.5466 -0.1085
  545TMC3    H2 8146   2.730   0.738  17.263  0.3223 -0.0549 -1.0337
  545TMC3    C7 8147   2.640   0.792  17.489  0.9783 -0.2361  0.7174
  545TMC3    C8 8148   2.895   0.871  17.090 -0.3108 -0.0790  0.3736
  545TMC3    O1 8149   2.575   0.848  17.575 -0.0879 -0.3132 -0.0798
  545TMC3    O2 8150   2.882   0.751  17.072  0.3660  0.0602 -0.1936
  546MPD2     C 8151   4.448   1.637  16.523 -0.3549  0.2620  0.3933
  546MPD2    C1 8152   4.412   1.641  16.658  0.1968 -0.3286 -0.2046
  546MPD2    C2 8153   4.456   1.746  16.735  0.4348 -0.4320 -0.3327
  546MPD2    C3 8154   4.542   1.842  16.687 -0.0745  0.2160 -1.0852
  546MPD2    C4 8155   4.571   1.845  16.551  0.0632 -0.0296 -0.3333
  546MPD2    C5 8156   4.525   1.741  16.470  0.0212 -0.0543 -0.3841
  546MPD2     H 8157   4.419   1.749  16.836  1.5892 -1.1658  0.1141
  546MPD2    H1 8158   4.629   1.925  16.508  0.5161 -0.2395 -0.1144
  546MPD2    H2 8159   4.407   1.559  16.460 -1.4212 -0.4495  1.9799
  546MPD2    H3 8160   4.544   1.749  16.364  1.5320  0.4855 -0.0682
  546MPD2     N 8161   4.603   1.941  16.766 -0.3590  0.5330 -0.1652
  546MPD2    H5 8162   4.660   2.010  16.718  0.5458  1.2422  1.9095
  546MPD2    N1 8163   4.321   1.538  16.695  0.2587 -0.1108  0.4019
  546MPD2    H7 8164   4.282   1.483  16.619 -1.2669 -2.6877  3.0326
  547TMC3    C1 8165   4.210   1.390  16.846 -0.1897 -0.3517  0.2493
  547TMC3    C2 8166   4.090   1.397  16.783 -0.7156 -1.1429 -0.0481
  547TMC3    C3 8167   3.993   1.299  16.810  0.4567 -0.0473  0.0129
  547TMC3    C4 8168   4.238   1.299  16.947  0.4853 -0.5417  0.3548
  547TMC3    C5 8169   4.137   1.208  16.976 -0.3101  0.0251 -0.2127
  547TMC3    C6 8170   4.014   1.206  16.908  0.2002 -0.1468 -0.1226
  547TMC3     C 8171   4.305   1.497  16.819 -0.0227  0.9651  0.1466
  547TMC3     O 8172   4.375   1.520  16.920  0.6177 -0.0268 -0.1980
  547TMC3     H 8173   4.067   1.477  16.713 -0.9854 -0.4069  0.8751
  547TMC3    H1 8174   4.332   1.296  17.002  0.3190 -0.5583  0.6394
  547TMC3    H2 8175   3.939   1.135  16.939  0.6102 -1.2988 -1.7630
  547TMC3    C7 8176   4.157   1.112  17.085  0.4079  0.1906  0.5797
  547TMC3    C8 8177   3.856   1.327  16.765 -0.2724  0.7827 -0.6730
  547TMC3    O1 8178   4.056   1.068  17.136 -0.1037 -0.1087  0.1087
  547TMC3    O2 8179   3.844   1.406  16.671  0.4430 -0.0493  0.1971
  548MPD2     C 8180   4.349   2.111  12.936  0.5398  0.5154 -0.3042
  548MPD2    C1 8181   4.296   1.988  12.932 -0.1263 -0.4412 -0.2726
  548MPD2    C2 8182   4.375   1.877  12.939 -0.1113 -0.6388 -0.1654
  548MPD2    C3 8183   4.513   1.880  12.932  0.7721  0.0650  0.1261
  548MPD2    C4 8184   4.571   2.007  12.923  0.0073  0.4583 -0.8456
  548MPD2    C5 8185   4.488   2.115  12.934  0.6423  0.6464  1.0271
  548MPD2     H 8186   4.328   1.780  12.947 -1.3349 -0.0405 -0.2243
  548MPD2    H1 8187   4.678   2.020  12.910  0.2646 -0.0719  0.6998
  548MPD2    H2 8188   4.279   2.193  12.939 -0.1726 -0.1337  0.9057
  548MPD2    H3 8189   4.539   2.210  12.938  0.9992  0.4051  2.0986
  548MPD2     N 8190   4.583   1.757  12.923 -0.4286 -0.0927  0.0511
  548MPD2    H5 8191   4.528   1.673  12.916  1.6819 -1.4741 -0.0152
  548MPD2    N1 8192   4.156   1.991  12.932  0.0072  0.4882 -0.3921
  548MPD2    H7 8193   4.109   2.080  12.939  0.7043  0.4876  4.2986
  549TMC3    C1 8194   3.945   1.907  12.877  0.1715 -0.0579  0.1504
  549TMC3    C2 8195   3.904   2.038  12.874  0.0102 -0.0815  1.0873
  549TMC3    C3 8196   3.768   2.053  12.897  0.1467 -0.1421 -0.7621
  549TMC3    C4 8197   3.862   1.794  12.885 -0.0285 -0.2499 -0.3899
  549TMC3    C5 8198   3.730   1.815  12.912 -0.3613  0.1763  0.3059
  549TMC3    C6 8199   3.680   1.942  12.920  0.1367  0.5362  0.1632
  549TMC3     C 8200   4.085   1.880  12.888 -0.0217  0.3344  0.6451
  549TMC3     O 8201   4.125   1.779  12.822  0.8387 -0.1788  0.0183
  549TMC3     H 8202   3.968   2.124  12.857 -1.1805  0.8418  1.2583
  549TMC3    H1 8203   3.912   1.698  12.893 -0.5457 -0.6806 -2.2584
  549TMC3    H2 8204   3.574   1.957  12.937 -0.2604 -2.3017  0.1717
  549TMC3    C7 8205   3.635   1.706  12.924  0.4920  0.1491  0.1523
  549TMC3    C8 8206   3.704   2.186  12.891 -0.0573  0.3482  0.2256
  549TMC3    O1 8207   3.519   1.737  12.957  0.3510 -0.5047 -0.2886
  549TMC3    O2 8208   3.581   2.183  12.880  0.1613 -0.3028  0.4274
  550TMC3    C1 8209   3.389   0.134  12.207 -1.1948 -0.6952 -0.2407
  550TMC3    C2 8210   3.347   0.169  12.335  0.5022 -0.0476  0.6149
  550TMC3    C3 8211   3.257   0.276  12.341 -0.5449 -0.1411 -0.3036
  550TMC3    C4 8212   3.331   0.191  12.094  0.3789 -0.2034  0.1931
  550TMC3    C5 8213   3.251   0.298  12.112 -0.2520 -0.1071 -1.0041
  550TMC3    C6 8214   3.209   0.342  12.231 -0.1642 -0.5214  0.0188
  550TMC3     C 8215   3.518   0.064  12.192 -0.4546  0.1282 -0.9501
  550TMC3     O 8216   3.559   4.728  12.279  0.6533 -0.0162 -0.1721
  550TMC3     H 8217   3.383   0.118  12.424  0.4708 -0.7926  0.1974
  550TMC3    H1 8218   3.361   0.146  12.000  0.1470  0.4258 -0.1811
  550TMC3    H2 8219   3.166   0.441  12.231 -2.2451 -1.4289  0.2753
  550TMC3    C7 8220   3.203   0.358  11.988  1.1559 -0.3194  0.0006
  550TMC3    C8 8221   3.174   0.282  12.457 -0.4964 -0.8822 -0.8849
  550TMC3    O1 8222   3.100   0.417  12.003  0.5872  0.2850 -0.4783
  550TMC3    O2 8223   3.203   0.238  12.566 -0.1712  0.0657 -0.0749
  551TMC3    C1 8224   0.656   2.878  13.446  0.3483 -0.0799  0.1448
  551TMC3    C2 8225   0.778   2.863  13.387 -0.0493  0.1198  0.2952
  551TMC3    C3 8226   0.892   2.837  13.459 -0.3695  0.3545  1.3662
  551TMC3    C4 8227   0.652   2.885  13.580 -0.2261 -0.4093 -0.7231
  551TMC3    C5 8228   0.771   2.869  13.649  0.4321  0.1821  0.6471
  551TMC3    C6 8229   0.893   2.833  13.594 -0.4408 -0.7036  0.6497
  551TMC3     C 8230   0.552   2.808  13.373  0.3134 -0.0629 -0.6607
  551TMC3     O 8231   0.565   2.820  13.252 -0.2724 -0.6775 -0.3755
  551TMC3     H 8232   0.788   2.845  13.280 -1.1922  3.7230 -0.4116
  551TMC3    H1 8233   0.563   2.900  13.640 -0.3128 -1.1845 -0.6564
  551TMC3    H2 8234   0.985   2.827  13.652  0.0776 -1.3178 -0.2322
  551TMC3    C7 8235   0.781   2.927  13.778  0.7841  0.0879  0.0888
  551TMC3    C8 8236   1.013   2.847  13.382  0.7979  0.5750 -0.1816
  551TMC3    O1 8237   0.863   2.862  13.845 -0.1988 -0.8255  0.4610
  551TMC3    O2 8238   1.109   2.776  13.409  0.2116  0.1248 -0.3806
  552MPD2     C 8239   2.811   0.005  13.991  0.1223 -0.2837 -0.9292
  552MPD2    C1 8240   2.772   4.614  14.033 -0.1151 -0.4635 -0.2706
  552MPD2    C2 8241   2.848   4.558  14.138  0.0035 -0.3822  0.6784
  552MPD2    C3 8242   2.967   4.620  14.178 -0.3541  0.0850  0.3663
  552MPD2    C4 8243   3.014   4.727  14.112 -0.4515 -0.3711 -0.1261
  552MPD2    C5 8244   2.935   0.052  14.018 -0.2646  0.0826 -0.0336
  552MPD2     H 8245   2.806   4.473  14.190 -0.5896 -1.1192 -0.9717
  552MPD2    H1 8246   3.115   0.020  14.138 -0.1837 -0.0247 -1.5944
  552MPD2    H2 8247   2.765   0.044  13.900 -0.7055  2.2180  0.5487
  552MPD2    H3 8248   2.968   0.141  13.965 -1.6508  1.0254  0.6803
  552MPD2     N 8249   3.042   4.575  14.289 -0.8494  0.2527 -0.0746
  552MPD2    H5 8250   3.130   4.622  14.307 -0.1475 -0.3739 -1.8593
  552MPD2    N1 8251   2.661   4.533  13.990  0.3710  0.0066  0.5845
  552MPD2    H7 8252   2.642   4.443  14.033  0.4445  0.6827  2.0497
  553TMC3    C1 8253   2.459   4.477  13.858 -0.1249  0.2012  0.0977
  553TMC3    C2 8254   2.414   4.472  13.725  0.2989  0.3606  0.6802
  553TMC3    C3 8255   2.334   4.367  13.687 -0.0609 -0.3378  0.2623
  553TMC3    C4 8256   2.422   4.383  13.953 -0.0546 -0.0858  0.0042
  553TMC3    C5 8257   2.324   4.296  13.912 -0.8644 -0.0136 -0.2376
  553TMC3    C6 8258   2.284   4.279  13.782 -0.1948 -0.4229  0.0636
  553TMC3     C 8259   2.578   4.565  13.885 -0.3465 -0.1610  0.5350
  553TMC3     O 8260   2.601   4.650  13.799 -0.3524  0.4126  0.1394
  553TMC3     H 8261   2.451   4.542  13.650 -0.0735 -0.3811 -0.1938
  553TMC3    H1 8262   2.432   4.390  14.061 -0.9583  1.5342 -0.0273
  553TMC3    H2 8263   2.206   4.211  13.750 -1.1769  0.6420  0.1911
  553TMC3    C7 8264   2.299   4.177  13.998 -0.2756  0.2157  0.0241
  553TMC3    C8 8265   2.365   4.307  13.561  0.4696 -0.4322  0.1341
  553TMC3    O1 8266   2.196   4.118  13.989 -0.0560  0.4046  0.2296
  553TMC3    O2 8267   2.347   4.186  13.563 -0.4961 -0.1730  0.2465
  554TMC3    C1 8268   4.421   3.773  11.374  0.1555 -0.1436  0.7806
  554TMC3    C2 8269   4.367   3.735  11.256  0.0361  0.1543  0.3114
  554TMC3    C3 8270   4.440   3.749  11.143 -0.8924 -0.2228  0.6540
  554TMC3    C4 8271   4.553   3.813  11.384 -0.6518 -0.2436 -0.0073
  554TMC3    C5 8272   4.623   3.820  11.268  0.6480 -0.0775 -0.3539
  554TMC3    C6 8273   4.570   3.788  11.147  0.1894  0.4058  0.2028
  554TMC3     C 8274   4.361   3.714  11.492 -0.4843  0.2618 -0.4504
  554TMC3     O 8275   4.239   3.704  11.497  0.0544  0.2250 -0.2660
  554TMC3     H 8276   4.260   3.717  11.259  0.3137 -1.3744  1.0836
  554TMC3    H1 8277   4.591   3.842  11.481 -1.0885 -2.4365  0.8228
  554TMC3    H2 8278   4.647   3.798  11.071 -0.4004  0.0235 -0.4408
  554TMC3    C7 8279   4.720   3.925  11.262 -0.0598 -0.3530 -0.1866
  554TMC3    C8 8280   4.379   3.762  11.010  0.3999  0.4980  0.0567
  554TMC3    O1 8281   0.064   3.922  11.171  0.1218  0.2496  0.2437
  554TMC3    O2 8282   4.464   3.795  10.925 -0.2222  0.0414 -0.2007
  555TMC3    C1 8283   3.579   3.229  15.080  0.2712 -0.4216  0.4888
  555TMC3    C2 8284   3.595   3.339  15.159 -0.8765  0.2129  0.8367
  555TMC3    C3 8285   3.608   3.312  15.294 -0.3905 -0.7725  0.1773
  555TMC3    C4 8286   3.561   3.104  15.129 -0.3563  0.3304  0.1895
  555TMC3    C5 8287   3.569   3.084  15.261 -0.3548  0.3669  0.5976
  555TMC3    C6 8288   3.598   3.186  15.353 -0.8118  0.5215 -0.1798
  555TMC3     C 8289   3.619   3.244  14.942 -0.3835 -0.1989  0.4936
  555TMC3     O 8290   3.718   3.309  14.922 -0.3688  0.0265 -0.5120
  555TMC3     H 8291   3.621   3.434  15.114 -0.8165 -0.3517 -0.3369
  555TMC3    H1 8292   3.535   3.023  15.063  0.2452  0.3418 -0.0611
  555TMC3    H2 8293   3.595   3.167  15.460 -1.8067  0.5247 -0.2046
  555TMC3    C7 8294   3.557   2.946  15.313 -0.4992  0.1384  0.3304
  555TMC3    C8 8295   3.624   3.431  15.373  0.4922  0.2740  0.1623
  555TMC3    O1 8296   3.502   2.935  15.421 -0.0689 -0.3263 -0.1989
  555TMC3    O2 8297   3.586   3.540  15.326  0.1217 -0.0769 -0.3671
  556MPD2     C 8298   2.193   0.374  10.453  0.1110 -0.1035 -0.4528
  556MPD2    C1 8299   2.183   0.257  10.524 -0.0472 -0.4897 -0.0280
  556MPD2    C2 8300   2.149   0.143  10.464 -0.1292 -0.2110  0.5337
  556MPD2    C3 8301   2.084   0.137  10.343  0.1040 -0.1055  0.4737
  556MPD2    C4 8302   2.084   0.257  10.272 -0.4915 -1.1732  0.0655
  556MPD2    C5 8303   2.146   0.369  10.323  0.0765  0.4094 -0.0834
  556MPD2     H 8304   2.148   0.048  10.516  0.8190 -0.8655 -0.6542
  556MPD2    H1 8305   2.031   0.270  10.179  3.2142  2.2723 -1.5414
  556MPD2    H2 8306   2.221   0.470  10.494  0.2035 -0.2507 -0.1727
  556MPD2    H3 8307   2.154   0.452  10.254  1.2329  0.3672  0.0098
  556MPD2     N 8308   2.004   0.024  10.290  0.3486  0.3615  0.6787
  556MPD2    H5 8309   2.002   4.673  10.339 -0.5988 -0.4082 -0.7391
  556MPD2    N1 8310   2.210   0.253  10.666  0.1473 -0.6176  0.1192
  556MPD2    H7 8311   2.197   0.162  10.709  0.9484 -0.0993  1.4549
  557TMC3    C1 8312   1.907   4.620  10.128 -0.7011  0.1279 -0.5395
  557TMC3    C2 8313   1.904   4.588   9.996 -0.0178  0.4323 -0.1868
  557TMC3    C3 8314   1.844   4.470   9.954  0.1335 -0.1894 -0.2699
  557TMC3    C4 8315   1.860   4.534  10.228 -0.0091 -0.1274 -0.1950
  557TMC3    C5 8316   1.811   4.416  10.182  0.1961 -0.1004  0.1578
  557TMC3    C6 8317   1.792   4.382  10.045  0.7074 -0.1405  0.4656
  557TMC3     C 8318   1.960   0.021  10.159  0.5934 -0.1953  0.1014
  557TMC3     O 8319   1.974   0.097  10.068  0.4249  0.0178 -0.1570
  557TMC3     H 8320   1.942   4.654   9.920 -0.7896  1.4665  0.3273
  557TMC3    H1 8321   1.845   4.567  10.330 -3.5304 -0.5462 -0.5503
  557TMC3    H2 8322   1.764   4.280  10.022 -0.2661 -0.0946  1.4184
  557TMC3    C7 8323   1.764   4.319  10.287 -0.0659  0.8079  0.4974
  557TMC3    C8 8324   1.881   4.428   9.821  0.3160  0.6750  0.3314
  557TMC3    O1 8325   1.675   4.235  10.253 -0.1326 -0.9006 -0.2607
  557TMC3    O2 8326   1.986   4.483   9.794  0.0690  0.1843 -0.1381
  558TMC3    C1 8327   4.094   3.158  10.456  0.2529 -0.3123 -0.1590
  558TMC3    C2 8328   3.976   3.106  10.496  0.1784  0.3491 -0.3852
  558TMC3    C3 8329   3.859   3.134  10.434 -0.5936  0.4418  0.5480
  558TMC3    C4 8330   4.088   3.249  10.351  0.3865 -0.2461  0.3808
  558TMC3    C5 8331   3.969   3.272  10.290 -0.5839 -0.2486 -0.2881
  558TMC3    C6 8332   3.854   3.213  10.325 -0.2955  0.3830  0.3699
  558TMC3     C 8333   4.219   3.131  10.522  0.3819  0.4176  0.5525
  558TMC3     O 8334   4.314   3.191  10.472  1.1731  0.1159  0.3706
  558TMC3     H 8335   3.960   3.074  10.598  1.4567  0.8399 -0.0426
  558TMC3    H1 8336   4.179   3.300  10.321 -0.7614  1.1443 -0.6970
  558TMC3    H2 8337   3.765   3.236  10.267  0.2503 -0.1153 -0.6572
  558TMC3    C7 8338   3.975   3.339  10.159  0.9394  0.1547 -0.8665
  558TMC3    C8 8339   3.742   3.069  10.475  0.8570  0.5389  0.9623
  558TMC3    O1 8340   4.055   3.433  10.157  0.3210 -0.3522  0.3385
  558TMC3    O2 8341   3.644   3.116  10.429 -0.1482  0.3645 -0.4052
  559MPD2     C 8342   4.091   3.509  10.618 -0.0919 -0.1897  0.0023
  559MPD2    C1 8343   4.033   3.422  10.713  0.0274 -0.6425 -0.1114
  559MPD2    C2 8344   4.119   3.356  10.802 -0.5058 -0.4192  0.2243
  559MPD2    C3 8345   4.255   3.383  10.805 -0.0584  0.3123  0.2592
  559MPD2    C4 8346   4.314   3.456  10.706  0.3979  0.2817 -0.1405
  559MPD2    C5 8347   4.231   3.510  10.615  0.0992  0.1317 -0.3139
  559MPD2     H 8348   4.075   3.292  10.878 -1.0235 -0.5099 -0.1514
  559MPD2    H1 8349   4.422   3.468  10.704  0.5621 -1.0354  0.2600
  559MPD2    H2 8350   4.033   3.548  10.535  0.4921 -0.9790 -0.7763
  559MPD2    H3 8351   4.271   3.571  10.534 -0.4700  0.9138 -0.0031
  559MPD2     N 8352   4.328   3.314  10.904 -0.5095  0.3232 -0.1069
  559MPD2    H5 8353   4.270   3.272  10.976 -1.3209  1.4371 -0.1101
  559MPD2    N1 8354   3.891   3.412  10.720 -0.4224 -0.0516 -0.2807
  559MPD2    H7 8355   3.837   3.474  10.661  1.0249 -0.6959 -2.2758
  560TMC3    C1 8356   4.507   3.196  10.999  0.3380  0.7963  0.3606
  560TMC3    C2 8357   4.418   3.096  11.027 -0.0606  0.8974 -0.2430
  560TMC3    C3 8358   4.462   2.995  11.112  0.0587 -0.3517 -0.6783
  560TMC3    C4 8359   4.628   3.204  11.053  0.4606 -0.9907 -0.1767
  560TMC3    C5 8360   4.662   3.110  11.146  0.3961 -0.2828 -0.1742
  560TMC3    C6 8361   4.583   3.008  11.182  0.3873  0.4083  0.3031
  560TMC3     C 8362   4.467   3.299  10.904 -0.3877 -0.0656 -0.2162
  560TMC3     O 8363   4.556   3.366  10.855 -0.5547 -0.2206  0.0708
  560TMC3     H 8364   4.328   3.089  10.968 -0.2417  1.9252 -0.0901
  560TMC3    H1 8365   4.703   3.275  11.020 -0.4121 -0.2059 -0.4486
  560TMC3    H2 8366   4.618   2.927  11.245  0.2662  0.1648  0.0575
  560TMC3    C7 8367   0.053   3.108  11.217 -0.2995  0.3425  0.2539
  560TMC3    C8 8368   4.358   2.901  11.144 -0.2399 -0.3709  0.0976
  560TMC3    O1 8369   0.052   3.040  11.316  0.4823  0.0563  1.0133
  560TMC3    O2 8370   4.264   2.898  11.067 -0.8281 -0.1902 -0.0803
  561TMC3    C1 8371   2.148   2.107  11.371  0.6121  0.3034 -0.6897
  561TMC3    C2 8372   2.049   2.035  11.438  0.3758 -0.2543  0.1992
  561TMC3    C3 8373   1.972   2.105  11.525 -0.1195  0.6439  0.2451
  561TMC3    C4 8374   2.163   2.245  11.388 -0.3316 -0.2686  0.5931
  561TMC3    C5 8375   2.086   2.308  11.483 -0.4108 -0.0699 -0.3128
  561TMC3    C6 8376   1.997   2.235  11.556  0.3227 -0.0148  0.5923
  561TMC3     C 8377   2.250   2.030  11.303  0.5881  0.0601  0.0855
  561TMC3     O 8378   2.209   1.923  11.270  0.8668  0.0783 -0.1345
  561TMC3     H 8379   2.041   1.928  11.424  1.0457 -0.2232 -0.3937
  561TMC3    H1 8380   2.235   2.298  11.328 -0.1395 -1.3744 -0.1647
  561TMC3    H2 8381   1.949   2.294  11.633 -1.5832 -0.3585 -0.3304
  561TMC3    C7 8382   2.078   2.450  11.492  0.1305 -0.0539  0.5731
  561TMC3    C8 8383   1.874   2.028  11.604 -0.4895  0.2321 -0.5076
  561TMC3    O1 8384   1.990   2.488  11.561 -0.6438 -0.4606 -0.3680
  561TMC3    O2 8385   1.881   1.910  11.607 -0.5752 -0.6926 -0.5223
  562TMC3    C1 8386   3.332   3.568  16.469 -0.5101  0.1680 -0.1980
  562TMC3    C2 8387   3.341   3.708  16.457 -0.2703  0.1398 -0.1828
  562TMC3    C3 8388   3.337   3.758  16.330  0.0419  0.4617 -0.2503
  562TMC3    C4 8389   3.326   3.482  16.363 -0.1426  0.0601  0.1428
  562TMC3    C5 8390   3.325   3.541  16.239 -0.0522  0.5162  0.8126
  562TMC3    C6 8391   3.340   3.674  16.219 -0.4014  0.1283 -0.3612
  562TMC3     C 8392   3.374   3.506  16.601  0.1040 -0.5012  0.1066
  562TMC3     O 8393   3.366   3.386  16.600  0.1512 -0.2507 -0.4580
  562TMC3     H 8394   3.346   3.775  16.542  2.1216  1.3100 -1.2559
  562TMC3    H1 8395   3.316   3.375  16.371 -0.8066  0.2545  1.9682
  562TMC3    H2 8396   3.336   3.711  16.117  1.1319 -0.2499 -0.5637
  562TMC3    C7 8397   3.343   3.460  16.120 -0.9126  0.2243 -0.1733
  562TMC3    C8 8398   3.333   3.902  16.311  0.8017  0.3898 -0.7753
  562TMC3    O1 8399   3.308   3.500  16.009 -0.0259 -0.3578  0.3351
  562TMC3    O2 8400   3.341   3.971  16.411 -0.2539 -0.6174 -0.0299
  563MPD2     C 8401   0.833   0.263  15.649  0.6553 -0.0515  0.1835
  563MPD2    C1 8402   0.894   0.286  15.770 -0.1438 -0.7626 -0.6670
  563MPD2    C2 8403   1.030   0.258  15.780  0.3601  0.0848  0.0722
  563MPD2    C3 8404   1.106   0.240  15.669 -0.1139  0.2227 -0.4340
  563MPD2    C4 8405   1.049   0.246  15.549  0.0828  0.2464 -0.1709
  563MPD2    C5 8406   0.913   0.245  15.539  0.4612  0.7251 -0.2430
  563MPD2     H 8407   1.070   0.259  15.880 -0.2923  0.9268  0.3224
  563MPD2    H1 8408   1.102   0.234  15.455  0.0691 -0.1318 -0.1289
  563MPD2    H2 8409   0.725   0.267  15.640  0.6147 -0.7913  0.3390
  563MPD2    H3 8410   0.871   0.241  15.438  0.4610  1.3393 -0.2690
  563MPD2     N 8411   1.242   0.226  15.699 -0.1394  0.2488 -0.6079
  563MPD2    H5 8412   1.270   0.236  15.796  0.1065  1.1425 -0.7737
  563MPD2    N1 8413   0.813   0.280  15.885  0.5463  0.7380  0.1360
  563MPD2    H7 8414   0.713   0.280  15.868  0.4742  0.4927  0.5666
  564TMC3    C1 8415   0.751   0.254  16.109  0.2727 -0.3672  0.4450
  564TMC3    C2 8416   0.623   0.208  16.063  0.4832  0.5552 -0.2561
  564TMC3    C3 8417   0.546   0.124  16.143  0.5393  0.9448  0.4910
  564TMC3    C4 8418   0.795   0.205  16.230  0.3486  0.1802  0.3197
  564TMC3    C5 8419   0.714   0.129  16.308  0.1003 -0.3534  0.2181
  564TMC3    C6 8420   0.593   0.091  16.265  0.2193 -0.0081  0.4565
  564TMC3     C 8421   0.856   0.271  16.016 -0.6216  0.0969  0.2316
  564TMC3     O 8422   0.965   0.304  16.061  0.4692  0.3074  0.3329
  564TMC3     H 8423   0.587   0.245  15.968  1.4441  2.8822  0.2804
  564TMC3    H1 8424   0.897   0.228  16.259 -0.2737  2.0355  1.0882
  564TMC3    H2 8425   0.529   0.032  16.329  1.2657 -1.9530 -0.3100
  564TMC3    C7 8426   0.784   0.029  16.384 -0.5236 -0.1910  0.1001
  564TMC3    C8 8427   0.457   0.027  16.078 -0.0629 -0.0357  0.6121
  564TMC3    O1 8428   0.896   0.051  16.421 -0.5406  0.2488  0.2234
  564TMC3    O2 8429   0.410   4.682  16.154 -0.0661 -0.1782 -0.6309
  565TMC3    C1 8430   2.274   2.407  10.056 -0.2171  0.1869  0.1956
  565TMC3    C2 8431   2.195   2.311  10.117  0.4348  0.2558 -0.2991
  565TMC3    C3 8432   2.134   2.219  10.037  0.8037  0.5865 -0.4210
  565TMC3    C4 8433   2.269   2.416   9.913  0.2416  0.6836  0.6903
  565TMC3    C5 8434   2.210   2.320   9.838  0.4821  0.2882  0.6124
  565TMC3    C6 8435   2.145   2.215   9.900  0.2021 -0.1752  0.0450
  565TMC3     C 8436   2.318   2.521  10.124  0.6496  0.1438  0.0714
  565TMC3     O 8437   2.348   2.622  10.060 -0.2429  0.7630 -0.4954
  565TMC3     H 8438   2.183   2.316  10.225 -1.0284  1.7865 -0.5245
  565TMC3    H1 8439   2.326   2.493   9.862 -1.6920 -0.3012 -2.9367
  565TMC3    H2 8440   2.077   2.150   9.846 -1.8889  2.6390 -0.7106
  565TMC3    C7 8441   2.239   2.300   9.694 -0.4912  0.6888 -0.2385
  565TMC3    C8 8442   2.054   2.111  10.095  0.4868 -0.0340 -0.6707
  565TMC3    O1 8443   2.219   2.190   9.646 -0.1142  0.5340 -0.4963
  565TMC3    O2 8444   2.022   2.019  10.017 -0.5091 -0.3828 -0.6288
  566MPD2     C 8445   2.976   2.593  14.224 -0.1571  0.7089 -0.4592
  566MPD2    C1 8446   2.978   2.709  14.154 -0.4420 -0.6085  0.4528
  566MPD2    C2 8447   2.862   2.758  14.094  0.2889 -0.3173 -0.1482
  566MPD2    C3 8448   2.745   2.681  14.089  1.0148 -0.0929 -0.5009
  566MPD2    C4 8449   2.757   2.560  14.160 -0.1611  0.1676  0.2571
  566MPD2    C5 8450   2.864   2.521  14.231  0.0345  1.4242  0.0581
  566MPD2     H 8451   2.861   2.859  14.053  1.5393 -0.8721 -1.5636
  566MPD2    H1 8452   2.673   2.492  14.150  0.7866 -1.3083  2.1090
  566MPD2    H2 8453   3.060   2.552  14.278 -1.6049  0.2523  1.4539
  566MPD2    H3 8454   2.852   2.431  14.290  3.7820 -1.3024 -3.3171
  566MPD2     N 8455   2.634   2.721  14.009 -0.2502  0.1897 -0.8953
  566MPD2    H5 8456   2.552   2.668  14.035  1.0032 -1.2543  0.1781
  566MPD2    N1 8457   3.107   2.769  14.151  0.5648  0.1823  0.1999
  566MPD2    H7 8458   3.181   2.725  14.205  2.0106  1.3597 -0.7996
  567TMC3    C1 8459   3.253   2.951  14.138  0.0583 -0.2094  0.2626
  567TMC3    C2 8460   3.315   3.026  14.042  0.0993 -0.5947 -0.0351
  567TMC3    C3 8461   3.452   3.045  14.047  0.7962  0.1130  0.2391
  567TMC3    C4 8462   3.337   2.891  14.237  0.8590 -0.2717  0.3922
  567TMC3    C5 8463   3.466   2.927  14.242  0.3082  0.8922 -0.5385
  567TMC3    C6 8464   3.528   2.999  14.148  0.5171  0.3140  0.5842
  567TMC3     C 8465   3.125   2.901  14.104 -0.7045  0.1308 -0.1847
  567TMC3     O 8466   3.049   2.970  14.040  0.3169  0.0827  0.0309
  567TMC3     H 8467   3.252   3.058  13.960  0.3122  0.3049  0.1598
  567TMC3    H1 8468   3.282   2.840  14.315  1.6742 -2.9580 -0.7931
  567TMC3    H2 8469   3.632   3.027  14.159  0.8425 -0.0432 -1.5768
  567TMC3    C7 8470   3.532   2.894  14.365 -0.2551  0.3161 -0.4801
  567TMC3    C8 8471   3.506   3.088  13.918 -0.1613 -0.6596 -0.3578
  567TMC3    O1 8472   3.654   2.882  14.358 -0.0865  0.0988  0.3605
  567TMC3    O2 8473   3.440   3.148  13.832 -0.2452 -0.0686  0.3418
  568MPD2     C 8474   0.710   3.654  16.365 -0.1588  0.2472  0.3138
  568MPD2    C1 8475   0.602   3.699  16.442 -0.2306  0.8380 -0.3143
  568MPD2    C2 8476   0.485   3.743  16.382  0.0144 -0.0286 -0.1867
  568MPD2    C3 8477   0.484   3.749  16.241  0.5025  0.5045 -0.2340
  568MPD2    C4 8478   0.597   3.703  16.164  0.6494  0.2227  0.0286
  568MPD2    C5 8479   0.703   3.654  16.228  0.9088 -0.6998 -0.0894
  568MPD2     H 8480   0.403   3.768  16.448 -1.1288 -2.1849 -0.7877
  568MPD2    H1 8481   0.596   3.713  16.056  3.1009 -0.0130 -0.0188
  568MPD2    H2 8482   0.806   3.623  16.407  0.2064  2.1520  0.8640
  568MPD2    H3 8483   0.785   3.612  16.171  1.0256 -0.5794 -0.0100
  568MPD2     N 8484   0.370   3.814  16.186  0.2290 -0.2090  0.6068
  568MPD2    H5 8485   0.299   3.842  16.253  0.1080  1.5378 -0.2647
  568MPD2    N1 8486   0.615   3.700  16.583  0.2209  0.7685 -0.0931
  568MPD2    H7 8487   0.704   3.692  16.631  0.1279  0.3552  0.0044
  569TMC3    C1 8488   0.242   3.941  16.035  0.1685  1.0494 -0.2353
  569TMC3    C2 8489   0.158   3.986  16.133 -0.3342 -0.1911  0.5662
  569TMC3    C3 8490   0.083   4.097  16.109 -0.5459  0.2207 -0.7935
  569TMC3    C4 8491   0.245   4.001  15.909 -0.1073  0.1737 -0.1198
  569TMC3    C5 8492   0.169   4.107  15.884 -0.2054  0.4231 -0.0173
  569TMC3    C6 8493   0.086   4.158  15.988 -0.1615  0.2873  0.3617
  569TMC3     C 8494   0.363   3.858  16.056 -0.0526  0.0010  0.3511
  569TMC3     O 8495   0.441   3.854  15.968 -0.3306 -0.4282  0.0052
  569TMC3     H 8496   0.149   3.941  16.231  0.0182 -2.2079 -0.3407
  569TMC3    H1 8497   0.311   3.974  15.827  0.3051  1.0750 -0.0822
  569TMC3    H2 8498   0.035   4.252  15.970 -0.1323  0.0471 -1.0408
  569TMC3    C7 8499   0.225   4.210  15.791  0.2250  0.1123  0.0621
  569TMC3    C8 8500   0.094   4.188  16.220 -0.4649 -0.7311  0.8945
  569TMC3    O1 8501   0.267   4.178  15.683  0.0534  0.4690 -0.2798
  569TMC3    O2 8502   0.169   4.286  16.206 -0.5231  0.3820  0.2624
  570TMC3    C1 8503   4.710   2.204  16.127 -0.3617 -0.4762 -0.0453
  570TMC3    C2 8504   0.062   2.245  16.028  0.3423  0.0469 -0.8607
  570TMC3    C3 8505   0.115   2.371  16.038 -0.3324  0.2253  0.0136
  570TMC3    C4 8506   4.661   2.308  16.214  0.1076  0.2715 -0.4785
  570TMC3    C5 8507   4.716   2.430  16.220 -0.2863 -0.5709 -0.0818
  570TMC3    C6 8508   0.075   2.459  16.131  0.7828  0.2497 -0.8691
  570TMC3     C 8509   4.638   2.081  16.114  0.3222  0.3941 -0.4850
  570TMC3     O 8510   4.705   1.992  16.062 -0.4042  0.2184  0.1680
  570TMC3     H 8511   0.110   2.169  15.968 -0.7749 -1.1005 -0.3202
  570TMC3    H1 8512   4.594   2.291  16.297 -0.0796 -0.6848 -0.8316
  570TMC3    H2 8513   0.119   2.558  16.126  3.0877 -0.7223  0.5676
  570TMC3    C7 8514   4.676   2.539  16.311 -0.0222 -0.4354  0.4620
  570TMC3    C8 8515   0.218   2.415  15.947 -0.1054 -0.4118  0.3085
  570TMC3    O1 8516   0.013   2.637  16.309 -0.0232  0.1133 -0.0698
  570TMC3    O2 8517   0.286   2.512  15.984 -0.4903 -0.2880  0.4596
  571MPD2     C 8518   3.109   4.298  17.707 -0.0787 -0.0689  0.1037
  571MPD2    C1 8519   2.972   4.325  17.718 -0.4366  0.1158 -0.1347
  571MPD2    C2 8520   2.925   4.411   0.068  0.5596  0.7642 -0.0907
  571MPD2    C3 8521   3.009   4.482   0.147  0.2931  0.0684 -0.0118
  571MPD2    C4 8522   3.144   4.461   0.131  0.1921  0.4437 -0.6815
  571MPD2    C5 8523   3.192   4.380   0.034 -0.0144 -0.0569 -0.8176
  571MPD2     H 8524   2.817   4.423   0.077  0.7631  2.3235  0.2256
  571MPD2    H1 8525   3.211   4.503   0.205 -0.6437  0.3642  0.1267
  571MPD2    H2 8526   3.159   4.224  17.646  1.3852 -0.0064  1.2318
  571MPD2    H3 8527   3.300   4.366   0.042  0.0165  0.5604 -0.1541
  571MPD2     N 8528   2.967   4.560   0.258  0.3899 -0.9662  0.7454
  571MPD2    H5 8529   3.031   4.603   0.325  2.7411 -1.9571 -0.8724
  571MPD2    N1 8530   2.878   4.252  17.644  0.1383 -0.7268 -0.4504
  571MPD2    H7 8531   2.916   4.175  17.589 -0.0482 -0.4352 -0.9870
  572TMC3    C1 8532   2.818   4.661   0.412  0.5814 -0.4117 -0.7475
  572TMC3    C2 8533   2.705   4.635   0.482 -0.1420  0.0311 -0.7332
  572TMC3    C3 8534   2.655   4.728   0.575 -0.3777 -0.1077 -0.1310
  572TMC3    C4 8535   2.891   0.036   0.430 -0.5031  0.1317 -0.0764
  572TMC3    C5 8536   2.837   0.132   0.513  0.2309 -0.5395  0.3465
  572TMC3    C6 8537   2.720   0.107   0.583 -0.4345 -0.1848 -0.4408
  572TMC3     C 8538   2.833   4.582   0.291 -0.5537  0.0206 -0.0253
  572TMC3     O 8539   2.730   4.541   0.243 -0.3509 -0.0652 -0.0433
  572TMC3     H 8540   2.642   4.549   0.461  0.3949 -0.9189  1.4922
  572TMC3    H1 8541   2.981   0.051   0.371 -0.1933 -0.4185  0.2530
  572TMC3    H2 8542   2.690   0.193   0.642  1.6109  0.2553 -0.0288
  572TMC3    C7 8543   2.846   0.268   0.463  0.3066  0.6981 -1.2738
  572TMC3    C8 8544   2.540   4.698   0.657  0.0673  1.0071 -0.1980
  572TMC3    O1 8545   2.772   0.347   0.514 -0.0560  0.2854  0.2059
  572TMC3    O2 8546   2.508   4.581   0.670 -0.5348 -0.1341 -0.3187
  573MPD2     C 8547   3.651   0.413   0.467 -0.0264  0.3001 -0.2281
  573MPD2    C1 8548   3.522   0.401   0.497  0.0900 -0.6336  0.2061
  573MPD2    C2 8549   3.436   0.324   0.416 -0.3028 -0.1887 -0.1244
  573MPD2    C3 8550   3.493   0.251   0.313 -0.0127 -0.1349 -0.4896
  573MPD2    C4 8551   3.631   0.251   0.293 -0.2252 -0.6156  0.0152
  573MPD2    C5 8552   3.706   0.334   0.371  0.4451 -0.4699 -1.1157
  573MPD2     H 8553   3.330   0.318   0.436 -0.1403 -1.9222  0.2352
  573MPD2    H1 8554   3.680   0.187   0.221  1.1105 -0.1595  0.5172
  573MPD2    H2 8555   3.721   0.466   0.530 -0.9593  0.0662  1.0198
  573MPD2    H3 8556   3.813   0.349   0.359  0.4074  1.5663  1.0136
  573MPD2     N 8557   3.420   0.181   0.219 -0.0102 -0.7585 -0.0851
  573MPD2    H5 8558   3.478   0.140   0.146  1.4719  0.4192  0.4430
  573MPD2    N1 8559   3.471   0.482   0.607  0.2596  0.3417  0.0627
  573MPD2    H7 8560   3.536   0.548   0.649 -0.4151  1.3549 -0.4766
  574TMC3    C1 8561   3.240   0.115   0.100 -0.3999  0.4049 -0.2919
  574TMC3    C2 8562   3.105   0.098   0.093 -0.1898 -0.0381 -0.0817
  574TMC3    C3 8563   3.038   0.093  17.719  0.2023 -0.0544  0.1305
  574TMC3    C4 8564   3.315   0.139  17.736  0.6937 -0.0767 -0.2715
  574TMC3    C5 8565   3.243   0.126  17.620 -0.0543 -0.1744 -0.2982
  574TMC3    C6 8566   3.110   0.102  17.605  0.6189 -0.5299  0.1412
  574TMC3     C 8567   3.283   0.165   0.225 -0.3090  0.8955  0.8998
  574TMC3     O 8568   3.204   0.176   0.322  0.3077 -0.1210  0.2118
  574TMC3     H 8569   3.052   0.074   0.184  1.4931 -2.6251  0.2105
  574TMC3    H1 8570   3.423   0.146  17.734  0.6282  0.7948 -0.9684
  574TMC3    H2 8571   3.060   0.092  17.509  1.9697  1.2454 -0.7610
  574TMC3    C7 8572   3.323   0.107  17.498  0.4571 -0.1819 -0.3382
  574TMC3    C8 8573   2.900   0.137  17.726  0.5268 -0.0204  0.2023
  574TMC3    O1 8574   3.429   0.045  17.511  0.3075 -0.8040  0.1294
  574TMC3    O2 8575   2.827   0.087   0.061 -0.1089 -0.0993 -0.4706
  575TMC3    C1 8576   1.601   1.363  10.058 -0.9068  0.1948 -0.0848
  575TMC3    C2 8577   1.552   1.309  10.172 -0.3186  0.3814  0.5597
  575TMC3    C3 8578   1.555   1.383  10.285  0.1570  0.1418  0.0448
  575TMC3    C4 8579   1.642   1.495  10.045 -0.1448 -0.7179 -0.6556
  575TMC3    C5 8580   1.631   1.563  10.163  0.7024  0.5911 -0.6858
  575TMC3    C6 8581   1.595   1.513  10.285 -0.0824 -0.5140  0.0402
  575TMC3     C 8582   1.641   1.283   9.950 -0.1290  0.4491  0.3167
  575TMC3     O 8583   1.738   1.326   9.889  0.3860  0.1726 -0.2702
  575TMC3     H 8584   1.518   1.206  10.167  0.5590  0.0370  1.4489
  575TMC3    H1 8585   1.673   1.544   9.953 -1.0270 -1.1875 -1.2042
  575TMC3    H2 8586   1.563   1.578  10.366  3.4329  2.2051 -0.7485
  575TMC3    C7 8587   1.707   1.684  10.171  0.1487 -0.0896  0.3710
  575TMC3    C8 8588   1.506   1.324  10.408 -0.0254 -0.5386 -0.4359
  575TMC3    O1 8589   1.745   1.731  10.062  0.1202 -0.8641 -0.2002
  575TMC3    O2 8590   1.424   1.234  10.391  0.0314 -0.1429  0.5966
  576MPD2     C 8591   1.364   2.559  12.904  0.0423  0.1082  0.3880
  576MPD2    C1 8592   1.325   2.605  12.778  0.0270 -0.3954 -0.5162
  576MPD2    C2 8593   1.197   2.656  12.766  0.5511 -0.7410 -0.1518
  576MPD2    C3 8594   1.114   2.662  12.875 -1.1102  0.2966  0.0855
  576MPD2    C4 8595   1.152   2.603  12.993 -0.3369  1.0681  0.8664
  576MPD2    C5 8596   1.273   2.540  13.007 -0.1389  0.6598  0.0469
  576MPD2     H 8597   1.161   2.685  12.668 -0.3819  0.2976  0.4989
  576MPD2    H1 8598   1.076   2.592  13.069 -2.1239  0.5020 -1.0021
  576MPD2    H2 8599   1.463   2.517  12.915  0.2878  1.4708  3.3326
  576MPD2    H3 8600   1.309   2.488  13.095  1.0481  2.1462  0.4517
  576MPD2     N 8601   0.995   2.735  12.860 -0.0350 -0.3467 -0.5060
  576MPD2    H5 8602   0.990   2.797  12.779 -0.0478  1.7983  1.1238
  576MPD2    N1 8603   1.405   2.615  12.658  0.0547 -0.2048  0.8410
  576MPD2    H7 8604   1.371   2.668  12.579 -0.8418 -1.3601  0.4479
  577TMC3    C1 8605   1.565   2.547  12.504 -0.3486  0.4764 -0.0832
  577TMC3    C2 8606   1.586   2.426  12.448 -0.2380 -0.8268 -0.2463
  577TMC3    C3 8607   1.608   2.423  12.312  0.5090 -0.5179 -0.0454
  577TMC3    C4 8608   1.559   2.662  12.433  0.2181 -0.7661 -0.3429
  577TMC3    C5 8609   1.584   2.653  12.293 -0.3949 -0.2811  0.2982
  577TMC3    C6 8610   1.608   2.531  12.232  0.6179 -0.0591  0.8354
  577TMC3     C 8611   1.522   2.548  12.643 -0.3567 -0.4883  0.1766
  577TMC3     O 8612   1.582   2.466  12.713  0.2542 -0.0238  0.5104
  577TMC3     H 8613   1.581   2.338  12.511  0.5418 -0.8727 -0.2495
  577TMC3    H1 8614   1.534   2.759  12.474 -0.4790 -0.4152 -1.6007
  577TMC3    H2 8615   1.629   2.516  12.127 -0.8621  2.0554  0.2291
  577TMC3    C7 8616   1.592   2.770  12.212  0.0703 -0.4248 -0.0134
  577TMC3    C8 8617   1.599   2.292  12.247 -0.0547 -0.0851  0.0688
  577TMC3    O1 8618   1.617   2.870  12.274 -0.0379  0.9885  0.2656
  577TMC3    O2 8619   1.549   2.202  12.316 -0.4725  0.9204  0.3902
  578MPD2     C 8620   3.733   2.368   1.252  0.7097 -0.4955 -0.0250
  578MPD2    C1 8621   3.779   2.324   1.126  0.4639 -0.5690 -0.2115
  578MPD2    C2 8622   3.908   2.265   1.120  0.3074 -0.9379 -0.1455
  578MPD2    C3 8623   3.986   2.252   1.234 -0.3806  0.0343 -0.0095
  578MPD2    C4 8624   3.932   2.278   1.352 -0.2063  0.6227 -0.1822
  578MPD2    C5 8625   3.803   2.331   1.366  0.1374 -0.1321 -0.7485
  578MPD2     H 8626   3.956   2.226   1.031 -0.7816 -3.0959  0.2148
  578MPD2    H1 8627   3.987   2.269   1.445 -1.0062 -0.5774  0.1863
  578MPD2    H2 8628   3.640   2.423   1.263  1.4443  0.6956  0.2905
  578MPD2    H3 8629   3.778   2.372   1.463  1.6072  1.6187 -1.0916
  578MPD2     N 8630   4.109   2.192   1.207  0.0037 -0.6495  0.1858
  578MPD2    H5 8631   4.131   2.174   1.109 -1.7615  3.8808 -1.0566
  578MPD2    N1 8632   3.713   2.367   1.005  0.3731  0.3280 -0.2762
  578MPD2    H7 8633   3.623   2.412   1.014  0.4428 -0.0304  2.3212
  579TMC3    C1 8634   4.337   2.153   1.254 -0.9429  0.0681 -0.3694
  579TMC3    C2 8635   4.439   2.225   1.315  0.1124 -0.8545  0.0914
  579TMC3    C3 8636   4.568   2.213   1.265  0.6226  0.4104 -0.5165
  579TMC3    C4 8637   4.361   2.085   1.137  0.6570 -0.5790  0.6247
  579TMC3    C5 8638   4.492   2.078   1.095  0.8805  0.4893  0.2801
  579TMC3    C6 8639   4.596   2.126   1.166 -0.2470  0.2736  0.1392
  579TMC3     C 8640   4.204   2.184   1.301 -0.2404  0.3575  0.2875
  579TMC3     O 8641   4.210   2.208   1.424  0.0108 -0.0572  0.3042
  579TMC3     H 8642   4.413   2.293   1.395  0.4559 -1.9772  1.1690
  579TMC3    H1 8643   4.287   2.012   1.104 -1.5956  1.0595  2.0134
  579TMC3    H2 8644   4.692   2.108   1.119 -0.1825  0.8655  0.0457
  579TMC3    C7 8645   4.519   1.996   0.979  0.6228 -1.1491  0.0580
  579TMC3    C8 8646   4.674   2.298   1.324 -0.4382  0.5046  0.1165
  579TMC3    O1 8647   4.626   1.942   0.971 -0.0461 -0.6158 -0.6960
  579TMC3    O2 8648   4.656   2.346   1.438 -0.4468  0.0657 -0.3207
  580TMC3    C1 8649   4.427   1.817  12.601 -0.6891  0.1070  0.6761
  580TMC3    C2 8650   4.549   1.850  12.547 -0.4274 -0.1055 -0.2316
  580TMC3    C3 8651   4.608   1.755  12.471  0.1407  0.2030  0.3288
  580TMC3    C4 8652   4.369   1.693  12.571 -0.4180  0.0661 -0.1993
  580TMC3    C5 8653   4.428   1.605  12.484 -0.4870 -0.7913  0.3123
  580TMC3    C6 8654   4.555   1.630  12.445 -0.1558  0.0167  0.1112
  580TMC3     C 8655   4.328   1.922  12.568  0.7793  0.4429 -0.8659
  580TMC3     O 8656   4.369   2.007  12.487 -0.1763  0.4691 -0.3161
  580TMC3     H 8657   4.603   1.944  12.553  1.4575 -0.9993 -3.1046
  580TMC3    H1 8658   4.277   1.653  12.612 -1.2712  1.6662 -0.5437
  580TMC3    H2 8659   4.600   1.562  12.373 -0.4353  0.3071 -0.3390
  580TMC3    C7 8660   4.395   1.466  12.490  0.1241  0.2903 -0.3381
  580TMC3    C8 8661   4.683   1.804  12.355  0.4435 -0.0887 -0.8149
  580TMC3    O1 8662   4.350   1.426  12.597 -0.3187  0.6225  0.1799
  580TMC3    O2 8663   4.652   1.757  12.247 -0.2621  0.2081  0.3492
  581MPD2     C 8664   1.829   1.559  14.713 -0.0263  0.7893  0.6126
  581MPD2    C1 8665   1.791   1.651  14.813 -0.0345 -0.2303  0.7121
  581MPD2    C2 8666   1.670   1.720  14.798  0.4705  0.0527 -0.2719
  581MPD2    C3 8667   1.582   1.689  14.695  0.1705 -0.4151 -0.4195
  581MPD2    C4 8668   1.622   1.583  14.610 -0.8627  0.2406 -0.1693
  581MPD2    C5 8669   1.744   1.524  14.616  0.5247 -0.1479 -0.0593
  581MPD2     H 8670   1.633   1.793  14.868 -0.4279 -0.4680 -0.2000
  581MPD2    H1 8671   1.559   1.540  14.533 -2.5108  3.2949 -0.5362
  581MPD2    H2 8672   1.924   1.508  14.710 -0.4577  0.0684 -0.5766
  581MPD2    H3 8673   1.766   1.441  14.549  0.3785 -0.3374  0.1264
  581MPD2     N 8674   1.454   1.750  14.687  0.3749 -0.5830  0.6315
  581MPD2    H5 8675   1.436   1.839  14.731  1.6872  1.0540 -2.1965
  581MPD2    N1 8676   1.882   1.670  14.917 -0.2389  0.1832  0.4207
  581MPD2    H7 8677   1.969   1.620  14.904  0.2968  1.5723 -1.3992
  582TMC3    C1 8678   1.954   1.679  15.147 -0.3649  0.5986 -0.1809
  582TMC3    C2 8679   1.951   1.726  15.277 -0.4643  0.1111 -0.1790
  582TMC3    C3 8680   2.012   1.652  15.375 -0.6848  0.8265  0.7124
  582TMC3    C4 8681   2.022   1.559  15.115 -0.4832  0.2455  0.2292
  582TMC3    C5 8682   2.059   1.479  15.227 -0.2771  0.1356  0.1544
  582TMC3    C6 8683   2.065   1.527  15.352  0.8338  0.0650 -0.4753
  582TMC3     C 8684   1.870   1.731  15.041 -0.3343 -0.1515 -0.0354
  582TMC3     O 8685   1.777   1.798  15.082 -0.0131  0.3827 -0.0089
  582TMC3     H 8686   1.899   1.814  15.313 -2.4208 -0.1349 -2.4185
  582TMC3    H1 8687   2.021   1.512  15.017 -0.3670 -0.1364  0.4094
  582TMC3    H2 8688   2.112   1.468  15.430  3.3992  1.5111 -0.9357
  582TMC3    C7 8689   2.113   1.346  15.205 -0.4074 -0.2650  0.0492
  582TMC3    C8 8690   2.047   1.713  15.504  0.1627 -0.0378 -0.1628
  582TMC3    O1 8691   2.214   1.315  15.266  0.2149 -0.2811  0.2566
  582TMC3    O2 8692   1.963   1.792  15.548  0.5283 -0.0709 -0.2153
  583MPD2     C 8693   1.732   3.225  16.758  0.1823  0.1420 -0.0470
  583MPD2    C1 8694   1.737   3.344  16.695  0.4650  0.2581 -0.7627
  583MPD2    C2 8695   1.711   3.458  16.764 -0.3435 -0.6335 -0.7748
  583MPD2    C3 8696   1.675   3.453  16.896  0.6295 -0.1545 -0.8440
  583MPD2    C4 8697   1.669   3.325  16.957  0.5118 -0.2997 -0.3286
  583MPD2    C5 8698   1.693   3.219  16.888 -0.1923 -0.6670 -0.6895
  583MPD2     H 8699   1.713   3.546  16.700  2.1401 -0.2261 -0.1200
  583MPD2    H1 8700   1.643   3.320  17.062 -1.0949  0.0099 -0.7069
  583MPD2    H2 8701   1.730   3.129  16.708 -3.8120 -0.1055  0.5550
  583MPD2    H3 8702   1.684   3.119  16.928 -0.8740 -0.5292 -0.5156
  583MPD2     N 8703   1.643   3.577  16.969 -0.0568  0.8127  0.4461
  583MPD2    H5 8704   1.632   3.660  16.912 -1.8665  0.6482  0.5597
  583MPD2    N1 8705   1.786   3.359  16.561 -0.1329  0.1321 -0.3214
  583MPD2    H7 8706   1.797   3.452  16.522 -0.2489 -0.5209 -1.9216
  584TMC3    C1 8707   1.613   3.714  17.168 -0.1680  0.1793 -0.7761
  584TMC3    C2 8708   1.614   3.837  17.100 -0.3507  0.4098  0.0770
  584TMC3    C3 8709   1.604   3.948  17.179  0.0009 -0.3805 -0.8660
  584TMC3    C4 8710   1.589   3.705  17.302 -0.6499 -0.4010 -0.4579
  584TMC3    C5 8711   1.582   3.827  17.374 -0.1510 -0.3405  0.3931
  584TMC3    C6 8712   1.579   3.949  17.315  0.3807 -0.5790 -0.0574
  584TMC3     C 8713   1.638   3.582  17.105 -0.4114  0.8116  0.0781
  584TMC3     O 8714   1.669   3.493  17.183  0.2288  0.0077  0.2650
  584TMC3     H 8715   1.616   3.844  16.991  1.1909 -1.2396  0.0111
  584TMC3    H1 8716   1.586   3.606  17.346 -1.1403  0.5248  1.5804
  584TMC3    H2 8717   1.559   4.042  17.367  0.6470 -1.8630  2.3780
  584TMC3    C7 8718   1.551   3.819  17.513 -0.2483 -0.3943 -0.4983
  584TMC3    C8 8719   1.630   4.074  17.114 -0.1002  0.1884 -0.2598
  584TMC3    O1 8720   1.490   3.715  17.538 -0.5909 -0.2067 -0.4831
  584TMC3    O2 8721   1.628   4.069  16.987  0.3204 -0.2706 -0.1840
  585MPD2     C 8722   0.775   2.306  17.467  0.2385  0.0223 -0.4579
  585MPD2    C1 8723   0.857   2.399  17.405  0.1713 -0.0565  0.3868
  585MPD2    C2 8724   0.949   2.362  17.303  0.0457 -0.1990  0.2570
  585MPD2    C3 8725   0.941   2.232  17.257 -0.5779 -0.4092  0.9400
  585MPD2    C4 8726   0.856   2.139  17.324 -0.5686  0.2748 -0.0909
  585MPD2    C5 8727   0.767   2.181  17.419 -0.0643 -1.0084  0.3553
  585MPD2     H 8728   1.008   2.436  17.251  2.8300  0.1567  3.9225
  585MPD2    H1 8729   0.863   2.033  17.303 -1.5462 -0.0659  1.2733
  585MPD2    H2 8730   0.707   2.327  17.548  2.0444  0.6871  0.8784
  585MPD2    H3 8731   0.698   2.105  17.454 -1.6597  0.4135  0.3165
  585MPD2     N 8732   1.038   2.179  17.164 -0.8528 -0.3434  0.0302
  585MPD2    H5 8733   1.035   2.079  17.147  0.1841 -0.5430  1.0083
  585MPD2    N1 8734   0.841   2.532  17.451 -0.1668 -0.2532 -0.2402
  585MPD2    H7 8735   0.774   2.540  17.527  0.4945  2.1625  0.0735
  586TMC3    C1 8736   1.195   2.143  17.008 -0.7677 -0.2589 -0.3533
  586TMC3    C2 8737   1.328   2.116  17.005  0.4264  0.0243 -0.5994
  586TMC3    C3 8738   1.361   2.002  16.933  0.1007  0.3760 -0.0605
  586TMC3    C4 8739   1.100   2.074  16.939  0.3386 -0.6476  0.8966
  586TMC3    C5 8740   1.139   1.974  16.856 -0.5414  0.3824  0.9589
  586TMC3    C6 8741   1.272   1.934  16.856  0.3043 -0.4947  0.1055
  586TMC3     C 8742   1.153   2.233  17.119  0.2082  0.0911 -0.4021
  586TMC3     O 8743   1.211   2.341  17.144  0.8608  0.3355 -0.9924
  586TMC3     H 8744   1.392   2.170  17.074  1.4428 -1.1539 -0.6246
  586TMC3    H1 8745   0.999   2.113  16.934  0.4982 -0.4022 -0.4858
  586TMC3    H2 8746   1.306   1.861  16.783  0.3248 -0.9446  0.5692
  586TMC3    C7 8747   1.039   1.875  16.826  0.1820  0.7815  0.0061
  586TMC3    C8 8748   1.484   1.935  16.975 -0.5589 -0.2174 -0.2483
  586TMC3    O1 8749   1.071   1.753  16.831  0.2176  0.8648 -0.4239
  586TMC3    O2 8750   1.577   2.002  17.024  0.4690 -0.4979 -0.3649
  587TMC3    C1 8751   2.403   0.812  16.721  0.2848  0.3874  0.5147
  587TMC3    C2 8752   2.515   0.879  16.716 -0.1064 -0.0755 -0.4151
  587TMC3    C3 8753   2.626   0.815  16.773  0.6008 -0.1799  0.0406
  587TMC3    C4 8754   2.390   0.693  16.796 -0.1980 -0.3890 -0.0815
  587TMC3    C5 8755   2.501   0.631  16.834 -0.7521  0.0590  0.1701
  587TMC3    C6 8756   2.624   0.684  16.814  0.0826 -0.1429  0.1248
  587TMC3     C 8757   2.291   0.868  16.650  0.2408  0.2942  0.1537
  587TMC3     O 8758   2.277   0.989  16.648 -0.2109  0.2538  0.1157
  587TMC3     H 8759   2.520   0.970  16.658  2.3598  0.5262  0.7474
  587TMC3    H1 8760   2.291   0.651  16.810  0.1671 -1.4835 -0.7300
  587TMC3    H2 8761   2.717   0.634  16.839  0.7640  2.1541  2.2566
  587TMC3    C7 8762   2.487   0.530  16.938  0.4410  0.3640 -0.2339
  587TMC3    C8 8763   2.760   0.878  16.754 -0.3118  0.2688 -0.9684
  587TMC3    O1 8764   2.379   0.528  16.995  0.3509 -0.2454 -0.3094
  587TMC3    O2 8765   2.855   0.808  16.731 -0.1430 -0.3528  0.8300
  588TMC3    C1 8766   0.850   3.837   9.852  0.3238  0.2244 -0.8306
  588TMC3    C2 8767   0.814   3.709   9.866  0.2970  0.0776 -0.0416
  588TMC3    C3 8768   0.912   3.611   9.867 -0.4194 -0.7689 -0.3719
  588TMC3    C4 8769   0.981   3.874   9.825 -0.1873 -0.3562 -0.3765
  588TMC3    C5 8770   1.074   3.772   9.813 -0.3253 -0.0461 -0.9104
  588TMC3    C6 8771   1.041   3.638   9.832 -0.2950  0.3803  0.4634
  588TMC3     C 8772   0.758   3.943   9.874  0.3580  0.2104 -1.1156
  588TMC3     O 8773   0.637   3.940   9.843 -0.1950  0.0651 -0.2533
  588TMC3     H 8774   0.713   3.687   9.899  0.4563  1.9411  1.6974
  588TMC3    H1 8775   1.004   3.974   9.789  2.0518 -0.1703  1.5021
  588TMC3    H2 8776   1.112   3.557   9.819  0.2266  0.8856  0.2085
  588TMC3    C7 8777   1.212   3.816   9.781 -0.7426 -0.0203  0.2396
  588TMC3    C8 8778   0.847   3.479   9.870  0.7196 -0.1574  0.6271
  588TMC3    O1 8779   1.290   3.754   9.707 -0.0083  0.0270 -0.8852
  588TMC3    O2 8780   0.729   3.481   9.843 -0.2332  0.5085 -0.9101
  589TMC3    C1 8781   0.246   0.882   0.982 -0.1763 -0.4245  0.6761
  589TMC3    C2 8782   0.379   0.909   0.977 -0.4602  0.9024  0.3870
  589TMC3    C3 8783   0.461   0.795   0.974 -0.8092  0.3132 -0.0228
  589TMC3    C4 8784   0.190   0.754   0.979  0.6089  0.1381 -0.8894
  589TMC3    C5 8785   0.275   0.650   0.977 -0.6990 -0.3126  0.0042
  589TMC3    C6 8786   0.407   0.672   0.991 -0.4543 -0.5164  0.2069
  589TMC3     C 8787   0.148   0.988   1.009 -0.6494  0.5326  0.6717
  589TMC3     O 8788   0.038   0.980   0.959  0.0572 -0.0886 -0.0942
  589TMC3     H 8789   0.421   1.009   0.979 -3.6387  2.2613 -0.5396
  589TMC3    H1 8790   0.081   0.751   0.982  0.7249 -0.7295  1.6344
  589TMC3    H2 8791   0.469   0.584   1.004 -0.0898 -0.0392  1.8533
  589TMC3    C7 8792   0.209   0.526   1.009 -0.4734 -1.2073  0.1881
  589TMC3    C8 8793   0.601   0.823   0.960 -0.1307  0.3311  0.0402
  589TMC3    O1 8794   0.087   0.530   1.009 -0.2544  0.5505  0.5550
  589TMC3    O2 8795   0.643   0.941   0.950  0.0593 -0.1555  0.9065
  590MPD2     C 8796   4.291   4.028  16.685  0.4616  0.1011  0.8228
  590MPD2    C1 8797   4.244   4.006  16.561  0.4740 -0.4340  0.6780
  590MPD2    C2 8798   4.247   4.112  16.470  0.3276 -0.0305 -0.3507
  590MPD2    C3 8799   4.299   4.234  16.491 -0.4587 -0.5170  0.3519
  590MPD2    C4 8800   4.359   4.250  16.614 -0.0706  0.0857  0.2636
  590MPD2    C5 8801   4.362   4.146  16.702 -0.3958  0.4756 -0.1119
  590MPD2     H 8802   4.199   4.097  16.374 -1.1473  1.7238  0.1184
  590MPD2    H1 8803   4.408   4.344  16.635 -1.0190  0.5984  0.1565
  590MPD2    H2 8804   4.293   3.955  16.766 -0.0515 -0.3486  0.4307
  590MPD2    H3 8805   4.410   4.158  16.799 -1.0994  1.5252  0.1096
  590MPD2     N 8806   4.312   4.324  16.380 -0.1229  0.2442 -0.5153
  590MPD2    H5 8807   4.282   4.300  16.286  0.7009  0.8333 -0.9265
  590MPD2    N1 8808   4.156   3.900  16.532 -0.2128 -0.4268 -0.2183
  590MPD2    H7 8809   4.111   3.893  16.441 -0.3113  0.3497 -0.2239
  591TMC3    C1 8810   4.375   4.525  16.278  0.5513  0.0021  0.3394
  591TMC3    C2 8811   4.432   4.459  16.171  0.9611  0.1974 -0.0336
  591TMC3    C3 8812   4.487   4.522  16.067  0.1105 -0.2904  0.4270
  591TMC3    C4 8813   4.390   4.660  16.292 -0.0381 -0.0471  0.0260
  591TMC3    C5 8814   4.450   4.724  16.186 -0.1873  0.4104  1.0576
  591TMC3    C6 8815   4.497   4.658  16.074 -0.8077 -0.1058 -0.5216
  591TMC3     C 8816   4.351   4.456  16.404 -0.3605 -0.2632  0.8940
  591TMC3     O 8817   4.361   4.520  16.508 -0.1955  0.2594 -0.4881
  591TMC3     H 8818   4.425   4.351  16.161  3.4042  0.0053  0.3774
  591TMC3    H1 8819   4.348   4.718  16.373  4.3920  1.0025  1.5820
  591TMC3    H2 8820   4.514   4.714  15.983 -1.2824 -0.1778 -0.6583
  591TMC3    C7 8821   4.472   0.131  16.200  0.0209 -0.9947  0.4573
  591TMC3    C8 8822   4.531   4.444  15.954  0.6136  0.6351 -0.6061
  591TMC3    O1 8823   4.425   0.191  16.291  0.3063  0.5088 -0.2823
  591TMC3    O2 8824   4.502   4.326  15.955 -0.3584  0.2963 -0.0449
  592MPD2     C 8825   4.668   1.399  11.880  0.2231 -0.1292  0.1802
  592MPD2    C1 8826   4.727   1.381  12.005  0.6149 -0.6298  0.3881
  592MPD2    C2 8827   4.717   1.260  12.064 -0.5834 -0.3286  0.3050
  592MPD2    C3 8828   4.643   1.161  11.998 -0.1703  0.2973  0.9111
  592MPD2    C4 8829   4.583   1.181  11.875  0.1364 -0.7020 -0.1047
  592MPD2    C5 8830   4.616   1.296  11.814  1.0766  0.0195 -0.0891
  592MPD2     H 8831   0.019   1.238  12.163  2.0491  0.6155 -0.5291
  592MPD2    H1 8832   4.536   1.107  11.812  0.6200 -0.0533 -1.2407
  592MPD2    H2 8833   4.684   1.495  11.833 -0.9604 -1.0523 -2.1085
  592MPD2    H3 8834   4.582   1.321  11.714 -0.2733 -0.0639  0.3467
  592MPD2     N 8835   4.630   1.040  12.068 -0.5621  0.1969  0.0017
  592MPD2    H5 8836   4.687   1.030  12.151  0.2902 -1.6410 -0.8047
  592MPD2    N1 8837   0.067   1.489  12.049 -0.4932  0.2989  0.3912
  592MPD2    H7 8838   0.074   1.572  11.992  1.0010  1.7883  2.7302
  593TMC3    C1 8839   0.204   1.620  12.186  0.3355 -0.4368 -0.3591
  593TMC3    C2 8840   0.258   1.650  12.311  0.1924  0.2607  0.2770
  593TMC3    C3 8841   0.350   1.743  12.318 -0.5942  0.0546  0.1093
  593TMC3    C4 8842   0.225   1.698  12.075  0.1353  0.1622 -0.2579
  593TMC3    C5 8843   0.309   1.805  12.092  0.7885 -1.3939 -0.5593
  593TMC3    C6 8844   0.369   1.830  12.208 -0.1403  0.3346 -0.0213
  593TMC3     C 8845   0.123   1.499  12.176  0.2980 -0.1424  0.0315
  593TMC3     O 8846   0.105   1.437  12.279 -0.1606  0.6147 -0.0274
  593TMC3     H 8847   0.238   1.585  12.396 -2.1797  3.0660  1.8864
  593TMC3    H1 8848   0.188   1.675  11.976 -0.8908 -1.6746  0.5380
  593TMC3    H2 8849   0.436   1.915  12.214  1.1377 -0.6754  0.2167
  593TMC3    C7 8850   0.340   1.887  11.976 -0.0873 -1.0687  0.5642
  593TMC3    C8 8851   0.365   1.804  12.452 -0.4484 -0.2870 -0.8047
  593TMC3    O1 8852   0.449   1.943  11.968  0.5889 -0.3950  0.0038
  593TMC3    O2 8853   0.278   1.775  12.532  0.5928 -0.0468  0.0528
  594MPD2     C 8854   3.622   4.547  14.228  0.1388  0.0285 -0.3134
  594MPD2    C1 8855   3.591   4.593  14.356  0.3546 -0.2200 -0.4103
  594MPD2    C2 8856   3.641   4.717  14.402  0.2370 -0.3153  0.1530
  594MPD2    C3 8857   3.728   0.051  14.315  0.0220 -0.1520 -0.0553
  594MPD2    C4 8858   3.749   0.004  14.180 -0.6020  0.6977  0.0387
  594MPD2    C5 8859   3.704   4.619  14.140  0.0543  0.2000 -0.6839
  594MPD2     H 8860   3.622   0.017  14.502  3.2069  1.0613  0.2164
  594MPD2    H1 8861   3.831   0.048  14.125 -0.2207  1.0345  0.8906
  594MPD2    H2 8862   3.601   4.446  14.193  0.0814 -1.2778  3.5065
  594MPD2    H3 8863   3.728   4.570  14.046  0.1307  0.7316 -0.9456
  594MPD2     N 8864   3.790   0.165  14.363  0.4696 -0.3867 -0.4132
  594MPD2    H5 8865   3.785   0.183  14.463 -1.9562 -0.0887 -0.5836
  594MPD2    N1 8866   3.513   4.502  14.437 -0.4757  0.0555 -0.1973
  594MPD2    H7 8867   3.480   4.416  14.395  0.2072 -0.9751  1.3896
  595TMC3    C1 8868   4.096   0.515  14.399 -0.2865  0.0062 -0.7052
  595TMC3    C2 8869   4.030   0.425  14.321  0.6891  0.6429  0.3258
  595TMC3    C3 8870   3.927   0.361  14.378 -0.0596  0.4241  0.7382
  595TMC3    C4 8871   4.064   0.541  14.532  0.5613  0.1926 -0.3209
  595TMC3    C5 8872   3.960   0.466  14.582 -0.1380 -0.4020  0.0776
  595TMC3    C6 8873   3.891   0.375  14.510  0.1465 -0.5029  0.5753
  595TMC3     C 8874   4.234   0.563  14.362  0.3359 -0.6234 -0.0002
  595TMC3     O 8875   4.306   0.601  14.454 -0.2034  0.5004  0.1693
  595TMC3     H 8876   4.057   0.414  14.216 -0.6735 -3.3064  0.3879
  595TMC3    H1 8877   4.117   0.614  14.592  1.9000 -0.7620 -0.3522
  595TMC3    H2 8878   3.798   0.333  14.547 -0.2784 -0.6270 -0.6410
  595TMC3    C7 8879   3.923   0.495  14.718  0.4466  0.2190 -0.3455
  595TMC3    C8 8880   3.867   0.256  14.291  0.1424 -0.2187  0.1468
  595TMC3    O1 8881   3.891   0.608  14.749 -0.5743  1.0627  0.1967
  595TMC3    O2 8882   3.896   0.266  14.172 -0.1197 -0.4712 -0.0854
  596MPD2     C 8883   2.536   3.030  16.679  0.3372  0.6967 -0.2892
  596MPD2    C1 8884   2.593   3.144  16.630 -0.3614 -0.1516  0.2175
  596MPD2    C2 8885   2.661   3.139  16.511 -0.1742  0.0999  1.0323
  596MPD2    C3 8886   2.659   3.024  16.433 -0.2445  0.2195 -0.8362
  596MPD2    C4 8887   2.603   2.908  16.480  0.8872  0.6250  0.1861
  596MPD2    C5 8888   2.553   2.911  16.607 -0.1641  0.3407  0.4036
  596MPD2     H 8889   2.707   3.230  16.474 -0.5274 -0.1104  0.0667
  596MPD2    H1 8890   2.601   2.814  16.425 -0.7673  0.8270 -0.0889
  596MPD2    H2 8891   2.494   3.023  16.779  0.0963  0.3802 -0.4131
  596MPD2    H3 8892   2.497   2.822  16.636 -1.5529  1.1882  0.3308
  596MPD2     N 8893   2.700   3.013  16.304  0.0875  0.2794 -0.5377
  596MPD2    H5 8894   2.665   2.937  16.247  0.4556  1.1131 -1.8785
  596MPD2    N1 8895   2.597   3.269  16.697  0.5349  0.2118  0.6650
  596MPD2    H7 8896   2.647   3.346  16.654 -1.1135  2.3100  2.5041
  597TMC3    C1 8897   2.520   3.445  16.840 -0.2336 -0.3003 -0.3979
  597TMC3    C2 8898   2.597   3.527  16.763  0.4731  0.8378 -0.9525
  597TMC3    C3 8899   2.581   3.661  16.783 -0.0920  0.4531  0.3808
  597TMC3    C4 8900   2.449   3.487  16.944 -0.2239  0.9018  0.0700
  597TMC3    C5 8901   2.453   3.622  16.960  0.1834 -0.4050  0.3687
  597TMC3    C6 8902   2.507   3.714  16.878  0.2734  0.6720 -0.1207
  597TMC3     C 8903   2.521   3.299  16.809  0.4284 -0.4055  0.7979
  597TMC3     O 8904   2.444   3.227  16.867  0.4779  0.3515  0.0277
  597TMC3     H 8905   2.640   3.501  16.667 -1.3710 -1.7602 -1.0708
  597TMC3    H1 8906   2.369   3.429  16.988  0.2418  0.3658  0.2039
  597TMC3    H2 8907   2.509   3.821  16.895 -1.4342  0.6644  0.1388
  597TMC3    C7 8908   2.362   3.676  17.062 -0.0204 -0.4085  0.3164
  597TMC3    C8 8909   2.644   3.756  16.692  0.3111 -0.2281 -0.1817
  597TMC3    O1 8910   2.343   3.598  17.153 -0.3654  0.9351  0.3834
  597TMC3    O2 8911   2.596   3.867  16.697  0.0004 -0.2550 -0.8023
  598TMC3    C1 8912   0.698   4.494  15.410  0.6723 -0.6547  0.0822
  598TMC3    C2 8913   0.628   4.374  15.411 -0.2986 -0.3948 -0.3247
  598TMC3    C3 8914   0.547   4.353  15.298 -1.5045  0.6482 -0.3641
  598TMC3    C4 8915   0.694   4.582  15.308 -0.1095  0.2485 -0.0407
  598TMC3    C5 8916   0.613   4.565  15.200 -0.6324 -0.8285  0.4841
  598TMC3    C6 8917   0.540   4.449  15.200  0.5545 -0.5043  0.5651
  598TMC3     C 8918   0.747   4.557  15.535 -0.7968 -0.9951 -0.2960
  598TMC3     O 8919   0.846   4.629  15.511  0.0517  0.2776 -0.4927
  598TMC3     H 8920   0.646   4.297  15.485  0.9297  0.0306 -0.1737
  598TMC3    H1 8921   0.752   4.674  15.315 -1.4841  1.1187  0.0772
  598TMC3    H2 8922   0.480   4.416  15.116 -0.1959  1.5495  0.2964
  598TMC3    C7 8923   0.652   4.599  15.067 -1.1878  0.5421  0.4306
  598TMC3    C8 8924   0.501   4.217  15.263 -0.1469  0.0520 -0.1541
  598TMC3    O1 8925   0.649   4.502  14.994 -0.0851 -0.4852 -0.3431
  598TMC3    O2 8926   0.458   4.181  15.152 -0.4103 -0.3536  0.2925
  599MPD2     C 8927   1.127   2.022  15.626  0.3768  0.4493 -0.2865
  599MPD2    C1 8928   1.073   1.900  15.620 -0.3934 -0.4450 -0.0728
  599MPD2    C2 8929   0.944   1.883  15.661 -0.0697  0.2989  0.1759
  599MPD2    C3 8930   0.880   1.988  15.719  0.4093  0.4061 -0.3749
  599MPD2    C4 8931   0.929   2.115  15.719 -0.1019 -0.1061 -0.6016
  599MPD2    C5 8932   1.062   2.133  15.677 -0.0594 -0.1317 -0.0993
  599MPD2     H 8933   0.895   1.788  15.641  1.1913 -0.1056 -1.0014
  599MPD2    H1 8934   0.868   2.198  15.752 -1.3293 -1.1878 -0.1491
  599MPD2    H2 8935   1.231   2.046  15.609  0.1940  0.7527 -0.9777
  599MPD2    H3 8936   1.104   2.232  15.691 -0.1263  0.0262 -0.9915
  599MPD2     N 8937   0.748   1.982  15.771 -0.0059 -0.3452 -0.0415
  599MPD2    H5 8938   0.700   2.069  15.792 -0.5286 -0.8313  0.7948
  599MPD2    N1 8939   1.165   1.792  15.596  0.2181  0.3014 -0.4172
  599MPD2    H7 8940   1.265   1.805  15.606  0.4286 -0.5811 -1.3585
  600TMC3    C1 8941   0.547   1.897  15.837  0.8013 -0.1086  0.0940
  600TMC3    C2 8942   0.442   1.816  15.809 -0.2995  0.1284  0.4310
  600TMC3    C3 8943   0.323   1.845  15.860 -0.5125  0.1689  0.8278
  600TMC3    C4 8944   0.545   2.004  15.927 -0.4325  0.3580  0.8821
  600TMC3    C5 8945   0.412   2.028  15.969  0.6386  1.1477 -0.5085
  600TMC3    C6 8946   0.303   1.950  15.943 -0.2068 -0.7264 -0.6792
  600TMC3     C 8947   0.675   1.865  15.791  0.1260 -0.1979  0.1605
  600TMC3     O 8948   0.700   1.745  15.776  0.5260  0.4717 -0.1303
  600TMC3     H 8949   0.459   1.739  15.734  1.9207  0.7510  0.2818
  600TMC3    H1 8950   0.632   2.043  15.979 -0.1952  0.8075  0.1455
  600TMC3    H2 8951   0.205   1.962  15.988 -0.5458  0.3681 -1.7051
  600TMC3    C7 8952   0.395   2.122  16.083 -0.1084 -0.5084  0.0440
  600TMC3    C8 8953   0.212   1.786  15.789  0.3314 -0.4532 -0.9874
  600TMC3    O1 8954   0.296   2.105  16.154 -0.6161  0.1262 -0.1043
  600TMC3    O2 8955   0.219   1.682  15.725  0.5154  0.5931 -0.2808
  601MPD2     C 8956   2.965   0.641   0.137 -0.4238  0.2236  0.1649
  601MPD2    C1 8957   2.856   0.619   0.213  0.0620 -0.2276 -0.0963
  601MPD2    C2 8958   2.852   0.507   0.286  0.2773  0.0850  0.3021
  601MPD2    C3 8959   2.951   0.417   0.289 -0.1391  0.1633 -0.7277
  601MPD2    C4 8960   3.056   0.443   0.205  0.0503  0.1963 -0.1942
  601MPD2    C5 8961   3.065   0.555   0.129  0.3520  0.1764  0.6611
  601MPD2     H 8962   2.759   0.491   0.338  0.0155  1.6970  0.3287
  601MPD2    H1 8963   3.148   0.386   0.205 -0.3581 -0.4587  1.9700
  601MPD2    H2 8964   2.980   0.731   0.078 -0.7801 -0.2036 -0.5653
  601MPD2    H3 8965   3.141   0.581   0.056 -1.4903  1.3026 -0.8390
  601MPD2     N 8966   2.943   0.295   0.361  0.1812  0.2854 -0.1408
  601MPD2    H5 8967   3.019   0.231   0.340  0.0660  0.4992 -1.2102
  601MPD2    N1 8968   2.745   0.706   0.210 -0.2578 -0.8527  0.1238
  601MPD2    H7 8969   2.660   0.689   0.263 -0.5286 -0.1157 -0.0720
  602TMC3    C1 8970   2.616   0.904   0.156 -0.1513 -0.5151  0.3909
  602TMC3    C2 8971   2.623   1.042   0.166 -0.7171 -0.7394  0.0127
  602TMC3    C3 8972   2.501   1.098   0.187  0.5792  0.9381 -0.2998
  602TMC3    C4 8973   2.505   0.829   0.165  0.7750  0.2462  0.2453
  602TMC3    C5 8974   2.384   0.894   0.177 -0.5517  0.3147  0.6229
  602TMC3    C6 8975   2.383   1.029   0.187 -0.7408 -0.0209 -0.0842
  602TMC3     C 8976   2.741   0.824   0.148  0.4285 -0.4868  0.3175
  602TMC3     O 8977   2.831   0.885   0.088  0.1074 -0.1913 -0.0301
  602TMC3     H 8978   2.717   1.092   0.185 -1.3662  0.9519 -1.1740
  602TMC3    H1 8979   2.511   0.724   0.137 -3.0940  0.6331 -2.0797
  602TMC3    H2 8980   2.289   1.083   0.181 -1.1954 -0.7758  0.2235
  602TMC3    C7 8981   2.279   0.841   0.092  0.3361  0.6130 -0.4552
  602TMC3    C8 8982   2.485   1.212   0.098 -0.2228  0.0541  0.7319
  602TMC3    O1 8983   2.168   0.888   0.118 -0.1620 -0.0337  0.8220
  602TMC3    O2 8984   2.543   1.319   0.119  0.6074 -0.6012  0.2783
  603TMC3    C1 8985   0.583   0.965  10.618  0.0172  0.1808  0.2917
  603TMC3    C2 8986   0.668   0.944  10.726 -0.1717  0.5116  0.0524
  603TMC3    C3 8987   0.756   1.049  10.756  0.8338 -0.3312  0.4549
  603TMC3    C4 8988   0.574   1.083  10.546  0.0867  0.2496  0.0771
  603TMC3    C5 8989   0.651   1.186  10.594 -0.8617 -0.2776 -0.4088
  603TMC3    C6 8990   0.737   1.173  10.699 -0.2424 -0.2710  0.2389
  603TMC3     C 8991   0.489   0.856  10.580  0.3081  0.6266 -0.2190
  603TMC3     O 8992   0.393   0.886  10.513  0.2083 -0.2221 -0.6036
  603TMC3     H 8993   0.668   0.855  10.786  1.4456  0.0845 -0.5670
  603TMC3    H1 8994   0.515   1.096  10.455  0.1780 -0.5471 -0.0904
  603TMC3    H2 8995   0.812   1.248  10.722 -1.4961  1.1188 -0.1456
  603TMC3    C7 8996   0.642   1.321  10.539  0.4337 -0.3841 -0.0153
  603TMC3    C8 8997   0.870   1.017  10.846 -0.4273 -0.2911 -0.0146
  603TMC3    O1 8998   0.743   1.391  10.562 -0.0806  0.2607  0.1394
  603TMC3    O2 8999   0.881   0.898  10.879 -0.4216 -0.4297  0.2091
  604MPD2     C 9000   1.609   3.899  16.178 -0.0240  0.5368 -0.4049
  604MPD2    C1 9001   1.659   4.029  16.201  0.8286 -0.1600  0.2567
  604MPD2    C2 9002   1.749   4.087  16.114 -0.3335 -0.0317  0.7275
  604MPD2    C3 9003   1.780   4.026  15.995  0.4242 -0.0532 -0.3481
  604MPD2    C4 9004   1.720   3.904  15.956 -0.4361  0.4582 -0.5469
  604MPD2    C5 9005   1.644   3.844  16.054  0.1110 -0.7260 -0.1104
  604MPD2     H 9006   1.789   4.185  16.135  2.7542 -0.8707 -1.1393
  604MPD2    H1 9007   1.753   3.851  15.868 -1.5820  0.0652 -0.7403
  604MPD2    H2 9008   1.545   3.842  16.244 -0.1069 -0.9961 -1.8215
  604MPD2    H3 9009   1.621   3.739  16.042  3.1022 -1.3627 -0.2465
  604MPD2     N 9010   1.879   4.093  15.915  0.5757  1.2769 -0.8476
  604MPD2    H5 9011   1.912   4.184  15.944 -0.5081  1.9978 -1.8755
  604MPD2    N1 9012   1.633   4.093  16.323  0.0118  0.2939  0.1959
  604MPD2    H7 9013   1.678   4.181  16.341 -1.3383  0.3216  3.5059
  605TMC3    C1 9014   1.489   4.197  16.463  0.4614 -0.2311  0.3768
  605TMC3    C2 9015   1.592   4.270  16.503  0.0137  0.3331 -0.5474
  605TMC3    C3 9016   1.575   4.404  16.523 -0.0973 -0.5101 -0.5022
  605TMC3    C4 9017   1.359   4.242  16.469  0.2159  0.0484 -0.1967
  605TMC3    C5 9018   1.346   4.372  16.516  0.2951 -0.6684 -0.0964
  605TMC3    C6 9019   1.455   4.465  16.525 -1.0013 -0.1402  0.4436
  605TMC3     C 9020   1.516   4.073  16.390  0.1076  0.4548 -0.5218
  605TMC3     O 9021   1.415   4.011  16.364 -0.0842  0.2900 -0.0084
  605TMC3     H 9022   1.693   4.236  16.521 -1.0540 -3.0684 -0.9873
  605TMC3    H1 9023   1.287   4.163  16.452  0.8494 -0.5823  0.0392
  605TMC3    H2 9024   1.446   4.571  16.542  0.5550  0.1871 -0.7327
  605TMC3    C7 9025   1.212   4.440  16.507  0.0553 -0.0058  0.1095
  605TMC3    C8 9026   1.696   4.475  16.516  0.7297 -0.6518  0.0112
  605TMC3    O1 9027   1.204   4.558  16.512 -0.0121  0.7814  0.0442
  605TMC3    O2 9028   1.783   4.432  16.439 -0.0715 -0.5073  0.0075
  606TMC3    C1 9029   2.420   3.503  17.580  0.6901 -0.0057  0.2026
  606TMC3    C2 9030   2.482   3.441  17.676 -0.5092  0.8480 -0.2447
  606TMC3    C3 9031   2.590   3.363  17.651 -0.3804 -0.2946  0.2380
  606TMC3    C4 9032   2.464   3.492  17.448 -0.0557  0.1053 -0.2970
  606TMC3    C5 9033   2.577   3.420  17.414  0.5302  0.4743  0.8149
  606TMC3    C6 9034   2.640   3.355  17.524  0.0404 -0.0035  0.2546
  606TMC3     C 9035   2.371   3.637  17.612  0.6703 -0.7238  0.8458
  606TMC3     O 9036   2.284   3.686  17.541  0.3442  0.3794 -0.1068
  606TMC3     H 9037   2.439   3.443   0.029 -1.7907 -0.8429 -0.7628
  606TMC3    H1 9038   2.413   3.550  17.373 -2.3963 -1.8233 -0.2063
  606TMC3    H2 9039   2.732   3.302  17.504  0.8136  1.7335 -0.8830
  606TMC3    C7 9040   2.581   3.352  17.293  0.0594 -0.4105  0.4133
  606TMC3    C8 9041   2.648   3.261  17.742 -0.3378 -0.2828  0.9653
  606TMC3    O1 9042   2.691   3.346  17.243 -0.4711 -0.0168 -0.0369
  606TMC3    O2 9043   2.740   3.197  17.698  0.7330 -0.1586 -0.0298
  607MPD2     C 9044   0.426   1.321  11.368 -0.2088  0.3386  0.1434
  607MPD2    C1 9045   0.406   1.371  11.494  0.2871 -0.6657 -0.5153
  607MPD2    C2 9046   0.345   1.286  11.586 -0.0044 -0.3794 -0.7709
  607MPD2    C3 9047   0.304   1.165  11.547  0.9167  0.0410 -0.1995
  607MPD2    C4 9048   0.320   1.119  11.421  0.1391  0.1646  0.2116
  607MPD2    C5 9049   0.377   1.200  11.324  0.1658 -0.2632  0.2669
  607MPD2     H 9050   0.325   1.314  11.689  1.0324 -0.2625 -0.6085
  607MPD2    H1 9051   0.284   1.019  11.399  0.6872 -0.0639  0.3635
  607MPD2    H2 9052   0.469   1.385  11.291 -2.3924  0.0878 -1.2933
  607MPD2    H3 9053   0.392   1.157  11.225 -0.1793  1.0557 -0.3565
  607MPD2     N 9054   0.255   1.089  11.659 -0.0278  0.2922 -0.1104
  607MPD2    H5 9055   0.251   1.151  11.739  0.3164 -1.2103  1.0756
  607MPD2    N1 9056   0.448   1.497  11.539  0.1926  0.0364 -0.6663
  607MPD2    H7 9057   0.429   1.526  11.634  1.2260  1.1418 -0.8036
  608TMC3    C1 9058   0.604   1.680  11.562 -0.1830 -0.6358  0.9683
  608TMC3    C2 9059   0.567   1.705  11.692 -0.4503  0.6826  0.4775
  608TMC3    C3 9060   0.654   1.769  11.779  0.2289 -0.0724  0.2488
  608TMC3    C4 9061   0.727   1.726  11.518  0.1098  0.5817 -0.3449
  608TMC3    C5 9062   0.807   1.794  11.605  0.2815 -0.1135 -0.0636
  608TMC3    C6 9063   0.771   1.819  11.733 -0.1963  0.3048 -0.1255
  608TMC3     C 9064   0.550   1.575  11.477  0.3786  0.0257 -0.1956
  608TMC3     O 9065   0.620   1.546  11.383  0.0986  0.2864  0.0209
  608TMC3     H 9066   0.463   1.691  11.718  0.0107 -1.4015  1.1941
  608TMC3    H1 9067   0.760   1.707  11.416 -3.1064 -0.4263 -1.2261
  608TMC3    H2 9068   0.828   1.880  11.803  0.0592 -0.7027  0.5399
  608TMC3    C7 9069   0.938   1.823  11.556 -0.3394  0.9528  0.4068
  608TMC3    C8 9070   0.654   1.716  11.914 -0.1785  0.7722 -0.2825
  608TMC3    O1 9071   0.947   1.840  11.434  0.6125 -0.7607  0.3921
  608TMC3    O2 9072   0.726   1.774  11.993 -0.1609 -0.0927  0.2948
  609TMC3    C1 9073   3.988   0.481   9.309 -0.0131  0.5829  0.8464
  609TMC3    C2 9074   4.005   0.614   9.289  0.2963 -0.0669  0.3621
  609TMC3    C3 9075   4.129   0.656   9.254 -0.5212 -1.3301 -0.8653
  609TMC3    C4 9076   4.090   0.389   9.320  0.0115 -0.6905 -0.5509
  609TMC3    C5 9077   4.214   0.443   9.294 -0.2150 -0.4221 -0.0502
  609TMC3    C6 9078   4.243   0.576   9.270 -0.0854 -0.6392 -0.1235
  609TMC3     C 9079   3.851   0.429   9.332  0.1485 -0.2615 -0.0361
  609TMC3     O 9080   3.831   0.327   9.391 -0.1098 -0.0669 -0.3141
  609TMC3     H 9081   3.922   0.684   9.283 -0.6814 -1.2741 -0.1883
  609TMC3    H1 9082   4.063   0.285   9.305 -0.5459 -0.3894 -1.6110
  609TMC3    H2 9083   4.341   0.622   9.260 -0.3968  0.0704  0.1433
  609TMC3    C7 9084   4.320   0.349   9.295  0.0346  0.0162  0.1484
  609TMC3    C8 9085   4.157   0.803   9.258 -0.5848  0.2787  0.5142
  609TMC3    O1 9086   4.307   0.254   9.375 -0.3793  0.1659  0.1211
  609TMC3    O2 9087   4.270   0.835   9.221 -0.1650 -0.9734 -0.1782
  610TMC3    C1 9088   0.888   0.213  12.049  0.7547 -0.5716  0.6962
  610TMC3    C2 9089   0.753   0.249  12.068  0.0786 -0.6338 -0.7596
  610TMC3    C3 9090   0.721   0.335  12.174  0.7178 -0.0006  0.2973
  610TMC3    C4 9091   0.986   0.269  12.130 -0.5336  0.2704  0.2401
  610TMC3    C5 9092   0.947   0.345  12.242 -0.3542  0.2213 -0.1412
  610TMC3    C6 9093   0.814   0.390  12.260 -0.7391 -0.6691  0.2354
  610TMC3     C 9094   0.921   0.078  12.013  0.0816 -0.0490  0.1358
  610TMC3     O 9095   1.024   0.025  12.057  0.0722  0.0487 -0.5592
  610TMC3     H 9096   0.671   0.208  12.009  1.0299 -0.4778 -2.1814
  610TMC3    H1 9097   1.084   0.224  12.135 -0.2322  0.6719 -2.2568
  610TMC3    H2 9098   0.783   0.455  12.341  0.1991 -2.7921  2.2896
  610TMC3    C7 9099   1.024   0.328  12.365 -0.4349  0.5431  0.2470
  610TMC3    C8 9100   0.591   0.395  12.186 -0.3457 -0.5281 -0.7499
  610TMC3    O1 9101   1.096   0.231  12.370  0.0278  0.1923  0.4451
  610TMC3    O2 9102   0.560   0.449  12.290 -0.6813  0.5225 -0.4163
  611MPD2     C 9103   4.022   1.357  10.081 -0.4115 -0.2902  0.3317
  611MPD2    C1 9104   4.141   1.294  10.108  0.5165 -0.9611 -0.3328
  611MPD2    C2 9105   4.254   1.374  10.130 -0.5522 -0.4481  0.3259
  611MPD2    C3 9106   4.254   1.506  10.088 -0.0011 -0.2949 -0.4386
  611MPD2    C4 9107   4.137   1.563  10.048 -0.0004 -0.4803  0.8213
  611MPD2    C5 9108   4.021   1.489  10.052  0.1753  0.4841 -0.9726
  611MPD2     H 9109   4.345   1.334  10.171  0.8320  0.3901 -1.9315
  611MPD2    H1 9110   4.132   1.667  10.019  1.1047 -1.1565 -1.7794
  611MPD2    H2 9111   3.932   1.297  10.068  0.1705 -1.4071  1.4596
  611MPD2    H3 9112   3.928   1.534  10.019 -0.3735 -0.6886 -1.0269
  611MPD2     N 9113   4.361   1.593  10.089  0.5469  0.1824 -0.4768
  611MPD2    H5 9114   4.333   1.681  10.047  2.3984  1.8622  1.8231
  611MPD2    N1 9115   4.130   1.155  10.134  0.0573 -0.1532  0.6300
  611MPD2    H7 9116   4.041   1.109  10.120  0.9678 -2.0591  1.1668
  612TMC3    C1 9117   4.574   1.681  10.136  0.4373 -0.4816  0.6431
  612TMC3    C2 9118   4.715   1.672  10.150  0.3816  0.0200  0.5122
  612TMC3    C3 9119   0.048   1.784  10.165  0.3812 -0.0167 -0.7921
  612TMC3    C4 9120   4.515   1.802  10.143  0.3956 -0.4266  0.3747
  612TMC3    C5 9121   4.595   1.913  10.156 -0.0799  0.6683 -0.5607
  612TMC3    C6 9122   4.733   1.904  10.158  1.0326  0.6492 -0.2979
  612TMC3     C 9123   4.489   1.566  10.132  0.2105  0.8615 -0.3407
  612TMC3     O 9124   4.547   1.464  10.178  0.2449  0.0164  0.0545
  612TMC3     H 9125   0.021   1.573  10.138 -0.1877  0.0355 -1.6808
  612TMC3    H1 9126   4.408   1.819  10.135  0.3600 -0.3017  1.1351
  612TMC3    H2 9127   0.065   1.985  10.180 -0.1255  1.0739  1.7430
  612TMC3    C7 9128   4.526   2.046  10.140 -0.7504  0.0830  0.0196
  612TMC3    C8 9129   0.189   1.770  10.191 -0.2396 -0.1410 -0.3691
  612TMC3    O1 9130   4.403   2.052  10.150 -0.0773  0.2327 -0.3175
  612TMC3    O2 9131   0.257   1.868  10.152  0.0379  0.0764 -0.0579
  613MPD2     C 9132   3.740   3.074  16.770 -0.0678 -0.3597  0.7726
  613MPD2    C1 9133   3.681   3.116  16.649 -0.5393 -0.4397  0.2879
  613MPD2    C2 9134   3.611   3.020  16.579  0.4439  0.0632 -0.0129
  613MPD2    C3 9135   3.611   2.889  16.621  0.3506  0.1002  0.1870
  613MPD2    C4 9136   3.676   2.852  16.739  0.1073 -0.5462  0.1148
  613MPD2    C5 9137   3.733   2.943  16.819 -0.0526 -0.3010 -0.0628
  613MPD2     H 9138   3.570   3.041  16.481 -0.4185  0.0654  0.3435
  613MPD2    H1 9139   3.677   2.747  16.767  0.0328 -0.5971 -0.0779
  613MPD2    H2 9140   3.820   3.134  16.812  0.0486  0.5237 -0.7302
  613MPD2    H3 9141   3.788   2.907  16.904 -1.2746  0.8802  1.2400
  613MPD2     N 9142   3.559   2.780  16.542  0.3752  0.3167 -0.4388
  613MPD2    H5 9143   3.590   2.691  16.580 -0.9144 -0.4673 -1.2361
  613MPD2    N1 9144   3.713   3.246  16.598 -0.1933  0.2461 -0.6703
  613MPD2    H7 9145   3.777   3.305  16.650 -1.7440  0.8672  0.5248
  614TMC3    C1 9146   3.765   3.392  16.426  0.3464 -0.3743  0.1299
  614TMC3    C2 9147   3.885   3.332  16.430 -0.0492 -0.1646  0.4925
  614TMC3    C3 9148   3.946   3.318  16.307  0.1465 -0.1412  0.3711
  614TMC3    C4 9149   3.712   3.454  16.316 -0.1469 -1.1022  0.5040
  614TMC3    C5 9150   3.777   3.442  16.200 -0.6616  0.1540  0.0758
  614TMC3    C6 9151   3.896   3.368  16.192  0.1952  0.3309  0.2049
  614TMC3     C 9152   3.669   3.293  16.485  0.3330  0.3161  0.2878
  614TMC3     O 9153   3.567   3.260  16.419  0.3477  0.3850 -0.3418
  614TMC3     H 9154   3.925   3.300  16.525  0.9630  2.7995  1.0520
  614TMC3    H1 9155   3.611   3.495  16.310 -0.7645 -2.9872 -1.8939
  614TMC3    H2 9156   3.937   3.349  16.094 -0.5936  0.8746 -0.2348
  614TMC3    C7 9157   3.723   3.523  16.088 -0.6194 -0.0887 -0.5800
  614TMC3    C8 9158   3.978   3.177  16.302 -0.3203 -0.2624 -0.7606
  614TMC3    O1 9159   3.655   3.619  16.122  0.0889  0.0658  0.4719
  614TMC3    O2 9160   3.951   3.102  16.396  0.3762 -0.2782 -0.0316
  615MPD2     C 9161   3.623   4.509  15.714 -0.2348  1.1097  0.1999
  615MPD2    C1 9162   3.494   4.544  15.741  0.2142  0.1995 -0.2057
  615MPD2    C2 9163   3.398   4.525  15.646  0.6067 -0.1111 -0.1021
  615MPD2    C3 9164   3.432   4.465  15.523 -0.0173  0.3252  0.0697
  615MPD2    C4 9165   3.564   4.441  15.498  0.3941 -0.1040  0.4557
  615MPD2    C5 9166   3.658   4.469  15.587 -0.4428  0.5234  0.0763
  615MPD2     H 9167   3.294   4.545  15.671  1.1298 -0.5356  2.3659
  615MPD2    H1 9168   3.589   4.395  15.403 -1.7180 -0.3622  0.0152
  615MPD2    H2 9169   3.705   4.528  15.783  0.7777 -2.0472 -0.1498
  615MPD2    H3 9170   3.761   4.457  15.556  0.0396  0.2857  1.7965
  615MPD2     N 9171   3.348   4.449  15.419 -0.6528  0.0734 -0.1133
  615MPD2    H5 9172   3.389   4.426  15.329  1.0160  2.3071  0.0710
  615MPD2    N1 9173   3.460   4.591  15.867  0.0875 -0.0601  0.7506
  615MPD2    H7 9174   3.360   4.608  15.872 -0.1279 -0.7316 -1.1812
  616TMC3    C1 9175   3.469   4.639  16.096 -0.1817  0.4304  0.2796
  616TMC3    C2 9176   3.511   4.595  16.220  0.4541 -0.6878  0.0619
  616TMC3    C3 9177   3.495   4.676  16.329  0.1652  0.1529  0.6222
  616TMC3    C4 9178   3.408   0.026  16.082  0.7723  0.2864 -0.5559
  616TMC3    C5 9179   3.385   0.092  16.197 -0.0921  0.3071 -0.8392
  616TMC3    C6 9180   3.422   0.056  16.325 -0.6986 -0.3804  0.8325
  616TMC3     C 9181   3.535   4.582  15.979  0.5228 -0.1968  0.4364
  616TMC3     O 9182   3.641   4.527  16.005 -0.7075 -0.5366 -0.0318
  616TMC3     H 9183   3.552   4.495  16.231  2.0957  0.1335  1.5164
  616TMC3    H1 9184   3.396   0.061  15.981  1.8689  1.9121 -0.1189
  616TMC3    H2 9185   3.405   0.127  16.405  2.2429  1.5636 -0.2415
  616TMC3    C7 9186   3.328   0.218  16.173 -0.1861 -0.0098  0.6989
  616TMC3    C8 9187   3.601   4.670  16.435  0.4512  0.2981 -0.8218
  616TMC3    O1 9188   3.249   0.228  16.078  0.6165  0.1323  0.0847
  616TMC3    O2 9189   3.618   0.028  16.511  0.0748  0.4235  0.4495
  617MPD2     C 9190   1.666   2.881  13.407  0.4029 -0.4231  0.1550
  617MPD2    C1 9191   1.672   2.810  13.523 -0.6283 -0.3046  0.8647
  617MPD2    C2 9192   1.568   2.731  13.566  0.1365  0.5309  0.3489
  617MPD2    C3 9193   1.448   2.738  13.506 -0.3359 -0.4682 -0.0129
  617MPD2    C4 9194   1.435   2.805  13.394 -0.0540 -0.5146 -0.3146
  617MPD2    C5 9195   1.544   2.876  13.348  0.0338  0.8005  0.2819
  617MPD2     H 9196   1.582   2.669  13.653  1.1924  0.1192 -0.1087
  617MPD2    H1 9197   1.343   2.811  13.336  1.0505  1.0448 -1.9299
  617MPD2    H2 9198   1.744   2.943  13.364  1.1008 -0.7335  0.9711
  617MPD2    H3 9199   1.530   2.934  13.258  0.1111  0.3866  0.0024
  617MPD2     N 9200   1.333   2.681  13.557  0.7377 -0.0871 -0.0924
  617MPD2    H5 9201   1.243   2.692  13.512  1.3471 -0.1917 -1.3312
  617MPD2    N1 9202   1.793   2.818  13.590 -0.5075  0.3122  0.4400
  617MPD2    H7 9203   1.862   2.884  13.555  0.6349 -1.2747 -0.3483
  618TMC3    C1 9204   1.976   2.756  13.725  0.2795 -0.3690 -0.1302
  618TMC3    C2 9205   2.029   2.693  13.829 -0.5850 -0.8164 -0.2993
  618TMC3    C3 9206   2.159   2.717  13.857 -0.1448  0.1658  0.7043
  618TMC3    C4 9207   2.054   2.808  13.623  0.1817  0.2592  0.2552
  618TMC3    C5 9208   2.185   2.836  13.654  0.3858  0.0203  0.5151
  618TMC3    C6 9209   2.240   2.797  13.776 -0.3553 -0.0984 -0.4353
  618TMC3     C 9210   1.831   2.734  13.689 -0.4476 -0.1532 -0.5362
  618TMC3     O 9211   1.782   2.633  13.742  0.0091 -0.5056 -0.1332
  618TMC3     H 9212   1.971   2.653  13.912 -1.2206  2.9536  1.0846
  618TMC3    H1 9213   2.021   2.848  13.528 -1.4399 -0.9959  0.3004
  618TMC3    H2 9214   2.338   2.830  13.808 -0.7223  0.9187 -0.3608
  618TMC3    C7 9215   2.264   2.801  13.538  0.5268  0.2532  0.1073
  618TMC3    C8 9216   2.221   2.632  13.953 -0.3187  0.3402  0.9630
  618TMC3    O1 9217   2.204   2.748  13.446 -0.3766  0.1916  0.3730
  618TMC3    O2 9218   2.140   2.578  14.033  0.2629 -0.2005  0.4436
  619MPD2     C 9219   2.811   3.618  13.847 -0.4987  0.0871 -0.2859
  619MPD2    C1 9220   2.741   3.695  13.751 -0.2701 -0.1882  0.2876
  619MPD2    C2 9221   2.604   3.718  13.766 -0.4775 -0.1530  0.7023
  619MPD2    C3 9222   2.542   3.664  13.881 -0.0621  0.3782  0.2433
  619MPD2    C4 9223   2.611   3.584  13.972 -0.1560  0.0995 -0.6301
  619MPD2    C5 9224   2.745   3.558  13.954 -0.0641 -0.7383  0.2231
  619MPD2     H 9225   2.547   3.772  13.692  1.6399  1.2628  0.1371
  619MPD2    H1 9226   2.563   3.556  14.065  1.0731  1.5509  0.4457
  619MPD2    H2 9227   2.914   3.588  13.831 -0.3635  0.7464 -0.6365
  619MPD2    H3 9228   2.801   3.490  14.018 -0.3630 -0.6155  0.6111
  619MPD2     N 9229   2.409   3.689  13.911  0.3079  0.2527 -0.7840
  619MPD2    H5 9230   2.365   3.639  13.988  1.0053 -1.8935 -1.7916
  619MPD2    N1 9231   2.810   3.740  13.637  0.5631 -0.2556 -0.1812
  619MPD2    H7 9232   2.751   3.791  13.572 -0.4314 -0.0960  0.8448
  620TMC3    C1 9233   2.949   3.789  13.471 -0.4093 -0.3551 -0.3322
  620TMC3    C2 9234   2.833   3.816  13.400  0.0072 -0.1411  0.9798
  620TMC3    C3 9235   2.844   3.931  13.326  0.8344  0.0044  0.5320
  620TMC3    C4 9236   3.059   3.861  13.452  0.2341 -0.5720 -0.5422
  620TMC3    C5 9237   3.059   3.980  13.390 -0.5711 -0.1256 -0.7993
  620TMC3    C6 9238   2.951   4.015  13.317 -1.2544  0.8294 -0.2333
  620TMC3     C 9239   2.941   3.736  13.601 -1.0213  0.1232 -0.0586
  620TMC3     O 9240   3.040   3.713  13.668  0.0690  0.0963 -0.2648
  620TMC3     H 9241   2.737   3.768  13.411 -0.5833  0.4025 -1.6554
  620TMC3    H1 9242   3.148   3.832  13.506 -0.8652 -0.4358  1.3301
  620TMC3    H2 9243   2.938   4.118  13.284 -1.0993  1.2490  0.9966
  620TMC3    C7 9244   3.134   4.081  13.460 -0.6160  0.6502 -0.1537
  620TMC3    C8 9245   2.718   4.004  13.336 -0.0038  0.0091  0.4376
  620TMC3    O1 9246   3.150   4.056  13.580  0.3431  0.2468  0.4675
  620TMC3    O2 9247   2.638   3.972  13.425 -0.1590  0.5079  0.0655
  621MPD2     C 9248   3.216   4.223  10.909 -1.0804  0.5864 -0.6070
  621MPD2    C1 9249   3.268   4.157  10.801  0.1119 -0.5072 -0.4338
  621MPD2    C2 9250   3.328   4.232  10.704 -0.1458 -0.8536  0.1358
  621MPD2    C3 9251   3.325   4.370  10.708  0.2779  0.1441  0.0773
  621MPD2    C4 9252   3.259   4.440  10.807 -0.0966 -0.3945 -0.5506
  621MPD2    C5 9253   3.203   4.365  10.913 -0.6397 -0.3587 -0.2705
  621MPD2     H 9254   3.386   4.185  10.625  0.1054  0.3817 -0.4101
  621MPD2    H1 9255   3.257   4.548  10.806 -1.6467 -0.4103  0.7328
  621MPD2    H2 9256   3.184   4.165  10.994 -1.6283  1.8229  0.0278
  621MPD2    H3 9257   3.169   4.410  11.006  0.5760  0.4058 -0.2020
  621MPD2     N 9258   3.383   4.435  10.596 -0.1209  0.2142 -0.3904
  621MPD2    H5 9259   3.430   4.373  10.531 -0.9948 -0.1753 -0.6575
  621MPD2    N1 9260   3.292   4.015  10.789 -0.3042 -0.7297 -0.0612
  621MPD2    H7 9261   3.330   3.983  10.701 -1.4552  1.2393 -1.2561
  622TMC3    C1 9262   3.266   3.785  10.856 -0.6873 -0.0806 -0.3610
  622TMC3    C2 9263   3.202   3.703  10.943 -0.2238  0.4472  0.3066
  622TMC3    C3 9264   3.144   3.583  10.894  0.9161  0.7806  0.4627
  622TMC3    C4 9265   3.286   3.746  10.726  0.6142 -0.3987  0.3160
  622TMC3    C5 9266   3.232   3.629  10.683  0.0174  0.0921  0.0130
  622TMC3    C6 9267   3.167   3.540  10.768  0.0882 -0.1361  0.4354
  622TMC3     C 9268   3.263   3.931  10.890  0.1734  0.0010  0.0541
  622TMC3     O 9269   3.237   3.946  11.010  0.2127  0.0921 -0.1974
  622TMC3     H 9270   3.172   3.727  11.044 -1.2682  2.1443 -0.4015
  622TMC3    H1 9271   3.345   3.797  10.650  1.6296 -1.3990  0.4320
  622TMC3    H2 9272   3.118   3.454  10.726 -0.5195 -0.0840  1.0427
  622TMC3    C7 9273   3.178   3.618  10.546  0.5129 -0.0578 -0.1402
  622TMC3    C8 9274   3.053   3.509  10.978  0.0295  0.0182  0.4080
  622TMC3    O1 9275   3.097   3.526  10.528 -0.5188  0.4004  0.7024
  622TMC3    O2 9276   3.097   3.463  11.083  0.0470  0.3299 -0.4974
  623MPD2     C 9277   2.075   0.265  15.592 -0.2915  0.1321 -0.0227
  623MPD2    C1 9278   2.030   0.146  15.649 -0.1699 -0.3471  0.4749
  623MPD2    C2 9279   2.105   0.084  15.750  0.6148 -0.0829 -0.2229
  623MPD2    C3 9280   2.221   0.145  15.794 -0.5462 -0.4831 -0.4096
  623MPD2    C4 9281   2.260   0.262  15.727  0.2621  0.1140 -0.6655
  623MPD2    C5 9282   2.191   0.319  15.628 -0.1992 -0.1221  0.4039
  623MPD2     H 9283   2.075   4.729  15.797 -0.4281  0.7075  0.6548
  623MPD2    H1 9284   2.346   0.320  15.758 -0.7632 -0.2036  2.8659
  623MPD2    H2 9285   2.016   0.310  15.513 -1.3803 -1.6888 -0.2464
  623MPD2    H3 9286   2.224   0.410  15.580 -2.2953  0.7843  0.7073
  623MPD2     N 9287   2.293   0.089  15.907  0.3612 -0.3828 -0.2621
  623MPD2    H5 9288   2.261   4.736  15.940  1.3076 -0.6186  0.0248
  623MPD2    N1 9289   1.903   0.095  15.623  0.3074  0.1132  0.4726
  623MPD2    H7 9290   1.880   0.003  15.660  0.8098  0.8267  2.5912
  624TMC3    C1 9291   2.525   0.026  16.299  0.0959 -0.1696  0.2734
  624TMC3    C2 9292   2.409   4.718  16.363 -0.8722  0.1306 -0.2136
  624TMC3    C3 9293   2.290   4.727  16.299 -0.6525 -0.2028  0.2767
  624TMC3    C4 9294   2.527   0.092  16.175 -0.3004  0.0481 -0.0034
  624TMC3    C5 9295   2.402   0.079  16.106  0.8647  0.2470  0.0295
  624TMC3    C6 9296   2.287   0.033  16.168 -0.3101  0.3787 -0.3412
  624TMC3     C 9297   2.648   0.024  16.377  0.4216  0.3401 -0.2847
  624TMC3     O 9298   2.640   4.694  16.483 -0.0991  0.2212 -0.1265
  624TMC3     H 9299   2.416   4.687  16.466 -0.5515  1.8329  0.2705
  624TMC3    H1 9300   2.617   0.121  16.123 -0.8450  1.9752  0.1107
  624TMC3    H2 9301   2.191   0.048  16.120 -0.6542 -1.3180 -0.1904
  624TMC3    C7 9302   2.392   0.152  15.983  0.0725  0.1838  0.1808
  624TMC3    C8 9303   2.165   4.692  16.363  0.1792 -0.0378  0.1292
  624TMC3    O1 9304   2.469   0.242  15.954 -0.4544 -0.1846 -0.3069
  624TMC3    O2 9305   2.072   4.666  16.283  0.0496 -0.3490 -0.1296
  625MPD2     C 9306   1.861   1.371   0.810  0.4092  0.3029  0.2311
  625MPD2    C1 9307   1.892   1.413   0.678 -0.5537  0.2142  0.0934
  625MPD2    C2 9308   2.028   1.430   0.648  0.0596 -0.0174 -0.1764
  625MPD2    C3 9309   2.126   1.406   0.744  0.0883 -0.2407 -0.0789
  625MPD2    C4 9310   2.094   1.362   0.869  0.1797  0.3661 -0.5960
  625MPD2    C5 9311   1.960   1.351   0.900  0.9436  0.0908  0.7881
  625MPD2     H 9312   2.067   1.457   0.550  0.5788 -1.3091 -0.3223
  625MPD2    H1 9313   2.160   1.338   0.951 -0.0940 -3.1530 -1.3998
  625MPD2    H2 9314   1.762   1.340   0.843  0.5331 -1.6512 -1.2937
  625MPD2    H3 9315   1.938   1.314   0.999 -4.1836  1.8373  0.3178
  625MPD2     N 9316   2.259   1.436   0.699  0.1088  0.3351  0.4012
  625MPD2    H5 9317   2.271   1.493   0.616 -1.2042  2.0510  1.3818
  625MPD2    N1 9318   1.799   1.439   0.572  0.6054 -0.0096 -0.1144
  625MPD2    H7 9319   1.833   1.460   0.479 -0.9891 -2.8321 -1.3571
  626TMC3    C1 9320   1.604   1.441   0.447 -0.0443  0.2001 -0.9601
  626TMC3    C2 9321   1.685   1.458   0.338 -0.0579 -0.4480 -1.2029
  626TMC3    C3 9322   1.624   1.491   0.223  0.4700 -0.4813  0.0657
  626TMC3    C4 9323   1.469   1.464   0.441  0.4827  0.1814  0.3926
  626TMC3    C5 9324   1.414   1.491   0.318  0.2554 -0.0348 -0.6556
  626TMC3    C6 9325   1.490   1.508   0.202  0.2869  0.2434 -0.5014
  626TMC3     C 9326   1.665   1.429   0.580  0.1343  0.5045 -0.3817
  626TMC3     O 9327   1.592   1.400   0.675 -0.5293 -0.3687  0.6659
  626TMC3     H 9328   1.785   1.418   0.328  0.9821  2.1434 -0.9498
  626TMC3    H1 9329   1.410   1.451   0.531 -1.1677 -0.0549 -0.7088
  626TMC3    H2 9330   1.446   1.518   0.103  2.8662 -0.3994 -1.7099
  626TMC3    C7 9331   1.290   1.557   0.320  0.2182 -0.2950 -0.4188
  626TMC3    C8 9332   1.704   1.560   0.125 -0.2552 -0.1121 -0.3174
  626TMC3    O1 9333   1.226   1.535   0.417  0.2651  0.1965  0.3877
  626TMC3    O2 9334   1.807   1.622   0.158  0.2364 -0.0116 -0.2394
  627MPD2     C 9335   0.842   1.597  14.125 -0.1006  0.1930 -0.2973
  627MPD2    C1 9336   0.899   1.550  14.240 -0.0274  0.4076 -0.0766
  627MPD2    C2 9337   0.900   1.410  14.251 -0.4434  0.5437  0.4511
  627MPD2    C3 9338   0.842   1.325  14.163  0.3173 -1.2807 -0.5346
  627MPD2    C4 9339   0.792   1.379  14.041 -0.2897 -0.1890 -0.0434
  627MPD2    C5 9340   0.792   1.515  14.025 -0.6216  0.4261  0.2444
  627MPD2     H 9341   0.959   1.371  14.333  2.3954 -1.5528 -2.6002
  627MPD2    H1 9342   0.743   1.309  13.974  1.8698 -0.8390 -0.9465
  627MPD2    H2 9343   0.833   1.701  14.097 -1.8715  0.0333 -0.2982
  627MPD2    H3 9344   0.748   1.553  13.934 -0.3705  0.0541 -0.0309
  627MPD2     N 9345   0.822   1.188  14.203 -0.5058 -0.0074 -0.1135
  627MPD2    H5 9346   0.839   1.169  14.301 -1.8814  1.9101  0.4940
  627MPD2    N1 9347   0.958   1.636  14.334 -0.7573 -0.0338 -0.3420
  627MPD2    H7 9348   1.018   1.593  14.404 -1.0158 -0.0783 -0.1493
  628TMC3    C1 9349   1.062   1.825  14.410  0.1257 -0.2384  0.1896
  628TMC3    C2 9350   1.152   1.738  14.474  0.7234 -0.2266  0.0879
  628TMC3    C3 9351   1.252   1.796  14.543  0.1184 -0.5319 -0.2761
  628TMC3    C4 9352   1.079   1.961  14.422  0.6379 -0.1640  0.3070
  628TMC3    C5 9353   1.188   2.014  14.487 -0.0152 -0.1316 -0.6242
  628TMC3    C6 9354   1.273   1.937  14.548  0.5779  0.0826  0.3272
  628TMC3     C 9355   0.953   1.769  14.331 -0.2417  0.1549 -0.2164
  628TMC3     O 9356   0.871   1.842  14.274 -0.5207  0.1549  0.2436
  628TMC3     H 9357   1.147   1.630  14.471 -2.7979 -0.1091  1.3503
  628TMC3    H1 9358   1.003   2.022  14.374  1.1763  1.3741  1.4548
  628TMC3    H2 9359   1.337   1.979  14.625 -0.0405  1.6414 -0.0089
  628TMC3    C7 9360   1.225   2.154  14.478  0.6131  0.6441 -0.2395
  628TMC3    C8 9361   1.344   1.700  14.616 -0.3323 -0.3184 -0.2381
  628TMC3    O1 9362   1.312   2.193  14.551  0.2467 -0.2698 -0.0082
  628TMC3    O2 9363   1.329   1.581  14.595  0.4718 -0.0102  0.0357
  629MPD2     C 9364   4.045   4.479  16.603  0.5225 -0.0756  0.0649
  629MPD2    C1 9365   4.011   4.602  16.565  0.2381  0.2785 -0.7275
  629MPD2    C2 9366   3.885   4.635  16.512  0.6097  0.2511  0.2539
  629MPD2    C3 9367   3.791   4.535  16.506  0.2747 -0.6830 -0.4650
  629MPD2    C4 9368   3.831   4.402  16.543  0.2533 -0.8222  0.0097
  629MPD2    C5 9369   3.956   4.375  16.581 -0.1949 -0.0146 -0.3108
  629MPD2     H 9370   3.855   0.000  16.492 -3.2009 -0.6741  1.3476
  629MPD2    H1 9371   3.756   4.324  16.534 -1.1809  0.4768  0.7446
  629MPD2    H2 9372   4.146   4.455  16.634  0.1934  1.1262  2.0286
  629MPD2    H3 9373   3.990   4.278  16.616  0.5814  0.1465 -0.6066
  629MPD2     N 9374   3.662   4.545  16.448 -0.4121 -0.1560  0.0747
  629MPD2    H5 9375   3.605   4.462  16.433  2.0672 -1.1330 -3.7710
  629MPD2    N1 9376   4.113   4.698  16.588 -0.1405  0.4470  1.1017
  629MPD2    H7 9377   4.196   4.667  16.638 -0.3847 -0.4155  0.9785
  630TMC3    C1 9378   4.210   0.158  16.642 -0.0972 -0.1950  1.0328
  630TMC3    C2 9379   4.278   0.256  16.580 -0.3238  0.0878 -0.1471
  630TMC3    C3 9380   4.375   0.323  16.650  1.0147  0.0640 -0.1828
  630TMC3    C4 9381   4.248   0.115  16.761 -0.0556  0.4704  0.1778
  630TMC3    C5 9382   4.356   0.179  16.823 -0.2029 -0.2725 -0.0145
  630TMC3    C6 9383   4.427   0.281  16.767  0.8635 -0.3905 -0.2712
  630TMC3     C 9384   4.104   0.091  16.564 -0.0594  0.7787 -0.0939
  630TMC3     O 9385   4.038   0.149  16.478  0.1628 -0.5103 -0.1447
  630TMC3     H 9386   4.242   0.291  16.483  1.2932 -2.4408 -1.6432
  630TMC3    H1 9387   4.184   0.051  16.820 -0.5296 -1.0266 -1.9416
  630TMC3    H2 9388   4.497   0.347  16.818  1.1573  1.1481 -2.6919
  630TMC3    C7 9389   4.408   0.105  16.940  0.3356 -0.2742  0.1242
  630TMC3    C8 9390   4.439   0.451  16.601 -0.0352  0.0275  0.6442
  630TMC3    O1 9391   4.325   0.057  17.018  0.6131  0.2916 -0.1414
  630TMC3    O2 9392   4.556   0.462  16.629 -0.1601  0.8893  0.2053
  631MPD2     C 9393   2.451   0.187  15.254  0.5692  1.2070  0.2150
  631MPD2    C1 9394   2.525   0.223  15.149  0.4331  0.9146 -0.0610
  631MPD2    C2 9395   2.627   0.139  15.117  0.1649  0.5201  0.2556
  631MPD2    C3 9396   2.658   0.035  15.196  0.7872 -0.1455 -0.4049
  631MPD2    C4 9397   2.581   0.005  15.310 -0.1268 -0.3479 -0.1225
  631MPD2    C5 9398   2.477   0.087  15.347 -0.2686 -0.4370  0.0333
  631MPD2     H 9399   2.685   0.158  15.028 -1.8511  0.7548 -1.0172
  631MPD2    H1 9400   2.598   4.651  15.367  0.1664 -0.8058 -0.9431
  631MPD2    H2 9401   2.355   0.233  15.274 -0.6051 -1.0188 -0.3525
  631MPD2    H3 9402   2.407   0.075  15.430  0.8767  0.6158  1.1547
  631MPD2     N 9403   2.770   4.695  15.163  0.3010  0.0922 -0.5190
  631MPD2    H5 9404   2.828   4.730  15.087  2.0228 -0.5901  0.4672
  631MPD2    N1 9405   2.472   0.324  15.063  0.0427 -0.4058 -0.3975
  631MPD2    H7 9406   2.384   0.366  15.090  0.2594  0.0092 -0.3422
  632TMC3    C1 9407   2.471   0.481  14.876  0.6975 -0.4336 -0.0654
  632TMC3    C2 9408   2.410   0.571  14.959 -0.1649  0.3444  0.6266
  632TMC3    C3 9409   2.374   0.683  14.895 -0.2030  0.0755 -1.0325
  632TMC3    C4 9410   2.520   0.503  14.755 -0.4893 -0.3168  0.0963
  632TMC3    C5 9411   2.473   0.622  14.701 -0.1639  1.3272  0.4216
  632TMC3    C6 9412   2.400   0.716  14.766  0.4957  0.2457 -0.3088
  632TMC3     C 9413   2.538   0.376  14.955  0.2774 -0.0980 -0.5226
  632TMC3     O 9414   2.647   0.343  14.907 -0.4275 -0.3902 -0.2565
  632TMC3     H 9415   2.369   0.545  15.056  0.5776 -0.3334  0.7608
  632TMC3    H1 9416   2.549   0.419  14.693 -1.5985  0.2034 -1.1527
  632TMC3    H2 9417   2.368   0.816  14.739  1.6955  0.6380 -0.2914
  632TMC3    C7 9418   2.549   0.658  14.584 -0.1598  0.6073 -0.2697
  632TMC3    C8 9419   2.298   0.770  14.983  0.3153 -0.2957  0.0450
  632TMC3    O1 9420   2.510   0.749  14.512 -0.0760  0.1194  1.0606
  632TMC3    O2 9421   2.330   0.769  15.103 -0.3869 -0.0246  0.1509
  633MPD2     C 9422   2.094   3.377  17.367  0.0978  0.3270  0.0662
  633MPD2    C1 9423   2.027   3.289  17.274  0.0329  0.1684  0.5238
  633MPD2    C2 9424   2.011   3.159  17.305 -0.2244  0.3010 -0.4144
  633MPD2    C3 9425   2.034   3.114  17.431  0.7883  0.4126 -0.0812
  633MPD2    C4 9426   2.093   3.197  17.528 -0.2398  0.7205 -0.0714
  633MPD2    C5 9427   2.120   3.324  17.496 -0.2873  0.4431 -0.1598
  633MPD2     H 9428   1.975   3.099  17.222 -2.0466 -0.3092  0.8422
  633MPD2    H1 9429   2.110   3.153  17.626  0.3087  0.0238 -0.4747
  633MPD2    H2 9430   2.118   3.480  17.344  2.0050  0.0679  0.8824
  633MPD2    H3 9431   2.164   3.385  17.573  0.8716 -1.1850  0.4866
  633MPD2     N 9432   2.005   2.978  17.463 -0.5934  0.1513 -0.3475
  633MPD2    H5 9433   2.020   2.941  17.556  0.6975  1.1531 -0.1558
  633MPD2    N1 9434   1.994   3.333  17.144  0.3124 -0.0151  0.3315
  633MPD2    H7 9435   1.992   3.266  17.068  2.7414  0.3610 -0.0566
  634TMC3    C1 9436   2.021   3.471  16.958 -0.8372 -0.4369 -0.0744
  634TMC3    C2 9437   2.105   3.374  16.892  0.2452 -0.2525 -0.1317
  634TMC3    C3 9438   2.160   3.402  16.767  0.0897 -0.3702 -0.5847
  634TMC3    C4 9439   2.002   3.596  16.906 -0.4747 -0.0934 -0.2127
  634TMC3    C5 9440   2.059   3.619  16.784  0.6361 -0.4509 -0.0628
  634TMC3    C6 9441   2.139   3.526  16.709 -0.2753 -1.0576 -0.0231
  634TMC3     C 9442   1.996   3.461  17.106  0.5782 -0.3574 -0.5511
  634TMC3     O 9443   1.977   3.557  17.180  1.0054 -1.5458 -0.9039
  634TMC3     H 9444   2.130   3.277  16.934  2.2144 -0.3984 -1.6511
  634TMC3    H1 9445   1.940   3.669  16.958  2.0309  2.0579 -0.2141
  634TMC3    H2 9446   2.188   3.538  16.613 -0.5156  3.4459  0.4170
  634TMC3    C7 9447   2.012   3.719  16.698  0.4846  0.0557 -0.5802
  634TMC3    C8 9448   2.182   3.281  16.686  0.3167 -0.0826  0.0144
  634TMC3    O1 9449   2.016   3.693  16.579  0.1181  0.2932 -0.4057
  634TMC3    O2 9450   2.157   3.174  16.739 -0.1786  0.0070  0.9170
  635TMC3    C1 9451   2.671   4.168  17.561 -0.6193  0.1010 -0.0625
  635TMC3    C2 9452   2.734   4.053  17.530 -0.0710  0.6155  0.2756
  635TMC3    C3 9453   2.662   3.960  17.464 -0.2655  0.1557 -0.3423
  635TMC3    C4 9454   2.544   4.198  17.510 -0.1026  0.7111 -0.1897
  635TMC3    C5 9455   2.481   4.108  17.432 -0.5415  0.0375 -0.0881
  635TMC3    C6 9456   2.539   3.985  17.402  0.4944 -0.5660 -0.4238
  635TMC3     C 9457   2.747   4.279  17.621  0.5071 -0.6773  0.6822
  635TMC3     O 9458   2.683   4.378  17.644 -0.3858 -0.1340 -0.3273
  635TMC3     H 9459   2.830   4.024  17.571  1.2996 -0.8575 -3.8924
  635TMC3    H1 9460   2.498   4.290  17.545 -0.5968  0.6036 -0.5587
  635TMC3    H2 9461   2.478   3.912  17.350 -0.7371  0.5340 -0.5263
  635TMC3    C7 9462   2.391   4.172  17.334  0.8192  0.9141  0.0338
  635TMC3    C8 9463   2.725   3.838  17.427 -0.0336  0.6661 -0.7694
  635TMC3    O1 9464   2.299   4.245  17.382  0.2095 -0.1056 -0.0108
  635TMC3    O2 9465   2.701   3.800  17.312  0.8945 -0.1685 -0.1396
  636MPD2     C 9466   3.441   3.251  15.921  0.1344  0.0293  0.1394
  636MPD2    C1 9467   3.425   3.234  16.059  0.4729 -0.3215 -1.2877
  636MPD2    C2 9468   3.448   3.106  16.110  0.6234 -0.0100 -0.0853
  636MPD2    C3 9469   3.451   2.993  16.024  0.0934 -0.3761  0.9408
  636MPD2    C4 9470   3.470   3.011  15.891  0.5007 -0.2805 -0.3119
  636MPD2    C5 9471   3.467   3.139  15.842 -0.1987  0.3356  0.5434
  636MPD2     H 9472   3.442   3.096  16.218 -0.8158  0.8849 -0.0779
  636MPD2    H1 9473   3.494   2.930  15.824 -1.3761 -1.3681  0.3462
  636MPD2    H2 9474   3.460   3.351  15.882 -1.7861  0.7399  1.0160
  636MPD2    H3 9475   3.507   3.146  15.742 -3.0789  1.1850 -0.5414
  636MPD2     N 9476   3.430   2.864  16.082  1.0950  0.3826 -0.6520
  636MPD2    H5 9477   3.412   2.871  16.182  0.6238 -0.9667 -0.6486
  636MPD2    N1 9478   3.400   3.341  16.155  0.2554 -0.1546 -0.1735
  636MPD2    H7 9479   3.413   3.326  16.254 -1.9654 -1.3003 -0.0533
  637TMC3    C1 9480   3.423   2.634  16.113 -0.3097 -0.1061  0.3763
  637TMC3    C2 9481   3.397   2.672  16.235 -0.2845 -0.1547 -0.1899
  637TMC3    C3 9482   3.491   2.659  16.340 -0.0526  0.2478  0.2935
  637TMC3    C4 9483   3.549   2.577  16.099  0.1888  0.2513 -0.6452
  637TMC3    C5 9484   3.644   2.559  16.193 -0.1901 -0.9109 -0.3956
  637TMC3    C6 9485   3.621   2.616  16.314  0.1393 -0.0756 -0.1657
  637TMC3     C 9486   3.420   2.739  16.019  0.0218 -0.0299 -0.1118
  637TMC3     O 9487   3.430   2.716  15.899  0.3051  0.3688  0.2058
  637TMC3     H 9488   3.300   2.716  16.252 -1.3116 -1.5732 -2.3777
  637TMC3    H1 9489   3.570   2.545  15.998  1.2591  0.4612 -0.4794
  637TMC3    H2 9490   3.696   2.625  16.392  0.7947 -0.9382 -0.6959
  637TMC3    C7 9491   3.781   2.590  16.139 -0.5673  0.5057 -0.2381
  637TMC3    C8 9492   3.489   2.784  16.423 -0.3419  0.0637 -0.2904
  637TMC3    O1 9493   3.828   2.523  16.046 -0.2125 -0.2574 -0.2875
  637TMC3    O2 9494   3.442   2.879  16.361 -0.0157  0.4549 -0.1878
  638MPD2     C 9495   3.131   1.893  15.387 -0.0887  0.1310  0.0072
  638MPD2    C1 9496   3.159   1.779  15.315  0.2680  0.6200  0.2934
  638MPD2    C2 9497   3.160   1.659  15.381  0.5890 -0.7234  0.1166
  638MPD2    C3 9498   3.125   1.650  15.517  0.6591 -0.2916 -0.1514
  638MPD2    C4 9499   3.099   1.768  15.588  0.0914  0.1214 -0.0877
  638MPD2    C5 9500   3.090   1.887  15.521 -0.2102  0.3035 -0.4783
  638MPD2     H 9501   3.182   1.566  15.329 -0.8455 -0.5490 -0.7960
  638MPD2    H1 9502   3.084   1.773  15.695  1.3120 -0.0545  0.0995
  638MPD2    H2 9503   3.144   1.991  15.344  1.6694  0.0126  0.2822
  638MPD2    H3 9504   3.058   1.978  15.571  0.4921 -0.6370  1.6970
  638MPD2     N 9505   3.139   1.527  15.575  0.3242 -0.4139  0.2807
  638MPD2    H5 9506   3.186   1.452  15.525  1.4733 -0.9155  2.1281
  638MPD2    N1 9507   3.204   1.788  15.181 -0.3510  0.4446 -0.6311
  638MPD2    H7 9508   3.230   1.881  15.151 -0.8417  1.4979  2.2262
  639TMC3    C1 9509   3.084   1.338  15.672 -0.9742  0.5965  0.0305
  639TMC3    C2 9510   2.999   1.292  15.577 -0.3164  0.8658  0.3791
  639TMC3    C3 9511   3.041   1.217  15.468 -0.5621  0.9513  0.1081
  639TMC3    C4 9512   3.209   1.292  15.671 -0.5930 -0.3687  0.4706
  639TMC3    C5 9513   3.255   1.222  15.559 -0.2782 -0.2837  0.5363
  639TMC3    C6 9514   3.171   1.191  15.459 -0.3129 -0.5765  0.5882
  639TMC3     C 9515   3.063   1.480  15.677 -0.4921  0.9699  0.0627
  639TMC3     O 9516   2.960   1.522  15.729 -0.0586 -0.1242 -0.4006
  639TMC3     H 9517   2.897   1.325  15.588 -0.5752 -0.1867  1.1350
  639TMC3    H1 9518   3.279   1.324  15.747 -0.6282  0.5998  0.0939
  639TMC3    H2 9519   3.201   1.147  15.364 -0.8011 -1.1502  0.6960
  639TMC3    C7 9520   3.380   1.152  15.570  0.4991  0.1089  0.4337
  639TMC3    C8 9521   2.954   1.214  15.350 -0.3129  0.2883  0.6561
  639TMC3    O1 9522   3.415   1.099  15.674 -0.0490  0.1510 -0.3676
  639TMC3    O2 9523   3.018   1.201  15.249  0.7205  0.4895  0.3472
  640MPD2     C 9524   3.731   0.662   9.934  0.3432 -1.3090 -0.3887
  640MPD2    C1 9525   3.813   0.763   9.927 -0.6971  0.5750 -0.5403
  640MPD2    C2 9526   3.775   0.886   9.975  0.5121 -0.4501  0.3603
  640MPD2    C3 9527   3.655   0.905  10.038 -0.2756  0.3311  0.6932
  640MPD2    C4 9528   3.578   0.796  10.052  0.7175 -0.1273 -0.3172
  640MPD2    C5 9529   3.615   0.674  10.003 -0.4692  0.2056  0.1003
  640MPD2     H 9530   3.841   0.970   9.958 -3.2614  2.7897  1.6242
  640MPD2    H1 9531   3.493   0.800  10.119 -0.1022 -0.7530 -1.3306
  640MPD2    H2 9532   3.745   0.568   9.883  1.7418 -2.6846  2.5672
  640MPD2    H3 9533   3.552   0.586  10.015 -0.3968  0.1425  0.0235
  640MPD2     N 9534   3.613   1.017  10.112 -0.0621  0.6399  0.5038
  640MPD2    H5 9535   3.513   1.013  10.130 -0.3938 -1.9525 -1.8501
  640MPD2    N1 9536   3.937   0.740   9.852  0.3375 -0.1299  0.0394
  640MPD2    H7 9537   3.953   0.643   9.828  0.0629 -0.3748  0.8521
  641TMC3    C1 9538   4.121   0.784   9.710  0.3211 -0.0588 -0.8110
  641TMC3    C2 9539   4.177   0.659   9.733  0.4438  0.7123 -0.3650
  641TMC3    C3 9540   4.283   0.632   9.654 -0.2427  0.4703  0.2525
  641TMC3    C4 9541   4.173   0.871   9.623  0.0626  0.5221 -0.0134
  641TMC3    C5 9542   4.287   0.839   9.551 -0.1361 -0.7377  0.6448
  641TMC3    C6 9543   4.336   0.718   9.561  0.2012  0.2771  0.6990
  641TMC3     C 9544   4.024   0.834   9.802  0.1584  0.1934  0.8308
  641TMC3     O 9545   4.019   0.955   9.820 -0.3937 -0.1076  0.3119
  641TMC3     H 9546   4.127   0.592   9.802  1.2808  0.7389  0.2697
  641TMC3    H1 9547   4.129   0.970   9.617  1.1600  1.0163  0.0052
  641TMC3    H2 9548   4.414   0.693   9.491 -2.0587 -0.8269 -1.3906
  641TMC3    C7 9549   4.378   0.940   9.495  0.1060  0.0122 -0.2344
  641TMC3    C8 9550   4.367   0.510   9.688 -0.0786  0.0479 -0.2408
  641TMC3    O1 9551   4.493   0.897   9.477 -0.4703  0.5430  0.2076
  641TMC3    O2 9552   4.477   0.499   9.628  0.1579  0.1299  0.0731
  642TMC3    C1 9553   0.047   1.640  12.861  0.3657 -0.9107 -1.2201
  642TMC3    C2 9554   0.178   1.646  12.839 -0.3602 -0.0142  0.2925
  642TMC3    C3 9555   0.228   1.551  12.752 -0.5537  0.6672  0.9898
  642TMC3    C4 9556   4.704   1.560  12.789  0.1259 -0.6470 -0.2844
  642TMC3    C5 9557   0.017   1.470  12.713 -0.0073  0.8075  0.3249
  642TMC3    C6 9558   0.149   1.462  12.688  0.4735 -0.2001  0.5858
  642TMC3     C 9559   4.722   1.759  12.924 -0.5308  0.3444 -0.4433
  642TMC3     O 9560   0.057   1.843  12.974 -0.3589 -0.2471 -0.2140
  642TMC3     H 9561   0.239   1.712  12.898  0.3835 -0.6768  0.2699
  642TMC3    H1 9562   4.597   1.550  12.801  0.3790 -2.0934  0.7266
  642TMC3    H2 9563   0.195   1.374  12.646 -0.7696  0.2627 -1.7649
  642TMC3    C7 9564   4.679   1.352  12.680  0.5512  0.4728  0.4657
  642TMC3    C8 9565   0.371   1.548  12.733 -0.1618 -0.0013 -0.2865
  642TMC3    O1 9566   4.675   1.327  12.562  0.3370 -0.4980 -0.6608
  642TMC3    O2 9567   0.407   1.443  12.682 -0.8486 -0.4457  0.7355
  643TMC3    C1 9568   3.987   0.670  17.657 -1.0458 -0.5475  0.6130
  643TMC3    C2 9569   3.856   0.681  17.625 -0.8774  0.2526  0.6269
  643TMC3    C3 9570   3.820   0.637  17.494  0.0113  0.6187 -0.1221
  643TMC3    C4 9571   4.083   0.625  17.570 -0.2748  0.1656  0.0474
  643TMC3    C5 9572   4.050   0.585  17.443 -0.6528 -0.3534  0.1256
  643TMC3    C6 9573   3.916   0.585  17.406  0.2584 -0.8236  0.1738
  643TMC3     C 9574   4.031   0.767   0.009 -0.8758 -0.1298  0.4453
  643TMC3     O 9575   3.960   0.865   0.021  0.0255 -0.2287  0.2763
  643TMC3     H 9576   3.782   0.703  17.701  0.1652  0.6909  1.4977
  643TMC3    H1 9577   4.187   0.621  17.599 -0.3831 -0.4981  0.3624
  643TMC3    H2 9578   3.893   0.575  17.301  0.7108 -2.3417  0.2139
  643TMC3    C7 9579   4.120   0.662  17.343  0.0968  0.1131  0.1267
  643TMC3    C8 9580   3.727   0.730  17.435 -0.5986 -0.5465  0.1683
  643TMC3    O1 9581   4.048   0.738  17.281 -0.2189 -0.3456 -0.5736
  643TMC3    O2 9582   3.698   0.703  17.319 -0.0306  0.4328 -0.1612
  644MPD2     C 9583   3.838   1.211   9.743 -0.3838 -0.1950 -0.4325
  644MPD2    C1 9584   3.933   1.307   9.764  0.0995  0.1370  0.3128
  644MPD2    C2 9585   3.893   1.438   9.772 -0.1260  0.4717 -0.2027
  644MPD2    C3 9586   3.755   1.471   9.770  0.0603 -1.0330 -0.0783
  644MPD2    C4 9587   3.661   1.372   9.760  0.4140  0.3600 -0.3261
  644MPD2    C5 9588   3.705   1.243   9.740 -0.7315  0.1464 -0.2263
  644MPD2     H 9589   3.960   1.523   9.781  0.6704 -0.1847  0.0352
  644MPD2    H1 9590   3.556   1.396   9.770  0.4182  0.0095  0.6128
  644MPD2    H2 9591   3.859   1.105   9.733  0.1119 -0.1733  0.3882
  644MPD2    H3 9592   3.632   1.163   9.741 -0.2624 -0.2744  0.1761
  644MPD2     N 9593   3.713   1.612   9.766 -0.8103  0.0670  0.1277
  644MPD2    H5 9594   3.786   1.681   9.768 -1.1563  0.4371 -0.0748
  644MPD2    N1 9595   4.064   1.260   9.765 -0.2427  0.4506 -0.1314
  644MPD2    H7 9596   4.066   1.160   9.776  1.2343  0.1541 -3.1620
  645TMC3    C1 9597   3.588   1.808   9.763  0.1680 -0.2540 -0.1988
  645TMC3    C2 9598   3.684   1.887   9.715  0.3514 -0.2868 -0.6181
  645TMC3    C3 9599   3.681   2.017   9.734  0.0359 -0.4119  0.8083
  645TMC3    C4 9600   3.466   1.865   9.799  0.4619  0.7885  0.0550
  645TMC3    C5 9601   3.467   2.003   9.816 -0.0039  0.6495 -0.6630
  645TMC3    C6 9602   3.573   2.078   9.786  0.5788  0.4791 -0.3218
  645TMC3     C 9603   3.586   1.664   9.748  0.4155 -0.5653  0.1782
  645TMC3     O 9604   3.481   1.605   9.748 -0.0419  0.8385 -0.7541
  645TMC3     H 9605   3.763   1.836   9.661  1.4646 -0.0330  0.7746
  645TMC3    H1 9606   3.388   1.806   9.845 -0.7955  0.2219 -2.8717
  645TMC3    H2 9607   3.563   2.186   9.788 -2.6782  0.1695  0.6416
  645TMC3    C7 9608   3.344   2.068   9.868  0.3250  0.2589 -0.4907
  645TMC3    C8 9609   3.811   2.086   9.733  0.1667 -0.1937 -0.4644
  645TMC3    O1 9610   3.352   2.176   9.918  0.7235 -0.2638 -0.6630
  645TMC3    O2 9611   3.907   2.009   9.731 -0.2831  0.0427  0.3218
  646MPD2     C 9612   3.488   0.578  14.798 -0.0768 -1.2111 -0.1379
  646MPD2    C1 9613   3.380   0.550  14.879  0.4268 -0.1269 -0.2876
  646MPD2    C2 9614   3.267   0.627  14.863 -1.3463  0.2453 -0.6308
  646MPD2    C3 9615   3.261   0.720  14.758  0.1934  0.0429 -0.8995
  646MPD2    C4 9616   3.369   0.752  14.681 -0.5835 -0.3010  0.0809
  646MPD2    C5 9617   3.486   0.679  14.704  0.3216 -0.4682  0.5145
  646MPD2     H 9618   3.174   0.608  14.916  0.8095 -1.4183  2.5559
  646MPD2    H1 9619   3.370   0.835  14.611  2.1814  0.3850  0.9184
  646MPD2    H2 9620   3.576   0.516  14.791 -1.5796 -3.6494  2.5090
  646MPD2    H3 9621   3.579   0.716  14.662  0.1175 -1.3772 -0.7522
  646MPD2     N 9622   3.140   0.788  14.753  0.2203 -0.0672  0.1127
  646MPD2    H5 9623   3.053   0.752  14.791 -0.6009 -2.1210 -3.6812
  646MPD2    N1 9624   3.387   0.436  14.969 -0.2506  0.7995 -0.4331
  646MPD2    H7 9625   3.463   0.369  14.958 -2.6906 -1.8925 -1.0536
  647TMC3    C1 9626   3.355   0.307  15.162 -0.3640  0.0309  0.2927
  647TMC3    C2 9627   3.334   0.325  15.295 -0.1712 -0.0666 -0.3056
  647TMC3    C3 9628   3.378   0.231  15.387  0.0812  0.0387  0.9070
  647TMC3    C4 9629   3.416   0.196  15.111 -0.2770  0.2484 -0.2430
  647TMC3    C5 9630   3.459   0.104  15.204 -0.0103 -0.3085 -0.6944
  647TMC3    C6 9631   3.440   0.113  15.347 -0.2934 -0.3759  0.9637
  647TMC3     C 9632   3.308   0.417  15.080  0.9186 -0.1512  0.4148
  647TMC3     O 9633   3.218   0.484  15.127 -0.3062 -0.0657 -0.0401
  647TMC3     H 9634   3.300   0.423  15.327 -1.8487 -1.0147  0.8224
  647TMC3    H1 9635   3.417   0.189  15.003 -0.9742  0.9681 -0.2982
  647TMC3    H2 9636   3.477   0.042  15.420 -0.4311 -2.0393 -0.5867
  647TMC3    C7 9637   3.562   0.007  15.171  0.6297 -0.0256  0.1736
  647TMC3    C8 9638   3.382   0.280  15.523 -0.6490 -0.3935 -0.1148
  647TMC3    O1 9639   3.623   4.699  15.267 -0.0432 -0.5330 -0.1299
  647TMC3    O2 9640   3.291   0.357  15.555 -0.2349 -0.1582 -0.1333
  648TMC3    C1 9641   2.739   3.118  16.085  0.2538 -1.1344 -0.0933
  648TMC3    C2 9642   2.787   3.004  16.033 -0.7255 -0.2817 -0.7193
  648TMC3    C3 9643   2.775   2.988  15.895  0.0257 -0.1372 -0.2764
  648TMC3    C4 9644   2.683   3.223  16.011  0.9355  0.1473 -0.9010
  648TMC3    C5 9645   2.666   3.198  15.879  0.9228  0.0322 -0.2043
  648TMC3    C6 9646   2.711   3.084  15.824  0.0464 -0.4136  0.5103
  648TMC3     C 9647   2.741   3.124  16.232  0.2249 -0.1491  0.2254
  648TMC3     O 9648   2.759   3.240  16.276  0.3446 -0.1091 -0.2443
  648TMC3     H 9649   2.823   2.925  16.098 -0.8663  0.3183  0.0920
  648TMC3    H1 9650   2.640   3.305  16.066 -1.0224 -0.3365 -1.7206
  648TMC3    H2 9651   2.693   3.060  15.720 -1.2004  1.8775  0.2096
  648TMC3    C7 9652   2.603   3.286  15.787  0.1978  0.9562 -0.5840
  648TMC3    C8 9653   2.726   2.861  15.848  0.1646  0.5605 -0.6782
  648TMC3    O1 9654   2.610   3.272  15.662  0.3887  0.2063  0.2303
  648TMC3    O2 9655   2.616   2.866  15.791 -0.4740  0.0258 -0.1081
  649TMC3    C1 9656   1.533   4.140  13.060  0.2764  0.6850  0.0999
  649TMC3    C2 9657   1.669   4.141  13.047 -1.1547 -0.1216 -0.1071
  649TMC3    C3 9658   1.737   4.084  13.144 -0.2752 -0.5351 -0.1284
  649TMC3    C4 9659   1.470   4.100  13.172 -0.3768  0.3332 -0.2726
  649TMC3    C5 9660   1.546   4.022  13.254  0.3900  0.1325 -0.1714
  649TMC3    C6 9661   1.679   4.018  13.245 -0.2931  0.3690  0.5574
  649TMC3     C 9662   1.463   4.232  12.973 -0.0242 -0.8573  0.2063
  649TMC3     O 9663   1.358   4.283  13.010  0.0238  0.0742 -0.1397
  649TMC3     H 9664   1.717   4.182  12.958  0.5391  1.0812  1.3790
  649TMC3    H1 9665   1.362   4.107  13.174 -0.3819  0.1351  0.0171
  649TMC3    H2 9666   1.736   3.958  13.315 -0.6734  0.7602  1.2020
  649TMC3    C7 9667   1.477   3.952  13.363  0.0730 -0.5927  0.7179
  649TMC3    C8 9668   1.883   4.072  13.111  0.3624  0.3836  0.0040
  649TMC3    O1 9669   1.360   3.987  13.377 -0.0987  0.1442  0.0272
  649TMC3    O2 9670   1.921   4.118  13.003  0.5764 -0.0054 -0.0734
  650TMC3    C1 9671   3.869   0.725  12.699  0.0207  0.0500 -0.6841
  650TMC3    C2 9672   3.807   0.833  12.753  0.3724  0.3996  0.3132
  650TMC3    C3 9673   3.876   0.955  12.736 -0.3812 -0.0159 -0.2170
  650TMC3    C4 9674   3.984   0.731  12.626 -0.3675  0.4688 -0.0057
  650TMC3    C5 9675   4.042   0.852  12.610  0.4695 -1.1804 -0.1792
  650TMC3    C6 9676   3.993   0.964  12.669 -0.9642 -0.2323 -0.2741
  650TMC3     C 9677   3.815   0.601  12.751  0.3664 -1.2464 -0.1241
  650TMC3     O 9678   3.694   0.604  12.780 -0.3377  0.4573  0.3884
  650TMC3     H 9679   3.713   0.829  12.806  0.7019  0.2886  0.8846
  650TMC3    H1 9680   4.010   0.645  12.566 -0.7287 -0.1317  0.7002
  650TMC3    H2 9681   4.036   1.061  12.647  2.3418 -1.4474  0.9005
  650TMC3    C7 9682   4.109   0.871  12.480 -0.0318  0.4709 -0.3013
  650TMC3    C8 9683   3.833   1.081  12.795  0.1766  0.0444 -0.2232
  650TMC3    O1 9684   4.097   0.792  12.390 -0.1904  0.1459 -0.2352
  650TMC3    O2 9685   3.912   1.174  12.783 -0.0290 -0.3468 -0.1450
  651MPD2     C 9686   2.887   3.141  10.625  0.2878  0.4090  0.0076
  651MPD2    C1 9687   2.880   3.106  10.760  0.0028  0.0695 -0.0726
  651MPD2    C2 9688   3.004   3.122  10.836  0.4608  0.1083 -0.4614
  651MPD2    C3 9689   3.122   3.174  10.773 -0.4099 -0.7056  0.0455
  651MPD2    C4 9690   3.117   3.198  10.636  0.3798  0.2660  0.7721
  651MPD2    C5 9691   3.000   3.189  10.567  0.1529  0.6366  0.1713
  651MPD2     H 9692   3.011   3.096  10.940 -2.2355  1.2269  0.0030
  651MPD2    H1 9693   3.207   3.232  10.584  0.0846 -0.1085  0.0183
  651MPD2    H2 9694   2.795   3.136  10.568  1.3739  0.2326 -1.7381
  651MPD2    H3 9695   2.989   3.214  10.462  2.7252 -1.7384 -0.6635
  651MPD2     N 9696   3.239   3.196  10.848  0.0801  0.2952  0.0556
  651MPD2    H5 9697   3.231   3.199  10.949  2.2321 -1.2346  0.2772
  651MPD2    N1 9698   2.773   3.060  10.834  0.3773 -0.3535  0.3093
  651MPD2    H7 9699   2.778   3.053  10.935  3.1990  2.1569  0.3621
  652TMC3    C1 9700   3.675   3.354  10.803 -0.5092  0.0273  0.6302
  652TMC3    C2 9701   3.592   3.245  10.812  0.5316  0.1732 -0.1084
  652TMC3    C3 9702   3.474   3.255  10.871 -0.6007 -0.5023  0.6210
  652TMC3    C4 9703   3.641   3.470  10.865  0.7094  0.5774 -0.1352
  652TMC3    C5 9704   3.527   3.479  10.934  0.0560 -0.1647  1.3512
  652TMC3    C6 9705   3.449   3.367  10.942 -0.3823 -0.3467  0.3641
  652TMC3     C 9706   3.821   3.320  10.796  0.2647  0.4325  0.4281
  652TMC3     O 9707   3.858   3.221  10.855  0.3557  0.3917  0.0608
  652TMC3     H 9708   3.622   3.148  10.772 -0.1481 -0.5451  1.1250
  652TMC3    H1 9709   3.717   3.546  10.876  1.1532  0.4089 -2.0593
  652TMC3    H2 9710   3.354   3.365  10.994 -0.8832 -0.2444 -0.5446
  652TMC3    C7 9711   3.538   3.571  11.052 -0.0411  0.7139  0.6613
  652TMC3    C8 9712   3.364   3.218  10.783 -1.0967  0.0712 -0.1344
  652TMC3    O1 9713   3.520   3.523  11.166  0.6085  0.1402  0.2752
  652TMC3    O2 9714   3.401   3.187  10.670  0.4009 -0.4505 -0.4858
  653MPD2     C 9715   1.883   3.245   0.136  0.0112  0.3791 -0.2519
  653MPD2    C1 9716   1.853   3.314   0.024 -0.5861 -0.0712  0.1210
  653MPD2    C2 9717   1.757   3.266  17.688  0.3278  1.1464 -0.2409
  653MPD2    C3 9718   1.694   3.151  17.720  0.2013 -0.3618 -0.1203
  653MPD2    C4 9719   1.725   3.082   0.090  0.0436 -0.1945  0.4628
  653MPD2    C5 9720   1.823   3.127   0.170  0.0054  0.0140  0.1402
  653MPD2     H 9721   1.718   3.319  17.602  1.7454  2.9256  0.2134
  653MPD2    H1 9722   1.674   2.993   0.125  0.7012 -0.6713  0.1885
  653MPD2    H2 9723   1.959   3.270   0.209  2.5471  0.0809 -2.7992
  653MPD2    H3 9724   1.855   3.079   0.262 -0.4938 -1.3393 -0.4092
  653MPD2     N 9725   1.592   3.112  17.629  0.2116  0.5346 -0.2349
  653MPD2    H5 9726   1.580   3.155  17.538  1.4478 -1.7758 -1.4882
  653MPD2    N1 9727   1.913   3.442  17.743 -0.1664 -0.9377  0.9408
  653MPD2    H7 9728   1.874   3.488  17.661 -0.8618 -0.9248  1.2801
  654TMC3    C1 9729   1.410   2.998  17.544  0.4462  0.7994 -0.6574
  654TMC3    C2 9730   1.365   3.109  17.477  0.5607  0.2080  0.8136
  654TMC3    C3 9731   1.277   3.094  17.371  0.1122 -0.2334 -0.9097
  654TMC3    C4 9732   1.376   2.878  17.488 -0.2743  0.6432  0.3991
  654TMC3    C5 9733   1.283   2.865  17.384  0.0767 -0.0455 -0.3737
  654TMC3    C6 9734   1.235   2.978  17.325 -0.1928  0.1515 -1.2341
  654TMC3     C 9735   1.514   2.997  17.646 -0.1445  1.1391  0.4340
  654TMC3     O 9736   1.520   2.904  17.726 -0.4622  0.4230 -0.4828
  654TMC3     H 9737   1.387   3.205  17.523  0.5800  0.3053  0.5980
  654TMC3    H1 9738   1.406   2.785  17.536 -0.5964 -0.0206 -0.6661
  654TMC3    H2 9739   1.163   2.963  17.245 -0.6947 -0.5011 -0.6614
  654TMC3    C7 9740   1.323   2.771  17.280 -0.0367  0.0248  0.5201
  654TMC3    C8 9741   1.203   3.216  17.322  0.3113 -0.3216 -0.1088
  654TMC3    O1 9742   1.304   2.808  17.166 -0.8820 -0.3503  0.3743
  654TMC3    O2 9743   1.124   3.181  17.238  0.5656 -0.0055 -0.7197
  655MPD2     C 9744   3.096   3.157  15.910 -0.3359 -0.1838 -0.4532
  655MPD2    C1 9745   3.060   3.243  15.809 -0.5450 -0.2735 -0.9179
  655MPD2    C2 9746   3.079   3.203  15.677  0.6263  0.6659  0.0543
  655MPD2    C3 9747   3.109   3.073  15.643 -0.1608 -0.0832 -0.1031
  655MPD2    C4 9748   3.138   2.982  15.752 -0.4811 -0.1929  0.4617
  655MPD2    C5 9749   3.139   3.036  15.879  0.1974 -0.6723 -0.6600
  655MPD2     H 9750   3.048   3.274  15.601 -2.9278 -2.6083 -1.5935
  655MPD2    H1 9751   3.166   2.878  15.742  0.1923  0.1028 -0.7131
  655MPD2    H2 9752   3.096   3.181  16.015 -1.5053  3.1545 -1.2205
  655MPD2    H3 9753   3.165   2.971  15.962 -0.3052 -1.0623 -0.8058
  655MPD2     N 9754   3.115   3.019  15.514  0.1724  0.1329  0.0356
  655MPD2    H5 9755   3.138   2.920  15.503  0.5470 -0.0684  2.6959
  655MPD2    N1 9756   3.011   3.376  15.832  0.2091 -0.0264  0.1750
  655MPD2    H7 9757   2.987   3.436  15.754 -1.5954 -0.3778  0.4479
  656TMC3    C1 9758   2.947   3.559  15.953 -0.9336  0.1853 -0.5562
  656TMC3    C2 9759   2.857   3.584  16.053 -0.7934 -0.0663  0.6861
  656TMC3    C3 9760   2.769   3.688  16.043  0.3264  0.2088  0.7959
  656TMC3    C4 9761   2.952   3.639  15.838  0.1068  0.6058 -0.0142
  656TMC3    C5 9762   2.858   3.733  15.827 -0.1102 -0.3255 -0.0692
  656TMC3    C6 9763   2.770   3.761  15.928  0.2711 -0.2688 -0.4224
  656TMC3     C 9764   3.003   3.428  15.956 -0.1390 -0.1374 -0.2931
  656TMC3     O 9765   3.014   3.381  16.070 -0.0502 -0.0876  0.7296
  656TMC3     H 9766   2.850   3.508  16.129 -1.6319  0.4823  1.1634
  656TMC3    H1 9767   3.014   3.620  15.751  0.7008  1.4230  0.2311
  656TMC3    H2 9768   2.697   3.841  15.921  0.9162  0.2355 -1.4719
  656TMC3    C7 9769   2.830   3.787  15.692  1.0123 -0.4458  0.5230
  656TMC3    C8 9770   2.649   3.662  16.106  0.1700  0.5497  0.3299
  656TMC3    O1 9771   2.906   3.745  15.603 -0.2214 -0.1746  0.0397
  656TMC3    O2 9772   2.625   3.543  16.116 -0.4838 -0.0121  0.4703
  657TMC3    C1 9773   1.793   2.675  15.246  1.0022 -0.5026  0.1928
  657TMC3    C2 9774   1.884   2.722  15.339  0.0379 -0.1348 -0.4109
  657TMC3    C3 9775   1.909   2.856  15.330  0.1481  0.0662 -0.3146
  657TMC3    C4 9776   1.717   2.752  15.167  0.1532 -0.2765 -0.5286
  657TMC3    C5 9777   1.732   2.886  15.176  0.1354 -0.5999  0.5867
  657TMC3    C6 9778   1.835   2.942  15.247  0.2130  0.0902  0.8156
  657TMC3     C 9779   1.811   2.537  15.201  0.1164  0.2188 -0.0246
  657TMC3     O 9780   1.735   2.493  15.118 -0.3020 -0.0909 -0.5027
  657TMC3     H 9781   1.924   2.654  15.414  0.2654  0.3443 -0.1023
  657TMC3    H1 9782   1.652   2.704  15.094 -1.6428 -0.2327  1.0218
  657TMC3    H2 9783   1.827   3.046  15.274  0.6363 -0.3561  2.6508
  657TMC3    C7 9784   1.677   2.959  15.061 -0.9882 -0.0645 -0.6265
  657TMC3    C8 9785   2.016   2.908  15.407  0.0616 -0.3997  0.5304
  657TMC3    O1 9786   1.581   2.910  15.010 -0.2059 -0.1242 -0.2858
  657TMC3    O2 9787   2.074   2.827  15.484 -0.0776  0.0831  0.3271
  658MPD2     C 9788   3.516   2.761  14.864  0.4763 -0.2935 -0.1414
  658MPD2    C1 9789   3.394   2.815  14.828  0.0914  0.3963 -0.4843
  658MPD2    C2 9790   3.382   2.859  14.697 -0.0361  0.0282  0.4672
  658MPD2    C3 9791   3.482   2.852  14.600 -0.8113  0.1454  0.4291
  658MPD2    C4 9792   3.606   2.811  14.643 -0.2529  0.0638  0.7199
  658MPD2    C5 9793   3.618   2.768  14.771  0.1520  0.1443 -0.8144
  658MPD2     H 9794   3.290   2.911  14.672 -0.6501  0.0290  2.7527
  658MPD2    H1 9795   3.687   2.802  14.571 -1.0557  1.6165 -0.3866
  658MPD2    H2 9796   3.535   2.727  14.965 -0.3591 -1.9547 -0.5426
  658MPD2    H3 9797   3.714   2.733  14.808 -1.2237 -1.5462  1.1209
  658MPD2     N 9798   3.452   2.895  14.472 -0.1968 -0.2286  0.4327
  658MPD2    H5 9799   3.360   2.928  14.448 -0.5626 -1.0278  0.7446
  658MPD2    N1 9800   3.285   2.830  14.921  0.1952 -0.3258 -0.0766
  658MPD2    H7 9801   3.201   2.870  14.882  1.5543  2.5734  0.0080
  659TMC3    C1 9802   3.162   2.851  15.124 -0.2211  0.4513  0.4885
  659TMC3    C2 9803   3.175   2.898  15.250  0.0847 -0.5436  0.0873
  659TMC3    C3 9804   3.070   2.976  15.296 -0.5149 -1.1713 -0.0867
  659TMC3    C4 9805   3.046   2.846  15.047 -0.5093 -0.2019 -0.2678
  659TMC3    C5 9806   2.948   2.924  15.098  0.0893 -0.0077  0.3255
  659TMC3    C6 9807   2.960   2.989  15.213 -0.0978  0.5432  0.4911
  659TMC3     C 9808   3.289   2.815  15.059 -0.3921  0.6594  0.2826
  659TMC3     O 9809   3.387   2.788  15.128 -0.1532 -0.4126 -0.0804
  659TMC3     H 9810   3.276   2.906  15.287 -0.0710  1.6445  0.0381
  659TMC3    H1 9811   3.038   2.781  14.961 -0.0179  0.5334 -0.8822
  659TMC3    H2 9812   2.892   3.065  15.250  0.5548  2.0833 -1.4918
  659TMC3    C7 9813   2.822   2.943  15.024  0.0210  0.1645 -0.7369
  659TMC3    C8 9814   3.083   3.081  15.396  0.1109 -0.0968 -0.6646
  659TMC3    O1 9815   2.754   3.030  15.079  0.2509 -0.0741  0.2551
  659TMC3    O2 9816   3.053   3.196  15.369  0.1960  0.8605 -0.0388
  660MPD2     C 9817   1.413   2.124  13.095  0.1956 -0.2789 -0.4392
  660MPD2    C1 9818   1.367   2.086  12.971  0.3444  0.0434  0.0533
  660MPD2    C2 9819   1.327   1.954  12.955  0.4600  0.1706  0.1380
  660MPD2    C3 9820   1.358   1.854  13.049 -0.0328 -0.3068  0.5234
  660MPD2    C4 9821   1.407   1.895  13.172 -0.3705 -0.1425  0.0483
  660MPD2    C5 9822   1.440   2.029  13.183 -0.8043 -0.0585  0.5214
  660MPD2     H 9823   1.272   1.930  12.864  1.0221  1.2603 -0.4942
  660MPD2    H1 9824   1.421   1.827  13.255  0.8708 -0.5197 -0.4683
  660MPD2    H2 9825   1.445   2.227  13.108 -0.4980  0.1637 -2.1484
  660MPD2    H3 9826   1.489   2.070  13.270  0.0743  0.5796 -0.2802
  660MPD2     N 9827   1.315   1.720  13.030  0.1117 -1.0718  0.5938
  660MPD2    H5 9828   1.346   1.655  13.102  0.2601 -2.6732 -0.9380
  660MPD2    N1 9829   1.336   2.182  12.873  0.0504 -0.0961  0.2354
  660MPD2    H7 9830   1.319   2.278  12.902 -1.4177 -0.3686  0.2787
  661TMC3    C1 9831   1.253   2.267  12.666  0.3297  0.1328 -0.5037
  661TMC3    C2 9832   1.271   2.266  12.533 -0.8152  0.0425 -0.0915
  661TMC3    C3 9833   1.166   2.280  12.448 -0.9730  0.5373  0.6631
  661TMC3    C4 9834   1.124   2.274  12.715  0.4521 -0.8881  0.5870
  661TMC3    C5 9835   1.025   2.287  12.624  0.1807  0.0869  0.4293
  661TMC3    C6 9836   1.034   2.290  12.483 -0.7158  0.2737 -1.0646
  661TMC3     C 9837   1.322   2.164  12.740  0.0605 -0.2398  0.1891
  661TMC3     O 9838   1.353   2.068  12.667  0.3789  0.3765  0.2833
  661TMC3     H 9839   1.368   2.254  12.487 -1.0675  1.2914 -0.9748
  661TMC3    H1 9840   1.108   2.244  12.818  1.7475 -0.3716  0.9441
  661TMC3    H2 9841   0.947   2.307  12.421 -0.8262  1.6660 -0.5234
  661TMC3    C7 9842   0.896   2.253  12.689 -0.2150  0.0018 -0.2692
  661TMC3    C8 9843   1.197   2.319  12.313 -0.2584 -0.0171  0.6459
  661TMC3    O1 9844   0.869   2.298  12.799  0.8674  0.4467  0.0992
  661TMC3    O2 9845   1.296   2.388  12.292  0.1748  0.1414 -0.7532
  662MPD2     C 9846   1.760   1.491  17.006  0.1710  0.2394 -0.1457
  662MPD2    C1 9847   1.627   1.469  16.998 -0.0918 -0.2000 -1.0460
  662MPD2    C2 9848   1.534   1.567  16.982  0.0234  0.1222 -0.0988
  662MPD2    C3 9849   1.576   1.697  16.984  0.4648 -1.0738 -0.0842
  662MPD2    C4 9850   1.708   1.727  16.986  0.2491  0.2963  0.1704
  662MPD2    C5 9851   1.800   1.625  16.998 -0.5236 -0.0482 -1.2947
  662MPD2     H 9852   1.430   1.537  16.989  0.4029 -1.3612 -0.7737
  662MPD2    H1 9853   1.742   1.830  16.983 -1.6433  1.0051  2.7902
  662MPD2    H2 9854   1.844   1.422  17.008 -3.1334 -3.7608  1.2160
  662MPD2    H3 9855   1.905   1.648  17.007 -0.3384 -1.5907  0.5979
  662MPD2     N 9856   1.470   1.797  16.975 -0.1782  0.8078 -0.0304
  662MPD2    H5 9857   1.376   1.760  16.967  0.3125 -0.4391 -0.0940
  662MPD2    N1 9858   1.572   1.336  17.018 -0.5409 -0.0259 -0.0849
  662MPD2    H7 9859   1.473   1.319  17.001 -1.0158  1.9444  0.7883
  663TMC3    C1 9860   1.551   1.124  17.087 -0.2113  0.2372  0.5252
  663TMC3    C2 9861   1.493   1.106  17.205  0.1848  0.5083 -0.4347
  663TMC3    C3 9862   1.394   1.018  17.235 -0.3460 -0.3042 -0.4437
  663TMC3    C4 9863   1.489   1.074  16.978 -0.0758  0.5197 -0.0107
  663TMC3    C5 9864   1.386   0.988  17.004  0.9226  0.9485  0.1121
  663TMC3    C6 9865   1.330   0.963  17.129  0.8714 -0.2613 -0.1312
  663TMC3     C 9866   1.640   1.232  17.076 -0.0147 -0.3702  0.2999
  663TMC3     O 9867   1.743   1.233  17.142 -0.3195  0.0825 -0.2038
  663TMC3     H 9868   1.550   1.145  17.290  0.9425 -2.0491  0.2246
  663TMC3    H1 9869   1.520   1.099  16.878 -0.6267  4.1906  0.7397
  663TMC3    H2 9870   1.267   0.879  17.157  0.3722  0.5061  1.0755
  663TMC3    C7 9871   1.345   0.923  16.895  0.6862  0.2096  0.2988
  663TMC3    C8 9872   1.309   1.076  17.335  0.0396  0.5937 -0.2628
  663TMC3    O1 9873   1.324   0.985  16.791 -0.1493  0.1792  0.0927
  663TMC3    O2 9874   1.318   1.195  17.356  0.1166 -0.0017  0.0109
  664MPD2     C 9875   3.851   4.498  17.712 -0.0456  0.4707  0.9151
  664MPD2    C1 9876   3.929   4.608  17.733 -0.2049  0.1627 -0.4885
  664MPD2    C2 9877   3.924   4.683   0.103 -0.4329  0.7873  0.1258
  664MPD2    C3 9878   3.854   4.636   0.207 -0.0377 -0.1176 -0.5422
  664MPD2    C4 9879   3.784   4.515   0.194 -0.8034  0.0728  0.9962
  664MPD2    C5 9880   3.780   4.444   0.076 -0.1144 -0.3490 -0.0563
  664MPD2     H 9881   3.978   0.039   0.109  4.1421 -1.7875 -0.6073
  664MPD2    H1 9882   3.743   4.467   0.282  2.4942  0.7787  2.8950
  664MPD2    H2 9883   3.848   4.443  17.619 -0.0524  2.2185 -0.1087
  664MPD2    H3 9884   3.715   4.358   0.069  0.7236 -1.1031  1.2303
  664MPD2     N 9885   3.859   4.714   0.327  0.8285  0.5965  0.5855
  664MPD2    H5 9886   3.916   0.061   0.326 -1.3920  2.1050  0.8070
  664MPD2    N1 9887   4.015   4.663  17.626 -0.0491 -0.5420  0.4217
  664MPD2    H7 9888   4.061   0.013  17.650  0.5264 -0.7337  0.0089
  665TMC3    C1 9889   3.813   0.060   0.542 -0.3746  0.2269  0.0888
  665TMC3    C2 9890   3.720   0.107   0.627  0.0692 -0.7617  0.1437
  665TMC3    C3 9891   3.766   0.190   0.730  0.1822  0.3104  0.1337
  665TMC3    C4 9892   3.950   0.082   0.556 -0.3091  0.2744 -0.1679
  665TMC3    C5 9893   3.985   0.172   0.646  0.5411 -0.0428  0.0606
  665TMC3    C6 9894   3.893   0.231   0.731  0.7185  0.2693 -0.7224
  665TMC3     C 9895   3.781   4.696   0.441 -0.1512 -0.7048 -0.5193
  665TMC3     O 9896   3.683   4.623   0.458 -0.0906 -0.3718  0.4492
  665TMC3     H 9897   3.622   0.062   0.615 -0.8686  1.6099 -1.0071
  665TMC3    H1 9898   4.028   0.034   0.499 -0.1825  0.2258  0.0478
  665TMC3    H2 9899   3.916   0.299   0.812 -1.6283 -0.8102  0.8521
  665TMC3    C7 9900   4.125   0.217   0.649  0.4944 -0.5732  0.5820
  665TMC3    C8 9901   3.672   0.273   0.801  0.3289  0.6809 -0.0797
  665TMC3    O1 9902   4.195   0.170   0.559 -0.1530 -0.6054  0.0365
  665TMC3    O2 9903   3.713   0.363   0.871 -0.2219 -0.0345  0.2945
  666TMC3    C1 9904   3.489   4.601  10.461  0.1309  0.9383 -0.0537
  666TMC3    C2 9905   3.590   4.519  10.417 -0.4439 -0.3320  0.3356
  666TMC3    C3 9906   3.666   4.558  10.312  0.6338  0.2302 -0.7763
  666TMC3    C4 9907   3.465   4.722  10.400 -0.4975  0.5367 -0.5872
  666TMC3    C5 9908   3.546   0.017  10.291 -0.2417  0.4959  0.0837
  666TMC3    C6 9909   3.653   4.677  10.244  0.1967  0.1819  0.2515
  666TMC3     C 9910   3.403   4.570  10.578 -0.0876  0.1883 -0.6567
  666TMC3     O 9911   3.354   4.666  10.636  0.1660 -0.0312 -0.4769
  666TMC3     H 9912   3.624   4.442  10.486  2.1821  0.8745  0.4116
  666TMC3    H1 9913   3.388   0.054  10.430 -2.5779 -1.1405 -2.0675
  666TMC3    H2 9914   3.707   4.711  10.156  1.1003 -0.5356  0.5315
  666TMC3    C7 9915   3.477   0.102  10.192  0.3213  0.9538 -0.6450
  666TMC3    C8 9916   3.795   4.496  10.301 -0.7749 -0.2043  0.4834
  666TMC3    O1 9917   3.373   0.143  10.233 -0.4811 -1.1830 -0.4770
  666TMC3    O2 9918   3.797   4.377  10.330  0.5311 -0.2473 -0.0270
  667MPD2     C 9919   0.485   4.421  14.682  0.0167 -0.3755  0.2620
  667MPD2    C1 9920   0.394   4.525  14.688  0.3677  0.2941 -0.2482
  667MPD2    C2 9921   0.267   4.496  14.735  1.0270 -0.3779 -0.1578
  667MPD2    C3 9922   0.233   4.366  14.775  0.2187 -0.5927  0.0564
  667MPD2    C4 9923   0.321   4.262  14.760 -0.2555 -0.2396  0.5257
  667MPD2    C5 9924   0.453   4.289  14.716 -0.7401  0.1240 -0.4288
  667MPD2     H 9925   0.200   4.581  14.730  1.7629  0.3020  1.7058
  667MPD2    H1 9926   0.296   4.157  14.774  0.0056 -0.6024 -1.7730
  667MPD2    H2 9927   0.589   4.444  14.660 -0.1267 -0.2431 -0.2855
  667MPD2    H3 9928   0.524   4.209  14.703 -0.7230  0.1486 -0.4845
  667MPD2     N 9929   0.096   4.325  14.804  0.6309 -0.0420  0.1416
  667MPD2    H5 9930   0.074   4.226  14.808  1.4379 -0.2642 -0.9008
  667MPD2    N1 9931   0.435   4.653  14.642 -0.2475  0.0884  0.2044
  667MPD2    H7 9932   0.374   4.729  14.671 -0.3049  0.3095 -0.5125
  668TMC3    C1 9933   0.558   0.080  14.530  0.0889  0.3790 -0.1594
  668TMC3    C2 9934   0.648   0.117  14.438 -0.9698 -0.0436 -0.5183
  668TMC3    C3 9935   0.702   0.239  14.441  0.1073  0.7280  0.3795
  668TMC3    C4 9936   0.523   0.166  14.632  0.2443  0.5605 -0.0670
  668TMC3    C5 9937   0.571   0.291  14.634  0.3981  0.5477  0.5224
  668TMC3    C6 9938   0.661   0.333  14.535 -0.2412  0.9813 -0.2759
  668TMC3     C 9939   0.531   4.676  14.543  0.0150  0.9817  0.1368
  668TMC3     O 9940   0.602   4.594  14.482 -0.3318 -0.7064 -0.2005
  668TMC3     H 9941   0.660   0.059  14.348  1.6238 -0.3777  0.0437
  668TMC3    H1 9942   0.455   0.134  14.710  1.3318 -3.1807 -0.6713
  668TMC3    H2 9943   0.702   0.432  14.551  0.9336  0.3291  0.8398
  668TMC3    C7 9944   0.559   0.372  14.752  0.9742  0.3650 -0.7448
  668TMC3    C8 9945   0.775   0.274  14.329  0.5288  0.0694 -0.3114
  668TMC3    O1 9946   0.586   0.492  14.740  0.2344  0.2077 -0.5906
  668TMC3    O2 9947   0.757   0.217  14.223  0.0370  0.1393  0.3096
  669TMC3    C1 9948   3.147   4.396  14.704  0.3025 -0.1520  0.8706
  669TMC3    C2 9949   3.058   4.404  14.599  0.5621 -0.4498 -0.4179
  669TMC3    C3 9950   3.104   4.438  14.477 -0.4134 -0.1894  0.0779
  669TMC3    C4 9951   3.276   4.417  14.687  0.2909 -0.0255  0.4136
  669TMC3    C5 9952   3.326   4.462  14.564  0.8049 -0.2602 -0.2533
  669TMC3    C6 9953   3.240   4.468  14.456 -0.3418  0.5810 -0.0458
  669TMC3     C 9954   3.109   4.323  14.823  0.8091 -0.1234  0.3336
  669TMC3     O 9955   2.996   4.343  14.865 -0.1176  0.4606  0.0670
  669TMC3     H 9956   2.953   4.386  14.619  0.6968 -0.3220  0.3987
  669TMC3    H1 9957   3.334   4.430  14.778  0.6065  1.7241 -0.0413
  669TMC3    H2 9958   3.283   4.474  14.357 -1.6449  0.0154 -0.6443
  669TMC3    C7 9959   3.456   4.535  14.554  0.5939  0.2751 -0.7191
  669TMC3    C8 9960   3.007   4.469  14.379 -0.4088 -0.3013 -0.1860
  669TMC3    O1 9961   3.478   4.623  14.635 -0.4194  0.6552  0.0718
  669TMC3    O2 9962   2.899   4.409  14.389 -0.6660  0.2126 -0.1091
  670MPD2     C 9963   1.736   1.869  13.408 -0.4199 -0.5133 -0.1371
  670MPD2    C1 9964   1.805   1.977  13.452 -0.3691 -0.0853  0.2146
  670MPD2    C2 9965   1.747   2.062  13.534 -0.1422  0.6762  0.0626
  670MPD2    C3 9966   1.615   2.054  13.575 -0.2164 -0.1241  0.4084
  670MPD2    C4 9967   1.547   1.937  13.531 -0.1995 -0.3735  0.1534
  670MPD2    C5 9968   1.605   1.850  13.442  0.5399  0.5039  0.1376
  670MPD2     H 9969   1.806   2.150  13.557 -1.9275  1.8905  0.0027
  670MPD2    H1 9970   1.443   1.927  13.563  0.8359 -4.3639  2.2127
  670MPD2    H2 9971   1.784   1.801  13.338 -0.0195 -2.1726  1.7584
  670MPD2    H3 9972   1.559   1.765  13.393  0.6640  0.6134 -0.1667
  670MPD2     N 9973   1.566   2.140  13.674  0.4818 -0.4540  0.0613
  670MPD2    H5 9974   1.630   2.189  13.736  0.3358 -0.3643  0.1414
  670MPD2    N1 9975   1.938   2.010  13.425 -0.2662  0.3416  0.3318
  670MPD2    H7 9976   1.972   2.091  13.477  0.0081  0.3149  0.1948
  671TMC3    C1 9977   1.410   2.240  13.819  0.1009  0.5632  1.1199
  671TMC3    C2 9978   1.519   2.255  13.899  0.3070 -0.1890  0.4416
  671TMC3    C3 9979   1.509   2.211  14.030 -0.0925 -0.5448 -0.5384
  671TMC3    C4 9980   1.287   2.227  13.874 -0.3609  0.1643  0.2159
  671TMC3    C5 9981   1.275   2.190  14.011  0.3595 -0.0909 -0.3376
  671TMC3    C6 9982   1.386   2.190  14.091  0.2409  0.3747  0.0102
  671TMC3     C 9983   1.433   2.161  13.696  0.1874 -0.1701  0.5434
  671TMC3     O 9984   1.342   2.115  13.638 -0.5694  0.0327  0.4057
  671TMC3     H 9985   1.618   2.263  13.856  0.2600  1.6011  0.6563
  671TMC3    H1 9986   1.201   2.226  13.808 -0.2625  0.0845  0.0901
  671TMC3    H2 9987   1.379   2.137  14.185  0.8962  1.4132  0.6326
  671TMC3    C7 9988   1.190   2.075  14.029 -0.3514 -0.7922  0.8213
  671TMC3    C8 9989   1.626   2.152  14.087 -0.1731 -0.8857  0.2214
  671TMC3    O1 9990   1.236   1.970  14.057  0.0107  0.4464 -0.1690
  671TMC3    O2 9991   1.714   2.124  14.005 -0.2356 -0.0760 -0.4315
  672MPD2     C 9992   1.405   2.801   0.900  0.1052  0.5859 -0.0049
  672MPD2    C1 9993   1.469   2.770   0.785 -0.5203  0.1409 -0.1406
  672MPD2    C2 9994   1.601   2.811   0.766 -0.2549 -1.0632  0.1777
  672MPD2    C3 9995   1.670   2.877   0.868 -0.3052 -0.1347  0.5020
  672MPD2    C4 9996   1.599   2.920   0.981  0.1011  0.0559 -0.1128
  672MPD2    C5 9997   1.469   2.868   1.000  0.1028  0.4872  0.0499
  672MPD2     H 9998   1.648   2.788   0.671 -0.4222 -1.0024  0.0797
  672MPD2    H1 9999   1.647   2.982   1.056  0.9816 -0.9560  0.1653
  672MPD2    H210000   1.305   2.764   0.921  1.0280 -1.9723 -0.0498
  672MPD2    H310001   1.424   2.885   1.097  0.2985  0.0396  0.2188
  672MPD2     N10002   1.807   2.930   0.854 -0.1869 -0.1300 -0.2562
  672MPD2    H510003   1.856   2.978   0.929 -0.5336 -1.7933  1.0318
  672MPD2    N110004   1.406   2.709   0.680 -0.4482  0.8987 -0.7138
  672MPD2    H710005   1.466   2.668   0.609 -0.7342 -1.2073  0.2489
  673TMC3    C110006   1.225   2.640   0.554 -0.3624  0.4536  0.5046
  673TMC3    C210007   1.299   2.539   0.498 -0.1263  0.1160  0.0910
  673TMC3    C310008   1.248   2.471   0.385 -0.7194  0.3174 -0.6122
  673TMC3    C410009   1.103   2.680   0.496  0.3086 -0.3191 -0.6416
  673TMC3    C510010   1.064   2.622   0.377 -0.3697 -0.4006  0.2877
  673TMC3    C610011   1.135   2.517   0.321 -0.1058  0.1809 -0.1227
  673TMC3     C10012   1.271   2.709   0.666  0.5851 -0.1233 -0.0261
  673TMC3     O10013   1.186   2.768   0.733 -0.5068 -0.3169 -0.2231
  673TMC3     H10014   1.372   2.494   0.565  1.3125  1.6665 -0.4319
  673TMC3    H110015   1.059   2.773   0.531  0.6603 -0.3352 -0.1557
  673TMC3    H210016   1.097   2.480   0.226  2.4105 -0.2488 -0.9739
  673TMC3    C710017   0.983   2.703   0.287  0.1108 -0.0317 -0.5050
  673TMC3    C810018   1.291   2.338   0.341  0.2913  0.5627 -0.1045
  673TMC3    O110019   0.940   2.638   0.192  0.3206 -0.0005  0.0379
  673TMC3    O210020   1.224   2.289   0.255 -0.4794 -0.4819  0.1353
  674MPD2     C10021   1.184   3.361  17.729  0.1940 -0.7281 -0.4647
  674MPD2    C110022   1.197   3.220   0.005  0.8876  0.0049 -0.1421
  674MPD2    C210023   1.115   3.135  17.677  0.7079  0.6518  0.2019
  674MPD2    C310024   1.020   3.181  17.591  0.2499  0.1926  0.8525
  674MPD2    C410025   1.010   3.315  17.576  0.5865 -0.4850 -0.1550
  674MPD2    C510026   1.086   3.405  17.646  0.0595 -0.1091  0.0827
  674MPD2     H10027   1.111   3.031  17.705 -3.1866  0.5809 -0.6140
  674MPD2    H110028   0.937   3.358  17.508  1.5694  0.0044 -0.8822
  674MPD2    H210029   1.245   3.436   0.032 -0.5587  0.3235 -1.1319
  674MPD2    H310030   1.074   3.508  17.617 -0.8257  0.2965  1.9212
  674MPD2     N10031   0.940   3.087  17.529  0.3603 -0.1442  0.2753
  674MPD2    H510032   0.953   2.990  17.558 -1.0811 -0.3305  0.3085
  674MPD2    N110033   1.284   3.175   0.105  0.0979 -0.8903  0.0869
  674MPD2    H710034   1.336   3.247   0.154  0.0895 -1.6096  1.1463
  675TMC3    C110035   1.380   3.036   0.277 -0.2918 -0.6482  0.7701
  675TMC3    C210036   1.414   2.905   0.298  0.0015  0.2269  0.3834
  675TMC3    C310037   1.524   2.882   0.372  0.8156 -0.2468 -0.3708
  675TMC3    C410038   1.448   3.144   0.333 -0.1474 -0.5991  0.1141
  675TMC3    C510039   1.545   3.114   0.422  0.2708  0.1487 -0.6606
  675TMC3    C610040   1.595   2.981   0.435 -0.1728 -0.4251  0.1851
  675TMC3     C10041   1.293   3.047   0.157  0.6483 -0.4459  0.1762
  675TMC3     O10042   1.241   2.945   0.117  0.0521  0.6636  0.0725
  675TMC3     H10043   1.352   2.825   0.261  1.7991 -0.3712 -1.3793
  675TMC3    H110044   1.417   3.248   0.335  1.4682 -0.0727 -2.5887
  675TMC3    H210045   1.690   2.961   0.483  0.6684  2.1439 -0.4092
  675TMC3    C710046   1.637   3.223   0.456 -0.0282 -0.1329 -0.2974
  675TMC3    C810047   1.590   2.748   0.362  0.1500 -0.3704 -0.1233
  675TMC3    O110048   1.758   3.197   0.453  0.2227 -0.3578  0.0486
  675TMC3    O210049   1.667   2.708   0.447  0.1155  0.2716 -0.2995
  676MPD2     C10050   4.581   1.115  11.448  0.1337 -0.0457  0.5963
  676MPD2    C110051   4.471   1.037  11.434  0.0390 -0.2163 -0.0165
  676MPD2    C210052   4.484   0.907  11.386 -0.8462  0.3810 -0.4719
  676MPD2    C310053   4.610   0.858  11.364 -0.3945  0.0498 -0.2193
  676MPD2    C410054   4.720   0.942  11.369 -0.0120  0.5569 -0.1710
  676MPD2    C510055   4.706   1.070  11.412 -0.4698  0.3977 -0.6261
  676MPD2     H10056   4.399   0.844  11.364 -1.3137  1.1746 -0.9338
  676MPD2    H110057   0.084   0.908  11.350 -0.0283 -0.3473  1.2726
  676MPD2    H210058   4.584   1.223  11.460  2.1738  0.1017 -1.3332
  676MPD2    H310059   0.054   1.135  11.395 -0.1306  0.4944  1.4341
  676MPD2     N10060   4.634   0.726  11.307 -0.8107  0.3626 -0.0366
  676MPD2    H510061   4.724   0.716  11.261 -1.1271  0.8189 -0.7519
  676MPD2    N110062   4.341   1.093  11.445 -0.1621  0.2407  0.2443
  676MPD2    H710063   4.265   1.033  11.415 -0.5263  1.3575 -1.0566
  677TMC3    C110064   4.161   1.243  11.498 -0.6471 -0.0584  0.2749
  677TMC3    C210065   4.072   1.142  11.515 -0.2321  0.1006  0.4517
  677TMC3    C310066   3.952   1.174  11.574 -0.0927  0.4321  0.3518
  677TMC3    C410067   4.143   1.368  11.544  0.2595  0.1480  0.7420
  677TMC3    C510068   4.019   1.397  11.601 -0.3682 -0.5634 -0.4654
  677TMC3    C610069   3.920   1.298  11.611 -0.4940  0.1521  0.3308
  677TMC3     C10070   4.307   1.220  11.481 -0.8385  0.5411  0.6747
  677TMC3     O10071   4.382   1.311  11.515 -0.2976  0.0402 -0.0052
  677TMC3     H10072   4.102   1.040  11.495  0.1342  0.6436 -1.7865
  677TMC3    H110073   4.201   1.447  11.498 -0.4334  0.4224  0.3483
  677TMC3    H210074   3.832   1.324  11.668  0.7514 -1.5178  3.0016
  677TMC3    C710075   4.000   1.516  11.680 -0.3118 -0.4099 -0.1336
  677TMC3    C810076   3.898   1.067  11.656  0.4012 -0.1992  0.0114
  677TMC3    O110077   3.895   1.523  11.745  0.8313  0.1594  0.0771
  677TMC3    O210078   3.790   1.081  11.707 -0.2546  0.0697 -0.2442
  678MPD2     C10079   1.091   0.649   1.001  0.5912  0.7634  0.3472
  678MPD2    C110080   1.003   0.548   1.022  1.0025  0.7203 -0.2060
  678MPD2    C210081   0.869   0.568   1.009  0.2962 -0.0656  0.6693
  678MPD2    C310082   0.813   0.695   0.980 -1.0600  0.4664  0.4054
  678MPD2    C410083   0.901   0.803   0.966 -0.0897  0.7180  0.8644
  678MPD2    C510084   1.037   0.773   0.971 -0.3689 -0.2114 -0.1346
  678MPD2     H10085   0.801   0.485   1.019  0.4708 -0.3757 -0.6325
  678MPD2    H110086   0.873   0.908   0.959 -3.5919 -0.4403 -2.0551
  678MPD2    H210087   1.199   0.642   0.999  0.4564 -1.4118  1.5981
  678MPD2    H310088   1.112   0.851   0.973 -0.2550 -0.3337  0.2608
  678MPD2     N10089   0.673   0.705   0.962 -0.1626 -0.1940 -0.4625
  678MPD2    H510090   0.631   0.612   0.966  0.0154 -0.2283  0.4995
  678MPD2    N110091   1.039   0.419   1.075 -0.0084 -0.5542  1.0920
  678MPD2    H710092   0.959   0.359   1.092 -0.4249 -0.1599  0.4986
  679TMC3    C110093   1.374   0.118   1.072 -0.2236 -0.0869 -0.0710
  679TMC3    C210094   1.296   0.197   1.151 -1.4868  0.8294  0.1222
  679TMC3    C310095   1.174   0.232   1.109 -0.3832 -0.1412  0.6432
  679TMC3    C410096   1.324   0.059   0.958 -0.7352  0.0646  0.2531
  679TMC3    C510097   1.193   0.086   0.925 -0.7404 -0.9134 -0.9911
  679TMC3    C610098   1.122   0.181   0.994  0.0609 -0.6845  0.0654
  679TMC3     C10099   1.503   0.168   1.051 -0.7597 -0.3797 -0.6658
  679TMC3     O10100   1.582   0.089   0.998 -0.0655 -0.0578  0.2384
  679TMC3     H10101   1.336   0.252   1.235  0.5499  0.6730 -0.7437
  679TMC3    H110102   1.383   4.721   0.907 -0.2324 -1.0590  2.5035
  679TMC3    H210103   1.021   0.204   0.964 -0.0698 -0.0755  0.9830
  679TMC3    C710104   1.163   0.097   0.787 -0.0092  0.2680  0.3025
  679TMC3    C810105   1.161   0.378   1.116 -0.1782 -0.7147 -0.3184
  679TMC3    O110106   1.054   0.141   0.756 -0.1348  0.5858 -0.3090
  679TMC3    O210107   1.260   0.443   1.145 -0.0914  0.6143  0.4869
  680MPD2     C10108   0.748   4.264  13.696  0.4759 -0.7508 -0.5505
  680MPD2    C110109   0.834   4.204  13.792 -0.0716 -0.0664 -0.0323
  680MPD2    C210110   0.925   4.285  13.859 -0.0709  0.0052  0.4737
  680MPD2    C310111   0.923   4.423  13.841  0.1213  0.3150 -0.9998
  680MPD2    C410112   0.842   4.479  13.740 -0.3841  0.4196 -0.0294
  680MPD2    C510113   0.757   4.400  13.672  0.6241 -0.5907 -0.1408
  680MPD2     H10114   0.987   4.230  13.929  0.8689  1.4574  0.7811
  680MPD2    H110115   0.838   4.586  13.726  1.7473  0.3137 -1.4836
  680MPD2    H210116   0.672   4.207  13.643 -0.2292  1.1025 -1.5134
  680MPD2    H310117   0.701   4.450  13.594  2.1158  0.6187 -0.4293
  680MPD2     N10118   1.016   4.502  13.904  0.8309  0.2390 -0.1870
  680MPD2    H510119   1.011   4.601  13.882  1.1957  1.1284  3.7520
  680MPD2    N110120   0.841   4.065  13.821 -0.1633  0.0724 -0.2034
  680MPD2    H710121   0.920   4.036  13.878 -0.3834 -0.4249 -0.1514
  681TMC3    C110122   0.799   3.837  13.819  0.5630  0.1981 -0.0931
  681TMC3    C210123   0.729   3.777  13.919 -0.2429  0.4790 -0.3413
  681TMC3    C310124   0.797   3.701  14.010 -0.4499 -0.0710  0.0925
  681TMC3    C410125   0.929   3.821  13.791  0.5118 -0.2721 -0.1026
  681TMC3    C510126   0.991   3.740  13.880  0.0598 -0.1915 -0.7382
  681TMC3    C610127   0.935   3.686  13.994 -0.4871 -0.7610  0.1790
  681TMC3     C10128   0.756   3.968  13.781 -0.0910  0.5684 -0.0173
  681TMC3     O10129   0.636   3.980  13.761  0.0331 -0.6483  0.2273
  681TMC3     H10130   0.633   3.821  13.943  0.3402  0.9743  1.0837
  681TMC3    H110131   0.979   3.868  13.707  0.5141 -0.2785 -0.1048
  681TMC3    H210132   0.989   3.613  14.055 -0.3306 -0.8713 -0.0938
  681TMC3    C710133   1.131   3.715  13.870  0.2556  0.7963 -0.3180
  681TMC3    C810134   0.741   3.716  14.139  0.4700  0.3968 -0.5463
  681TMC3    O110135   1.171   3.631  13.944 -0.3417  0.0195  0.2662
  681TMC3    O210136   0.615   3.710  14.141  0.5742  0.7062  0.1173
  682MPD2     C10137   3.403   1.065  10.443 -0.3406  0.3347 -0.0679
  682MPD2    C110138   3.269   1.031  10.465 -0.2951  0.5896 -0.0962
  682MPD2    C210139   3.210   1.044  10.589 -0.4055 -0.2930 -0.4002
  682MPD2    C310140   3.286   1.088  10.695 -0.7527 -1.2048  0.5546
  682MPD2    C410141   3.417   1.130  10.679  0.3221 -0.1589  0.1664
  682MPD2    C510142   3.468   1.126  10.549  0.4285  0.0791  0.3321
  682MPD2     H10143   3.106   1.019  10.604 -0.0293 -1.2147  0.6265
  682MPD2    H110144   3.480   1.181  10.751  0.0206  0.8116 -0.2667
  682MPD2    H210145   3.465   1.054  10.356  0.0746  0.8791  0.1638
  682MPD2    H310146   3.572   1.153  10.533  0.5345 -0.2911  0.3875
  682MPD2     N10147   3.229   1.070  10.825 -0.4694  0.3626 -0.3259
  682MPD2    H510148   3.135   1.031  10.823 -1.0167  1.6738 -0.3774
  682MPD2    N110149   3.187   0.968  10.369 -0.3031 -0.1912 -0.4286
  682MPD2    H710150   3.091   0.940  10.386  0.3035 -1.1429  1.4453
  683TMC3    C110151   3.209   0.961  11.277 -0.0903 -0.2469 -0.2392
  683TMC3    C210152   3.140   0.843  11.246 -0.3796  0.3805 -0.0820
  683TMC3    C310153   3.126   0.813  11.114  0.2139 -0.0086  1.1618
  683TMC3    C410154   3.252   1.048  11.179  0.1620 -0.0258  0.3785
  683TMC3    C510155   3.236   1.007  11.047 -0.4965  0.1684  0.0281
  683TMC3    C610156   3.182   0.886  11.019 -0.1405  0.2988 -0.0059
  683TMC3     C10157   3.269   0.970  11.411 -1.1261 -0.4918 -0.6140
  683TMC3     O10158   3.379   1.019  11.412 -0.4606 -0.4542 -0.2908
  683TMC3     H10159   3.099   0.770  11.315  0.2958  0.0001 -0.0914
  683TMC3    H110160   3.306   1.140  11.201 -0.0408  0.5412 -1.5217
  683TMC3    H210161   3.168   0.853  10.917  3.1124  2.3859 -1.1283
  683TMC3    C710162   3.301   1.075  10.939  0.8020 -0.0904  0.4748
  683TMC3    C810163   3.125   0.668  11.103 -1.2880  0.2258  0.0425
  683TMC3    O110164   3.413   1.113  10.977  0.0366  0.5797 -0.4464
  683TMC3    O210165   3.019   0.609  11.104 -0.0747  0.2604 -0.1796
  684MPD2     C10166   1.664   0.020  16.221 -0.0713 -1.1516  0.3994
  684MPD2    C110167   1.575   0.095  16.152 -0.7185 -0.0312 -0.2444
  684MPD2    C210168   1.519   0.208  16.216  0.8291 -0.3185  0.3067
  684MPD2    C310169   1.551   0.243  16.340 -0.1577  0.0293  0.0760
  684MPD2    C410170   1.645   0.174  16.406 -0.5325 -0.3013  0.4332
  684MPD2    C510171   1.709   0.076  16.338 -0.1223  0.0907  0.3432
  684MPD2     H10172   1.440   0.256  16.159  2.1931  0.5407 -0.8478
  684MPD2    H110173   1.687   0.198  16.503 -1.8350 -2.0191  1.4447
  684MPD2    H210174   1.710   4.669  16.178 -0.1631 -0.3418 -1.3481
  684MPD2    H310175   1.783   0.019  16.393 -0.4127  0.2671  0.9105
  684MPD2     N10176   1.504   0.357  16.404 -0.9424 -0.1403 -0.5148
  684MPD2    H510177   1.561   0.405  16.473 -0.2430  0.8759 -1.7896
  684MPD2    N110178   1.536   0.070  16.018 -0.0039  0.8696 -0.0844
  684MPD2    H710179   1.473   0.141  15.981 -1.6982 -1.8771 -2.3800
  685TMC3    C110180   1.567   0.016  15.796  0.6554  0.3527  0.1326
  685TMC3    C210181   1.460   0.099  15.771  0.0955 -0.3198 -0.1495
  685TMC3    C310182   1.456   0.156  15.648 -0.0230  0.1296 -0.0404
  685TMC3    C410183   1.676   0.006  15.705  0.4400 -0.3896 -0.6047
  685TMC3    C510184   1.677   0.081  15.590  0.6252 -0.0652  0.4205
  685TMC3    C610185   1.564   0.148  15.561  0.3970  0.0022 -0.0929
  685TMC3     C10186   1.586   4.711  15.936 -0.1458  0.4671  0.0286
  685TMC3     O10187   1.672   4.630  15.961 -0.1262  0.9609  0.4073
  685TMC3     H10188   1.368   0.076  15.824  0.3988  0.6486  0.8117
  685TMC3    H110189   1.759   4.688  15.748  1.7331  0.5484 -1.9042
  685TMC3    H210190   1.561   0.218  15.477  0.1887 -0.3452 -0.3741
  685TMC3    C710191   1.794   0.158  15.559 -0.4644 -0.4761  0.2033
  685TMC3    C810192   1.325   0.182  15.596 -0.0006  0.6341 -0.5387
  685TMC3    O110193   1.784   0.269  15.505 -0.4131  0.0543  0.8383
  685TMC3    O210194   1.302   0.161  15.478  0.7586  0.0338  0.0931
  686MPD2     C10195   2.934   0.323  15.015  0.9097 -0.0773 -0.4605
  686MPD2    C110196   2.975   0.237  15.111  0.7913 -0.3144 -0.2988
  686MPD2    C210197   3.064   0.136  15.076 -0.3984  1.0864 -0.2828
  686MPD2    C310198   3.103   0.122  14.945 -0.1277  0.1157  0.5308
  686MPD2    C410199   3.058   0.210  14.852  0.1009 -0.1389  0.4647
  686MPD2    C510200   2.967   0.300  14.885 -0.3635  0.1744  0.2084
  686MPD2     H10201   3.110   0.076  15.154 -0.9778  1.5886  0.4503
  686MPD2    H110202   3.097   0.206  14.750  0.6339  0.0350  0.6612
  686MPD2    H210203   2.856   0.395  15.035  1.7150  0.9249 -0.9488
  686MPD2    H310204   2.919   0.361  14.810  0.0150 -1.0541 -1.0287
  686MPD2     N10205   3.192   0.015  14.914  0.1900 -0.0499 -0.0863
  686MPD2    H510206   3.235   0.031  14.824  0.1235  3.1481  0.4340
  686MPD2    N110207   2.923   0.249  15.239 -0.1226  0.0413  0.1862
  686MPD2    H710208   2.849   0.319  15.245  0.2621  0.4321  0.4037
  687TMC3    C110209   3.154   4.580  15.090  0.3327 -0.3708 -0.3245
  687TMC3    C210210   3.012   4.581  15.089  0.2012  0.4739 -0.2158
  687TMC3    C310211   2.948   4.536  15.199 -0.3064 -0.3189  0.4214
  687TMC3    C410212   3.224   4.528  15.190  0.0189  0.1116 -0.3778
  687TMC3    C510213   3.149   4.475  15.292 -0.1578  0.6767 -0.0105
  687TMC3    C610214   3.015   4.479  15.300 -0.0228  0.3083 -0.0831
  687TMC3     C10215   3.232   4.639  14.981 -0.3817  0.4325 -0.1088
  687TMC3     O10216   3.325   4.570  14.948  0.5466  0.3376 -0.1198
  687TMC3     H10217   2.957   4.610  15.000  1.7253 -0.5202 -1.5027
  687TMC3    H110218   3.330   4.508  15.182 -0.6761 -3.0127 -1.8651
  687TMC3    H210219   2.974   4.450  15.396  0.1569  1.6059  0.3823
  687TMC3    C710220   3.215   4.469  15.425 -0.4609  0.4648 -0.8270
  687TMC3    C810221   2.814   4.587  15.232 -0.4640  0.0931 -0.1681
  687TMC3    O110222   3.151   4.451  15.526  0.7333 -0.1819  0.1057
  687TMC3    O210223   2.773   4.536  15.332  0.6631 -0.1497 -0.1867
  688MPD2     C10224   2.016   3.998  17.250 -0.3922  1.0060  0.3500
  688MPD2    C110225   2.088   3.895  17.310 -0.2972  0.0361 -0.4380
  688MPD2    C210226   2.195   3.840  17.243 -0.4324  0.4372 -0.1686
  688MPD2    C310227   2.215   3.864  17.108 -1.0370  0.2678 -0.4560
  688MPD2    C410228   2.138   3.962  17.043 -0.5677 -0.3820 -0.4691
  688MPD2    C510229   2.048   4.033  17.122  0.6408  0.4452  0.1143
  688MPD2     H10230   2.263   3.774  17.294  1.4587  2.0783 -0.5933
  688MPD2    H110231   2.160   3.987  16.939  2.3665  1.9439  0.7206
  688MPD2    H210232   1.939   4.056  17.299  0.6823  2.3652  0.4233
  688MPD2    H310233   2.012   4.129  17.087 -2.9591 -0.6753  0.7843
  688MPD2     N10234   2.310   3.801  17.029  0.6207  0.2963 -0.1984
  688MPD2    H510235   2.317   3.832  16.933  0.4478  0.6179 -0.1075
  688MPD2    N110236   2.076   3.846  17.444 -0.2244 -0.5159  0.2378
  688MPD2    H710237   2.146   3.777  17.469 -0.7075 -0.7938  0.8198
  689TMC3    C110238   2.015   3.832  17.670  0.0677 -0.4278 -0.2368
  689TMC3    C210239   2.026   3.901   0.038 -0.0123  0.5038  0.5207
  689TMC3    C310240   2.059   3.837   0.153 -0.0981  0.1006 -0.1073
  689TMC3    C410241   2.018   3.692  17.668 -0.8209  0.1246 -0.4891
  689TMC3    C510242   2.047   3.628   0.037  0.8909 -0.7433 -0.0542
  689TMC3    C610243   2.066   3.700   0.156 -0.8030 -0.2101  0.5956
  689TMC3     C10244   2.003   3.901  17.543 -0.1813 -0.7337 -0.3522
  689TMC3     O10245   1.947   4.009  17.541  0.5580  0.1517  0.6166
  689TMC3     H10246   2.015   4.009   0.033 -0.6435  0.5184  2.1560
  689TMC3    H110247   2.011   3.634  17.577  2.4022  0.3442 -0.8829
  689TMC3    H210248   2.096   3.646   0.244  0.0943  0.3536  0.6410
  689TMC3    C710249   2.021   3.490   0.065  0.2421  0.2700  0.1286
  689TMC3    C810250   2.052   3.895   0.281 -0.6564  0.3548  0.0252
  689TMC3    O110251   2.090   3.444   0.157 -0.3034 -0.3579 -0.3015
  689TMC3    O210252   2.092   3.822   0.371  0.0960 -0.1630  0.3128
  690MPD2     C10253   0.198   1.103  15.638  0.4271 -0.2248 -0.3449
  690MPD2    C110254   0.134   1.021  15.550  0.1377  0.2032  0.0568
  690MPD2    C210255   0.184   0.994  15.428 -0.1292 -0.5298 -0.7374
  690MPD2    C310256   0.286   1.060  15.383 -0.3333  0.0155 -0.2478
  690MPD2    C410257   0.361   1.136  15.467  0.3355  0.5386 -0.8562
  690MPD2    C510258   0.315   1.159  15.599  0.4529  0.1500  0.0411
  690MPD2     H10259   0.135   0.920  15.366  0.1921 -0.8340 -0.6256
  690MPD2    H110260   0.451   1.187  15.435 -0.5439  0.8670 -2.7851
  690MPD2    H210261   0.165   1.122  15.740 -0.3874 -0.1770 -0.6156
  690MPD2    H310262   0.377   1.222  15.662  1.7873 -1.8628  0.7616
  690MPD2     N10263   0.317   1.040  15.249  0.2792 -0.1166  0.6030
  690MPD2    H510264   0.250   0.991  15.191  0.1009 -1.2964  1.8125
  690MPD2    N110265   0.013   0.958  15.596 -0.2377  0.4300 -0.1832
  690MPD2    H710266   4.726   0.882  15.533  2.6058  0.1245 -0.9016
  691TMC3    C110267   4.561   0.912  15.748 -0.2610 -0.0377 -0.7150
  691TMC3    C210268   4.469   0.962  15.833 -0.1099  0.5716 -0.3753
  691TMC3    C310269   4.363   0.873  15.862 -0.6445 -0.2267 -0.7291
  691TMC3    C410270   4.572   0.785  15.706 -0.2066  0.3178 -0.2518
  691TMC3    C510271   4.470   0.703  15.735  0.2650  0.0641  0.4126
  691TMC3    C610272   4.363   0.740  15.816  0.0949  0.1209  0.2626
  691TMC3     C10273   4.670   0.993  15.707 -0.8067  0.0531  0.9783
  691TMC3     O10274   4.666   1.098  15.770 -0.4345 -0.4059  0.0630
  691TMC3     H10275   4.464   1.069  15.847  0.0689  0.5841 -0.4072
  691TMC3    H110276   4.663   0.734  15.675 -0.5440 -0.3190 -0.1845
  691TMC3    H210277   4.279   0.673  15.803 -0.1915  0.9629 -2.2670
  691TMC3    C710278   4.484   0.566  15.681 -0.0797  0.2710 -0.9994
  691TMC3    C810279   4.252   0.918  15.941  0.0622  0.5940  0.5577
  691TMC3    O110280   4.546   0.552  15.575  0.2188 -0.4296  0.7377
  691TMC3    O210281   4.246   1.036  15.963  0.0997  0.1893  0.0911
  692TMC3    C110282   1.246   1.575  15.557 -0.1620 -0.2151  0.0177
  692TMC3    C210283   1.358   1.611  15.622 -0.3291  0.2472 -0.1975
  692TMC3    C310284   1.431   1.508  15.687 -0.4832 -0.6236  0.0449
  692TMC3    C410285   1.208   1.442  15.554  0.4182  0.0865  0.2420
  692TMC3    C510286   1.273   1.344  15.617  0.4228 -0.4655 -0.3929
  692TMC3    C610287   1.384   1.385  15.695  0.5836  0.6574 -0.1596
  692TMC3     C10288   1.127   1.665  15.556  0.0730 -0.9188  0.5611
  692TMC3     O10289   1.015   1.623  15.526 -0.5115 -0.1060  0.2417
  692TMC3     H10290   1.413   1.694  15.578  0.0758  1.4425  2.5463
  692TMC3    H110291   1.125   1.417  15.490 -0.3772  0.0398  1.2909
  692TMC3    H210292   1.443   1.311  15.747  0.8087  0.2408 -1.0030
  692TMC3    C710293   1.194   1.218  15.645 -0.0732  0.1771  0.1923
  692TMC3    C810294   1.470   1.546  15.820 -0.4468 -0.6464  0.2006
  692TMC3    O110295   1.108   1.194  15.563  0.3871  0.6460  0.4927
  692TMC3    O210296   1.476   1.462  15.910  0.0900 -0.2637  0.3345
  693MPD2     C10297   0.867   0.063  10.984 -0.2684  0.6433  0.0049
  693MPD2    C110298   0.798   4.713  10.904 -0.0651 -0.5364 -0.1413
  693MPD2    C210299   0.869   4.616  10.832 -0.2074 -0.8866  0.3692
  693MPD2    C310300   1.002   4.603  10.848 -0.4854 -0.1689 -0.3920
  693MPD2    C410301   1.068   4.684  10.939  0.2564  0.8008 -0.1735
  693MPD2    C510302   1.001   0.047  11.005 -0.2143  0.4074  0.0930
  693MPD2     H10303   0.818   4.555  10.757  1.4968  0.2440 -1.7119
  693MPD2    H110304   1.173   4.671  10.965 -0.4699 -1.8162  1.3604
  693MPD2    H210305   0.808   0.124  11.050  1.4080  0.6201  1.5245
  693MPD2    H310306   1.057   0.100  11.080  0.3709  1.8103 -1.3434
  693MPD2     N10307   1.069   4.483  10.806  0.5031  0.2214 -0.0053
  693MPD2    H510308   1.164   4.477  10.842  0.0749 -0.8879  0.9430
  693MPD2    N110309   0.659   4.733  10.895 -0.6311  0.3545 -0.8619
  693MPD2    H710310   0.618   0.047  10.972 -1.4444  0.7740 -1.5693
  694TMC3    C110311   0.440   4.668  10.866  0.0909 -0.0445 -0.3876
  694TMC3    C210312   0.356   4.639  10.762 -0.8772 -0.4224 -0.2330
  694TMC3    C310313   0.239   4.562  10.787 -0.2238  0.2957  0.4886
  694TMC3    C410314   0.417   4.625  10.997 -0.8533  0.6225  0.0259
  694TMC3    C510315   0.303   4.555  11.017  0.6790 -0.4106  0.1641
  694TMC3    C610316   0.210   4.519  10.912  0.2801  0.4306  0.3844
  694TMC3     C10317   0.576   4.660  10.822  0.1290 -0.3674  1.1303
  694TMC3     O10318   0.597   4.574  10.731 -0.4094  0.0886  0.1153
  694TMC3     H10319   0.377   4.681  10.665 -2.2934  0.9313  0.0339
  694TMC3    H110320   0.488   4.650  11.075 -1.2397 -0.7104  0.7961
  694TMC3    H210321   0.127   4.455  10.940  0.2577  0.5467  0.5893
  694TMC3    C710322   0.301   4.497  11.147  0.4731 -0.4472 -0.2382
  694TMC3    C810323   0.141   4.536  10.681  0.2103 -0.1892  0.2119
  694TMC3    O110324   0.352   4.562  11.233 -0.5297  0.2332  0.3462
  694TMC3    O210325   0.049   4.461  10.717  0.1214  0.0256  0.8184
  695MPD2     C10326   1.845   1.471  13.485 -0.1528 -0.1948 -0.2674
  695MPD2    C110327   1.778   1.470  13.601  0.5874  0.5024  0.5918
  695MPD2    C210328   1.636   1.489  13.596 -0.1006  0.5960  0.4351
  695MPD2    C310329   1.567   1.508  13.482 -0.5169 -0.0374 -0.8465
  695MPD2    C410330   1.646   1.510  13.364 -0.2817 -0.2355 -0.4818
  695MPD2    C510331   1.782   1.488  13.369  0.0566  0.2143  0.0253
  695MPD2     H10332   1.583   1.498  13.691 -0.1310 -2.2889  0.6741
  695MPD2    H110333   1.595   1.504  13.268 -0.4228  1.8260 -0.5297
  695MPD2    H210334   1.952   1.450  13.481 -0.2290 -0.0180 -3.2649
  695MPD2    H310335   1.835   1.500  13.275  0.3864  1.9720  0.4315
  695MPD2     N10336   1.427   1.514  13.494 -0.5859 -0.1216  0.3867
  695MPD2    H510337   1.384   1.509  13.586  1.4777  0.6737  1.4051
  695MPD2    N110338   1.835   1.460  13.725  0.2101  0.1700  0.3505
  695MPD2    H710339   1.773   1.486  13.801  1.2717  1.6837  0.6898
  696TMC3    C110340   1.204   1.527  13.424 -0.6335 -0.3890 -0.5255
  696TMC3    C210341   1.164   1.551  13.553  0.4459 -0.0585 -0.1843
  696TMC3    C310342   1.042   1.596  13.589 -0.3523 -0.1557 -0.6959
  696TMC3    C410343   1.126   1.566  13.324 -0.1600  0.0905  0.3932
  696TMC3    C510344   0.995   1.616  13.359 -0.3015  0.1082  0.0338
  696TMC3    C610345   0.958   1.635  13.492  0.0392 -0.0889  0.3339
  696TMC3     C10346   1.342   1.545  13.397  0.4674 -0.8445  0.4330
  696TMC3     O10347   1.365   1.584  13.285 -0.5238  0.2691 -0.2355
  696TMC3     H10348   1.239   1.537  13.630 -0.3009  2.4581  1.0098
  696TMC3    H110349   1.159   1.562  13.221 -0.9022  5.0307 -0.0459
  696TMC3    H210350   0.872   1.691  13.524 -0.0141 -0.0604  0.1426
  696TMC3    C710351   0.950   1.717  13.269 -0.7979 -0.7821 -0.1316
  696TMC3    C810352   1.045   1.683  13.705 -0.1648  0.0005 -0.3497
  696TMC3    O110353   0.953   1.686  13.151  0.1109  0.3827 -0.0032
  696TMC3    O210354   1.155   1.728  13.738 -0.1804 -0.0769  0.2085
  697MPD2     C10355   0.688   3.402  15.876 -0.0877 -1.1462 -0.0122
  697MPD2    C110356   0.767   3.354  15.776 -0.5852 -0.0084 -0.0291
  697MPD2    C210357   0.806   3.435  15.669 -0.5237 -0.6792 -0.7503
  697MPD2    C310358   0.762   3.564  15.667 -0.3101 -0.5635 -0.5615
  697MPD2    C410359   0.666   3.604  15.757 -0.4822  0.0200 -0.6421
  697MPD2    C510360   0.626   3.523  15.865 -0.0554  0.0115 -0.0928
  697MPD2     H10361   0.867   3.389  15.593  1.5173 -0.0710  0.5066
  697MPD2    H110362   0.614   3.699  15.763  0.7222  0.5934  0.7107
  697MPD2    H210363   0.659   3.334  15.955 -1.4254 -1.3896 -0.7127
  697MPD2    H310364   0.552   3.562  15.934  2.1205 -0.5112  2.5156
  697MPD2     N10365   0.803   3.637  15.559 -0.4998  0.2633  0.0959
  697MPD2    H510366   0.851   3.581  15.490 -0.8295 -0.1197  0.1727
  697MPD2    N110367   0.801   3.219  15.771  0.2177  0.1569  0.4623
  697MPD2    H710368   0.862   3.193  15.694 -0.5737  0.6896 -0.3456
  698TMC3    C110369   0.826   3.827  15.418  0.1237 -0.1290 -0.6091
  698TMC3    C210370   0.850   3.960  15.406 -0.1963 -0.4326  0.2473
  698TMC3    C310371   0.928   3.995  15.301 -0.3089 -0.0767  0.8477
  698TMC3    C410372   0.841   3.745  15.317 -0.3292 -0.4428  0.2486
  698TMC3    C510373   0.902   3.788  15.202  0.0950  0.7842  0.4402
  698TMC3    C610374   0.957   3.913  15.196 -0.0358  0.0168  0.2097
  698TMC3     C10375   0.777   3.770  15.547  0.0406  0.6300  0.5389
  698TMC3     O10376   0.765   3.856  15.640  0.4969 -0.2741  0.5445
  698TMC3     H10377   0.831   4.024  15.492 -0.0653  1.8367 -1.4007
  698TMC3    H110378   0.783   3.653  15.309 -0.1618 -0.5598  0.4051
  698TMC3    H210379   0.997   3.946  15.101  0.5998  0.0203  0.4805
  698TMC3    C710380   0.867   3.717  15.077  0.3964  0.1256 -0.7097
  698TMC3    C810381   0.954   4.138  15.279 -0.7046 -0.2685  0.7946
  698TMC3    O110382   0.760   3.659  15.081 -0.5337  0.4269 -0.6043
  698TMC3    O210383   0.880   4.219  15.338 -0.4722 -0.1612  0.3312
  699TMC3    C110384   1.198   1.530  12.961  0.1694 -0.3078  0.0150
  699TMC3    C210385   1.282   1.445  13.027 -0.3517  0.1033  0.6255
  699TMC3    C310386   1.248   1.312  13.037 -0.2817  0.0188  0.0857
  699TMC3    C410387   1.070   1.502  12.934  0.0199 -0.2812 -1.2579
  699TMC3    C510388   1.036   1.374  12.947  0.2048  0.1548  0.2025
  699TMC3    C610389   1.127   1.277  12.990  0.3177 -0.0013 -0.2700
  699TMC3     C10390   1.236   1.665  12.934  0.4917  0.5495  0.3814
  699TMC3     O10391   1.187   1.714  12.832  0.4684  0.0480  0.1382
  699TMC3     H10392   1.378   1.481  13.061  0.5983  0.2763 -2.2692
  699TMC3    H110393   1.004   1.582  12.901  0.1967  0.4130  0.0530
  699TMC3    H210394   1.103   1.171  12.993 -0.3745  0.1783  0.6493
  699TMC3    C710395   0.898   1.334  12.951 -0.6970 -0.4157 -0.1538
  699TMC3    C810396   1.274   1.240  13.161  0.9706  0.0960  1.3358
  699TMC3    O110397   0.881   1.214  12.930 -0.1808  0.2780  0.2259
  699TMC3    O210398   1.178   1.183  13.215 -0.3401 -0.3450  0.7634
  700TMC3    C110399   4.319   4.082  17.435 -0.5180  0.2124  0.1999
  700TMC3    C210400   4.341   3.947  17.413 -0.2851  0.7022 -0.2237
  700TMC3    C310401   4.449   3.881  17.475  0.3067 -0.0165  0.3095
  700TMC3    C410402   4.403   4.157  17.521 -1.0320  0.9364  0.1576
  700TMC3    C510403   4.502   4.087  17.585  0.3961  0.2965 -0.0621
  700TMC3    C610404   4.519   3.952  17.568 -0.7748 -0.7326  0.1292
  700TMC3     C10405   4.256   4.149  17.324  0.0196  0.1306  0.9399
  700TMC3     O10406   4.157   4.104  17.271 -0.1990  0.1701 -0.4844
  700TMC3     H10407   4.287   3.904  17.330 -0.2577 -2.0880  1.2066
  700TMC3    H110408   4.393   4.264  17.537 -0.3934  1.2577 -1.6265
  700TMC3    H210409   4.598   3.903  17.625  0.2069 -0.7346 -1.2349
  700TMC3    C710410   4.589   4.156  17.682  0.0330 -0.7577  0.8059
  700TMC3    C810411   4.508   3.767  17.411 -0.3700 -1.0313 -0.8162
  700TMC3    O110412   4.697   4.113  17.720  0.7944  0.3378  0.0932
  700TMC3    O210413   4.430   3.693  17.348 -0.0693 -0.3697 -0.1105
  701TMC3    C110414   0.201   2.795  15.666 -0.7150 -0.4119  0.3956
  701TMC3    C210415   0.211   2.725  15.548  0.1551  0.6260 -0.3128
  701TMC3    C310416   0.266   2.791  15.446 -0.4946  0.0153 -0.6748
  701TMC3    C410417   0.240   2.923  15.681 -0.2922  0.7607 -0.6731
  701TMC3    C510418   0.302   2.983  15.571  0.5933  0.4679  0.5005
  701TMC3    C610419   0.317   2.913  15.452  0.3552 -0.0694  0.4086
  701TMC3     C10420   0.125   2.739  15.779 -0.3250 -0.8664 -0.3916
  701TMC3     O10421   0.112   2.812  15.876  0.1146  0.2408  0.0598
  701TMC3     H10422   0.197   2.618  15.543 -0.8766  0.6959  1.2327
  701TMC3    H110423   0.228   2.973  15.776 -1.1413  0.8946 -0.8512
  701TMC3    H210424   0.368   2.957  15.367 -1.4150  2.8086  0.8260
  701TMC3    C710425   0.318   3.134  15.571  0.0475 -0.0309 -0.2966
  701TMC3    C810426   0.288   2.712  15.325 -0.7758 -0.5327  0.6421
  701TMC3    O110427   0.333   3.189  15.463  0.2213 -0.3668 -0.3848
  701TMC3    O210428   0.386   2.734  15.252 -0.3698  0.1815  0.0446
  702MPD2     C10429   0.036   0.713  10.610 -0.4568  0.6764 -0.3107
  702MPD2    C110430   4.648   0.660  10.628  0.2515  0.2429 -0.1455
  702MPD2    C210431   4.561   0.652  10.521  0.3314 -0.2779  0.6581
  702MPD2    C310432   4.596   0.709  10.401 -0.1410 -0.6706 -0.7093
  702MPD2    C410433   4.725   0.767  10.386 -0.7650 -0.7309 -0.0223
  702MPD2    C510434   0.075   0.764  10.488  0.0340  0.0595 -0.2533
  702MPD2     H10435   4.465   0.604  10.533 -0.2279  0.8971  0.8818
  702MPD2    H110436   0.021   0.805  10.291  0.9265 -0.7079  0.5851
  702MPD2    H210437   0.114   0.732  10.683  1.7587  1.8146 -2.9818
  702MPD2    H310438   0.171   0.814  10.489 -0.1152  0.3042  1.7700
  702MPD2     N10439   4.515   0.693  10.287  0.3907 -0.0315  0.5353
  702MPD2    H510440   4.548   0.741  10.204 -1.2543 -0.5773 -0.4317
  702MPD2    N110441   4.601   0.614  10.756  0.4329 -0.2403 -0.2460
  702MPD2    H710442   4.503   0.588  10.765  0.6187 -1.4503 -1.8162
  703TMC3    C110443   4.299   0.720  10.182 -0.4393 -0.1444 -0.9366
  703TMC3    C210444   4.168   0.671  10.170 -0.0166 -0.2939  0.1580
  703TMC3    C310445   4.073   0.759  10.163 -0.2487 -0.2789 -0.5144
  703TMC3    C410446   4.321   0.857  10.179 -0.1926 -0.3467  0.2274
  703TMC3    C510447   4.214   0.945  10.180 -0.0602 -0.0575 -0.4963
  703TMC3    C610448   4.089   0.900  10.169  0.3024  0.0220  0.2206
  703TMC3     C10449   4.383   0.646  10.275  0.7822  0.2458 -0.0168
  703TMC3     O10450   4.332   0.552  10.343 -0.4466 -0.6437 -0.5041
  703TMC3     H10451   4.147   0.566  10.152  1.6167 -0.5750 -0.1628
  703TMC3    H110452   4.424   0.888  10.169 -0.7036  1.6684  1.3085
  703TMC3    H210453   4.000   0.961  10.159  0.7012  0.5706  0.0829
  703TMC3    C710454   4.243   1.078  10.168 -0.2844 -0.0524 -0.2228
  703TMC3    C810455   3.960   0.717  10.232  0.0510 -0.3047 -0.1088
  703TMC3    O110456   4.363   1.103  10.177  0.0068  0.0836  0.0917
  703TMC3    O210457   3.921   0.601  10.213 -0.3876 -0.3556 -0.1016
  704TMC3    C110458   2.280   2.753  13.036  1.3113  0.7742  0.3095
  704TMC3    C210459   2.387   2.810  12.987 -0.0488 -1.3607  0.1661
  704TMC3    C310460   2.498   2.730  12.975  0.1641 -0.0069  0.4914
  704TMC3    C410461   2.272   2.626  13.084  0.2804  0.2645 -0.2465
  704TMC3    C510462   2.388   2.542  13.077 -0.7204  0.0976  0.0287
  704TMC3    C610463   2.501   2.601  13.020 -0.2738 -0.7251  0.9882
  704TMC3     C10464   2.160   2.775  12.953 -0.4336 -0.4927  0.4868
  704TMC3     O10465   2.048   2.766  13.009  0.3930  0.4881 -0.1587
  704TMC3     H10466   2.380   2.910  12.945  1.7887 -2.0166 -1.6871
  704TMC3    H110467   2.169   2.605  13.108  0.1573  1.0994 -0.0749
  704TMC3    H210468   2.592   2.550  12.992  0.9309  2.0625 -0.1604
  704TMC3    C710469   2.377   2.406  13.045 -0.0699 -0.0757 -0.4642
  704TMC3    C810470   2.567   2.763  12.855  0.4770 -0.3000 -0.1056
  704TMC3    O110471   2.482   2.345  13.026 -0.3695  0.5857  0.3754
  704TMC3    O210472   2.508   2.823  12.765 -0.4184 -0.3600 -0.0901
  705MPD2     C10473   1.519   1.626  16.664  0.4977  0.6607 -0.3599
  705MPD2    C110474   1.510   1.750  16.607  0.3867 -0.0250  0.5082
  705MPD2    C210475   1.385   1.786  16.559 -0.2715 -0.4573 -0.8075
  705MPD2    C310476   1.273   1.699  16.551 -0.5996 -0.5350  0.2933
  705MPD2    C410477   1.290   1.573  16.609 -0.2018  0.3836  0.0551
  705MPD2    C510478   1.403   1.544  16.677  0.4478  0.6587 -0.1494
  705MPD2     H10479   1.375   1.878  16.503  1.6052 -0.1285 -0.5788
  705MPD2    H110480   1.210   1.500  16.607 -0.3035  0.5092 -0.3251
  705MPD2    H210481   1.611   1.589  16.707  1.3498  0.7752 -2.0696
  705MPD2    H310482   1.415   1.441  16.706  1.7325  1.5317  2.4182
  705MPD2     N10483   1.146   1.732  16.491  0.2688 -0.2317  0.0130
  705MPD2    H510484   1.078   1.656  16.492  0.5430 -0.4767  0.0087
  705MPD2    N110485   1.621   1.821  16.568 -0.3694 -0.1409 -0.0830
  705MPD2    H710486   1.603   1.921  16.558 -0.6687 -0.2213 -0.3492
  706TMC3    C110487   1.916   1.831  16.231 -0.0558  0.0970  0.0240
  706TMC3    C210488   1.864   1.952  16.191  0.5873 -0.4254  0.7701
  706TMC3    C310489   1.789   2.029  16.281 -0.3819 -0.5605  0.1316
  706TMC3    C410490   1.892   1.787  16.350  0.1717 -0.0651 -0.0374
  706TMC3    C510491   1.812   1.853  16.440  0.1668 -0.4079  0.1459
  706TMC3    C610492   1.753   1.979  16.405 -0.1212  0.3034  0.2310
  706TMC3     C10493   2.029   1.761  16.164  0.2296 -0.4872  0.1707
  706TMC3     O10494   2.108   1.700  16.232  0.4245 -0.2472 -0.0047
  706TMC3     H10495   1.889   1.995  16.095  1.4272  0.5682  1.4347
  706TMC3    H110496   1.919   1.686  16.377  0.2756 -0.3420 -1.1896
  706TMC3    H210497   1.697   2.031  16.481 -1.7557 -0.7257 -0.2768
  706TMC3    C710498   1.740   1.761  16.534  0.4041  0.3911 -0.4157
  706TMC3    C810499   1.754   2.161  16.238 -0.6370 -0.3528 -0.1125
  706TMC3    O110500   1.773   1.643  16.537 -0.1875  0.0406  0.0590
  706TMC3    O210501   1.750   2.179  16.115 -0.0361 -0.1592  0.2356
  707TMC3    C110502   2.409   0.769   1.297 -0.2115 -0.0565  0.7372
  707TMC3    C210503   2.428   0.885   1.363 -0.2190 -0.5618 -1.0709
  707TMC3    C310504   2.367   0.903   1.485  0.0105  0.4526  0.5939
  707TMC3    C410505   2.330   0.671   1.331  0.1271 -0.4933  0.0463
  707TMC3    C510506   2.250   0.700   1.439  0.7803  0.4081  0.5118
  707TMC3    C610507   2.271   0.815   1.520 -0.1628  0.2711 -0.0495
  707TMC3     C10508   2.536   0.729   1.225 -0.2861  0.8431  0.8007
  707TMC3     O10509   2.630   0.812   1.229 -0.0875 -0.0221 -0.3908
  707TMC3     H10510   2.481   0.964   1.311 -1.5308  0.2344 -1.1947
  707TMC3    H110511   2.334   0.578   1.276  1.3391 -0.6468  0.3817
  707TMC3    H210512   2.227   0.830   1.617  0.0108 -1.6129  0.3347
  707TMC3    C710513   2.151   0.611   1.487 -0.5445  0.5097 -0.4091
  707TMC3    C810514   2.454   0.945   1.593 -0.1202 -0.4621  0.1182
  707TMC3    O110515   2.142   0.507   1.426 -0.7822  0.1776  0.1497
  707TMC3    O210516   2.408   0.956   1.706  0.1982 -0.3054 -0.3356
  708MPD2     C10517   0.079   4.234  13.851 -0.6648  0.0161  0.2193
  708MPD2    C110518   4.727   4.332  13.863  0.3021  0.4010  0.4798
  708MPD2    C210519   4.674   4.357  13.993  0.8771  0.1678 -1.1544
  708MPD2    C310520   4.717   4.292  14.109 -0.2949 -0.5111 -0.6903
  708MPD2    C410521   0.089   4.207  14.093  0.7685 -0.0810  0.2307
  708MPD2    C510522   0.132   4.183  13.962 -0.1595 -0.3058  0.2416
  708MPD2     H10523   4.603   4.436  14.012  0.6221 -0.3330 -0.0265
  708MPD2    H110524   0.134   4.160  14.179  2.4241  0.5597 -0.2902
  708MPD2    H210525   0.126   4.211  13.756  1.3876  2.4491  0.6405
  708MPD2    H310526   0.224   4.127  13.950  0.5104  0.5574  1.3286
  708MPD2     N10527   4.661   4.316  14.235  0.6881  0.5174 -0.7460
  708MPD2    H510528   4.689   4.264  14.318 -0.5376 -1.5762 -1.6386
  708MPD2    N110529   4.691   4.416  13.755 -0.9893 -0.3069 -0.1150
  708MPD2    H710530   4.722   4.390  13.662 -1.4161 -2.4351  0.3354
  709TMC3    C110531   4.639   4.615  13.640 -0.0468 -0.3533 -0.3285
  709TMC3    C210532   4.572   4.550  13.539  0.8355 -0.3680 -0.1416
  709TMC3    C310533   4.486   4.624  13.457  0.4351  0.2137 -0.0876
  709TMC3    C410534   4.623   0.014  13.662 -1.1049 -0.6068 -0.0201
  709TMC3    C510535   4.527   0.080  13.593 -0.2998  0.1305 -0.1730
  709TMC3    C610536   4.466   0.029  13.484 -0.3022  0.3157  0.0760
  709TMC3     C10537   4.650   4.551  13.763  0.0233 -0.1607 -0.0585
  709TMC3     O10538   4.604   4.614  13.856  0.1396  0.5541 -0.0815
  709TMC3     H10539   4.573   4.442  13.530  0.8054 -0.4412  0.7251
  709TMC3    H110540   4.677   0.063  13.741  1.3918 -0.8318 -1.5817
  709TMC3    H210541   4.401   0.081  13.414  2.4047  1.9189 -1.2463
  709TMC3    C710542   4.425   0.137  13.683 -0.2476 -0.5097  0.5126
  709TMC3    C810543   4.491   4.581  13.316  0.0899  0.3865  0.4908
  709TMC3    O110544   4.320   0.187  13.637  0.0968  0.6311  0.6088
  709TMC3    O210545   4.476   4.674  13.243  0.2913  0.3990 -0.1098
  710TMC3    C110546   0.708   0.591   0.224 -0.2237 -0.1303 -0.0917
  710TMC3    C210547   0.761   0.659   0.117  0.4550  0.4073 -0.3171
  710TMC3    C310548   0.890   0.619   0.078 -1.2824  1.1687 -0.2272
  710TMC3    C410549   0.772   0.486   0.283 -0.1856 -0.0202  0.7077
  710TMC3    C510550   0.900   0.445   0.241 -0.2276  0.2402  0.0483
  710TMC3    C610551   0.957   0.515   0.139 -0.5181 -0.5758  0.5489
  710TMC3     C10552   0.568   0.602   0.252 -0.6233 -0.3036 -0.5692
  710TMC3     O10553   0.521   0.524   0.332  0.6167  0.7649  0.1189
  710TMC3     H10554   0.701   0.721   0.052  3.0521  2.8627 -0.3773
  710TMC3    H110555   0.728   0.421   0.358  0.4407 -0.4031  0.7410
  710TMC3    H210556   1.051   0.488   0.093  0.5911  2.5375  1.0523
  710TMC3    C710557   0.977   0.361   0.336 -0.2528  0.0414 -0.0509
  710TMC3    C810558   0.957   0.705  17.725  0.3710 -0.1723  0.1447
  710TMC3    O110559   0.924   0.333   0.441  0.1826  0.1262  0.1391
  710TMC3    O210560   1.072   0.664  17.695  0.9492 -0.5673  0.4007
  711TMC3    C110561   0.772   2.475  14.732  0.4511  0.0609  0.5830
  711TMC3    C210562   0.743   2.496  14.865  0.1090  0.5629 -0.5530
  711TMC3    C310563   0.844   2.501  14.953 -0.0754  0.1134  0.8167
  711TMC3    C410564   0.897   2.432  14.701  0.3691  0.5957  0.5462
  711TMC3    C510565   0.988   2.411  14.796 -0.3085 -0.9574 -0.7377
  711TMC3    C610566   0.974   2.458  14.923 -0.3885  0.5864  0.1610
  711TMC3     C10567   0.682   2.391  14.660 -0.3762  0.6726  0.3547
  711TMC3     O10568   0.729   2.285  14.618  0.2886  0.5377  0.1312
  711TMC3     H10569   0.639   2.499  14.896  0.0183 -1.5055 -0.6550
  711TMC3    H110570   0.922   2.422  14.596  1.6189  0.7686  0.8362
  711TMC3    H210571   1.050   2.436  14.996 -0.6492  2.8570  1.1274
  711TMC3    C710572   1.037   2.277  14.803 -0.2074 -0.5245  0.2422
  711TMC3    C810573   0.801   2.497  15.094 -0.0391 -0.0579  0.0911
  711TMC3    O110574   1.137   2.259  14.870  0.3205  0.1932 -0.1835
  711TMC3    O210575   0.685   2.481  15.127 -0.2792 -0.1530 -0.1343
  712MPD2     C10576   1.902   2.990  13.989 -0.8844 -0.1796 -0.4558
  712MPD2    C110577   1.818   3.085  13.939  0.1365 -0.2771  0.3203
  712MPD2    C210578   1.862   3.215  13.942  0.1092  0.1440  0.1679
  712MPD2    C310579   1.992   3.242  13.983  0.8940  0.1884 -1.0740
  712MPD2    C410580   2.080   3.144  14.020  0.1477 -0.1146 -0.1254
  712MPD2    C510581   2.031   3.020  14.031 -0.2550  0.1438  0.0443
  712MPD2     H10582   1.791   3.290  13.908 -1.2386 -0.1450  2.2919
  712MPD2    H110583   2.181   3.176  14.047  0.6259 -1.7003 -0.0412
  712MPD2    H210584   1.868   2.888  13.998 -0.2991 -0.2245  1.2595
  712MPD2    H310585   2.096   2.943  14.072  0.2996  0.9056  0.5795
  712MPD2     N10586   2.047   3.372  13.979 -0.0408  0.4763  0.3494
  712MPD2    H510587   2.149   3.376  13.988  0.0552  0.4616 -0.7952
  712MPD2    N110588   1.700   3.064  13.866  0.1166  0.2298 -0.3569
  712MPD2    H710589   1.660   3.141  13.812  0.0118 -0.1266 -0.7825
  713TMC3    C110590   2.015   3.610  13.929 -0.2950  0.1609 -0.4624
  713TMC3    C210591   2.143   3.626  13.912 -0.3792 -0.7369  0.7675
  713TMC3    C310592   2.190   3.753  13.878 -0.3100  0.9264  0.2295
  713TMC3    C410593   1.924   3.712  13.919 -0.1625 -0.0425 -0.0157
  713TMC3    C510594   1.970   3.832  13.875  0.0872 -0.6134  0.3851
  713TMC3    C610595   2.103   3.856  13.865 -0.0276  0.0386  0.9157
  713TMC3     C10596   1.962   3.483  13.981  0.0786 -0.5747 -0.2296
  713TMC3     O10597   1.844   3.491  14.008 -0.2350  0.1112  0.4416
  713TMC3     H10598   2.202   3.535  13.920 -0.6259 -0.6855  3.0882
  713TMC3    H110599   1.817   3.698  13.905 -0.5722  3.9049 -0.8417
  713TMC3    H210600   2.133   3.945  13.811  2.0609 -0.3063  1.4886
  713TMC3    C710601   1.879   3.934  13.826 -0.0130 -0.3131 -0.1014
  713TMC3    C810602   2.330   3.769  13.832  0.3233  0.3747 -0.4886
  713TMC3    O110603   1.775   3.894  13.773  0.5399  0.7745 -0.6676
  713TMC3    O210604   2.360   3.866  13.762  0.8441  0.2335  0.0125
  714MPD2     C10605   4.229   1.788   1.325 -0.0791 -0.5596  0.6838
  714MPD2    C110606   4.233   1.726   1.202  0.4245  0.0014  0.9216
  714MPD2    C210607   4.122   1.732   1.120  0.2523 -0.2764  0.3042
  714MPD2    C310608   4.004   1.790   1.156  0.1684  0.2287 -0.5561
  714MPD2    C410609   3.996   1.837   1.286 -0.4103 -0.7008  0.0912
  714MPD2    C510610   4.107   1.837   1.367  0.6623 -0.2868  0.0363
  714MPD2     H10611   4.133   1.690   1.021  0.1818  1.0706 -0.2775
  714MPD2    H110612   3.902   1.878   1.320  1.7000  2.6376  1.8890
  714MPD2    H210613   4.323   1.806   1.375  0.2834  0.4142 -0.3500
  714MPD2    H310614   4.094   1.896   1.457 -3.2652 -1.4500  0.2209
  714MPD2     N10615   3.898   1.819   1.069 -0.1533  0.7392 -0.6090
  714MPD2    H510616   3.819   1.866   1.113 -0.8879 -1.7328  0.7113
  714MPD2    N110617   4.354   1.683   1.157 -0.3169 -0.0694 -0.0770
  714MPD2    H710618   4.438   1.711   1.207 -0.0292  0.5598 -0.8995
  715TMC3    C110619   4.515   1.585   1.016  0.8332  0.5958 -0.2598
  715TMC3    C210620   4.549   1.487   0.929  0.6586 -1.0078  0.3941
  715TMC3    C310621   4.676   1.476   0.889  0.0927  0.3531 -0.0436
  715TMC3    C410622   4.607   1.669   1.072 -0.1626 -0.1658  0.4396
  715TMC3    C510623   0.000   1.642   1.044 -0.4551  0.0564 -0.0304
  715TMC3    C610624   0.037   1.550   0.950  0.2969  0.3697  0.0599
  715TMC3     C10625   4.376   1.604   1.047  0.5158 -0.0768  0.1479
  715TMC3     O10626   4.302   1.546   0.970 -0.3200  0.4920 -0.2226
  715TMC3     H10627   4.474   1.417   0.893  0.5923 -0.3138 -0.8084
  715TMC3    H110628   4.584   1.761   1.125  1.2338 -0.2063  1.1013
  715TMC3    H210629   0.142   1.548   0.925  0.9546 -3.1917  2.9462
  715TMC3    C710630   0.106   1.733   1.092 -0.4320 -0.3367  0.4258
  715TMC3    C810631   4.720   1.358   0.811  0.0859 -0.4741  0.1445
  715TMC3    O110632   0.221   1.718   1.044  0.5497  0.2802  0.3095
  715TMC3    O210633   4.636   1.296   0.753 -0.1733 -0.3957  0.0570
  716MPD2     C10634   4.325   0.303   9.986 -0.1713 -0.3602  0.1400
  716MPD2    C110635   4.383   0.340   9.869  0.8546  0.2603 -0.6581
  716MPD2    C210636   4.478   0.261   9.811  0.0959 -0.0319 -0.3298
  716MPD2    C310637   4.523   0.141   9.859 -0.7020 -0.0567  0.4733
  716MPD2    C410638   4.462   0.105   9.982 -0.0188 -0.0765 -0.6272
  716MPD2    C510639   4.373   0.184  10.045 -0.3682  0.1239  0.0805
  716MPD2     H10640   4.522   0.293   9.717  1.3830  0.8526  0.5828
  716MPD2    H110641   4.490   0.013  10.032  1.0169  0.4883 -0.1476
  716MPD2    H210642   4.254   0.367  10.036 -1.0902 -0.4090 -1.1027
  716MPD2    H310643   4.350   0.149  10.145  4.9387  0.0071  1.2286
  716MPD2     N10644   4.606   0.063   9.781 -0.4284  0.1783 -0.2907
  716MPD2    H510645   4.640   0.102   9.694  1.4696  0.4559  0.5635
  716MPD2    N110646   4.326   0.451   9.805 -0.8116 -0.1975  0.3818
  716MPD2    H710647   4.235   0.475   9.844 -0.8842 -0.2712  0.2586
  717TMC3    C110648   4.736   4.624   9.706  0.0367 -0.8845  0.1490
  717TMC3    C210649   0.059   4.718   9.628 -0.4438 -0.2749  0.9716
  717TMC3    C310650   0.083   4.700   9.498  0.1611 -0.2421  0.4913
  717TMC3    C410651   4.721   4.491   9.659  0.3808  0.1764  0.3650
  717TMC3    C510652   0.020   4.472   9.527 -0.3699 -0.3327 -0.0623
  717TMC3    C610653   0.067   4.574   9.447  0.4455  0.5980  0.2062
  717TMC3     C10654   4.640   4.667   9.802  0.4024 -0.4421 -0.5721
  717TMC3     O10655   4.615   4.586   9.889 -0.7282 -0.4744  0.4464
  717TMC3     H10656   0.106   0.068   9.673  2.0143 -1.4078  0.6368
  717TMC3    H110657   4.686   4.412   9.725  1.7347  1.1197  2.2298
  717TMC3    H210658   0.104   4.554   9.347  2.1067 -0.3780  1.0179
  717TMC3    C710659   4.699   4.359   9.451 -0.9615 -0.0315 -0.2013
  717TMC3    C810660   0.005   0.071   9.438  0.9021 -0.1968  0.1406
  717TMC3    O110661   4.674   4.381   9.330  0.2071  0.4980  0.4132
  717TMC3    O210662   4.696   0.158   9.515  0.3512  0.3817 -0.7226
  718MPD2     C10663   3.493   3.444  12.532 -0.5100  0.8406  0.7090
  718MPD2    C110664   3.397   3.505  12.612  0.0703 -0.0387  0.2457
  718MPD2    C210665   3.276   3.435  12.631  0.4249 -0.1002  1.2888
  718MPD2    C310666   3.257   3.307  12.579  0.1510 -0.4988 -0.0331
  718MPD2    C410667   3.360   3.240  12.520  0.1389 -0.3867  0.2873
  718MPD2    C510668   3.474   3.314  12.489 -0.2266  0.5594 -0.6011
  718MPD2     H10669   3.184   3.477  12.671 -0.5296 -1.0829  0.1553
  718MPD2    H110670   3.350   3.140  12.481  1.1049  0.2119 -1.5043
  718MPD2    H210671   3.578   3.504  12.503  0.2271 -0.0457  1.0588
  718MPD2    H310672   3.554   3.273  12.428 -0.3762 -0.9066  0.1812
  718MPD2     N10673   3.130   3.251  12.613  0.1214  0.4795 -0.3533
  718MPD2    H510674   3.059   3.311  12.655 -1.2031 -1.2504 -0.0994
  718MPD2    N110675   3.423   3.641  12.650 -0.1930  0.1469  0.0682
  718MPD2    H710676   3.515   3.677  12.623 -0.0400  0.0577  0.4783
  719TMC3    C110677   3.370   3.856  12.729  0.5235 -0.2506  0.4897
  719TMC3    C210678   3.248   3.921  12.730 -0.1478  0.0740  0.0402
  719TMC3    C310679   3.223   4.000  12.623  0.3476 -0.3227  0.1932
  719TMC3    C410680   3.473   3.891  12.646  0.1901  0.3822 -0.4540
  719TMC3    C510681   3.441   3.968  12.541 -0.0066 -0.1744  0.0927
  719TMC3    C610682   3.318   4.021  12.525  0.6517 -0.0347  0.2993
  719TMC3     C10683   3.340   3.714  12.725  0.1718  0.2214 -0.5662
  719TMC3     O10684   3.220   3.692  12.745 -0.2201 -0.2693  0.5699
  719TMC3     H10685   3.176   3.895  12.807  1.4657  0.9202  1.8595
  719TMC3    H110686   3.569   3.841  12.653 -0.3763 -0.8228 -1.3695
  719TMC3    H210687   3.289   4.083  12.440  1.8662  1.6292  1.1050
  719TMC3    C710688   3.548   4.017  12.457 -0.5469  0.0078  0.6006
  719TMC3    C810689   3.094   3.984  12.558  0.2460 -0.6860 -0.1540
  719TMC3    O110690   3.630   3.937  12.413  0.1033  0.4181 -0.6068
  719TMC3    O210691   3.054   4.082  12.492 -0.3345 -0.1838  0.8103
  720MPD2     C10692   2.286   0.548  13.418 -0.6243 -0.2604  0.5335
  720MPD2    C110693   2.307   0.681  13.394 -0.5615  0.1032  0.7288
  720MPD2    C210694   2.418   0.740  13.453 -0.1785 -0.3779  0.4456
  720MPD2    C310695   2.510   0.661  13.520  0.3419 -0.6186 -0.7046
  720MPD2    C410696   2.492   0.524  13.533 -0.4998 -1.2209 -0.4015
  720MPD2    C510697   2.381   0.472  13.480  0.2294 -0.6003 -0.6830
  720MPD2     H10698   2.447   0.844  13.441  0.0173 -0.6313 -1.3255
  720MPD2    H110699   2.553   0.456  13.591  0.8182 -0.8618 -1.3765
  720MPD2    H210700   2.200   0.492  13.382 -0.3948  1.3614 -2.5785
  720MPD2    H310701   2.367   0.365  13.488 -0.8236 -0.2629  2.2118
  720MPD2     N10702   2.622   0.727  13.588 -0.8227  0.3866 -0.3755
  720MPD2    H510703   2.641   0.825  13.570 -0.0143  0.6345  1.8392
  720MPD2    N110704   2.221   0.759  13.313 -0.3711  0.5541  0.0657
  720MPD2    H710705   2.242   0.858  13.321  1.0645  0.2964 -0.5085
  721TMC3    C110706   2.797   0.736  13.762 -0.4556 -0.1112  0.0170
  721TMC3    C210707   2.795   0.730  13.899 -0.1465 -0.3720  0.1850
  721TMC3    C310708   2.904   0.795  13.957  0.0740 -0.1293  0.0958
  721TMC3    C410709   2.895   0.800  13.688 -0.4490 -0.2587 -0.3357
  721TMC3    C510710   3.005   0.858  13.750  0.2182  0.3343 -0.2625
  721TMC3    C610711   3.006   0.858  13.886 -0.4069  0.0922 -0.0214
  721TMC3     C10712   2.694   0.667  13.697  0.5696 -0.0606  1.0225
  721TMC3     O10713   2.660   0.562  13.751 -0.1293  0.4387  0.1493
  721TMC3     H10714   2.724   0.684  13.966 -0.0611 -0.2273  0.3743
  721TMC3    H110715   2.888   0.783  13.582 -1.9098  0.6546 -0.3752
  721TMC3    H210716   3.074   0.922  13.941 -0.0904 -0.7359  0.5611
  721TMC3    C710717   3.138   0.836  13.697  0.1445  0.1723  0.6522
  721TMC3    C810718   2.955   0.758  14.086 -0.1882  0.7826  0.2853
  721TMC3    O110719   3.147   0.738  13.628 -0.4180 -0.4751  0.0547
  721TMC3    O210720   3.076   0.769  14.103  0.1107 -0.1538  0.7420
  722MPD2     C10721   0.889   3.984  13.428  0.6154 -0.2405  0.1074
  722MPD2    C110722   0.932   4.092  13.363 -0.6491 -0.1283 -0.3451
  722MPD2    C210723   0.876   4.112  13.236  0.8020  0.0383  0.0676
  722MPD2    C310724   0.776   4.031  13.185 -0.3644  0.6356 -0.2370
  722MPD2    C410725   0.725   3.933  13.265 -0.2155  0.4027 -0.0852
  722MPD2    C510726   0.785   3.910  13.384 -0.8226  0.3892 -0.0157
  722MPD2     H10727   0.898   4.202  13.180 -1.1255 -0.7194 -1.9143
  722MPD2    H110728   0.640   3.868  13.247  1.3883 -1.3562 -1.2656
  722MPD2    H210729   0.922   3.952  13.527  0.8740  1.8903  0.7246
  722MPD2    H310730   0.745   3.826  13.439 -0.7947 -0.7477 -1.7269
  722MPD2     N10731   0.726   4.055  13.054 -0.0687  0.4830  0.0663
  722MPD2    H510732   0.760   4.138  13.007  1.2865  1.3530  2.5873
  722MPD2    N110733   1.027   4.184  13.412  0.0197 -0.0906 -0.1939
  722MPD2    H710734   1.042   4.264  13.352  0.4432 -2.6653 -3.5238
  723TMC3    C110735   0.583   4.013  12.871  0.6199  0.2298  0.4410
  723TMC3    C210736   0.537   3.926  12.787  0.5717  0.0510  0.1567
  723TMC3    C310737   0.465   3.967  12.682 -0.4631  0.1500 -0.0589
  723TMC3    C410738   0.557   4.147  12.855 -0.4130  0.5183  0.1460
  723TMC3    C510739   0.475   4.184  12.748  0.1607  0.7266 -0.0712
  723TMC3    C610740   0.430   4.094  12.655 -0.3387 -0.3638 -0.9340
  723TMC3     C10741   0.644   3.962  12.993 -0.2007 -0.3217  0.1464
  723TMC3     O10742   0.618   3.846  13.020  0.1530 -0.6350 -0.1411
  723TMC3     H10743   0.561   3.820  12.786  1.0331  0.1686 -1.1903
  723TMC3    H110744   0.617   4.218  12.911 -0.1566 -1.2906  2.1873
  723TMC3    H210745   0.357   4.121  12.580  0.8354 -0.7480 -2.2154
  723TMC3    C710746   0.453   4.323  12.718 -0.2773 -0.7003  0.3708
  723TMC3    C810747   0.444   3.884  12.563  0.6165  0.2241  0.3631
  723TMC3    O110748   0.437   4.346  12.596 -0.2848  0.1926 -0.4340
  723TMC3    O210749   0.413   3.945  12.458  0.4714 -0.3752  0.2674
  724TMC3    C110750   1.433   2.109  10.288 -1.1007  0.2568 -0.3224
  724TMC3    C210751   1.356   2.174  10.206 -0.1301 -0.4001 -0.3747
  724TMC3    C310752   1.377   2.303  10.180  0.2279 -0.0767  0.2598
  724TMC3    C410753   1.520   2.173  10.368 -0.1724  0.2672 -0.2970
  724TMC3    C510754   1.534   2.305  10.358  0.3834 -1.0314 -0.2619
  724TMC3    C610755   1.472   2.375  10.252 -0.2882  0.1318 -0.0946
  724TMC3     C10756   1.406   1.974  10.326  0.7694 -0.2481  0.7971
  724TMC3     O10757   1.364   1.953  10.439 -0.0005 -0.3460  0.6515
  724TMC3     H10758   1.287   2.121  10.142 -0.3916  0.5544 -0.8888
  724TMC3    H110759   1.580   2.109  10.433  0.5243 -0.1022 -1.3022
  724TMC3    H210760   1.489   2.478  10.224  0.0311  0.1958  0.3199
  724TMC3    C710761   1.589   2.389  10.465 -0.0934  0.2762  0.0309
  724TMC3    C810762   1.267   2.372  10.112  0.0256 -0.4553  0.2170
  724TMC3    O110763   1.656   2.485  10.427 -0.0984  0.6023 -0.0977
  724TMC3    O210764   1.156   2.320  10.103 -0.6873 -0.6424  0.1851
  725TMC3    C110765   3.060   0.802  12.888 -0.0181  1.0379 -0.3943
  725TMC3    C210766   2.977   0.871  12.810  0.1163  0.6783 -0.5880
  725TMC3    C310767   2.845   0.841  12.823  0.0583 -0.3366  0.0599
  725TMC3    C410768   3.023   0.690  12.949 -0.2401 -0.3985  0.4426
  725TMC3    C510769   2.892   0.645  12.942 -1.7359 -0.5264  0.1641
  725TMC3    C610770   2.797   0.721  12.877  0.1148 -0.1514  0.3122
  725TMC3     C10771   3.191   0.863  12.926 -0.5986  0.2435 -0.4518
  725TMC3     O10772   3.198   0.983  12.928 -0.2992  0.2203  0.0558
  725TMC3     H10773   3.016   0.957  12.757 -1.9711  3.3558  2.1521
  725TMC3    H110774   3.105   0.633  12.992  0.3251  2.1029  2.6804
  725TMC3    H210775   2.691   0.702  12.895 -0.2927  0.0814 -1.8528
  725TMC3    C710776   2.899   0.511  12.878 -0.0211 -0.3984  0.1125
  725TMC3    C810777   2.752   0.881  12.714 -0.0224  0.1658 -0.5807
  725TMC3    O110778   2.993   0.440  12.905  0.4444  0.1659 -0.2585
  725TMC3    O210779   2.677   0.794  12.683  0.5684  0.5486  0.3251
  726MPD2     C10780   0.864   2.857  10.574 -0.3237  0.9548  0.0536
  726MPD2    C110781   0.747   2.922  10.539  0.0106  0.1525  0.6688
  726MPD2    C210782   0.629   2.862  10.565  0.0565 -0.2143  0.4386
  726MPD2    C310783   0.624   2.739  10.621  0.3929 -0.7972 -0.3315
  726MPD2    C410784   0.741   2.680  10.660  0.1795  0.2632  1.8071
  726MPD2    C510785   0.860   2.738  10.637 -0.0873  1.1175  0.4593
  726MPD2     H10786   0.533   2.901  10.533  0.0167  0.5248  1.4356
  726MPD2    H110787   0.726   2.591  10.720 -2.7421 -0.6941 -0.3214
  726MPD2    H210788   0.963   2.903  10.574  0.2252 -0.2132  0.8934
  726MPD2    H310789   0.946   2.688  10.680 -0.4094 -1.0725 -1.4427
  726MPD2     N10790   0.500   2.669  10.648 -0.0057  0.7085 -0.1669
  726MPD2    H510791   0.504   2.590  10.710  0.9143  0.5148 -0.4751
  726MPD2    N110792   0.739   3.049  10.474 -0.5029 -0.1291 -0.0039
  726MPD2    H710793   0.643   3.079  10.462 -0.2203  0.5610 -0.5010
  727TMC3    C110794   0.802   3.248  10.354 -0.1328 -0.2573 -0.1545
  727TMC3    C210795   0.896   3.338  10.325  0.1693 -0.5928 -0.2802
  727TMC3    C310796   0.862   3.439  10.244 -0.1552 -0.0710 -1.2071
  727TMC3    C410797   0.673   3.266  10.309  0.6396  0.7642 -0.0486
  727TMC3    C510798   0.632   3.373  10.228 -0.2384 -0.0293 -0.2783
  727TMC3    C610799   0.729   3.463  10.196  0.4421 -0.3288 -0.1247
  727TMC3     C10800   0.839   3.132  10.434 -0.6415 -0.3208  0.3080
  727TMC3     O10801   0.955   3.114  10.447 -0.4106 -0.4083 -0.1433
  727TMC3     H10802   0.999   3.311  10.345 -0.7803 -2.2737  2.2987
  727TMC3    H110803   0.592   3.202  10.343 -0.2587  1.2219 -1.2722
  727TMC3    H210804   0.700   3.545  10.130 -1.5107 -2.5683 -2.0660
  727TMC3    C710805   0.500   3.388  10.170  0.0854 -0.8695  0.0824
  727TMC3    C810806   0.971   3.517  10.198  0.8190  0.1960 -0.0929
  727TMC3    O110807   0.470   3.502  10.139 -0.1953  0.0729  0.7749
  727TMC3    O210808   1.082   3.463  10.190  0.0544 -0.1137  0.4706
  728TMC3    C110809   0.432   1.055  15.043  0.0371  0.1538  0.1453
  728TMC3    C210810   0.552   1.068  14.980  0.7336  0.1421  0.9204
  728TMC3    C310811   0.570   1.158  14.878 -0.7222  0.3777 -0.2611
  728TMC3    C410812   0.329   1.119  14.982 -1.3087 -0.1135 -0.1085
  728TMC3    C510813   0.344   1.210  14.877  0.1302  0.1630  0.1632
  728TMC3    C610814   0.465   1.232  14.822 -0.2688 -0.6599  0.4349
  728TMC3     C10815   0.436   1.074  15.187 -0.0596  0.0336  0.3210
  728TMC3     O10816   0.543   1.107  15.230 -0.0614 -0.4931  0.2449
  728TMC3     H10817   0.645   1.047  15.032 -0.2850 -0.8148  2.3741
  728TMC3    H110818   0.234   1.114  15.033 -0.3017 -2.0580  1.5717
  728TMC3    H210819   0.480   1.294  14.734 -2.9826 -0.5316  0.0652
  728TMC3    C710820   0.221   1.267  14.822  0.0840  0.4693 -0.1254
  728TMC3    C810821   0.681   1.141  14.782  0.9427  0.0440  1.3165
  728TMC3    O110822   0.114   1.239  14.872  0.2024 -0.0404 -0.1955
  728TMC3    O210823   0.706   1.241  14.716 -0.4074 -0.0826 -0.6842
  729MPD2     C10824   1.697   2.802  16.690  0.1523  0.6145  0.1363
  729MPD2    C110825   1.777   2.690  16.706 -0.2951 -0.1519 -0.2512
  729MPD2    C210826   1.825   2.656  16.825  0.7226  0.0471 -0.6413
  729MPD2    C310827   1.794   2.728  16.935 -0.6532  0.6123 -0.3126
  729MPD2    C410828   1.708   2.838  16.921  0.0280  0.3129 -0.3012
  729MPD2    C510829   1.655   2.877  16.800  0.3096 -0.0850 -0.0924
  729MPD2     H10830   1.906   2.584  16.828 -0.2147 -0.9462  0.4657
  729MPD2    H110831   1.681   2.891  17.011 -2.4315 -2.4311  0.5867
  729MPD2    H210832   1.665   2.833  16.592  1.0351  0.8957 -0.0597
  729MPD2    H310833   1.580   2.956  16.803  1.3189  0.7872  2.6754
  729MPD2     N10834   1.840   2.693  17.062 -0.6315  0.0933 -0.0189
  729MPD2    H510835   1.822   2.764  17.131  0.6922  0.3011  0.1115
  729MPD2    N110836   1.840   2.655  16.589  0.0470 -0.0481  0.7003
  729MPD2    H710837   1.848   2.716  16.508  1.4546  0.3745  1.1630
  730TMC3    C110838   1.960   2.591  17.239 -0.0948  0.3091 -0.4738
  730TMC3    C210839   2.091   2.563  17.263  0.4860 -0.3399  0.6676
  730TMC3    C310840   2.157   2.644  17.354 -0.0419 -0.2022 -0.2624
  730TMC3    C410841   1.888   2.682  17.311  0.2856 -0.6386  0.1006
  730TMC3    C510842   1.954   2.755  17.406 -0.2128  0.1863  0.3511
  730TMC3    C610843   2.086   2.729  17.435 -0.0221  0.5115 -0.1483
  730TMC3     C10844   1.921   2.587  17.097 -0.2410  0.2290 -0.1456
  730TMC3     O10845   1.978   2.509  17.023 -0.5390 -0.4346 -0.4171
  730TMC3     H10846   2.148   2.508  17.189 -3.6175 -2.2454 -1.1098
  730TMC3    H110847   1.780   2.676  17.297  0.3026  1.0358 -0.7592
  730TMC3    H210848   2.128   2.790  17.515  0.0997  0.4138 -0.1379
  730TMC3    C710849   1.927   2.895  17.383  0.2264 -0.9154 -0.3843
  730TMC3    C810850   2.265   2.705  17.283  0.0478 -0.3072  0.2458
  730TMC3    O110851   1.861   2.909  17.278  0.0283 -0.6623 -0.3776
  730TMC3    O210852   2.343   2.631  17.221 -0.2556  0.0917 -0.3802
  731MPD2     C10853   2.514   0.707  11.951  0.1784 -0.7059 -0.2736
  731MPD2    C110854   2.468   0.583  11.902  0.2657  0.1277 -0.3212
  731MPD2    C210855   2.407   0.501  11.991 -0.3129  0.4912  0.0657
  731MPD2    C310856   2.387   0.528  12.127 -0.0699  0.4957 -0.0300
  731MPD2    C410857   2.437   0.650  12.171 -0.1215 -0.4989 -0.6664
  731MPD2    C510858   2.499   0.740  12.084  0.3654  0.5205 -0.0099
  731MPD2     H10859   2.372   0.404  11.959  1.2206  0.1161 -0.4840
  731MPD2    H110860   2.439   0.681  12.275 -1.5883  2.2021 -1.4557
  731MPD2    H210861   2.542   0.789  11.886 -0.7281 -0.1261  0.0644
  731MPD2    H310862   2.531   0.839  12.114 -1.8118  2.1024 -2.9030
  731MPD2     N10863   2.322   0.434  12.206  0.7228  0.2733  0.5526
  731MPD2    H510864   2.295   0.345  12.164 -1.0207  0.8775  0.4195
  731MPD2    N110865   2.481   0.538  11.767 -0.0811 -0.6162 -0.0783
  731MPD2    H710866   2.440   0.449  11.742 -3.5594  0.3019  2.4368
  732TMC3    C110867   2.584   0.527  11.556  0.3386  0.4022  0.3758
  732TMC3    C210868   2.492   0.433  11.513  0.0716  0.4755  0.1040
  732TMC3    C310869   2.533   0.348  11.416 -0.4825  0.1529 -0.0488
  732TMC3    C410870   2.713   0.525  11.521  0.9176 -0.4647 -0.4655
  732TMC3    C510871   2.747   0.428  11.430 -0.3053 -0.1523  0.0313
  732TMC3    C610872   2.658   0.340  11.368 -0.5062 -0.0377  0.1242
  732TMC3     C10873   2.550   0.613  11.670 -0.0392 -1.1069 -0.2470
  732TMC3     O10874   2.615   0.715  11.684  0.2424  0.3071 -0.5317
  732TMC3     H10875   2.387   0.453  11.532  0.1580  0.5641  0.4882
  732TMC3    H110876   2.772   0.604  11.566 -1.8176  2.3451 -1.8152
  732TMC3    H210877   2.692   0.269  11.294 -0.4539  1.3624 -1.1922
  732TMC3    C710878   2.882   0.380  11.428 -0.2897 -0.1666  0.4037
  732TMC3    C810879   2.448   0.245  11.372  0.0609  0.4172 -0.0545
  732TMC3    O110880   2.910   0.316  11.330  0.5298  0.0684  0.0733
  732TMC3    O210881   2.475   0.178  11.272 -0.8549  0.2492 -0.8008
  733TMC3    C110882   2.726   3.154  12.653 -0.0493  0.5545  0.6433
  733TMC3    C210883   2.856   3.106  12.664  0.2452  0.5058  0.6129
  733TMC3    C310884   2.939   3.133  12.559  0.4638 -0.3947  0.2360
  733TMC3    C410885   2.679   3.224  12.541 -0.2550 -0.5183  0.2981
  733TMC3    C510886   2.763   3.238  12.436  0.8105 -0.1954 -0.4048
  733TMC3    C610887   2.893   3.188  12.448  0.1820 -0.4647 -0.2857
  733TMC3     C10888   2.637   3.151  12.772 -0.1228  0.5779 -0.6747
  733TMC3     O10889   2.525   3.202  12.751 -0.0175  0.0727 -0.3425
  733TMC3     H10890   2.884   3.055  12.755 -0.0862  0.3146  0.6088
  733TMC3    H110891   2.584   3.275  12.540  0.7125  1.2579  0.2753
  733TMC3    H210892   2.968   3.196  12.370 -0.3006 -1.1552 -0.8143
  733TMC3    C710893   2.769   3.366  12.374 -0.0041 -0.0001 -0.2068
  733TMC3    C810894   3.079   3.132  12.554  0.9007  0.2704 -0.0190
  733TMC3    O110895   2.762   3.372  12.252  0.5275  0.1000 -0.2764
  733TMC3    O210896   3.139   3.055  12.477  0.3550  0.0776 -0.0757
  734MPD2     C10897   0.543   1.340  12.239  0.6773 -0.4216  0.3797
  734MPD2    C110898   0.489   1.306  12.125 -0.7718  0.5322 -0.1109
  734MPD2    C210899   0.500   1.397  12.020 -0.2369  0.1977 -0.0499
  734MPD2    C310900   0.563   1.518  12.036  0.4311 -0.5307  0.4293
  734MPD2    C410901   0.611   1.552  12.159 -0.3423  0.0088 -0.4390
  734MPD2    C510902   0.599   1.459  12.258  0.6859 -0.2345  0.2100
  734MPD2     H10903   0.471   1.366  11.920  1.0695 -0.9365 -0.0781
  734MPD2    H110904   0.664   1.643  12.185 -0.8227  0.1034  0.2050
  734MPD2    H210905   0.556   1.269  12.320  0.4599  1.1963  1.8445
  734MPD2    H310906   0.639   1.484  12.356 -3.7590 -0.0384  1.9677
  734MPD2     N10907   0.587   1.597  11.923 -0.2902 -0.2084  0.0397
  734MPD2    H510908   0.553   1.561  11.835  1.5807  0.5059 -0.9788
  734MPD2    N110909   0.446   1.177  12.109 -0.6457 -0.3928  0.2656
  734MPD2    H710910   0.467   1.106  12.179 -0.6683 -0.0876  0.5821
  735TMC3    C110911   0.338   1.003  11.993  0.0753  0.7509  0.4740
  735TMC3    C210912   0.234   0.987  11.907 -0.9545 -0.3805  0.7610
  735TMC3    C310913   0.232   0.896  11.804  0.9480  0.2162  0.1378
  735TMC3    C410914   0.440   0.917  11.988 -0.8569  0.2890  0.4845
  735TMC3    C510915   0.432   0.814  11.900  0.5071  0.7086 -0.1934
  735TMC3    C610916   0.335   0.810  11.806 -0.2091  0.2613 -0.4392
  735TMC3     C10917   0.374   1.139  12.003  0.7230 -0.5563  0.4918
  735TMC3     O10918   0.341   1.195  11.900 -0.5167  0.2185 -0.0918
  735TMC3     H10919   0.145   1.049  11.912 -1.2215 -0.8704  2.0500
  735TMC3    H110920   0.534   0.938  12.038  0.0193  1.1129 -1.5030
  735TMC3    H210921   0.339   0.730  11.733 -1.3686  0.2181 -0.4613
  735TMC3    C710922   0.552   0.747  11.859 -0.0113  0.1573 -0.3844
  735TMC3    C810923   0.229   0.955  11.665  0.4160 -0.0235 -0.6641
  735TMC3    O110924   0.571   0.720  11.744 -0.2096  0.1103 -0.1543
  735TMC3    O210925   0.235   0.874  11.577  0.5234 -0.1759  0.4946
  736MPD2     C10926   0.837   0.645  12.058 -0.3141  0.5031 -0.1511
  736MPD2    C110927   0.773   0.671  11.943  0.1776  0.8175 -0.1916
  736MPD2    C210928   0.840   0.670  11.821  0.1876  0.3556 -0.1346
  736MPD2    C310929   0.981   0.656  11.828  0.1658  0.1322 -1.0536
  736MPD2    C410930   1.047   0.650  11.944  0.1343  0.3715  0.3820
  736MPD2    C510931   0.977   0.638  12.061 -0.1491  0.8231  0.1448
  736MPD2     H10932   0.785   0.672  11.728  0.7159  0.3004 -0.4461
  736MPD2    H110933   1.154   0.644  11.931  0.2540  3.1578  0.1326
  736MPD2    H210934   0.787   0.647  12.154  1.4310 -0.0168  0.7915
  736MPD2    H310935   1.041   0.631  12.148 -0.6435  1.5738  0.5684
  736MPD2     N10936   1.060   0.659  11.715 -0.0371  0.8339  0.2627
  736MPD2    H510937   1.160   0.669  11.732  0.1246 -1.3177  0.5442
  736MPD2    N110938   0.635   0.711  11.959  0.9377 -0.6666  0.0233
  736MPD2    H710939   0.599   0.731  12.052 -2.0085 -0.1653 -1.2254
  737TMC3    C110940   1.143   0.661  11.514 -0.1573  0.3813  0.8252
  737TMC3    C210941   1.165   0.758  11.423  0.1674 -0.0169 -0.1812
  737TMC3    C310942   1.294   0.769  11.376 -0.1398 -0.2130  0.4374
  737TMC3    C410943   1.245   0.580  11.554 -0.6803 -0.1160 -0.0937
  737TMC3    C510944   1.371   0.597  11.499  0.0005  0.1435  0.0564
  737TMC3    C610945   1.404   0.695  11.406  0.3764 -0.5551 -0.3858
  737TMC3     C10946   1.021   0.660  11.585  0.3992 -1.2435  0.1181
  737TMC3     O10947   0.918   0.702  11.531 -0.2306 -0.1177  0.8133
  737TMC3     H10948   1.084   0.828  11.405 -0.3457 -0.1903  1.4810
  737TMC3    H110949   1.225   0.492  11.614 -2.1932  0.8173  0.7967
  737TMC3    H210950   1.496   0.703  11.349  0.5048  0.8419  0.0056
  737TMC3    C710951   1.433   0.466  11.473  0.5583  0.1561  0.0409
  737TMC3    C810952   1.322   0.881  11.297  0.5522 -0.1316 -0.3591
  737TMC3    O110953   1.362   0.370  11.487  0.3083 -0.2705 -0.3548
  737TMC3    O210954   1.423   0.951  11.313 -0.0850 -0.0962 -0.5736
  738MPD2     C10955   1.011   4.382  15.119  0.3186  0.0197 -0.4511
  738MPD2    C110956   1.099   4.281  15.143  0.2514 -0.5220 -0.0751
  738MPD2    C210957   1.228   4.298  15.105  0.0532 -0.0761  0.9441
  738MPD2    C310958   1.267   4.410  15.029  0.7245  0.0028  0.5419
  738MPD2    C410959   1.179   4.509  15.016 -0.0197  0.3878  1.0295
  738MPD2    C510960   1.049   4.493  15.054 -0.5580  0.5993  0.7689
  738MPD2     H10961   1.298   4.216  15.119  1.8286  1.5425  1.5100
  738MPD2    H110962   1.202   4.598  14.959  1.6282 -1.3205 -0.9664
  738MPD2    H210963   0.904   4.371  15.130  0.4428 -1.2845 -0.5294
  738MPD2    H310964   0.976   4.572  15.057 -0.9405  0.3520 -1.8351
  738MPD2     N10965   1.400   4.428  14.980  0.2215  0.3164  0.1293
  738MPD2    H510966   1.411   4.510  14.922  0.0012 -0.3348 -0.8447
  738MPD2    N110967   1.063   4.161  15.197  0.5916 -0.0713 -0.4458
  738MPD2    H710968   1.121   4.081  15.174  2.2330  0.5370  1.4993
  739TMC3    C110969   1.629   4.418  14.953  0.2079  0.3160 -0.1956
  739TMC3    C210970   1.631   4.438  14.815  0.0804 -0.6147  0.0933
  739TMC3    C310971   1.742   4.466  14.751  0.1108  0.0886  0.0711
  739TMC3    C410972   1.747   4.401  15.018 -0.1564 -0.0376 -0.3288
  739TMC3    C510973   1.865   4.408  14.946 -0.8342 -0.7267  0.5659
  739TMC3    C610974   1.866   4.451  14.815 -0.8271  0.6555 -0.5010
  739TMC3     C10975   1.513   4.351  15.009 -0.3460  0.3674  0.1194
  739TMC3     O10976   1.516   4.262  15.092  0.1417  0.1968 -0.0435
  739TMC3     H10977   1.532   4.445  14.770  0.9494  0.1931 -1.6758
  739TMC3    H110978   1.750   4.377  15.124 -0.0834 -0.5487 -0.4469
  739TMC3    H210979   1.960   4.479  14.770 -1.2205  3.6705  0.4914
  739TMC3    C710980   1.992   4.389  15.019 -0.2460 -0.5819  0.1453
  739TMC3    C810981   1.733   4.538  14.624  0.0028  0.5636  0.0340
  739TMC3    O110982   1.987   4.311  15.111  0.3262  0.4975  0.5749
  739TMC3    O210983   1.622   4.568  14.585 -0.8196 -0.3737  0.4195
  740TMC3    C110984   1.939   0.934  14.410  0.2510  0.4475 -0.4117
  740TMC3    C210985   1.970   0.838  14.509  0.1359 -0.4549 -0.1592
  740TMC3    C310986   2.063   0.741  14.472  0.7004  0.6549  0.4437
  740TMC3    C410987   2.015   0.960  14.302 -0.3310  0.1910  0.0523
  740TMC3    C510988   2.121   0.873  14.285 -0.1478  0.3945  0.1172
  740TMC3    C610989   2.136   0.761  14.363 -0.0591 -0.2673  0.3030
  740TMC3     C10990   1.839   1.024  14.455  0.2914 -0.8017 -0.0387
  740TMC3     O10991   1.861   1.140  14.444  0.0692 -0.3273  0.4578
  740TMC3     H10992   1.910   0.838  14.600  2.1985  0.0370  1.2126
  740TMC3    H110993   2.001   1.051  14.243 -0.7533 -0.0112 -0.1601
  740TMC3    H210994   2.210   0.692  14.324 -2.6814 -1.6114 -2.2559
  740TMC3    C710995   2.229   0.899  14.187 -0.1250 -0.3507 -0.0972
  740TMC3    C810996   2.095   0.642  14.573  0.0449  0.7400  0.5983
  740TMC3    O110997   2.339   0.850  14.213 -0.8815  0.3508  0.4752
  740TMC3    O210998   2.080   0.672  14.690  0.1654  0.3543  0.1138
  741TMC3    C110999   1.692   0.229  14.370  0.1642 -0.9741  0.7818
  741TMC3    C211000   1.588   0.144  14.333  0.6758  0.6206  0.3665
  741TMC3    C311001   1.525   0.084  14.443 -0.5751 -0.0705 -0.1546
  741TMC3    C411002   1.732   0.261  14.501 -0.2762  0.1176  0.1274
  741TMC3    C511003   1.657   0.204  14.599  0.2451  0.6398 -0.0512
  741TMC3    C611004   1.560   0.108  14.572 -0.2738  0.5486  0.2049
  741TMC3     C11005   1.768   0.279  14.253  0.9459  0.4053 -0.1496
  741TMC3     O11006   1.882   0.306  14.282  0.1961  0.4102  0.1326
  741TMC3     H11007   1.574   0.103  14.234  1.3430 -3.0051  1.7622
  741TMC3    H111008   1.811   0.334  14.518  0.4805 -0.8391  0.7139
  741TMC3    H211009   1.510   0.063  14.657  1.8564 -1.8967  0.1826
  741TMC3    C711010   1.688   0.234  14.738 -0.5267  0.1609  0.0254
  741TMC3    C811011   1.404   0.000  14.405 -1.1089 -0.1398 -0.0830
  741TMC3    O111012   1.658   0.151  14.823  0.1578  0.8200  0.0810
  741TMC3    O211013   1.372   4.727  14.292 -0.3903 -0.2676 -0.6195
  742TMC3    C111014   1.508   3.516  15.488  0.4215 -0.3615  0.4695
  742TMC3    C211015   1.404   3.500  15.398 -0.3276 -0.1535 -0.4137
  742TMC3    C311016   1.426   3.524  15.265 -0.9897 -0.0928  0.5392
  742TMC3    C411017   1.622   3.582  15.448  0.0703  0.1167  0.4173
  742TMC3    C511018   1.629   3.615  15.317  0.1525 -0.3222 -1.2859
  742TMC3    C611019   1.535   3.590  15.226  0.2630  0.3963  0.4286
  742TMC3     C11020   1.491   3.465  15.624 -0.4171  0.6468 -0.3971
  742TMC3     O11021   1.369   3.465  15.648  0.6769  0.3271 -0.1694
  742TMC3     H11022   1.328   3.425  15.421 -1.4466  1.1908  0.2855
  742TMC3    H111023   1.700   3.604  15.520 -0.8119  1.0722  1.0907
  742TMC3    H211024   1.555   3.613  15.123 -0.3116 -1.8035 -0.1825
  742TMC3    C711025   1.761   3.597  15.266 -0.1103 -0.6062  0.2335
  742TMC3    C811026   1.327   3.490  15.163  0.5219  0.7110 -0.4159
  742TMC3    O111027   1.781   3.498  15.197 -0.0111  0.8285 -0.1764
  742TMC3    O211028   1.339   3.539  15.047 -0.0673 -0.0177 -0.0186
  743MPD2     C11029   3.590   1.228   1.630  0.4587  0.0275 -0.2135
  743MPD2    C111030   3.639   1.117   1.562  1.0833  0.0561 -0.4248
  743MPD2    C211031   3.773   1.078   1.574  0.2158 -0.1682 -0.1775
  743MPD2    C311032   3.857   1.155   1.650 -0.2280 -0.3478  0.4451
  743MPD2    C411033   3.806   1.249   1.729 -0.7931  0.1869 -0.2325
  743MPD2    C511034   3.674   1.287   1.721  0.8103 -0.0608  0.5313
  743MPD2     H11035   3.817   0.989   1.529 -1.0648 -0.4397 -0.8919
  743MPD2    H111036   3.868   1.303   1.800 -1.4503  1.2510 -0.4570
  743MPD2    H211037   3.486   1.259   1.628  0.6228  0.4941 -1.4514
  743MPD2    H311038   3.638   1.378   1.767  1.3976 -0.3646  1.5958
  743MPD2     N11039   3.985   1.106   1.653 -0.0702  0.7488 -0.3384
  743MPD2    H511040   3.992   1.023   1.595 -0.5954  0.3296  0.1971
  743MPD2    N111041   3.545   1.044   1.490  0.5002  0.3952  0.0347
  743MPD2    H711042   3.447   1.068   1.502  1.1599  1.8373  2.5937
  744TMC3    C111043   3.438   0.873   1.366  0.3190  0.0678 -0.1824
  744TMC3    C211044   3.313   0.892   1.430  0.0100  0.1817 -0.3813
  744TMC3    C311045   3.223   0.793   1.413  0.2788  0.0015  0.0975
  744TMC3    C411046   3.465   0.758   1.296  0.4803 -0.3202 -0.2908
  744TMC3    C511047   3.379   0.653   1.296 -0.8530  0.0322 -0.5915
  744TMC3    C611048   3.253   0.672   1.356  0.3299  0.4960 -0.1737
  744TMC3     C11049   3.564   0.944   1.404  0.4097 -0.6560  0.8605
  744TMC3     O11050   3.673   0.915   1.358  0.3543 -0.0095 -0.2922
  744TMC3     H11051   3.287   0.990   1.469  0.2005 -0.4653  1.3565
  744TMC3    H111052   3.568   0.751   1.263  1.0413  0.9631  1.2002
  744TMC3    H211053   3.184   0.589   1.359 -0.6619  1.3176 -0.6511
  744TMC3    C711054   3.415   0.550   1.196 -0.4289 -0.1916  0.6480
  744TMC3    C811055   3.089   0.793   1.475 -0.3808  1.0144 -0.0796
  744TMC3    O111056   3.533   0.559   1.162  0.6533 -0.6081  0.0544
  744TMC3    O211057   3.012   0.704   1.439  0.3928 -0.0671  0.4573
  745TMC3    C111058   1.502   2.974  13.803  0.0945 -0.1277 -0.2968
  745TMC3    C211059   1.391   2.969  13.886  0.3441 -0.3374 -0.1418
  745TMC3    C311060   1.278   3.033  13.849 -0.4678 -0.8370  0.6537
  745TMC3    C411061   1.496   3.050  13.688 -0.1930  0.0136 -0.2729
  745TMC3    C511062   1.378   3.105  13.648  0.0370 -0.3834 -0.8485
  745TMC3    C611063   1.265   3.085  13.727  0.0366  0.3611  0.4542
  745TMC3     C11064   1.626   2.951  13.871  0.1340 -0.6186 -0.2989
  745TMC3     O11065   1.635   2.849  13.940 -0.3945  0.7531  0.1953
  745TMC3     H11066   1.397   2.905  13.973 -0.7158 -0.2093  0.0229
  745TMC3    H111067   1.592   3.050  13.637 -0.1402 -1.1774 -0.1654
  745TMC3    H211068   1.171   3.136  13.708  0.1429  0.3712 -0.0489
  745TMC3    C711069   1.369   3.149  13.511  0.0926  1.0384  0.4190
  745TMC3    C811070   1.217   3.115  13.947 -0.3087 -0.2181  0.3365
  745TMC3    O111071   1.258   3.171  13.463  0.3170 -0.3336 -0.2980
  745TMC3    O211072   1.127   3.190  13.923  0.4187 -0.5625 -0.4798
  746TMC3    C111073   4.569   0.522  11.208  0.6737  0.2295  0.3123
  746TMC3    C211074   4.653   0.559  11.102 -0.1217 -0.8445  0.5948
  746TMC3    C311075   4.605   0.523  10.973  0.4042  0.3787 -0.1799
  746TMC3    C411076   4.457   0.446  11.181  0.1441 -0.4069  0.0082
  746TMC3    C511077   4.426   0.402  11.058 -0.3802  1.2357 -0.0758
  746TMC3    C611078   4.497   0.448  10.946  0.3460 -0.0816 -0.3525
  746TMC3     C11079   4.543   0.620  11.312 -0.4990  0.1842  1.1730
  746TMC3     O11080   4.439   0.623  11.371  0.2623 -0.2914  0.5933
  746TMC3     H11081   0.004   0.622  11.109 -0.6780 -0.1130  0.9989
  746TMC3    H111082   4.382   0.419  11.255  0.4609 -0.3341  0.3560
  746TMC3    H211083   4.489   0.423  10.841  0.0893 -1.8333  0.0825
  746TMC3    C711084   4.302   0.342  11.033  0.2118 -0.3810 -0.4358
  746TMC3    C811085   4.682   0.592  10.867  0.0039  0.0591  0.3802
  746TMC3    O111086   4.232   0.400  10.949  0.3407  0.9084  0.3602
  746TMC3    O211087   0.063   0.620  10.885  0.7997  0.6998  0.2682
  747TMC3    C111088   2.258   0.329  10.879 -1.1276 -0.4661  0.6154
  747TMC3    C211089   2.163   0.244  10.934 -0.6851  0.1955 -0.2404
  747TMC3    C311090   2.142   0.257  11.063 -0.3051 -0.5330 -0.7579
  747TMC3    C411091   2.320   0.420  10.960 -0.4610  0.1000 -0.5619
  747TMC3    C511092   2.284   0.430  11.093  0.0007  0.9909  0.5337
  747TMC3    C611093   2.203   0.337  11.149  0.0132  0.0500 -0.2068
  747TMC3     C11094   2.260   0.357  10.735 -0.4645 -0.1391  0.0893
  747TMC3     O11095   2.311   0.464  10.694  0.1717 -0.0802  0.5009
  747TMC3     H11096   2.106   0.173  10.875 -0.2372 -0.9520  0.7246
  747TMC3    H111097   2.394   0.487  10.919  1.4163 -1.6199 -0.0037
  747TMC3    H211098   2.193   0.331  11.256  3.5031  1.0033  0.1691
  747TMC3    C711099   2.339   0.534  11.175  0.5686  0.8681  0.5520
  747TMC3    C811100   2.012   0.201  11.101  0.8171 -0.3968 -0.8563
  747TMC3    O111101   2.279   0.555  11.279  0.2018  0.8269  0.0870
  747TMC3    O211102   1.979   0.095  11.045  0.3780 -0.1578 -0.0914
  748MPD2     C11103   2.903   1.071   1.276 -0.7196  0.4288  0.3303
  748MPD2    C111104   2.948   1.052   1.143  0.7134  0.9548 -0.0289
  748MPD2    C211105   3.081   1.091   1.113 -0.1395 -0.0150 -0.9193
  748MPD2    C311106   3.166   1.145   1.209  0.1442  0.3882 -0.2166
  748MPD2    C411107   3.119   1.160   1.338 -0.6030  0.1785  0.7180
  748MPD2    C511108   2.987   1.130   1.367  0.3725  0.9733  0.1914
  748MPD2     H11109   3.114   1.059   1.015 -0.0436  1.1267 -1.2543
  748MPD2    H111110   3.178   1.200   1.420 -2.5645  0.8910  1.7593
  748MPD2    H211111   2.798   1.070   1.302 -0.9845 -0.0439 -0.7469
  748MPD2    H311112   2.950   1.142   1.468 -3.7986 -1.1276 -1.0847
  748MPD2     N11113   3.300   1.186   1.162  0.2505  0.5818  0.0474
  748MPD2    H511114   3.324   1.170   1.065  2.5309  0.8485  0.5711
  748MPD2    N111115   2.852   0.995   1.056  0.2222 -0.2482  0.2247
  748MPD2    H711116   2.761   0.975   1.095 -0.1323 -1.4673 -1.2322
  749TMC3    C111117   3.524   1.271   1.187  0.3888 -0.6114 -0.1046
  749TMC3    C211118   3.619   1.319   1.272 -0.1332  0.5022 -0.2292
  749TMC3    C311119   3.739   1.362   1.223 -0.3885 -0.3985 -0.3469
  749TMC3    C411120   3.545   1.267   1.053 -0.4924 -0.4532 -0.5467
  749TMC3    C511121   3.662   1.322   1.007  0.3974  0.4294  0.3221
  749TMC3    C611122   3.765   1.370   1.092 -0.0167  0.2116 -0.2064
  749TMC3     C11123   3.393   1.242   1.243  0.5472  0.3378 -0.9265
  749TMC3     O11124   3.384   1.267   1.363  0.1813 -0.4276  0.3411
  749TMC3     H11125   3.605   1.310   1.379  0.8905 -2.0172 -0.3063
  749TMC3    H111126   3.455   1.263   0.992  0.4378 -0.7282 -1.8977
  749TMC3    H211127   3.864   1.398   1.059  0.8094  0.0135  2.0943
  749TMC3    C711128   3.678   1.353   0.867  0.0337  0.3406 -0.2198
  749TMC3    C811129   3.846   1.400   1.313  0.2862 -0.5584  0.1059
  749TMC3    O111130   3.769   1.432   0.854  0.3631  0.1634  0.4574
  749TMC3    O211131   3.828   1.498   1.389  0.4471 -0.0692 -0.3873
  750MPD2     C11132   4.471   2.566  11.624  0.3594 -0.1391  0.3037
  750MPD2    C111133   4.387   2.465  11.672 -0.8931 -0.3433 -0.6050
  750MPD2    C211134   4.357   2.360  11.580  0.0213  0.2696  0.4945
  750MPD2    C311135   4.416   2.350  11.455  0.3230  0.0385 -0.1023
  750MPD2    C411136   4.503   2.449  11.419  0.3020  0.1130 -0.3596
  750MPD2    C511137   4.529   2.557  11.498 -0.0369  0.1643 -0.1891
  750MPD2     H11138   4.292   2.283  11.618  0.7702 -0.4885  0.2280
  750MPD2    H111139   4.560   2.456  11.327  1.7958  2.3975  0.7531
  750MPD2    H211140   4.520   2.638  11.689 -0.7542 -2.3042  3.5703
  750MPD2    H311141   4.593   2.637  11.462  0.2397  0.2932  0.5790
  750MPD2     N11142   4.392   2.252  11.363  0.0713  0.1153 -0.6519
  750MPD2    H511143   4.444   2.253  11.276 -0.6476 -1.2689 -1.1059
  750MPD2    N111144   4.334   2.476  11.802 -0.0389 -0.3753  0.1797
  750MPD2    H711145   4.347   2.566  11.848  1.7838 -0.1942 -0.6696
  751TMC3    C111146   4.321   2.046  11.275 -0.0328  0.5116  0.4769
  751TMC3    C211147   4.222   1.955  11.285 -0.0398 -0.0824 -0.2095
  751TMC3    C311148   4.265   1.829  11.298  0.3889 -0.2566 -0.4759
  751TMC3    C411149   4.455   2.006  11.253 -0.1161  0.2616  0.3362
  751TMC3    C511150   4.485   1.876  11.255 -0.2096  0.7431  0.5233
  751TMC3    C611151   4.388   1.784  11.276 -0.1935  0.0225 -0.5517
  751TMC3     C11152   4.301   2.150  11.381  0.3852  0.0415  0.0145
  751TMC3     O11153   4.231   2.119  11.477 -0.5993 -0.9521  0.0315
  751TMC3     H11154   4.116   1.978  11.284 -0.6881 -3.1328 -1.3727
  751TMC3    H111155   4.529   2.085  11.260 -2.4116  2.3075  1.5046
  751TMC3    H211156   4.418   1.683  11.249 -0.7878 -0.6120  1.1259
  751TMC3    C711157   4.613   1.839  11.201  0.1188 -0.2674  0.6436
  751TMC3    C811158   4.168   1.715  11.305 -0.4310 -0.1896 -0.7961
  751TMC3    O111159   4.682   1.925  11.151  0.4826 -0.1546 -0.1900
  751TMC3    O211160   4.207   1.608  11.261 -0.6833 -0.1810  0.2424
  752TMC3    C111161   2.576   2.259  17.344  0.7788 -0.0160 -0.5217
  752TMC3    C211162   2.604   2.154  17.421 -0.5845 -0.9182  0.8185
  752TMC3    C311163   2.525   2.142  17.530  0.1149  0.2041 -0.1717
  752TMC3    C411164   2.475   2.353  17.377  0.0556 -0.8626  0.3276
  752TMC3    C511165   2.391   2.333  17.482  0.8210  0.1969  0.0059
  752TMC3    C611166   2.421   2.227  17.563 -0.7358  0.2953 -0.2420
  752TMC3     C11167   2.625   2.255  17.217  0.0873  0.4026 -0.6138
  752TMC3     O11168   2.739   2.215  17.211 -0.2199 -0.1693 -0.2572
  752TMC3     H11169   2.680   2.082  17.392  1.7704  1.7732  0.2926
  752TMC3    H111170   2.452   2.439  17.316 -3.8540  0.1353  3.2420
  752TMC3    H211171   2.382   2.232  17.664  1.2681  1.1326  0.4977
  752TMC3    C711172   2.357   2.453  17.562 -0.4515 -0.2237  0.3038
  752TMC3    C811173   2.524   2.027  17.615 -0.2300 -0.1921 -0.3885
  752TMC3    O111174   2.259   2.459  17.633 -0.2251 -0.4359 -0.1945
  752TMC3    O211175   2.413   1.982  17.634  0.2504 -0.2790  0.5785
  753TMC3    C111176   0.206   3.202  13.350  0.4653  0.0974 -0.4780
  753TMC3    C211177   0.255   3.161  13.474  0.0639  0.3714 -0.3125
  753TMC3    C311178   0.244   3.031  13.503  0.7065  0.1545 -0.1846
  753TMC3    C411179   0.139   3.117  13.262 -0.4095  0.0912  0.3609
  753TMC3    C511180   0.133   2.982  13.292 -0.4336 -0.1215 -0.3389
  753TMC3    C611181   0.185   2.938  13.415 -0.2003 -0.0310 -0.3746
  753TMC3     C11182   0.210   3.350  13.344  0.2996  0.2355 -0.6755
  753TMC3     O11183   0.272   3.415  13.426 -0.1472  0.1620  0.0301
  753TMC3     H11184   0.328   3.218  13.531  1.8282 -1.2736 -0.9089
  753TMC3    H111185   0.103   3.154  13.167 -2.8432  1.0632  1.6401
  753TMC3    H211186   0.173   2.832  13.434  0.4425 -0.0192  0.1126
  753TMC3    C711187   0.029   2.914  13.214  0.2525  0.4725 -0.1778
  753TMC3    C811188   0.279   2.969  13.637  0.2103 -0.3047 -0.6734
  753TMC3    O111189   4.723   2.963  13.113  0.3723  0.0402  0.0308
  753TMC3    O211190   0.274   2.846  13.643 -0.2736 -0.0696 -0.9275
  754MPD2     C11191   4.182   1.873  13.257  0.3224 -0.1671  0.3053
  754MPD2    C111192   4.204   1.739  13.217  0.2677 -0.1163 -1.0184
  754MPD2    C211193   4.088   1.658  13.193 -0.7314  0.2129  0.5444
  754MPD2    C311194   3.959   1.704  13.211 -0.8672 -0.2572  0.0520
  754MPD2    C411195   3.946   1.833  13.247  0.8329 -0.4486  0.4252
  754MPD2    C511196   4.054   1.919  13.260 -0.7864  0.1612 -0.0582
  754MPD2     H11197   4.105   1.560  13.151 -0.0219  0.8330 -0.6301
  754MPD2    H111198   3.854   1.884  13.272 -0.2359 -2.4750  0.5485
  754MPD2    H211199   4.256   1.947  13.285 -0.6461  0.7959  0.2968
  754MPD2    H311200   4.047   2.025  13.279  0.2092  0.2373 -0.1382
  754MPD2     N11201   3.846   1.631  13.212 -0.2169 -0.4086  0.0172
  754MPD2    H511202   3.760   1.676  13.243  0.2052  0.0763  0.4720
  754MPD2    N111203   4.343   1.700  13.219  0.0197 -0.2459 -0.4267
  754MPD2    H711204   4.409   1.777  13.224  0.9647 -1.0070 -1.1228
  755MPD2     C11205   3.191   1.666  13.905  0.4129 -0.6885 -0.5808
  755MPD2    C111206   3.184   1.707  13.769 -0.1807  0.2248  0.2011
  755MPD2    C211207   3.255   1.633  13.673 -0.3220  0.0701 -0.0983
  755MPD2    C311208   3.329   1.522  13.710  0.4319  0.2423  0.9729
  755MPD2    C411209   3.338   1.476  13.845  0.8639  0.4316 -0.4734
  755MPD2    C511210   3.267   1.555  13.935 -0.4631  0.5945  0.0397
  755MPD2     H11211   3.238   1.653  13.567 -2.3110 -0.6948  0.0913
  755MPD2    H111212   3.408   1.399  13.875  0.6696  0.0447 -1.0097
  755MPD2    H211213   3.142   1.720  13.985 -0.0181 -0.5810 -0.9130
  755MPD2    H311214   3.281   1.524  14.037  0.0560  1.3224  0.1874
  755MPD2     N11215   3.423   1.465  13.616 -0.2974 -0.8991  0.2992
  755MPD2    H511216   3.479   1.387  13.649  2.0241  0.4456 -0.5379
  755MPD2    N111217   3.104   1.818  13.726  0.6343  0.2636  0.3747
  755MPD2    H711218   3.105   1.845  13.628  0.1922 -2.5843 -0.4088
  756MPD2     C11219   3.898   3.478   9.913 -0.2744 -0.7017 -0.6547
  756MPD2    C111220   3.845   3.354   9.956 -0.1040 -0.0046  0.3802
  756MPD2    C211221   3.767   3.284   9.864  0.1459  0.4272  0.7629
  756MPD2    C311222   3.726   3.326   9.740  0.3769  0.2304  0.2103
  756MPD2    C411223   3.760   3.457   9.708  0.3026  0.5085  0.2363
  756MPD2    C511224   3.848   3.526   9.787  0.1873  0.5971  0.4937
  756MPD2     H11225   3.750   3.179   9.886 -0.5971  0.1829 -1.0055
  756MPD2    H111226   3.729   3.509   9.619  0.0178  0.3277  0.2299
  756MPD2    H211227   3.966   3.540   9.970  0.5494  0.1565 -2.5585
  756MPD2    H311228   3.884   3.622   9.753 -0.6279  0.8185  0.2457
  756MPD2     N11229   3.649   3.238   9.667  0.4522 -0.2687  0.3323
  756MPD2    H511230   3.628   3.155   9.722  2.7011  1.5957  4.0477
  756MPD2    N111231   3.879   3.291  10.077  0.2319 -0.1378 -0.0874
  756MPD2    H711232   3.840   3.201  10.104 -1.5457  0.8511  0.6342
  757MPD2     C11233   3.324   2.523   9.916 -0.0864  0.6611 -0.0376
  757MPD2    C111234   3.447   2.577   9.886 -0.2027  0.3734 -0.8046
  757MPD2    C211235   3.453   2.676   9.797 -0.6265 -0.1630  0.1444
  757MPD2    C311236   3.339   2.731   9.738 -0.5343  0.8160  0.0600
  757MPD2    C411237   3.217   2.680   9.762 -0.5965  0.2149  0.3324
  757MPD2    C511238   3.213   2.570   9.847 -0.2646  0.7307 -0.0029
  757MPD2     H11239   3.548   2.721   9.771 -1.2843  1.2508  0.1504
  757MPD2    H111240   3.126   2.709   9.712 -0.0499  1.9640  0.3434
  757MPD2    H211241   3.314   2.444   9.990  1.2878  0.6380  0.1376
  757MPD2    H311242   3.119   2.517   9.862  0.0783 -0.4380 -2.0884
  757MPD2     N11243   3.359   2.846   9.658  0.3130  0.2896 -0.8722
  757MPD2    H511244   3.454   2.878   9.642 -0.2648  1.5635 -1.7540
  757MPD2    N111245   3.557   2.528   9.962  0.0729  0.1209 -0.1849
  757MPD2    H711246   3.532   2.443  10.011 -1.1972  1.4096  1.4129
  758MPD2     C11247   3.866   1.830  15.805 -0.4954  0.5334  0.5892
  758MPD2    C111248   3.870   1.728  15.902  0.1249 -0.3997  0.2472
  758MPD2    C211249   3.754   1.700  15.974 -0.3270 -0.2114  0.0495
  758MPD2    C311250   3.640   1.782  15.968  0.2514 -0.7177 -0.0531
  758MPD2    C411251   3.644   1.887  15.880  0.7582 -0.3314  0.4053
  758MPD2    C511252   3.750   1.898  15.788  0.2028  0.0140  0.2200
  758MPD2     H11253   3.758   1.608  16.030  1.7343 -0.8454 -1.1201
  758MPD2    H111254   3.565   1.961  15.879  0.6208 -0.4812  0.0623
  758MPD2    H211255   3.950   1.851  15.740 -0.1164  1.7952  1.4862
  758MPD2    H311256   3.749   1.986  15.724  1.3593 -0.1049  0.0283
  758MPD2     N11257   3.534   1.778  16.060 -0.2552 -0.0020  0.2679
  758MPD2    H511258   3.453   1.837  16.046 -2.3301 -2.3932  2.3049
  758MPD2    N111259   3.994   1.667  15.918  0.7755 -0.2358 -0.3520
  758MPD2    H711260   4.062   1.689  15.846 -0.9404  0.9278 -1.6145
  759MPD2     C11261   3.331   4.355  10.222 -0.7830  0.2685 -0.0890
  759MPD2    C111262   3.204   4.410  10.232  0.3652  0.5169  1.1250
  759MPD2    C211263   3.182   4.531  10.165 -0.3784  0.0657  0.5572
  759MPD2    C311264   3.276   4.574  10.071 -0.0226 -0.3717  0.0569
  759MPD2    C411265   3.401   4.522  10.057 -0.0012 -0.9536 -0.0615
  759MPD2    C511266   3.426   4.410  10.134  0.4463 -0.0852 -0.4414
  759MPD2     H11267   3.087   4.583  10.154 -0.6921 -0.0477  2.6340
  759MPD2    H111268   3.467   4.561   9.980  0.9562 -1.4506  0.4972
  759MPD2    H211269   3.367   4.265  10.271 -1.4849 -0.0924 -0.2272
  759MPD2    H311270   3.520   4.356  10.136 -1.4917 -3.4232  0.9382
  759MPD2     N11271   3.228   4.676   9.983  0.3818  0.1313  0.7224
  759MPD2    H511272   3.136   4.711  10.008  0.9088  0.6849  1.8397
  759MPD2    N111273   3.102   4.355  10.312 -0.0038  0.3365  0.0028
  759MPD2    H711274   3.014   4.405  10.303 -0.9924 -1.5261 -0.5545
  760MPD2     C11275   2.410   2.058  11.588  0.6963  0.2348  0.1543
  760MPD2    C111276   2.544   2.059  11.593  0.3905 -0.1377  0.3628
  760MPD2    C211277   2.615   1.963  11.677 -0.8431  0.1415  0.3169
  760MPD2    C311278   2.546   1.854  11.733  0.1208 -0.4780  0.2497
  760MPD2    C411279   2.410   1.846  11.717 -0.1686 -0.3128  0.0260
  760MPD2    C511280   2.345   1.950  11.653  0.2748 -0.7417 -0.1221
  760MPD2     H11281   2.723   1.970  11.685 -0.7200 -1.9706  0.4789
  760MPD2    H111282   2.349   1.766  11.758  2.2645 -2.0166  0.3175
  760MPD2    H211283   2.357   2.139  11.541 -1.2923 -1.6707 -0.8966
  760MPD2    H311284   2.238   1.944  11.637  0.1315  0.9662  0.2375
  760MPD2     N11285   2.609   1.752  11.816  0.4802  0.7494 -0.0113
  760MPD2    H511286   2.546   1.674  11.835 -0.4973  1.3329 -0.9191
  760MPD2    N111287   2.622   2.175  11.549 -0.3845 -0.4633  0.1077
  760MPD2    H711288   2.718   2.172  11.583  0.2858  1.2096 -1.6169
  761MPD2     C11289   3.696   1.531  11.378 -0.1551  0.7191 -0.2208
  761MPD2    C111290   3.799   1.479  11.299  0.2545  0.4693 -0.1240
  761MPD2    C211291   3.921   1.549  11.296  0.7262  0.6926  0.2771
  761MPD2    C311292   3.932   1.668  11.371 -0.0002 -0.1719 -0.2488
  761MPD2    C411293   3.825   1.714  11.453  0.0734  0.0207 -0.1297
  761MPD2    C511294   3.704   1.650  11.444 -0.0330 -0.1502  0.6325
  761MPD2     H11295   4.010   1.509  11.250  0.3189 -1.1376  1.0764
  761MPD2    H111296   3.837   1.785  11.534 -2.6267  0.2039  0.0916
  761MPD2    H211297   3.603   1.476  11.380 -0.5588  1.3647 -1.1880
  761MPD2    H311298   3.624   1.677  11.512  1.7296 -1.4934  3.2715
  761MPD2     N11299   4.052   1.743  11.372 -0.4916 -0.5033 -0.5765
  761MPD2    H511300   4.034   1.828  11.423  1.4855 -0.2183 -0.3832
  761MPD2    N111301   3.772   1.353  11.247  0.1967  0.6894 -0.1054
  761MPD2    H711302   3.681   1.309  11.261  1.1035 -0.5556  1.7147
  762MPD2     C11303   3.582   0.787  10.552 -0.0656  0.9418  0.3699
  762MPD2    C111304   3.690   0.860  10.604 -0.3720  0.0659  0.3622
  762MPD2    C211305   3.803   0.877  10.523 -0.5248 -0.6970  0.2758
  762MPD2    C311306   3.810   0.816  10.394  0.3464 -0.6452 -0.1035
  762MPD2    C411307   3.700   0.738  10.350 -0.4240  0.7059  0.2942
  762MPD2    C511308   3.597   0.720  10.435  0.0906 -0.0374 -0.1212
  762MPD2     H11309   3.871   0.960  10.541  1.0860 -2.2326  1.2848
  762MPD2    H111310   3.693   0.685  10.256 -0.3259  0.3457  0.4926
  762MPD2    H211311   3.494   0.764  10.612 -0.9865  0.2989 -1.2162
  762MPD2    H311312   3.513   0.659  10.405  1.6900 -1.4512 -1.6905
  762MPD2     N11313   3.931   0.817  10.320  0.8263  0.1903  0.5832
  762MPD2    H511314   4.009   0.878  10.343  1.3885 -0.9177  1.5571
  762MPD2    N111315   3.683   0.918  10.734  0.6775 -0.9623 -0.5050
  762MPD2    H711316   3.593   0.901  10.777 -0.6918  3.5121 -1.6604
  763MPD2     C11317   1.096   1.560  16.042 -0.5758 -0.0428  0.0895
  763MPD2    C111318   1.000   1.630  15.972  0.5857  0.6439  0.5612
  763MPD2    C211319   0.992   1.768  15.990  0.0069  0.3556  0.5106
  763MPD2    C311320   1.089   1.834  16.066  0.0984 -0.4091  0.3283
  763MPD2    C411321   1.186   1.763  16.130  0.5199 -0.7298  0.0290
  763MPD2    C511322   1.190   1.631  16.107  0.0142 -0.1881 -0.3446
  763MPD2     H11323   0.914   1.830  15.947 -2.6346 -1.5449  2.5427
  763MPD2    H111324   1.271   1.805  16.183  0.0235  2.8811 -2.0832
  763MPD2    H211325   1.093   1.452  16.038 -1.2721 -0.0371  0.3691
  763MPD2    H311326   1.272   1.577  16.153 -0.1179 -1.9808 -2.1987
  763MPD2     N11327   1.089   1.975  16.083  0.1336  0.0637  0.5352
  763MPD2    H511328   1.170   2.018  16.127  0.0178  0.5148  0.3107
  763MPD2    N111329   0.900   1.561  15.887 -0.0763  0.2531 -0.3237
  763MPD2    H711330   0.840   1.623  15.833  0.4762 -0.2251 -1.4746
  764MPD2     C11331   3.516   3.139  17.554  0.2005 -0.3867 -0.1676
  764MPD2    C111332   3.435   3.057  17.489 -0.1001  0.1912  0.4249
  764MPD2    C211333   3.382   2.940  17.557 -0.1597  0.0663 -0.6411
  764MPD2    C311334   3.418   2.913  17.689  0.1813 -0.4186  0.1861
  764MPD2    C411335   3.509   2.993   0.002 -0.0865  0.3958  0.6097
  764MPD2    C511336   3.552   3.108  17.682  0.4609 -0.8104  0.0133
  764MPD2     H11337   3.312   2.873  17.509  1.2900 -0.3666 -2.1550
  764MPD2    H111338   3.547   2.976   0.102 -1.3809  0.5358  1.1168
  764MPD2    H211339   3.540   3.239  17.520  1.1008 -0.0064  1.6203
  764MPD2    H311340   3.615   3.173  17.741  0.1491  0.5543 -1.1663
  764MPD2     N11341   3.355   2.806   0.006  0.2232  0.9074  0.0550
  764MPD2    H511342   3.286   2.753  17.700  0.5894  1.3081 -0.8372
  764MPD2    N111343   3.390   3.076  17.356 -0.5087 -0.1036  0.0476
  764MPD2    H711344   3.333   3.003  17.314  1.2656 -1.0025 -0.7734
  765MPD2     C11345   3.877   0.814  16.265  0.4176  0.4074  0.4354
  765MPD2    C111346   3.893   0.921  16.180 -0.6173 -0.0325  0.3420
  765MPD2    C211347   4.001   0.923  16.094  0.0101  0.0937 -0.1807
  765MPD2    C311348   4.095   0.823  16.095 -0.1288  0.2289 -0.3747
  765MPD2    C411349   4.079   0.717  16.172  0.4910  0.2702  0.1187
  765MPD2    C511350   3.974   0.716  16.255 -0.4410 -0.1548 -0.2999
  765MPD2     H11351   4.017   1.006  16.026 -1.4374  1.1562  0.7633
  765MPD2    H111352   4.152   0.638  16.182 -2.0033 -1.9512  0.6439
  765MPD2    H211353   3.796   0.813  16.337  0.3169  1.2492  0.3427
  765MPD2    H311354   3.962   0.639  16.331  0.0498 -0.1096 -0.1747
  765MPD2     N11355   4.206   0.812  16.011 -0.0085 -0.0084 -0.5023
  765MPD2    H511356   4.245   0.719  16.002  0.2881 -0.1561  2.4002
  765MPD2    N111357   3.784   1.017  16.180 -0.4083 -0.0016 -0.1551
  765MPD2    H711358   3.705   0.989  16.238 -0.3168  0.9337  0.4288
  766MPD2     C11359   2.985   1.078  15.872  0.6645  0.0376  0.1820
  766MPD2    C111360   3.113   1.024  15.884 -0.7659 -0.1254 -0.1572
  766MPD2    C211361   3.154   0.937  15.786  0.0648  0.2525 -0.1584
  766MPD2    C311362   3.088   0.908  15.667  0.0331  1.1797  0.7337
  766MPD2    C411363   2.959   0.952  15.662  0.0726 -1.1140 -0.2010
  766MPD2    C511364   2.906   1.033  15.765  0.4103 -0.4690 -0.3770
  766MPD2     H11365   3.256   0.902  15.794  0.2414  0.8843  0.3693
  766MPD2    H111366   2.895   0.922  15.580 -0.3407  1.1405 -0.6883
  766MPD2    H211367   2.934   1.143  15.942  0.2118  1.3030 -1.3490
  766MPD2    H311368   2.804   1.070  15.756  0.0225 -1.1076  1.2655
  766MPD2     N11369   3.148   0.852  15.550 -0.3883  0.2843  0.0657
  766MPD2    H511370   3.092   0.849  15.465  0.3528 -2.9615 -0.2817
  766MPD2    N111371   3.207   1.081  15.979  0.0946 -0.6470  0.4266
  766MPD2    H711372   3.166   1.153  16.038  1.3033  1.4702 -1.3333
  767MPD2     C11373   2.595   1.124  15.302  0.6970  0.3733  0.2368
  767MPD2    C111374   2.727   1.150  15.271  0.5403  0.2553  0.0623
  767MPD2    C211375   2.762   1.111  15.146 -0.9272  0.4784 -0.1272
  767MPD2    C311376   2.672   1.064  15.046  0.1131 -1.2560 -0.2659
  767MPD2    C411377   2.543   1.048  15.076 -0.4287  0.1782  0.5192
  767MPD2    C511378   2.512   1.080  15.206  0.3391 -0.4505  0.5934
  767MPD2     H11379   2.862   1.131  15.110 -1.5869  1.2117 -1.5570
  767MPD2    H111380   2.477   0.992  15.011 -2.8773  1.7756  1.6118
  767MPD2    H211381   2.560   1.123  15.404 -1.1549 -0.6988 -0.4034
  767MPD2    H311382   2.417   1.046  15.247 -0.1385 -2.4564 -2.1857
  767MPD2     N11383   2.727   1.029  14.923 -0.3266 -0.2744  0.6860
  767MPD2    H511384   2.822   1.061  14.910 -1.0319  2.1381  1.3623
  767MPD2    N111385   2.821   1.192  15.374  0.2425 -0.4923 -0.0761
  767MPD2    H711386   2.790   1.206  15.470  1.2374  0.1495  0.1481
  768MPD2     C11387   4.162   0.213  10.558  0.4519  0.1719 -0.6693
  768MPD2    C111388   4.115   0.108  10.640 -0.3717 -0.3660 -0.2790
  768MPD2    C211389   4.202   0.051  10.738 -0.2255 -0.2987 -0.2201
  768MPD2    C311390   4.330   0.100  10.744  0.3884 -0.2518 -0.0609
  768MPD2    C411391   4.382   0.195  10.659 -0.1529  0.4055 -0.7531
  768MPD2    C511392   4.294   0.247  10.569 -0.0091 -0.1100 -0.1150
  768MPD2     H11393   4.162   4.719  10.812 -3.1102  1.7901  0.1571
  768MPD2    H111394   4.479   0.241  10.671 -0.1404  0.0662  0.4853
  768MPD2    H211395   4.099   0.274  10.494 -0.7684 -0.8731 -0.4592
  768MPD2    H311396   4.337   0.325  10.508  0.5079  0.7430  1.3278
  768MPD2     N11397   4.427   0.043  10.828 -0.1140  0.0375  0.6240
  768MPD2    H511398   4.521   0.081  10.831 -0.7292  1.5839 -0.1361
  768MPD2    N111399   3.980   0.066  10.636  0.6553  0.6646  0.4650
  768MPD2    H711400   3.945   0.020  10.719 -0.9706 -1.8484 -1.6245
  769MPD2     C11401   0.166   2.350  14.974  0.4324 -0.0640  0.7219
  769MPD2    C111402   0.051   2.403  15.037 -0.1213  0.0326  0.2847
  769MPD2    C211403   0.061   2.501  15.134  0.3509 -0.5497  0.4479
  769MPD2    C311404   0.186   2.542  15.177 -1.2771  0.2066 -0.1690
  769MPD2    C411405   0.301   2.486  15.125 -0.6891  0.0880 -0.8272
  769MPD2    C511406   0.293   2.400  15.015  0.1455 -0.6383  0.0424
  769MPD2     H11407   4.715   2.561  15.170 -0.0057 -1.1873  0.6975
  769MPD2    H111408   0.399   2.515  15.160 -0.3262 -1.2801 -0.6850
  769MPD2    H211409   0.160   2.289  14.884  1.1280  0.1012  0.5585
  769MPD2    H311410   0.386   2.362  14.975  1.5845  0.9392  1.8706
  769MPD2     N11411   0.188   2.632  15.288  0.6869 -0.1545  0.5323
  769MPD2    H511412   0.108   2.641  15.350  2.2509 -0.2464  2.5454
  769MPD2    N111413   4.668   2.376  14.971  0.1417 -0.1442 -0.1435
  769MPD2    H711414   4.679   2.326  14.883 -0.9379 -0.0209 -0.3436
  770MPD2     C11415   4.349   1.570  14.580 -0.7636  0.8654  0.0567
  770MPD2    C111416   4.258   1.593  14.677  0.1729 -0.2211  0.0997
  770MPD2    C211417   4.234   1.724  14.717  0.2199  0.5646 -0.1103
  770MPD2    C311418   4.319   1.829  14.683  0.0398 -0.8301  0.0397
  770MPD2    C411419   4.426   1.797  14.597 -0.1284  0.2271  0.2697
  770MPD2    C511420   4.442   1.669  14.545  0.1845  0.6609  0.5514
  770MPD2     H11421   4.160   1.739  14.794 -0.3655  0.7294 -0.7064
  770MPD2    H111422   4.500   1.871  14.568 -0.5624  0.0685 -1.2245
  770MPD2    H211423   4.352   1.467  14.544 -0.4501  0.1556  2.1192
  770MPD2    H311424   4.526   1.633  14.486  0.8017  0.2065  1.7051
  770MPD2     N11425   4.306   1.955  14.745  0.2627 -0.0144  0.2652
  770MPD2    H511426   4.231   1.964  14.813  0.6065  0.0360  0.6361
  770MPD2    N111427   4.196   1.477  14.712  0.5720  0.1315  0.6755
  770MPD2    H711428   4.233   1.393  14.670  0.8375  1.0889 -0.9989
  771MPD2     C11429   1.002   0.492  13.773 -0.3366  1.0038 -0.0691
  771MPD2    C111430   0.960   0.608  13.715 -0.1970 -0.0640  0.0450
  771MPD2    C211431   0.865   0.604  13.613 -0.1593  0.3044  0.5251
  771MPD2    C311432   0.807   0.486  13.576  0.7640 -0.2917 -0.2594
  771MPD2    C411433   0.848   0.366  13.645  0.1091  0.2769 -0.7262
  771MPD2    C511434   0.948   0.374  13.740 -0.1093 -0.0043 -0.4561
  771MPD2     H11435   0.833   0.697  13.567 -1.1289 -1.0819 -1.5802
  771MPD2    H111436   0.803   0.272  13.615 -0.2443  0.7290 -1.6194
  771MPD2    H211437   1.074   0.493  13.853  1.0750  1.0460 -1.3432
  771MPD2    H311438   0.980   0.286  13.794 -2.2129  0.6138  1.8079
  771MPD2     N11439   0.709   0.492  13.471 -0.1875 -0.1435 -1.0598
  771MPD2    H511440   0.683   0.582  13.431 -1.7641 -0.7778 -1.4636
  771MPD2    N111441   1.004   0.733  13.758 -0.3488 -0.4624  0.3853
  771MPD2    H711442   0.959   0.812  13.714  0.9731 -0.1962 -0.4832
  772MPD2     C11443   0.773   1.289  13.529  0.3184  0.9411 -0.1697
  772MPD2    C111444   0.739   1.234  13.649 -0.2073  0.3812 -1.1167
  772MPD2    C211445   0.603   1.213  13.680  0.1782  0.5665  0.8543
  772MPD2    C311446   0.503   1.261  13.597 -0.5059  0.1699  0.7425
  772MPD2    C411447   0.534   1.333  13.487 -0.3728 -0.3038 -0.3288
  772MPD2    C511448   0.670   1.342  13.451 -0.0805  0.2135  0.2460
  772MPD2     H11449   0.577   1.152  13.766 -1.6104  0.6677  0.3818
  772MPD2    H111450   0.459   1.369  13.418 -1.6967 -0.6678  0.9221
  772MPD2    H211451   0.874   1.302  13.491  0.5155 -0.7547 -0.2106
  772MPD2    H311452   0.699   1.394  13.361 -0.1389 -1.1897 -0.5893
  772MPD2     N11453   0.360   1.241  13.621 -0.2124  0.0809  0.4444
  772MPD2    H511454   0.295   1.268  13.548 -0.3135 -0.5389  0.3100
  772MPD2    N111455   0.831   1.183  13.734  0.1091 -0.1909  0.2508
  772MPD2    H711456   0.795   1.141  13.819  0.1890  1.9498  1.3450
  773MPD2     C11457   4.196   1.436   0.211 -0.3452 -1.0358  0.4812
  773MPD2    C111458   4.172   1.395   0.078 -0.1335 -0.1953 -0.0732
  773MPD2    C211459   4.233   1.289   0.023  0.7817  0.3921 -0.0419
  773MPD2    C311460   4.323   1.212   0.101  0.1881 -0.2161  0.3962
  773MPD2    C411461   4.347   1.247   0.227 -0.3385 -0.0014 -0.0528
  773MPD2    C511462   4.285   1.358   0.284 -0.0036 -0.0372  0.5043
  773MPD2     H11463   4.211   1.260  17.668 -0.6754  1.0497  0.0887
  773MPD2    H111464   4.407   1.183   0.292 -0.2938 -0.1120 -0.2026
  773MPD2    H211465   4.155   1.520   0.266 -0.1918  0.4689 -1.6746
  773MPD2    H311466   4.312   1.392   0.383 -0.9233  1.6408  0.1755
  773MPD2     N11467   4.382   1.098   0.039 -0.5489  0.2233 -0.6041
  773MPD2    H511468   4.356   1.070  17.692  0.0680 -1.0863 -0.3845
  773MPD2    N111469   4.064   1.454   0.009 -0.2463 -0.1575  0.2259
  773MPD2    H711470   4.032   1.410  17.670 -0.0462  2.3825 -1.1732
  774MPD2     C11471   4.082   0.651  13.009 -0.2219 -0.3853 -0.8627
  774MPD2    C111472   4.037   0.689  13.136  0.2972 -0.5905  0.2815
  774MPD2    C211473   4.078   0.806  13.191  0.2743 -0.4804  0.3051
  774MPD2    C311474   4.137   0.903  13.116 -0.4788  0.3148 -0.1998
  774MPD2    C411475   4.177   0.871  12.989  0.7888 -0.4924  0.4218
  774MPD2    C511476   4.158   0.744  12.935 -0.1995  0.6910 -0.2931
  774MPD2     H11477   4.056   0.844  13.290 -0.8904 -0.1513 -0.0761
  774MPD2    H111478   4.228   0.945  12.928  0.0758 -0.1767  0.2121
  774MPD2    H211479   4.073   0.552  12.966  1.5590  0.2112 -2.6053
  774MPD2    H311480   4.199   0.714  12.840 -1.1902 -2.7483  0.3680
  774MPD2     N11481   4.157   1.023  13.190  0.3406 -0.1829 -0.1216
  774MPD2    H511482   4.124   1.026  13.285  0.2604  0.0043 -0.1560
  774MPD2    N111483   3.984   0.593  13.217 -0.0629  0.2271 -0.1170
  774MPD2    H711484   3.995   0.495  13.193  1.2602  0.3443 -0.0084
  775MPD2     C11485   0.287   2.311  15.600  0.3033  0.0988 -0.1135
  775MPD2    C111486   0.309   2.374  15.718 -0.3345 -0.4407 -0.5964
  775MPD2    C211487   0.404   2.474  15.725  0.6339  0.5388 -0.3050
  775MPD2    C311488   0.479   2.513  15.616  0.3704  0.1765  0.3884
  775MPD2    C411489   0.443   2.458  15.494 -0.1535  0.0788  0.2040
  775MPD2    C511490   0.358   2.355  15.492 -0.3732  0.2113 -0.3000
  775MPD2     H11491   0.429   2.522  15.819 -0.7300 -2.2761  1.4838
  775MPD2    H111492   0.482   2.498  15.401  0.2990 -1.4420 -0.2558
  775MPD2    H211493   0.221   2.225  15.598  0.7717 -0.2937  1.0809
  775MPD2    H311494   0.334   2.323  15.391  2.9763  0.9290 -1.3468
  775MPD2     N11495   0.585   2.603  15.618  0.3908 -0.7225 -0.3278
  775MPD2    H511496   0.613   2.631  15.525  0.9538  3.1750  0.9883
  775MPD2    N111497   0.216   2.345  15.828  0.4068  0.0026  0.1286
  775MPD2    H711498   0.134   2.291  15.805  0.2437  0.0225  0.6587
  776MPD2     C11499   3.609   2.590  11.762  0.1930  0.4360 -0.6869
  776MPD2    C111500   3.737   2.645  11.776  0.5733 -1.1851 -0.3689
  776MPD2    C211501   3.786   2.729  11.677 -0.0566 -0.5127 -0.1908
  776MPD2    C311502   3.711   2.755  11.565 -0.2229  0.4815 -0.7697
  776MPD2    C411503   3.583   2.693  11.547  0.5619  0.0743 -0.0214
  776MPD2    C511504   3.538   2.613  11.648 -0.4472 -0.2767 -0.1693
  776MPD2     H11505   3.886   2.770  11.689 -0.4375  0.1752  0.6221
  776MPD2    H111506   3.534   2.710  11.452  1.3958 -0.5992 -0.5815
  776MPD2    H211507   3.564   2.526  11.836 -1.2532  2.3507  0.0798
  776MPD2    H311508   3.442   2.565  11.636 -1.1960  0.4161  3.0095
  776MPD2     N11509   3.767   2.824  11.453  0.1425  0.7736  0.3026
  776MPD2    H511510   3.719   2.804  11.365  0.1484  0.5811  0.3425
  776MPD2    N111511   3.807   2.609  11.891 -0.2722  0.6587 -0.0757
  776MPD2    H711512   3.762   2.536  11.945  1.2183  0.5892  1.0981
  777MPD2     C11513   4.574   0.347   0.861 -0.2663 -0.1845  0.6733
  777MPD2    C111514   4.477   0.423   0.928  0.8197 -0.8011  0.5900
  777MPD2    C211515   4.340   0.390   0.901  0.8454 -0.4426  0.7822
  777MPD2    C311516   4.307   0.299   0.801 -0.0354 -0.4833  0.0642
  777MPD2    C411517   4.411   0.234   0.738 -0.5165  0.3300 -0.8113
  777MPD2    C511518   4.541   0.251   0.772  0.3998 -0.0885  0.0448
  777MPD2     H11519   4.262   0.446   0.951 -0.2200 -1.1583 -0.0759
  777MPD2    H111520   4.394   0.156   0.665 -0.7842 -0.3298 -0.0478
  777MPD2    H211521   4.680   0.368   0.867 -0.7294  1.9755  1.1632
  777MPD2    H311522   4.624   0.195   0.730 -0.7907 -2.4965  0.9623
  777MPD2     N11523   4.171   0.280   0.770 -0.1923 -0.1082 -0.5465
  777MPD2    H511524   4.106   0.317   0.839 -0.3502 -0.3357 -0.5728
  777MPD2    N111525   4.524   0.511   1.034  0.0244  0.7552 -0.0770
  777MPD2    H711526   4.624   0.526   1.035  0.1432  0.0188 -0.5475
  778MPD2     C11527   0.885   0.485  14.157  0.5723  0.4093  0.3855
  778MPD2    C111528   0.921   0.470  14.290 -0.0939  0.4587 -0.7723
  778MPD2    C211529   1.017   0.553  14.348  0.9733 -0.8602 -0.2581
  778MPD2    C311530   1.076   0.654  14.271 -0.2909 -0.1214  0.3486
  778MPD2    C411531   1.016   0.683  14.153 -0.1370 -0.3012  0.1668
  778MPD2    C511532   0.924   0.599  14.090 -0.2906  0.3436 -0.0761
  778MPD2     H11533   1.052   0.521  14.446 -0.1589 -2.5911 -0.4312
  778MPD2    H111534   1.054   0.764  14.092 -0.2365 -0.3363  0.0607
  778MPD2    H211535   0.811   0.419  14.112  2.1450  0.0381 -1.6301
  778MPD2    H311536   0.895   0.617  13.987  0.3906  1.3375 -0.1012
  778MPD2     N11537   1.186   0.722  14.316  0.6929 -0.6883 -0.6091
  778MPD2    H511538   1.211   0.698  14.411 -0.8499  0.0836 -0.0046
  778MPD2    N111539   0.861   0.369  14.371 -0.8220 -0.2746 -0.2673
  778MPD2    H711540   0.894   0.355  14.466  0.3227 -2.1188 -0.9377
  779MPD2     C11541   0.316   4.040  14.404 -0.1339  0.1169 -0.3653
  779MPD2    C111542   0.391   3.967  14.316 -0.1662 -0.1766  0.1844
  779MPD2    C211543   0.463   4.042  14.225 -0.3139  0.0203 -0.1893
  779MPD2    C311544   0.463   4.179  14.224  0.0929 -0.2809 -0.6791
  779MPD2    C411545   0.382   4.250  14.309 -0.2093  0.2617 -0.2139
  779MPD2    C511546   0.311   4.176  14.395  0.1113 -0.4768  1.1635
  779MPD2     H11547   0.518   3.985  14.151  2.3583  0.4465  1.4927
  779MPD2    H111548   0.385   4.357  14.321 -0.7289  0.2223  0.2358
  779MPD2    H211549   0.251   3.997  14.479  1.0806 -0.0948  0.5634
  779MPD2    H311550   0.247   4.233  14.462 -1.4052 -1.5453  0.6211
  779MPD2     N11551   0.554   4.252  14.140 -0.0360 -0.0097 -0.2829
  779MPD2    H511552   0.646   4.209  14.130 -0.1300 -0.5020  0.9531
  779MPD2    N111553   0.388   3.828  14.315 -0.6579  0.4897 -0.2337
  779MPD2    H711554   0.444   3.786  14.241  1.6884  0.5477  1.4957
  780MPD2     C11555   4.594   3.483   1.292  0.2286 -0.2067 -0.5589
  780MPD2    C111556   4.490   3.498   1.198 -0.1795  0.0651 -0.1560
  780MPD2    C211557   4.516   3.547   1.078 -0.3688 -0.2041  0.2671
  780MPD2    C311558   4.640   3.596   1.044 -0.0596  0.0242 -0.7629
  780MPD2    C411559   0.003   3.589   1.143 -0.3047  0.7658  0.2687
  780MPD2    C511560   4.713   3.538   1.264 -0.5254  0.0226  0.3941
  780MPD2     H11561   4.432   3.557   1.010 -1.3430 -1.4375  1.2970
  780MPD2    H111562   0.106   3.618   1.123  0.4299  0.1050  3.1881
  780MPD2    H211563   4.580   3.429   1.385  1.3220  0.0406 -0.2484
  780MPD2    H311564   0.057   3.521   1.334 -1.2398 -0.0498  1.2151
  780MPD2     N11565   4.657   3.642   0.909  0.1758 -0.1392  0.6626
  780MPD2    H511566   4.573   3.650   0.852  0.2319  0.0831  0.6097
  780MPD2    N111567   4.369   3.435   1.236 -0.2697 -0.1399 -0.0675
  780MPD2    H711568   4.377   3.373   1.315 -2.7470  1.1291  1.1511
  781MPD2     C11569   2.008   0.664  12.056  0.0087 -0.3760 -0.3767
  781MPD2    C111570   2.059   0.773  12.125 -0.2152  0.2770  0.8000
  781MPD2    C211571   2.137   0.868  12.064  0.1258 -0.2359  0.3449
  781MPD2    C311572   2.172   0.848  11.933 -1.4136 -0.3400  0.2257
  781MPD2    C411573   2.126   0.736  11.866 -0.0479  0.1154  0.1817
  781MPD2    C511574   2.040   0.654  11.926 -0.3097  0.5106 -0.1142
  781MPD2     H11575   2.172   0.957  12.116 -2.2503  1.1742 -0.4802
  781MPD2    H111576   2.158   0.712  11.765  0.9895 -2.4482  1.1218
  781MPD2    H211577   1.951   0.582  12.097  0.6144 -1.1367 -1.0416
  781MPD2    H311578   1.996   0.574  11.866 -0.7317 -0.1388  1.0523
  781MPD2     N11579   2.258   0.935  11.861  0.0636 -0.5492 -0.2695
  781MPD2    H511580   2.269   0.915  11.762 -1.5067 -0.0267 -0.5487
  781MPD2    N111581   2.025   0.792  12.265  0.0764 -0.4949  0.2630
  781MPD2    H711582   2.042   0.882  12.307 -4.8640  0.9863 -0.8115
  782MPD2     C11583   4.722   1.937  10.491  0.5546  0.5375 -0.3922
  782MPD2    C111584   0.114   1.983  10.507 -0.4061 -0.1170 -0.2301
  782MPD2    C211585   0.139   2.116  10.503  0.3758 -0.3128  0.6358
  782MPD2    C311586   0.039   2.208  10.481 -0.1452 -0.6431 -0.3448
  782MPD2    C411587   4.647   2.161  10.449 -0.1533 -0.3467  0.1210
  782MPD2    C511588   4.621   2.030  10.472 -0.2628  0.1937  0.0748
  782MPD2     H11589   0.239   2.158  10.504  1.3343 -2.5321 -2.7253
  782MPD2    H111590   4.565   2.223  10.416  0.8833  0.3447 -1.1137
  782MPD2    H211591   4.697   1.831  10.495  0.2481  0.6860  1.9362
  782MPD2    H311592   4.520   1.993  10.456 -0.3054 -0.5296  2.0667
  782MPD2     N11593   0.080   2.345  10.503  0.2227  0.2064 -0.5061
  782MPD2    H511594   0.178   2.364  10.521  0.0621  0.2540  0.3173
  782MPD2    N111595   0.207   1.876  10.521 -0.0445  0.4729  0.3497
  782MPD2    H711596   0.180   1.781  10.545 -0.6483  1.0010  1.7478
  783MPD2     C11597   0.041   1.511  11.257 -0.5066  0.3090 -0.0474
  783MPD2    C111598   0.025   1.639  11.207 -0.2706  0.2678  0.4662
  783MPD2    C211599   0.120   1.676  11.115  0.5735  0.0685 -0.0835
  783MPD2    C311600   0.217   1.590  11.059  1.0187  0.5276  0.2593
  783MPD2    C411601   0.222   1.463  11.105 -0.6173  0.6999  0.7393
  783MPD2    C511602   0.140   1.431  11.209 -0.0259 -0.7839  0.2239
  783MPD2     H11603   0.123   1.774  11.069 -2.4555  0.3806  0.4004
  783MPD2    H111604   0.289   1.385  11.069 -0.8878  0.5219  0.6192
  783MPD2    H211605   4.711   1.480  11.335  1.8437  2.0747  2.6981
  783MPD2    H311606   0.138   1.327  11.239  0.2117 -0.2523  2.0666
  783MPD2     N11607   0.293   1.635  10.947  0.1764  0.3525 -0.5197
  783MPD2    H511608   0.267   1.726  10.909 -0.6402  0.0914 -0.5892
  783MPD2    N111609   4.652   1.712  11.248  0.4073 -0.6213  0.2149
  783MPD2    H711610   4.589   1.663  11.311 -4.0039  0.2445 -3.5146
  784MPD2     C11611   1.578   1.922   0.376  0.0039  0.3076  0.0842
  784MPD2    C111612   1.642   2.029   0.449 -0.6214  0.3191 -0.2646
  784MPD2    C211613   1.582   2.158   0.452  0.0214 -0.0290 -0.0376
  784MPD2    C311614   1.465   2.175   0.382  0.5733  0.2509  0.4393
  784MPD2    C411615   1.417   2.078   0.304  0.2382 -0.1516  0.1211
  784MPD2    C511616   1.472   1.953   0.294  1.0126  0.3333  0.2138
  784MPD2     H11617   1.635   2.237   0.502 -0.1743 -0.8584  1.4688
  784MPD2    H111618   1.323   2.092   0.251 -0.7357 -1.7533  1.4431
  784MPD2    H211619   1.623   1.824   0.365 -0.9872 -0.0771 -0.5508
  784MPD2    H311620   1.428   1.873   0.236 -0.2760  0.5726  0.8536
  784MPD2     N11621   1.407   2.298   0.401  0.0107  0.3206  0.2030
  784MPD2    H511622   1.459   2.364   0.458  1.7083 -1.3917  0.6051
  784MPD2    N111623   1.771   2.015   0.513 -0.3747  0.2958  0.2807
  784MPD2    H711624   1.804   2.099   0.559 -0.7973  1.6468 -1.8890
  785MPD2     C11625   3.046   1.418  11.146  0.1915  0.2825 -0.2962
  785MPD2    C111626   2.935   1.437  11.223 -0.3748  0.2826 -0.1726
  785MPD2    C211627   2.831   1.351  11.199 -0.0547 -1.2635 -0.4334
  785MPD2    C311628   2.833   1.255  11.090  0.4687 -0.0252  0.2982
  785MPD2    C411629   2.949   1.245  11.017 -0.0456 -0.3549  0.3888
  785MPD2    C511630   3.051   1.325  11.049 -0.2428 -0.0432 -0.0080
  785MPD2     H11631   2.742   1.359  11.260  0.0481 -1.7173 -0.2189
  785MPD2    H111632   2.959   1.164  10.945 -2.4789 -0.7330  0.4809
  785MPD2    H211633   3.134   1.480  11.155 -0.0740  0.6064  0.0821
  785MPD2    H311634   3.141   1.310  10.990  0.7358 -1.2259  1.8008
  785MPD2     N11635   2.727   1.158  11.083 -0.2323 -0.0599 -0.1529
  785MPD2    H511636   2.656   1.172  11.154  1.8222 -0.1702  1.9125
  785MPD2    N111637   2.926   1.539  11.318 -0.4652 -0.1967  0.4667
  785MPD2    H711638   3.005   1.603  11.320 -0.6965  0.0931  0.2322
  786MPD2     C11639   0.908   3.238  15.002 -0.2199 -0.4974  0.1306
  786MPD2    C111640   1.029   3.271  14.939 -0.1237  0.1488 -0.4686
  786MPD2    C211641   1.127   3.340  15.015  0.2262  0.3268  0.2403
  786MPD2    C311642   1.106   3.381  15.144 -0.9643  0.4049 -0.0711
  786MPD2    C411643   0.983   3.349  15.200  0.7364 -0.4286 -0.8003
  786MPD2    C511644   0.885   3.283  15.130  0.1831 -0.1172 -0.4598
  786MPD2     H11645   1.214   3.362  14.954  0.0016  1.7108  0.4119
  786MPD2    H111646   0.963   3.355  15.306 -1.8029 -3.1544 -1.1151
  786MPD2    H211647   0.824   3.188  14.955 -0.1680 -2.3145  1.9481
  786MPD2    H311648   0.786   3.260  15.170  0.9938 -2.7332  0.0377
  786MPD2     N11649   1.208   3.449  15.221  0.4130 -0.0680 -0.5053
  786MPD2    H511650   1.192   3.484  15.316  0.5343  0.4457 -0.6750
  786MPD2    N111651   1.062   3.242  14.811 -0.5977 -0.3618 -0.3219
  786MPD2    H711652   1.154   3.270  14.778 -1.3054  0.1446 -1.8756
  787MPD2     C11653   1.431   2.741  14.802  0.3882 -0.1799  0.5214
  787MPD2    C111654   1.428   2.785  14.671 -0.1991 -0.3133  0.0167
  787MPD2    C211655   1.511   2.718  14.580  0.5855  0.2064 -0.7929
  787MPD2    C311656   1.585   2.610  14.619  0.2572  0.2625 -0.2129
  787MPD2    C411657   1.594   2.575  14.750 -0.2363  0.2846 -0.4784
  787MPD2    C511658   1.520   2.640  14.841 -0.3908 -0.2759 -0.2104
  787MPD2     H11659   1.514   2.752  14.477 -0.4430 -0.6488 -1.0983
  787MPD2    H111660   1.647   2.486  14.785  1.2538  1.9374  1.4898
  787MPD2    H211661   1.364   2.793  14.869  0.5082  2.3007 -1.2547
  787MPD2    H311662   1.514   2.618  14.947  3.6369  0.7804  0.2409
  787MPD2     N11663   1.661   2.545  14.520 -0.3772 -0.3617  0.0068
  787MPD2    H511664   1.647   2.590  14.430 -0.0058 -1.6209 -0.6786
  787MPD2    N111665   1.337   2.886  14.632  0.0096 -0.5084 -0.5389
  787MPD2    H711666   1.275   2.920  14.705  1.9139 -0.9390  1.2853
  788MPD2     C11667   3.029   1.777   0.875 -0.9545  0.2575 -0.3170
  788MPD2    C111668   2.915   1.788   0.792 -0.2969 -0.0574  0.8599
  788MPD2    C211669   2.896   1.908   0.724 -0.2824 -0.4466 -0.1012
  788MPD2    C311670   3.000   1.995   0.710 -0.3984  0.6643  0.1280
  788MPD2    C411671   3.116   1.979   0.781  0.3627  0.3114  0.0578
  788MPD2    C511672   3.129   1.875   0.871  0.2308 -0.6352 -0.5474
  788MPD2     H11673   2.808   1.926   0.663  0.5625  2.3781 -0.4801
  788MPD2    H111674   3.199   2.043   0.753 -1.6078  2.8441  0.0070
  788MPD2    H211675   3.054   1.688   0.933 -0.6354  0.6559  0.1550
  788MPD2    H311676   3.213   1.874   0.940  1.3047  2.4027 -1.7650
  788MPD2     N11677   2.997   2.091   0.611 -0.6270 -0.6778  0.4001
  788MPD2    H511678   2.906   2.115   0.574  0.0737 -0.9154 -1.4955
  788MPD2    N111679   2.831   1.674   0.766 -0.0937 -0.0361 -0.0609
  788MPD2    H711680   2.851   1.583   0.806  0.5261 -0.0316 -0.3566
  789MPD2     C11681   2.988   1.057  16.657 -0.3823 -0.3453 -0.3582
  789MPD2    C111682   2.860   1.102  16.700 -0.1254  0.3790 -0.0942
  789MPD2    C211683   2.836   1.238  16.708 -0.0778  0.4833 -0.3983
  789MPD2    C311684   2.935   1.327  16.667  0.3270 -1.3307 -0.2862
  789MPD2    C411685   3.063   1.287  16.633 -0.4339 -0.1001  0.4068
  789MPD2    C511686   3.087   1.151  16.630  0.4791 -0.7200  0.2242
  789MPD2     H11687   2.736   1.275  16.728  0.0641  0.1927  0.8647
  789MPD2    H111688   3.141   1.358  16.608 -0.3449  0.6414  2.7425
  789MPD2    H211689   3.021   0.954  16.652 -0.4333 -0.2127 -3.2901
  789MPD2    H311690   3.185   1.121  16.595 -0.1899 -1.1667 -1.2572
  789MPD2     N11691   2.895   1.458  16.659 -0.2463  0.4642  0.5566
  789MPD2    H511692   2.798   1.481  16.678 -0.7763 -1.6229  0.3901
  789MPD2    N111693   2.754   1.017  16.739  0.1543  0.2613  0.3248
  789MPD2    H711694   2.662   1.055  16.760 -1.2465 -1.9499 -1.9069
  790MPD2     C11695   4.628   2.878  13.737 -0.4376  0.0728  0.2167
  790MPD2    C111696   4.578   2.763  13.677 -0.4783 -0.4864 -0.3927
  790MPD2    C211697   4.485   2.772  13.574 -0.3047 -0.7645 -0.3213
  790MPD2    C311698   4.451   2.898  13.533  0.1224  0.4050 -0.4987
  790MPD2    C411699   4.524   3.006  13.579 -0.1683 -0.2560 -0.0536
  790MPD2    C511700   4.614   2.997  13.680 -0.3668  0.6373  0.1609
  790MPD2     H11701   4.438   2.690  13.523  1.2164 -1.7639 -0.1103
  790MPD2    H111702   4.502   3.101  13.532  0.5672 -1.3778 -2.6492
  790MPD2    H211703   4.694   2.877  13.823 -0.8736 -0.1994  0.5498
  790MPD2    H311704   4.673   3.081  13.713 -1.4678  1.0389  1.1206
  790MPD2     N11705   4.358   2.902  13.428  0.8853 -0.2995  0.4125
  790MPD2    H511706   4.345   2.813  13.381 -0.4687  0.3608 -0.4663
  790MPD2    N111707   4.614   2.639  13.736 -0.3292 -0.4813 -0.2890
  790MPD2    H711708   4.684   2.642  13.810  0.9019 -0.2276 -1.4640
  791MPD2     C11709   3.646   3.196  12.890  0.6228 -0.5295 -0.3348
  791MPD2    C111710   3.698   3.114  12.993 -0.8957  0.1694  0.0915
  791MPD2    C211711   3.623   3.008  13.039 -0.3184 -0.5668 -0.0174
  791MPD2    C311712   3.503   2.970  12.973 -0.1741 -0.6251  0.6327
  791MPD2    C411713   3.455   3.050  12.873 -0.4761 -0.1511 -0.1133
  791MPD2    C511714   3.524   3.164  12.834 -0.0885 -0.1728 -0.0612
  791MPD2     H11715   3.671   2.941  13.111  0.0524 -1.1378 -0.7966
  791MPD2    H111716   3.362   3.024  12.824  0.0967 -1.0642 -0.7061
  791MPD2    H211717   3.710   3.272  12.846  0.0906 -0.4858 -1.0483
  791MPD2    H311718   3.490   3.219  12.747  1.3976  1.5291  0.4427
  791MPD2     N11719   3.447   2.846  13.011 -0.0579  0.5458 -0.0891
  791MPD2    H511720   3.495   2.792  13.083  1.1710  0.2513 -1.1310
  791MPD2    N111721   3.832   3.123  13.034 -0.2297 -0.5601  0.1207
  791MPD2    H711722   3.900   3.165  12.972 -1.1687 -1.4528 -1.5010
  792MPD2     C11723   4.271   2.749  11.467 -0.5362 -0.1406  0.3626
  792MPD2    C111724   4.257   2.768  11.332 -0.2813 -0.6222 -0.5711
  792MPD2    C211725   4.161   2.705  11.250 -0.4074  0.2353  0.2351
  792MPD2    C311726   4.075   2.615  11.306  1.2326 -0.6042  0.1953
  792MPD2    C411727   4.087   2.598  11.444  0.5416 -0.2159 -0.2809
  792MPD2    C511728   4.177   2.670  11.525 -0.5395 -0.2897  0.0908
  792MPD2     H11729   4.147   2.714  11.142 -0.9066  0.2680  0.3035
  792MPD2    H111730   4.009   2.536  11.488  0.1424  0.2187 -0.3793
  792MPD2    H211731   4.332   2.812  11.532  1.5958 -0.0314 -1.7651
  792MPD2    H311732   4.171   2.655  11.632  2.0113 -2.4731 -0.0802
  792MPD2     N11733   3.990   2.545  11.220 -0.3101 -0.1450  0.1449
  792MPD2    H511734   3.982   2.567  11.121 -0.5413 -0.5797  0.0695
  792MPD2    N111735   4.366   2.846  11.271  0.4070  0.3885  0.0756
  792MPD2    H711736   4.441   2.873  11.334 -1.6051  2.2974  1.6436
  793MPD2     C11737   3.530   2.880  10.592  0.6167 -0.2829 -0.0151
  793MPD2    C111738   3.662   2.874  10.619 -0.5475 -0.7603 -0.0453
  793MPD2    C211739   3.707   2.765  10.690  0.2769 -0.1962  0.6607
  793MPD2    C311740   3.628   2.680  10.756 -0.6044 -0.5839  0.1348
  793MPD2    C411741   3.494   2.685  10.728  0.2345  0.3295 -0.3215
  793MPD2    C511742   3.444   2.785  10.647  0.8160  0.2022 -0.5156
  793MPD2     H11743   3.811   2.773  10.722  0.8213 -0.0733 -1.1423
  793MPD2    H111744   3.433   2.606  10.769  2.9019 -0.9112  1.2678
  793MPD2    H211745   3.486   2.953  10.525  1.7299  1.1080  0.7849
  793MPD2    H311746   3.338   2.789  10.625  0.9387 -0.4067 -1.2479
  793MPD2     N11747   3.685   2.585  10.837  0.4072  0.2844  0.5139
  793MPD2    H511748   3.785   2.596  10.854  0.0515  0.9427  2.1844
  793MPD2    N111749   3.759   2.961  10.558  0.8847  1.0613 -0.2375
  793MPD2    H711750   3.854   2.934  10.582  1.3562  1.2647 -1.8672
  794MPD2     C11751   3.740   2.181  17.432 -0.8116  0.6078  0.2609
  794MPD2    C111752   3.721   2.070  17.355  0.9553 -0.1017  0.1625
  794MPD2    C211753   3.673   2.088  17.230 -0.3065  0.5908  0.2784
  794MPD2    C311754   3.637   2.211  17.176  0.2983 -0.1525  0.7411
  794MPD2    C411755   3.662   2.319  17.255  0.3828  0.6397  0.6728
  794MPD2    C511756   3.717   2.308  17.380  0.9641 -0.4039  0.2496
  794MPD2     H11757   3.660   2.006  17.160  0.0216  0.8809 -0.1209
  794MPD2    H111758   3.636   2.418  17.219  0.9151  0.3102 -0.6322
  794MPD2    H211759   3.771   2.180  17.536  0.2313 -1.1139 -0.0603
  794MPD2    H311760   3.740   2.389  17.448  2.7458 -1.2413  0.6422
  794MPD2     N11761   3.589   2.234  17.044  0.6646  0.0769 -0.1849
  794MPD2    H511762   3.603   2.329  17.011 -1.4054  0.1488 -0.8408
  794MPD2    N111763   3.742   1.937  17.402 -0.0832 -0.3509  0.1376
  794MPD2    H711764   3.716   1.862  17.340 -0.3621 -1.6374  1.8070
  795MPD2     C11765   1.744   4.433  13.794 -0.6515  0.3499  0.3539
  795MPD2    C111766   1.665   4.318  13.772 -0.3698  0.6055 -0.6688
  795MPD2    C211767   1.720   4.193  13.789  0.6771 -0.4393  0.5010
  795MPD2    C311768   1.858   4.179  13.820  0.1068 -0.6115  0.8787
  795MPD2    C411769   1.930   4.292  13.842 -0.3641  0.6375 -0.7210
  795MPD2    C511770   1.872   4.415  13.843 -0.3263 -0.4471 -0.1663
  795MPD2     H11771   1.659   4.106  13.769 -0.1614 -0.1326  1.7010
  795MPD2    H111772   2.033   4.279  13.873  0.5284  1.0018 -3.5098
  795MPD2    H211773   1.696   4.529  13.780  1.8019  1.3430 -1.2515
  795MPD2    H311774   1.944   4.495  13.855 -2.1741  1.2819 -0.6020
  795MPD2     N11775   1.924   4.060  13.853  0.2732  0.1509  0.2466
  795MPD2    H511776   2.018   4.063  13.891 -0.1473  0.3988  1.2707
  795MPD2    N111777   1.527   4.334  13.724  0.1885 -0.0125 -0.6355
  795MPD2    H711778   1.469   4.251  13.721  0.9929 -0.6669  1.9069
  796MPD2     C11779   1.133   0.752  15.858 -0.3840  0.7137  0.5474
  796MPD2    C111780   1.209   0.828  15.947 -0.0192  0.5332  0.1653
  796MPD2    C211781   1.242   0.958  15.910  0.2117  0.2351 -0.0587
  796MPD2    C311782   1.199   1.012  15.785 -0.4424 -0.2450  0.1484
  796MPD2    C411783   1.128   0.931  15.702 -0.8217 -0.1050  0.1000
  796MPD2    C511784   1.093   0.805  15.737 -0.6558 -0.2532 -0.0637
  796MPD2     H11785   1.306   1.017  15.975 -2.4714  1.9812  0.9703
  796MPD2    H111786   1.086   0.962  15.607 -0.7970 -0.6060 -0.0736
  796MPD2    H211787   1.107   0.657  15.902  1.4287  0.8675  1.9289
  796MPD2    H311788   1.032   0.747  15.669  1.5940  0.0458 -2.3056
  796MPD2     N11789   1.238   1.148  15.756 -0.2543  0.3751  0.5782
  796MPD2    H511790   1.280   1.195  15.836 -0.6042 -0.9825  1.5604
  796MPD2    N111791   1.240   0.772  16.069 -0.9614  0.0592  0.0465
  796MPD2    H711792   1.215   0.674  16.076 -2.8563  0.5375 -0.0308
  797MPD2     C11793   2.098   0.692  17.660 -0.9786 -0.2298  0.2636
  797MPD2    C111794   2.228   0.730  17.627  0.0229 -0.2904 -0.7775
  797MPD2    C211795   2.261   0.744  17.494  0.1215  0.4836  0.3220
  797MPD2    C311796   2.172   0.715  17.391  0.1068 -0.0058 -0.2365
  797MPD2    C411797   2.047   0.668  17.421 -0.2966 -0.1810 -0.0433
  797MPD2    C511798   2.012   0.654  17.557  0.7980  0.5501 -0.3335
  797MPD2     H11799   2.362   0.775  17.470  0.5619 -0.1181  1.4094
  797MPD2    H111800   1.976   0.645  17.342 -1.9117  1.4966  0.9427
  797MPD2    H211801   2.066   0.696   0.017  1.2967  2.0065  0.8768
  797MPD2    H311802   1.910   0.635  17.586  0.9977 -0.1922 -0.1065
  797MPD2     N11803   2.222   0.734  17.260  0.4030 -0.4842 -0.3969
  797MPD2    H511804   2.315   0.774  17.254 -0.4142  1.4191 -0.5368
  797MPD2    N111805   2.318   0.771  17.727 -0.0015  0.2420  0.0365
  797MPD2    H711806   2.411   0.796  17.696 -0.1009  0.1389 -0.3435
  798MPD2     C11807   2.459   1.367  17.351 -0.6228  0.4642  0.4248
  798MPD2    C111808   2.436   1.234  17.353 -0.4286 -0.1559 -0.3707
  798MPD2    C211809   2.450   1.168  17.477  0.4580 -0.6685  0.0843
  798MPD2    C311810   2.480   1.235  17.601  0.2354 -0.7075  0.4365
  798MPD2    C411811   2.504   1.370  17.587 -0.3890  0.1798  0.4263
  798MPD2    C511812   2.490   1.432  17.465  0.0684 -0.1015 -0.4076
  798MPD2     H11813   2.428   1.062  17.479 -0.0632 -0.5886 -1.3309
  798MPD2    H111814   2.529   1.436  17.669 -0.3816  0.2318  0.3825
  798MPD2    H211815   2.448   1.433  17.265  1.0959 -0.7895 -0.7502
  798MPD2    H311816   2.501   1.540  17.460  1.0189 -0.1347  0.9195
  798MPD2     N11817   2.462   1.163  17.720 -1.6146  0.2273  0.2207
  798MPD2    H511818   2.441   1.064  17.714 -0.6573  0.1046 -1.1464
  798MPD2    N111819   2.392   1.174  17.232  0.3679  0.1528  0.0843
  798MPD2    H711820   2.368   1.235  17.154 -0.4118 -0.1670  0.0765
  799MPD2     C11821   1.219   2.456  14.434  0.3305 -0.4286 -0.3721
  799MPD2    C111822   1.142   2.364  14.364  0.7732 -0.3237 -0.1148
  799MPD2    C211823   1.089   2.400  14.241 -0.1382 -0.1076  0.3712
  799MPD2    C311824   1.101   2.519  14.182 -0.4097  0.1681 -0.0977
  799MPD2    C411825   1.172   2.617  14.257 -0.6553 -0.7743  0.3700
  799MPD2    C511826   1.219   2.582  14.384  0.0663  0.2498 -0.0635
  799MPD2     H11827   1.031   2.327  14.186  1.2217  0.0006 -1.2278
  799MPD2    H111828   1.182   2.718  14.219  0.3771 -2.3110 -3.3924
  799MPD2    H211829   1.251   2.445  14.537  0.9691 -0.8847 -0.6218
  799MPD2    H311830   1.280   2.648  14.444  0.6197  1.7436 -2.2654
  799MPD2     N11831   1.047   2.561  14.064 -0.3545 -0.0086 -0.2989
  799MPD2    H511832   1.062   2.660  14.044 -1.4514 -0.0843 -1.5485
  799MPD2    N111833   1.137   2.224  14.400  1.0395 -0.8392 -0.1321
  799MPD2    H711834   1.076   2.162  14.347  0.0123  0.2588 -0.2376
  800MPD2     C11835   1.363   3.438  14.331 -0.1346 -0.3943 -0.2407
  800MPD2    C111836   1.467   3.349  14.305 -0.7499 -0.1938 -0.5850
  800MPD2    C211837   1.444   3.245  14.219  0.3144  0.6424 -0.5661
  800MPD2    C311838   1.325   3.238  14.147 -0.0700 -0.3991  0.5986
  800MPD2    C411839   1.224   3.319  14.177 -0.2353 -0.6606  1.2765
  800MPD2    C511840   1.241   3.416  14.269 -0.3495 -0.0765 -0.3062
  800MPD2     H11841   1.526   3.184  14.182 -1.9355 -1.7545 -1.6368
  800MPD2    H111842   1.126   3.324  14.132 -0.0158 -1.1274  0.7477
  800MPD2    H211843   1.364   3.520  14.402 -1.0428 -2.1105  1.7534
  800MPD2    H311844   1.150   3.468  14.297  0.7560  0.5208  2.1620
  800MPD2     N11845   1.317   3.138  14.041  0.0967  0.2778 -1.1163
  800MPD2    H511846   1.404   3.088  14.024 -0.1363  0.0629 -1.6756
  800MPD2    N111847   1.601   3.393  14.345  0.1885  0.1871  0.4080
  800MPD2    H711848   1.605   3.489  14.378 -4.0134  0.2673  0.6759
  801MPD2     C11849   1.844   3.994  14.233  0.1070 -0.0656  0.4600
  801MPD2    C111850   1.818   3.925  14.349  0.5590 -0.1760  0.4357
  801MPD2    C211851   1.729   3.979  14.440 -1.0563  0.2836  0.3752
  801MPD2    C311852   1.682   4.107  14.432 -0.1882 -0.2552  0.2166
  801MPD2    C411853   1.711   4.177  14.319  0.3822 -0.0347 -0.5829
  801MPD2    C511854   1.792   4.122  14.216 -0.0934 -0.0587  0.0319
  801MPD2     H11855   1.702   3.912  14.521  1.0726 -0.1441  0.7530
  801MPD2    H111856   1.667   4.273  14.294  0.6246  0.5394  1.1588
  801MPD2    H211857   1.901   3.952  14.150 -0.0227 -1.9140  1.3042
  801MPD2    H311858   1.811   4.158  14.116  1.4360 -0.5225  0.1630
  801MPD2     N11859   1.598   4.159  14.534  0.1120  1.1813  0.1619
  801MPD2    H511860   1.533   4.232  14.509  0.0960  1.6030  1.4112
  801MPD2    N111861   1.864   3.788  14.374 -0.3485  0.1603  0.0914
  801MPD2    H711862   1.824   3.733  14.450 -0.1095  2.4085  1.8332
  802MPD2     C11863   1.108   4.499   0.471  0.0432  0.4094 -0.1938
  802MPD2    C111864   1.007   4.404   0.485 -0.2810  0.7095  0.3631
  802MPD2    C211865   0.966   4.351   0.362 -0.0920  0.5498 -0.0680
  802MPD2    C311866   1.010   4.397   0.238 -0.4051 -0.1606  0.0804
  802MPD2    C411867   1.111   4.490   0.234  0.2160 -0.1007 -0.0531
  802MPD2    C511868   1.160   4.536   0.356 -0.5846  0.2375  0.1850
  802MPD2     H11869   0.898   4.268   0.369  0.0997  0.4385  0.4435
  802MPD2    H111870   1.143   4.530   0.138 -1.3492  0.3388 -0.3883
  802MPD2    H211871   1.156   4.535   0.562 -2.0462  1.6628  0.4003
  802MPD2    H311872   1.241   4.608   0.357 -0.2811 -0.1122  0.5700
  802MPD2     N11873   0.950   4.329   0.129  0.2893 -0.4786 -0.1063
  802MPD2    H511874   0.872   4.266   0.141 -1.4550  1.5889 -0.5793
  802MPD2    N111875   0.942   4.368   0.605  0.1786  0.7462 -0.3383
  802MPD2    H711876   0.855   4.321   0.583  0.5496  0.6949 -1.7283
  803MPD2     C11877   2.539   2.324  11.946  0.0197  0.7985  0.0911
  803MPD2    C111878   2.571   2.383  12.066 -0.2195  0.1734 -0.1229
  803MPD2    C211879   2.549   2.310  12.181 -0.1078  0.1092 -0.1334
  803MPD2    C311880   2.482   2.187  12.181  0.3889  0.4723  0.6179
  803MPD2    C411881   2.452   2.131  12.058 -0.0193  0.5945  0.0653
  803MPD2    C511882   2.473   2.204  11.942  0.4692 -0.2888  0.2420
  803MPD2     H11883   2.580   2.357  12.274 -2.1536 -0.4863  0.8798
  803MPD2    H111884   2.421   2.028  12.051  2.9305 -0.2536 -0.6224
  803MPD2    H211885   2.545   2.377  11.851  2.4430  0.1396 -0.1215
  803MPD2    H311886   2.442   2.162  11.847 -2.0330  0.3651  0.7757
  803MPD2     N11887   2.461   2.114  12.302 -0.0792  0.3832  0.3688
  803MPD2    H511888   2.410   2.027  12.291 -2.5950  1.8548  0.4660
  803MPD2    N111889   2.632   2.508  12.078  0.2578 -0.0097 -0.0982
  803MPD2    H711890   2.663   2.522  12.173  0.6742  1.1788 -0.4102
  804MPD2     C11891   1.690   4.341  17.026  0.6842  0.7244 -0.2783
  804MPD2    C111892   1.722   4.298  17.154 -0.1706  0.0816 -0.2432
  804MPD2    C211893   1.817   4.371  17.233  0.5767  0.1524  0.4305
  804MPD2    C311894   1.895   4.466  17.175 -0.6638  0.0873  0.0010
  804MPD2    C411895   1.863   4.509  17.052  0.4816 -0.2690  0.0321
  804MPD2    C511896   1.762   4.451  16.979 -0.5830  0.7925 -1.0682
  804MPD2     H11897   1.842   4.333  17.332 -1.4457  0.6054  1.1336
  804MPD2    H111898   1.907   4.597  17.007 -1.1586 -0.2580 -1.5249
  804MPD2    H211899   1.627   4.291  16.954  2.7570  0.0615 -1.6047
  804MPD2    H311900   1.745   4.474  16.875 -1.3864  0.0365 -1.1057
  804MPD2     N11901   1.995   4.526  17.263 -0.1769 -0.0257  0.7401
  804MPD2    H511902   2.008   4.473  17.348 -4.8896 -0.7799  1.0052
  804MPD2    N111903   1.675   4.176  17.198 -0.4105 -0.4152 -0.0952
  804MPD2    H711904   1.706   4.152  17.291 -0.1073 -0.3771 -0.1870
  805MPD2     C11905   0.829   2.416  15.377  0.1867 -0.3608  1.0794
  805MPD2    C111906   0.923   2.483  15.309 -0.0827  0.3316 -1.3064
  805MPD2    C211907   1.030   2.538  15.376  0.1107  0.2952 -0.4233
  805MPD2    C311908   1.039   2.526  15.512  0.6207  0.3008  0.2094
  805MPD2    C411909   0.935   2.459  15.574  0.0665  0.3177  1.3127
  805MPD2    C511910   0.831   2.405  15.512 -0.0494 -0.3370  0.0391
  805MPD2     H11911   1.103   2.595  15.318  2.2123 -1.0967  0.8646
  805MPD2    H111912   0.922   2.452  15.682  0.5417 -3.1428  1.1392
  805MPD2    H211913   0.731   2.390  15.338 -0.6006  0.7645  2.3443
  805MPD2    H311914   0.747   2.366  15.568  0.2720 -1.9828 -0.6051
  805MPD2     N11915   1.148   2.584  15.576  0.0179 -0.1081 -0.6919
  805MPD2    H511916   1.224   2.609  15.513 -1.2019 -0.1115 -2.1805
  805MPD2    N111917   0.913   2.521  15.174 -0.1999 -0.8268 -0.2179
  805MPD2    H711918   0.995   2.565  15.134 -0.5797  2.0265  2.1532
  806MPD2     C11919   1.589   2.332   0.061 -0.5430 -0.1169  0.0470
  806MPD2    C111920   1.502   2.421   0.009 -0.2810 -0.7445  0.2061
  806MPD2    C211921   1.504   2.550   0.071  0.1838  0.4752  0.2386
  806MPD2    C311922   1.572   2.577   0.186  0.3440  0.3420 -0.1488
  806MPD2    C411923   1.658   2.477   0.236 -0.6399  0.4069 -0.8471
  806MPD2    C511924   1.670   2.361   0.165 -0.0235  0.1216  0.1993
  806MPD2     H11925   1.457   2.635   0.023 -1.1325  0.8719  2.2209
  806MPD2    H111926   1.717   2.497   0.325 -1.0643  0.9733 -0.6981
  806MPD2    H211927   1.616   2.236   0.019  1.5854  0.2946  0.4739
  806MPD2    H311928   1.738   2.288   0.208  1.6992  1.4545 -0.2343
  806MPD2     N11929   1.554   2.702   0.239  0.3540 -0.2273 -0.3517
  806MPD2    H511930   1.500   2.767   0.183  0.9564  0.1123 -0.5384
  806MPD2    N111931   1.414   2.381  17.653  0.1861  0.2417  0.0256
  806MPD2    H711932   1.413   2.287  17.617 -0.2056 -0.0780  0.8860
  807MPD2     C11933   1.373   1.782  17.393 -0.1446  1.1031 -0.3790
  807MPD2    C111934   1.258   1.804  17.467  0.0741 -0.0543  0.3338
  807MPD2    C211935   1.207   1.699  17.545 -0.1939  0.0222 -0.2025
  807MPD2    C311936   1.264   1.577  17.540 -0.0838 -0.2470 -0.2679
  807MPD2    C411937   1.374   1.553  17.458  0.3053  0.0119  0.4664
  807MPD2    C511938   1.431   1.656  17.392 -0.0317 -0.0252 -0.1992
  807MPD2     H11939   1.128   1.712  17.618 -0.5047 -0.6370 -0.4156
  807MPD2    H111940   1.424   1.457  17.451  2.5790  1.1450  1.0486
  807MPD2    H211941   1.427   1.854  17.334  0.2255 -0.0861 -1.4886
  807MPD2    H311942   1.517   1.635  17.329  0.3801 -0.0621  0.3753
  807MPD2     N11943   1.212   1.479  17.621 -0.4527 -0.1828 -0.4165
  807MPD2    H511944   1.120   1.502  17.657 -0.4134 -0.0420 -0.4046
  807MPD2    N111945   1.194   1.922  17.479 -0.3432  0.0444 -0.4821
  807MPD2    H711946   1.106   1.925  17.530  1.3211  0.8509  2.3254
  808MPD2     C11947   1.948   3.431   9.513 -0.4778 -0.1657  0.0052
  808MPD2    C111948   1.859   3.503   9.588  0.2403  0.1098 -0.1244
  808MPD2    C211949   1.892   3.631   9.635 -0.5034  0.5011 -0.3010
  808MPD2    C311950   2.012   3.686   9.609  0.6748  0.1528 -0.3084
  808MPD2    C411951   2.101   3.606   9.538  0.4281  0.2461  0.2057
  808MPD2    C511952   2.067   3.487   9.490 -0.1580 -0.5428 -1.2330
  808MPD2     H11953   1.819   3.685   9.695  1.1538  1.5094  0.8121
  808MPD2    H111954   2.204   3.636   9.524  0.3347 -0.7409 -2.7848
  808MPD2    H211955   1.927   3.333   9.471 -0.2235 -0.2537  0.0822
  808MPD2    H311956   2.143   3.423   9.447 -0.8024 -0.5280 -2.4060
  808MPD2     N11957   2.046   3.814   9.666 -0.3769  0.0678 -0.2114
  808MPD2    H511958   1.973   3.853   9.724  0.7884  1.0909  0.5554
  808MPD2    N111959   1.743   3.444   9.645 -0.0712  0.1578 -0.1051
  808MPD2    H711960   1.676   3.503   9.693  2.4201  1.9038  1.2030
  809MPD2     C11961   2.897   4.240   9.484  0.0603 -0.3321 -0.0634
  809MPD2    C111962   2.877   4.241   9.622 -0.1403  0.8217  0.2116
  809MPD2    C211963   2.745   4.225   9.665  0.2356  0.2882  0.6111
  809MPD2    C311964   2.642   4.227   9.575 -0.1888 -0.4171  0.3745
  809MPD2    C411965   2.671   4.235   9.443 -0.1492 -0.5002 -0.3750
  809MPD2    C511966   2.797   4.234   9.398 -0.1916  0.8975 -0.4487
  809MPD2     H11967   2.728   4.224   9.772 -0.8656  1.1265  0.4358
  809MPD2    H111968   2.589   4.226   9.372 -0.2769  0.7342 -0.3850
  809MPD2    H211969   2.993   4.233   9.433 -1.3033 -0.5322 -2.6100
  809MPD2    H311970   2.816   4.227   9.292 -2.4895 -1.9456 -0.6619
  809MPD2     N11971   2.509   4.211   9.618  0.1290  0.0982  0.9229
  809MPD2    H511972   2.440   4.192   9.547  1.1005  2.6024 -0.6998
  809MPD2    N111973   2.984   4.242   9.713 -0.4531  0.2930 -0.1320
  809MPD2    H711974   2.966   4.229   9.812  0.5818 -0.7581 -0.0835
  810MPD2     C11975   1.790   2.926  10.056  0.3270  0.3098 -0.2945
  810MPD2    C111976   1.691   3.003  10.106 -0.0032  0.5206  0.5898
  810MPD2    C211977   1.709   3.143  10.101  0.1917 -0.0077 -0.4016
  810MPD2    C311978   1.816   3.206  10.037  0.0140 -0.6223  0.6304
  810MPD2    C411979   1.913   3.126   9.988  0.6196  0.7361  0.6042
  810MPD2    C511980   1.887   2.993   9.994 -0.1628  0.5564  0.1591
  810MPD2     H11981   1.640   3.203  10.160  1.1391 -1.0511  1.7731
  810MPD2    H111982   2.009   3.155   9.948 -0.2563  0.3788 -1.7634
  810MPD2    H211983   1.786   2.818  10.063 -0.5774  0.2932 -0.9982
  810MPD2    H311984   1.972   2.937   9.957  0.5570  1.2484  0.7711
  810MPD2     N11985   1.821   3.351  10.022  0.3872  0.1313  0.7306
  810MPD2    H511986   1.899   3.380   9.964  0.1743  2.6786  1.6772
  810MPD2    N111987   1.576   2.951  10.169 -0.5281 -0.2476  0.3537
  810MPD2    H711988   1.514   3.022  10.208 -0.6493  0.7717 -1.6976
  811MPD2     C11989   0.779   2.999  10.033  0.1949 -0.5859  0.2229
  811MPD2    C111990   0.899   3.045  10.079 -0.4689 -0.3505  0.8810
  811MPD2    C211991   0.939   3.175  10.042  0.3370 -0.0360  0.8687
  811MPD2    C311992   0.862   3.254   9.958 -0.0745 -0.6053  0.5399
  811MPD2    C411993   0.749   3.200   9.906  0.1184 -0.2390  0.4765
  811MPD2    C511994   0.703   3.077   9.953  0.3721 -0.0534  0.5833
  811MPD2     H11995   1.037   3.216  10.064  0.7132 -1.5855  2.1298
  811MPD2    H111996   0.686   3.252   9.835 -0.1185 -0.6369  0.3955
  811MPD2    H211997   0.752   2.898  10.062  1.3436 -1.0566 -0.3432
  811MPD2    H311998   0.615   3.032   9.909 -0.6748 -0.2346  2.8453
  811MPD2     N11999   0.919   3.375   9.921  0.1064  0.1314  0.5871
  811MPD2    H512000   1.016   3.396   9.943  0.0690  1.2427 -0.2891
  811MPD2    N112001   0.980   2.955  10.155 -0.2949  0.4302 -0.5158
  811MPD2    H712002   0.950   2.858  10.163 -1.4330  0.6623 -1.9810
  812MPD2     C12003   4.576   2.467  12.113  0.2771  0.5242 -0.0895
  812MPD2    C112004   4.649   2.574  12.145 -0.3599 -0.2823 -0.7456
  812MPD2    C212005   4.722   2.569  12.261  0.5220  0.1184  0.2602
  812MPD2    C312006   4.728   2.456  12.342  0.2719 -0.5394 -0.0906
  812MPD2    C412007   4.659   2.345  12.298  0.7984  0.2469  0.1020
  812MPD2    C512008   4.582   2.355  12.189 -0.1315  0.3107 -0.0976
  812MPD2     H12009   0.054   2.650  12.282 -0.4091  1.1374 -0.6392
  812MPD2    H112010   4.645   2.252  12.352  0.0702 -0.4543 -1.2847
  812MPD2    H212011   4.519   2.471  12.021  2.0516  3.1301 -1.0980
  812MPD2    H312012   4.521   2.267  12.175  1.1624 -0.4122 -1.2353
  812MPD2     N12013   0.067   2.455  12.467  0.4635  0.5372  0.1210
  812MPD2    H512014   0.125   2.534  12.493 -1.1513  1.3545  1.2632
  812MPD2    N112015   4.644   2.684  12.060  0.0476  0.0901 -0.3176
  812MPD2    H712016   4.597   2.668  11.971  2.3150 -2.7187 -0.9986
  813MPD2     C12017   4.166   4.079  12.927 -0.1795  0.1383 -0.3129
  813MPD2    C112018   4.104   4.200  12.924  0.0701  0.0656 -0.3882
  813MPD2    C212019   4.005   4.222  13.021  0.6334 -0.1507  0.6209
  813MPD2    C312020   3.959   4.120  13.098 -0.0427  0.5745 -0.5230
  813MPD2    C412021   4.026   3.998  13.094  0.9258 -0.4784 -0.0751
  813MPD2    C512022   4.134   3.980  13.015 -0.5506  1.0033 -0.0015
  813MPD2     H12023   3.951   4.315  13.010  1.3941  0.1315 -0.7035
  813MPD2    H112024   4.007   3.920  13.167 -0.2715 -0.4654 -0.3731
  813MPD2    H212025   4.257   4.066  12.869 -1.2696  3.9622 -2.8819
  813MPD2    H312026   4.185   3.885  13.025 -2.0844 -0.0460 -2.0210
  813MPD2     N12027   3.839   4.138  13.171 -0.1457 -0.3158 -0.2829
  813MPD2    H512028   3.792   4.228  13.166 -2.2318 -1.3706  0.1212
  813MPD2    N112029   4.127   4.303  12.836 -0.1395  0.2055 -0.2948
  813MPD2    H712030   4.092   4.396  12.855  0.1962 -0.1531  2.0898
  814MPD2     C12031   4.487   0.874  12.759 -0.3740  0.5258  0.2309
  814MPD2    C112032   4.521   0.946  12.652 -0.4796 -0.2100 -0.5062
  814MPD2    C212033   4.571   1.074  12.663  0.4543 -0.2055 -0.7345
  814MPD2    C312034   4.579   1.143  12.786 -0.3863  0.4150  0.0240
  814MPD2    C412035   4.554   1.067  12.898 -0.8174  0.5946 -0.6982
  814MPD2    C512036   4.507   0.937  12.880 -0.6610  0.6886 -0.1317
  814MPD2     H12037   4.599   1.121  12.569 -0.5135 -1.1214 -1.4843
  814MPD2    H112038   4.568   1.113  12.995  2.1517  0.3856 -1.0404
  814MPD2    H212039   4.453   0.772  12.752  0.3257  0.3058  0.0616
  814MPD2    H312040   4.503   0.880  12.972 -1.7533  1.2810  0.1902
  814MPD2     N12041   4.634   1.279  12.788  0.3592 -0.1038  0.5757
  814MPD2    H512042   4.643   1.319  12.881  4.3504 -0.5207  0.3603
  814MPD2    N112043   4.520   0.887  12.522  0.1681 -0.7491 -0.2486
  814MPD2    H712044   4.552   0.947  12.447 -0.7094  0.2793  0.1940
  815MPD2     C12045   4.681   3.565  12.094  0.0916 -0.0558 -0.1559
  815MPD2    C112046   4.715   3.639  11.979  0.2685 -0.5493 -0.0296
  815MPD2    C212047   4.632   3.740  11.933  0.4170 -0.7633 -0.0180
  815MPD2    C312048   4.526   3.785  12.011 -0.6446  0.4479 -1.2523
  815MPD2    C412049   4.498   3.724  12.139 -0.2061 -0.0679  0.6075
  815MPD2    C512050   4.582   3.616  12.174  0.4293  0.0592 -0.3051
  815MPD2     H12051   4.646   3.773  11.831  0.4086  0.9095  0.5235
  815MPD2    H112052   4.421   3.758  12.207 -0.2401  0.6527  0.2064
  815MPD2    H212053   0.009   3.485  12.128  0.2388 -0.1164 -0.5699
  815MPD2    H312054   4.562   3.568  12.269  0.0688  2.5669  0.8861
  815MPD2     N12055   4.448   3.897  11.961 -0.8764  0.3612 -0.0660
  815MPD2    H512056   4.486   3.933  11.874  0.5577  1.4882  1.0362
  815MPD2    N112057   0.091   3.607  11.901 -0.3430  0.5839  0.3026
  815MPD2    H712058   0.084   3.668  11.820 -1.2112  0.0305 -0.0380
  816MPD2     C12059   4.689   3.548  17.342  0.2907 -0.4262 -0.6582
  816MPD2    C112060   4.723   3.681  17.333  0.5506 -0.2444  0.6245
  816MPD2    C212061   0.109   3.718  17.273  0.1290  0.2397 -0.3857
  816MPD2    C312062   0.190   3.612  17.226 -0.0569  0.3104  0.1854
  816MPD2    C412063   0.152   3.482  17.230  0.0293  0.5699  0.1103
  816MPD2    C512064   0.033   3.451  17.289 -0.8561 -0.7629 -0.0448
  816MPD2     H12065   0.150   3.818  17.270 -0.8367  0.6919  1.2972
  816MPD2    H112066   0.214   3.403  17.189  0.3796  1.0757 -0.3257
  816MPD2    H212067   4.593   3.513  17.379 -0.7921  1.6090 -1.5225
  816MPD2    H312068   0.002   3.347  17.285 -0.2601 -0.9217 -0.5775
  816MPD2     N12069   0.308   3.655  17.154  0.3150  0.0729  0.0100
  816MPD2    H512070   0.309   3.755  17.138 -0.2277  0.4576  2.3527
  816MPD2    N112071   4.640   3.780  17.397  0.0216 -0.6651 -0.4534
  816MPD2    H712072   4.674   3.875  17.409 -0.4899 -0.7351  1.5689
  817MPD2     C12073   0.005   0.564  10.047 -0.1692  0.3155  0.3322
  817MPD2    C112074   0.083   0.674  10.048  0.0421  0.8823 -0.4004
  817MPD2    C212075   0.025   0.799  10.015  0.4773 -0.3696  0.2083
  817MPD2    C312076   4.641   0.811   9.961 -0.3007 -0.1521 -0.4898
  817MPD2    C412077   4.573   0.689   9.952  0.4274  0.3599  1.0090
  817MPD2    C512078   4.623   0.568   9.990  0.3384  0.2200 -0.4342
  817MPD2     H12079   0.096   0.881  10.015  0.0847 -0.0331  0.9123
  817MPD2    H112080   4.476   0.689   9.905  0.9903  2.5893 -0.1651
  817MPD2    H212081   0.033   0.463  10.076  0.0514  0.4045  0.4322
  817MPD2    H312082   4.574   0.477   9.958 -1.5817  1.3782 -0.8183
  817MPD2     N12083   4.597   0.936   9.921  0.4324  0.2797  0.0131
  817MPD2    H512084   4.659   1.016   9.927  0.7639  0.1487 -1.6966
  817MPD2    N112085   0.215   0.658  10.090  0.2533 -0.2463  0.3144
  817MPD2    H712086   0.276   0.738  10.076  0.7404 -0.9333 -1.5366
  818MPD2     C12087   3.447   0.442   9.812  1.0998 -0.0572 -0.4258
  818MPD2    C112088   3.377   0.429   9.933  0.4995 -0.0742  0.4982
  818MPD2    C212089   3.410   0.322  10.011  0.0248  0.3385 -0.1625
  818MPD2    C312090   3.510   0.231   9.988  0.4151  0.1772  0.3263
  818MPD2    C412091   3.585   0.253   9.879 -0.1626  0.3287 -0.3058
  818MPD2    C512092   3.552   0.350   9.792  0.2111  0.0709 -0.8738
  818MPD2     H12093   3.340   0.314  10.094  0.5274  0.4372  0.2717
  818MPD2    H112094   3.665   0.182   9.860 -0.7752 -0.3113 -0.4931
  818MPD2    H212095   3.434   0.518   9.736 -1.5693 -1.3334 -1.2280
  818MPD2    H312096   3.615   0.361   9.705 -0.2635  0.7512 -1.1338
  818MPD2     N12097   3.537   0.119  10.069 -0.7523 -0.1284 -0.3486
  818MPD2    H512098   3.616   0.057  10.051  0.3888  1.7482 -1.6925
  818MPD2    N112099   3.278   0.519   9.977 -0.2199  0.1396 -0.4860
  818MPD2    H712100   3.245   0.500  10.072  0.5868  1.1242 -0.0108
  819MPD2     C12101   1.636   2.206  15.415 -0.4683 -0.0334 -0.5897
  819MPD2    C112102   1.653   2.070  15.423  0.1713 -0.3720  0.0006
  819MPD2    C212103   1.759   2.030  15.504  0.2648  0.1382  0.1058
  819MPD2    C312104   1.842   2.119  15.571  0.4799  0.1922 -0.4461
  819MPD2    C412105   1.819   2.258  15.564 -0.6868  0.0060  0.2672
  819MPD2    C512106   1.721   2.297  15.474 -0.5912  0.5646 -0.6026
  819MPD2     H12107   1.775   1.923  15.511 -1.2093  0.0922  2.5097
  819MPD2    H112108   1.880   2.327  15.621  0.7827 -1.7732  0.8890
  819MPD2    H212109   1.549   2.245  15.364  0.1770 -0.2466 -1.8498
  819MPD2    H312110   1.697   2.403  15.472 -2.6217  0.0951 -0.4514
  819MPD2     N12111   1.956   2.061  15.635  0.3676 -0.1659 -0.9912
  819MPD2    H512112   1.981   1.965  15.616 -0.6380 -0.1680 -2.3023
  819MPD2    N112113   1.560   1.988  15.349 -0.0277 -0.0460  1.0537
  819MPD2    H712114   1.499   2.035  15.282  2.0841 -0.2924 -1.0486
  820MPD2     C12115   0.883   1.961  14.697  0.1036  0.2810 -0.3039
  820MPD2    C112116   0.967   2.045  14.756  0.4560 -0.3426 -0.2202
  820MPD2    C212117   1.046   1.987  14.856 -0.0384 -0.2355 -0.6651
  820MPD2    C312118   1.045   1.850  14.878 -0.3314  0.1309  0.3542
  820MPD2    C412119   0.977   1.768  14.798  0.4474  0.1498  0.7093
  820MPD2    C512120   0.892   1.826  14.709  0.0726 -0.5897  0.3313
  820MPD2     H12121   1.117   2.047  14.913 -2.3134  1.4365  0.4145
  820MPD2    H112122   0.984   1.660  14.796  1.7860  0.2435  0.6327
  820MPD2    H212123   0.812   1.996  14.623  1.0675 -0.5750 -1.6311
  820MPD2    H312124   0.829   1.761  14.649  0.1113  1.5470 -2.0344
  820MPD2     N12125   1.133   1.789  14.968  0.1310  0.1839  0.3754
  820MPD2    H512126   1.149   1.692  14.942 -0.7778  0.2158 -0.2962
  820MPD2    N112127   0.963   2.184  14.732  0.3379  0.8451 -0.0378
  820MPD2    H712128   0.882   2.222  14.683 -1.0093 -1.6031  0.2884
  821MPD2     C12129   1.421   3.249  13.237  0.6172  0.2803  0.5844
  821MPD2    C112130   1.513   3.247  13.338  0.2217  0.0426 -0.4689
  821MPD2    C212131   1.644   3.281  13.331 -0.5454 -0.7424 -0.5353
  821MPD2    C312132   1.689   3.330  13.206  0.0667 -0.3002  0.5233
  821MPD2    C412133   1.603   3.334  13.102 -0.2780  0.0466 -0.7105
  821MPD2    C512134   1.468   3.299  13.113 -0.1709  0.4037  0.1617
  821MPD2     H12135   1.712   3.282  13.415 -0.9401  2.4734 -0.2211
  821MPD2    H112136   1.641   3.364  13.005 -0.4892  0.3018 -0.7134
  821MPD2    H212137   1.322   3.207  13.248  0.8474 -0.5133 -0.3411
  821MPD2    H312138   1.400   3.288  13.030 -0.3914 -1.3457  0.5726
  821MPD2     N12139   1.821   3.368  13.169  0.5604  0.3230  0.2030
  821MPD2    H512140   1.835   3.388  13.070 -1.6351 -0.2108 -0.2232
  821MPD2    N112141   1.486   3.197  13.466 -0.1424  0.1872  0.3254
  821MPD2    H712142   1.562   3.186  13.533  0.1923  0.4419 -0.0073
  822MPD2     C12143   2.503   3.539  15.654  0.0083 -0.6561  0.9419
  822MPD2    C112144   2.487   3.507  15.787  0.3552 -0.5344 -0.5464
  822MPD2    C212145   2.415   3.597  15.863  0.5197  0.4792 -0.2284
  822MPD2    C312146   2.350   3.706  15.815  0.1853  1.1878 -0.5396
  822MPD2    C412147   2.361   3.726  15.681 -0.4366 -0.0783 -0.4533
  822MPD2    C512148   2.437   3.645  15.602 -0.6526  0.0507 -0.2683
  822MPD2     H12149   2.393   3.575  15.967  1.9389  0.6176  0.0922
  822MPD2    H112150   2.333   3.821  15.636 -1.9626 -0.2549  0.1327
  822MPD2    H212151   2.561   3.475  15.589 -1.3691  0.7147 -1.6415
  822MPD2    H312152   2.457   3.685  15.503  0.8384  1.4024  0.5584
  822MPD2     N12153   2.284   3.798  15.903  0.1031 -0.4390 -1.0089
  822MPD2    H512154   2.267   3.766  15.998  1.6217  0.8627 -0.3072
  822MPD2    N112155   2.543   3.391  15.852 -1.2045 -0.1417 -0.4184
  822MPD2    H712156   2.548   3.393  15.953  1.4943  0.8272 -0.5751
  823MPD2     C12157   1.958   4.230  16.616 -0.0721  0.5372  0.2912
  823MPD2    C112158   1.981   4.120  16.530  0.1634 -0.5146  0.0678
  823MPD2    C212159   1.977   3.988  16.580 -0.2189 -0.1306 -1.0724
  823MPD2    C312160   1.961   3.968  16.716 -0.7616 -0.5672 -0.3830
  823MPD2    C412161   1.950   4.077  16.801 -0.0089 -0.1153  0.4187
  823MPD2    C512162   1.945   4.208  16.752  0.4678 -0.5192 -0.2380
  823MPD2     H12163   2.001   3.900  16.520  0.6306 -0.3452 -0.4277
  823MPD2    H112164   1.934   4.064  16.908  4.1245 -0.2200  1.0341
  823MPD2    H212165   1.948   4.334  16.587 -1.5208  0.2265 -0.3330
  823MPD2    H312166   1.927   4.296  16.813  2.3609  0.5592 -1.2236
  823MPD2     N12167   1.975   3.836  16.768 -0.4853 -0.1721  0.4597
  823MPD2    H512168   1.976   3.825  16.868  3.1606  2.2046  0.6873
  823MPD2    N112169   2.009   4.145  16.391 -0.2262  0.5745  0.0124
  823MPD2    H712170   2.034   4.240  16.367  1.0487  0.9165  2.6358
  824MPD2     C12171   2.691   2.559  15.806 -0.1215  0.8768 -0.6476
  824MPD2    C112172   2.807   2.625  15.830 -0.0100  0.2427 -0.1721
  824MPD2    C212173   2.924   2.550  15.822 -0.0793  0.1203 -0.2278
  824MPD2    C312174   2.932   2.416  15.796 -0.6110  0.3712  0.4049
  824MPD2    C412175   2.812   2.347  15.781  0.5369  0.7673  0.6724
  824MPD2    C512176   2.697   2.430  15.767 -0.2849  0.1995  0.1045
  824MPD2     H12177   3.016   2.606  15.835 -0.0075 -0.6047  2.4366
  824MPD2    H112178   2.812   2.241  15.760  0.3719  0.5800  1.6237
  824MPD2    H212179   2.596   2.610  15.797 -1.4398 -1.2640  1.0228
  824MPD2    H312180   2.604   2.383  15.736  0.2689  0.6366 -2.1881
  824MPD2     N12181   3.064   2.355  15.784 -0.9504 -0.1353 -0.3285
  824MPD2    H512182   3.142   2.420  15.779 -1.5555  0.7464  1.6297
  824MPD2    N112183   2.818   2.762  15.869 -0.0406 -0.4440 -0.3867
  824MPD2    H712184   2.908   2.795  15.901 -0.9291 -0.6834  2.3164
  825MPD2     C12185   3.793   2.493  15.399  0.1586 -0.1514 -0.4605
  825MPD2    C112186   3.654   2.528  15.408  0.5490 -0.1702 -0.0793
  825MPD2    C212187   3.613   2.654  15.375  0.4293  0.5149  0.2339
  825MPD2    C312188   3.702   2.741  15.316 -0.2314 -0.1957 -0.0863
  825MPD2    C412189   3.832   2.704  15.292  0.1642  0.2837  0.5875
  825MPD2    C512190   3.873   2.576  15.330  0.0148 -0.1709 -0.7222
  825MPD2     H12191   3.507   2.676  15.385  0.0964 -0.6552 -0.6086
  825MPD2    H112192   3.903   2.768  15.242 -0.9972  1.9644  1.0922
  825MPD2    H212193   3.825   2.400  15.443  1.4105 -0.5904 -2.3073
  825MPD2    H312194   3.972   2.544  15.301  0.4606 -0.2238  0.8411
  825MPD2     N12195   3.656   2.869  15.267 -0.1532  0.2537 -0.0456
  825MPD2    H512196   3.721   2.917  15.205 -0.0621  1.0914  0.7085
  825MPD2    N112197   3.570   2.424  15.456  0.4047  0.1939  0.2949
  825MPD2    H712198   3.622   2.339  15.474 -0.8992 -0.3255  1.5783
  826MPD2     C12199   3.266   2.195  13.914  0.0474 -1.0060 -0.0772
  826MPD2    C112200   3.304   2.288  13.814 -0.0125 -0.2783  0.4188
  826MPD2    C212201   3.225   2.389  13.778  0.4413  0.1727 -0.7948
  826MPD2    C312202   3.098   2.408  13.840  0.1348  0.4181  0.7405
  826MPD2    C412203   3.063   2.324  13.933  0.0497 -0.0449  0.5142
  826MPD2    C512204   3.143   2.223  13.975  0.7060 -0.6788 -0.4455
  826MPD2     H12205   3.254   2.450  13.693  3.0583  0.6831  0.4665
  826MPD2    H112206   2.964   2.327  13.976 -0.7044  2.2238 -1.4228
  826MPD2    H212207   3.328   2.114  13.948  1.2261 -0.4948 -1.0246
  826MPD2    H312208   3.099   2.149  14.041  1.5335 -0.6792  0.0979
  826MPD2     N12209   3.007   2.509  13.801  0.0734 -0.1980 -0.3411
  826MPD2    H512210   2.917   2.516  13.848  0.6809  3.3511  0.2585
  826MPD2    N112211   3.434   2.262  13.754  0.9791  0.0415  0.6205
  826MPD2    H712212   3.490   2.179  13.772 -0.9524 -1.3866  0.0512
  827MPD2     C12213   4.152   4.569   9.890 -0.0715 -0.2150  0.6537
  827MPD2    C112214   4.092   4.451   9.920  0.6267 -0.8603 -0.3814
  827MPD2    C212215   3.992   4.400   9.838  0.2668  0.2194 -0.9656
  827MPD2    C312216   3.969   4.454   9.716  0.0372  0.3249 -0.4388
  827MPD2    C412217   4.045   4.568   9.680  0.3112  0.1268 -0.2366
  827MPD2    C512218   4.126   4.634   9.774 -0.3661  0.2493 -0.3993
  827MPD2     H12219   3.944   4.305   9.857 -2.4736  2.1918  1.8480
  827MPD2    H112220   4.032   4.612   9.582  1.1681 -0.0374 -0.4288
  827MPD2    H212221   4.221   4.614   9.960  0.9840  0.1939 -0.6530
  827MPD2    H312222   4.191   4.713   9.740  2.0388 -1.9417 -0.8813
  827MPD2     N12223   3.879   4.395   9.617 -0.2655  0.0696 -0.3302
  827MPD2    H512224   3.817   4.327   9.660  2.4194 -1.5896  0.8622
  827MPD2    N112225   4.134   4.387  10.039 -0.0344  0.0296 -0.3922
  827MPD2    H712226   4.217   4.431  10.078 -1.7986  2.6722  0.4048
  828MPD2     C12227   2.224   3.417  12.391 -0.2013 -1.0074 -0.7342
  828MPD2    C112228   2.253   3.550  12.361  0.3899 -0.1221  0.1475
  828MPD2    C212229   2.362   3.578  12.280 -0.6834  0.0130 -0.4181
  828MPD2    C312230   2.420   3.472  12.207 -0.4995 -0.1299  0.6342
  828MPD2    C412231   2.391   3.341  12.241  0.2635 -0.0923 -0.1137
  828MPD2    C512232   2.291   3.313  12.331  0.9641 -0.1377 -0.2355
  828MPD2     H12233   2.387   3.683  12.264 -1.5035  0.0550 -1.4714
  828MPD2    H112234   2.458   3.267  12.200 -1.1429 -1.4410  0.0047
  828MPD2    H212235   2.147   3.382  12.459  0.2079 -0.9371 -0.2368
  828MPD2    H312236   2.282   3.208  12.356  0.5175  0.1585  0.8751
  828MPD2     N12237   2.504   3.486  12.091 -0.1598  0.8413  1.1754
  828MPD2    H512238   2.538   3.403  12.044  1.6458  1.6137  1.1057
  828MPD2    N112239   2.184   3.660  12.422  0.7353  0.6468 -0.1351
  828MPD2    H712240   2.207   3.748  12.378  1.0854  1.0278  0.8250
  829MPD2     C12241   1.758   3.954  11.793  0.2101  0.5208 -0.1303
  829MPD2    C112242   1.686   3.892  11.884  0.0697 -0.5973  0.4208
  829MPD2    C212243   1.729   3.905  12.010  0.4394  0.4182 -0.8529
  829MPD2    C312244   1.837   3.988  12.046 -0.4822 -0.2577 -0.3278
  829MPD2    C412245   1.906   4.053  11.956  0.2987  0.1172 -0.1512
  829MPD2    C512246   1.861   4.040  11.826  0.4445 -0.3754  0.5241
  829MPD2     H12247   1.693   3.839  12.088 -0.4521  0.9773 -0.7877
  829MPD2    H112248   1.994   4.112  11.977 -0.5113  2.1164 -2.3262
  829MPD2    H212249   1.723   3.949  11.690 -0.0908 -0.9812  0.0512
  829MPD2    H312250   1.915   4.091  11.747  0.3413  0.7347  1.1668
  829MPD2     N12251   1.880   3.986  12.184  0.6467  0.4409 -0.1485
  829MPD2    H512252   1.973   4.024  12.198  1.2782 -0.5457 -1.6610
  829MPD2    N112253   1.576   3.809  11.850 -0.1973  0.1402 -0.5455
  829MPD2    H712254   1.556   3.796  11.751  0.2580 -0.9287 -0.4919
  830MPD2     C12255   2.737   1.704  15.566 -0.1260  0.2247 -0.3461
  830MPD2    C112256   2.648   1.799  15.526 -0.1729 -0.2264  0.2775
  830MPD2    C212257   2.652   1.847  15.395  0.5505  0.2120  0.6545
  830MPD2    C312258   2.744   1.812  15.299  0.4636  0.6205  0.2554
  830MPD2    C412259   2.821   1.703  15.341 -0.3034 -0.2608  0.6289
  830MPD2    C512260   2.811   1.643  15.464 -0.5529  0.5274 -0.3516
  830MPD2     H12261   2.573   1.917  15.370  0.9627  0.2103 -0.6709
  830MPD2    H112262   2.905   1.669  15.281 -0.6395 -0.1332  0.0867
  830MPD2    H212263   2.733   1.664  15.666 -2.1271 -0.3772 -0.6746
  830MPD2    H312264   2.869   1.555  15.489 -0.0881  0.7054 -0.7999
  830MPD2     N12265   2.750   1.861  15.170  0.3482  0.4082 -0.0773
  830MPD2    H512266   2.794   1.798  15.103  3.2154 -1.8386  3.9520
  830MPD2    N112267   2.548   1.839  15.618  0.1759 -0.8276 -0.1618
  830MPD2    H712268   2.561   1.819  15.717  0.5384 -1.1906 -0.2810
  831MPD2     C12269   2.444   3.890  16.309 -0.2258 -0.2072 -0.5740
  831MPD2    C112270   2.470   3.773  16.230 -0.0273 -0.8749  0.8335
  831MPD2    C212271   2.375   3.674  16.229 -0.2971  0.0213 -0.8050
  831MPD2    C312272   2.257   3.695  16.301 -0.3652 -0.0414 -0.0758
  831MPD2    C412273   2.246   3.801  16.383  0.8056 -0.0619 -0.2716
  831MPD2    C512274   2.335   3.901  16.389 -0.4460  0.2419  0.0126
  831MPD2     H12275   2.405   3.586  16.174 -0.5494 -0.6277  0.1186
  831MPD2    H112276   2.157   3.819  16.443 -0.6780 -1.6308 -2.0018
  831MPD2    H212277   2.505   3.977  16.293  0.2831 -0.3024  0.9103
  831MPD2    H312278   2.318   3.986  16.454  0.8815 -0.6351  1.5028
  831MPD2     N12279   2.146   3.609  16.293 -0.2593  0.1454 -0.0808
  831MPD2    H512280   2.069   3.632  16.355 -1.0401 -0.3281 -0.8556
  831MPD2    N112281   2.591   3.770  16.160 -0.3773  0.8045 -0.4370
  831MPD2    H712282   2.644   3.856  16.162  0.0369  0.5096  1.1329
  832MPD2     C12283   0.760   4.471  17.333 -0.1173  0.1525 -0.0061
  832MPD2    C112284   0.768   4.559  17.228  0.0473  0.1174 -0.1168
  832MPD2    C212285   0.657   4.591  17.148  0.1377  0.2095 -0.1929
  832MPD2    C312286   0.548   4.508  17.154 -0.7960  0.2655 -0.3562
  832MPD2    C412287   0.550   4.407  17.245  0.0413 -0.2565  0.2830
  832MPD2    C512288   0.651   4.398  17.347 -0.5252 -0.1083 -0.1007
  832MPD2     H12289   0.665   4.669  17.074 -1.6243  0.2611 -0.3347
  832MPD2    H112290   0.472   4.333  17.257  0.2661 -0.4937  0.2803
  832MPD2    H212291   0.847   4.446  17.392  0.3178 -0.0068 -0.7197
  832MPD2    H312292   0.650   4.320  17.422  1.1919  0.3843  0.4463
  832MPD2     N12293   0.435   4.531  17.077 -0.0430 -0.0412 -0.0336
  832MPD2    H512294   0.374   4.450  17.084 -0.1998  0.0255 -0.6019
  832MPD2    N112295   0.900   4.615  17.201 -0.5725  0.3656 -0.9743
  832MPD2    H712296   0.977   4.599  17.265 -0.1661  2.8754 -0.8296
  833MPD2     C12297   3.365   1.051  12.632 -0.6619  0.4861  0.0456
  833MPD2    C112298   3.444   1.153  12.583  0.4589 -0.1738 -0.3949
  833MPD2    C212299   3.560   1.123  12.521  0.1339 -0.1672 -0.3353
  833MPD2    C312300   3.598   0.987  12.510  0.0378 -0.1955  1.0406
  833MPD2    C412301   3.523   0.889  12.563 -0.0382 -0.0949 -0.5770
  833MPD2    C512302   3.410   0.923  12.627 -0.6411  0.4370  0.8249
  833MPD2     H12303   3.622   1.203  12.481  2.3090 -2.0498 -0.7524
  833MPD2    H112304   3.550   0.784  12.557  1.4476  0.3155 -1.1447
  833MPD2    H212305   3.273   1.062  12.688 -0.8190 -0.6566  0.0176
  833MPD2    H312306   3.347   0.850  12.677  2.0384 -1.0157  2.1066
  833MPD2     N12307   3.712   0.950  12.433 -0.1573 -0.7486 -0.3116
  833MPD2    H512308   3.706   0.853  12.403  1.2815 -1.1976  0.8837
  833MPD2    N112309   3.401   1.291  12.589  0.1482  0.3929  0.6250
  833MPD2    H712310   3.474   1.358  12.566 -0.0720  0.6528  0.6790
  834MPD2     C12311   3.155   0.762  11.694 -0.1311 -0.3843  0.0245
  834MPD2    C112312   3.241   0.852  11.627 -0.8087 -0.3100 -0.6059
  834MPD2    C212313   3.349   0.903  11.693 -0.4223  0.0333  0.4524
  834MPD2    C312314   3.377   0.859  11.824  0.6396  0.5557 -0.9969
  834MPD2    C412315   3.292   0.770  11.887 -0.6802  0.5351 -0.4589
  834MPD2    C512316   3.188   0.716  11.819  0.1736  0.1143 -0.0262
  834MPD2     H12317   3.417   0.976  11.650  0.3483 -1.0955 -0.2241
  834MPD2    H112318   3.313   0.724  11.983 -0.6679  1.3038 -0.0940
  834MPD2    H212319   3.079   0.716  11.633 -0.7651  0.2779  0.3045
  834MPD2    H312320   3.129   0.639  11.868 -0.3512  0.8225  0.4471
  834MPD2     N12321   3.493   0.918  11.891  0.1626  0.4336  0.4499
  834MPD2    H512322   3.550   0.973  11.828  1.0963  1.2130  1.9680
  834MPD2    N112323   3.205   0.887  11.496  0.2599 -0.0632 -0.3182
  834MPD2    H712324   3.110   0.855  11.482 -0.2397  0.8592  0.9735
  835MPD2     C12325   2.920   3.619  11.308  1.2889  0.0856  0.7515
  835MPD2    C112326   2.960   3.754  11.293  0.4072 -0.5787  0.3417
  835MPD2    C212327   3.026   3.823  11.396 -0.1514 -0.2535 -0.0529
  835MPD2    C312328   3.048   3.746  11.513 -0.6828 -0.0352  0.2098
  835MPD2    C412329   3.013   3.613  11.527 -0.6430  0.5402  0.1193
  835MPD2    C512330   2.945   3.553  11.422 -0.5014 -0.1041  0.5009
  835MPD2     H12331   3.058   3.926  11.391  0.0786 -0.3074  0.3031
  835MPD2    H112332   3.039   3.561  11.618  0.7630  1.4283  0.2181
  835MPD2    H212333   2.872   3.563  11.229 -0.9991  0.9012  1.5734
  835MPD2    H312334   2.923   3.447  11.416  0.8242 -0.4678  2.3074
  835MPD2     N12335   3.085   3.807  11.636 -0.2345 -0.4721  0.1844
  835MPD2    H512336   3.089   3.740  11.712  2.7955 -0.2239  0.2394
  835MPD2    N112337   2.896   3.814  11.180  0.2677  0.0057  0.3148
  835MPD2    H712338   2.836   3.758  11.121  0.4292 -0.9966  1.0825
  836MPD2     C12339   2.872   4.517  11.976  0.4370  0.6175  1.2051
  836MPD2    C112340   2.869   4.395  12.039  0.2875  0.2851 -0.0808
  836MPD2    C212341   2.770   4.363  12.130  0.3484  0.6182  0.5818
  836MPD2    C312342   2.668   4.454  12.154 -0.2481  0.3241  0.8690
  836MPD2    C412343   2.677   4.578  12.091 -0.0143 -0.0333 -0.1853
  836MPD2    C512344   2.768   4.604  12.002 -0.1410  0.4031  0.2028
  836MPD2     H12345   2.772   4.264  12.175  1.4042 -0.5350 -1.9186
  836MPD2    H112346   2.602   4.654  12.113 -0.3866 -0.4808  0.0695
  836MPD2    H212347   2.952   4.546  11.909 -1.3166  0.1878 -1.0858
  836MPD2    H312348   2.772   4.704  11.961  0.2599  0.4939  0.4628
  836MPD2     N12349   2.572   4.424  12.252  0.1107  0.2960 -0.2987
  836MPD2    H512350   2.502   4.495  12.273 -0.9686 -0.3346 -1.7525
  836MPD2    N112351   2.975   4.307  12.000 -0.0249  0.1860  0.4015
  836MPD2    H712352   3.035   4.328  11.921 -1.0090 -1.1029 -0.6928
  837MPD2     C12353   1.381   4.050   9.683 -0.0661 -0.5299 -0.1981
  837MPD2    C112354   1.298   4.054   9.797 -0.5502  0.5240 -0.6552
  837MPD2    C212355   1.282   4.171   9.874 -0.7260  0.7722  0.3803
  837MPD2    C312356   1.348   4.283   9.840 -0.8456  0.2278 -1.0608
  837MPD2    C412357   1.433   4.287   9.726 -0.4941 -0.0415 -0.2075
  837MPD2    C512358   1.454   4.167   9.658 -0.4567  0.0163  0.2242
  837MPD2     H12359   1.208   4.172   9.954 -0.0483  0.0519  1.0164
  837MPD2    H112360   1.509   4.364   9.719 -0.3458 -0.2783 -1.1458
  837MPD2    H212361   1.387   3.965   9.617  0.0913 -1.5574  1.1516
  837MPD2    H312362   1.525   4.163   9.575 -1.5438 -0.3842 -0.6863
  837MPD2     N12363   1.313   4.390   9.928  0.4489  0.2678 -0.2467
  837MPD2    H512364   1.239   4.367   9.994  1.7251 -0.6133  0.8774
  837MPD2    N112365   1.234   3.939   9.849 -0.6641 -0.4115  0.3721
  837MPD2    H712366   1.187   3.946   9.939  1.4770  0.7206  1.4165
  838MPD2     C12367   0.185   2.195  12.128  0.7818  0.2722 -0.3867
  838MPD2    C112368   0.084   2.115  12.087  0.0392 -0.2052 -0.5607
  838MPD2    C212369   0.042   2.020  12.173  0.6453 -0.2521 -1.3305
  838MPD2    C312370   0.096   2.000  12.300 -0.1843 -0.3301  0.2788
  838MPD2    C412371   0.192   2.089  12.349  0.2806  0.5731  0.6964
  838MPD2    C512372   0.230   2.185  12.258 -0.0395  0.0349 -0.0598
  838MPD2     H12373   4.696   1.958  12.142 -0.0958  0.8425 -1.5397
  838MPD2    H112374   0.231   2.091  12.450  1.4986  0.2005  0.2389
  838MPD2    H212375   0.238   2.268  12.069 -0.9756  0.7498 -1.3490
  838MPD2    H312376   0.312   2.253  12.279 -1.1990  1.2142  0.6888
  838MPD2     N12377   0.044   1.901  12.382 -0.2651  0.6302 -0.4108
  838MPD2    H512378   0.068   1.915  12.479  1.3622  0.9757 -0.8706
  838MPD2    N112379   0.011   2.147  11.971  0.9428 -0.6518 -0.8745
  838MPD2    H712380   4.672   2.083  11.952 -0.2554  0.2986  0.7838
  839MPD2     C12381   4.007   1.775  11.815 -0.1201 -0.2661  0.5988
  839MPD2    C112382   4.104   1.727  11.721  0.1679  0.0707 -0.3899
  839MPD2    C212383   4.222   1.804  11.705 -0.7051 -0.3888 -1.3475
  839MPD2    C312384   4.223   1.938  11.754 -0.5155 -0.5974 -0.7725
  839MPD2    C412385   4.119   1.987  11.826  0.6057  0.9518  0.1305
  839MPD2    C512386   4.017   1.909  11.856  0.6375 -0.3002  0.5687
  839MPD2     H12387   4.297   1.766  11.636  1.7500  0.7439  0.6835
  839MPD2    H112388   4.112   2.090  11.856 -1.9430 -0.2380  3.5565
  839MPD2    H212389   3.923   1.719  11.853 -0.0531 -0.0616  1.0525
  839MPD2    H312390   3.932   1.959  11.900  1.5368  0.5214  1.3778
  839MPD2     N12391   4.338   2.018  11.745 -0.1951  0.1911 -0.2955
  839MPD2    H512392   4.329   2.109  11.788  0.1903  0.4904 -0.8450
  839MPD2    N112393   4.100   1.601  11.660  0.0116 -0.1806  0.2666
  839MPD2    H712394   4.179   1.586  11.598 -0.2810 -0.5314 -0.0172
  840MPD2     C12395   4.701   4.523  10.215 -0.6787  0.0859 -0.0786
  840MPD2    C112396   4.654   4.459  10.328  0.6287 -0.0737 -0.3660
  840MPD2    C212397   4.737   4.459  10.439  0.0681 -0.0870 -0.1101
  840MPD2    C312398   0.106   4.546  10.442 -0.3821 -0.0604  0.5814
  840MPD2    C412399   0.137   4.619  10.333  0.1201 -0.1941  0.0851
  840MPD2    C512400   0.071   4.600  10.217  0.2705 -0.7412 -0.3538
  840MPD2     H12401   4.706   4.392  10.519  2.2786  2.7343  3.0943
  840MPD2    H112402   0.214   4.695  10.334 -0.1277  0.0582 -0.1228
  840MPD2    H212403   4.650   4.516  10.120  1.1672 -0.9658 -0.9822
  840MPD2    H312404   0.097   4.657  10.129 -1.4826  0.4250 -0.1219
  840MPD2     N12405   0.183   4.576  10.557  0.4406 -0.0077  0.6444
  840MPD2    H512406   0.272   4.622  10.539 -1.5122  3.1236 -0.9441
  840MPD2    N112407   4.533   4.389  10.307 -0.5090 -0.3690  0.3540
  840MPD2    H712408   4.486   4.408  10.219 -0.5608 -0.3307  0.3901
  841MPD2     C12409   3.963   4.469  14.322  0.1689 -0.1955  0.1210
  841MPD2    C112410   4.000   4.335  14.339  0.0780  0.5051 -0.0942
  841MPD2    C212411   4.083   4.299  14.441  0.3966 -0.0912 -0.0710
  841MPD2    C312412   4.129   4.397  14.528 -0.0372 -0.2424 -0.6783
  841MPD2    C412413   4.092   4.532  14.506 -0.1684  0.3345  0.3171
  841MPD2    C512414   4.018   4.570  14.397 -0.1632 -0.3727 -0.0209
  841MPD2     H12415   4.116   4.196  14.443  3.3857  0.8821  2.7460
  841MPD2    H112416   4.139   4.609  14.567  0.7773  1.9674 -2.4752
  841MPD2    H212417   3.890   4.500  14.248  1.4965 -0.6668 -1.3942
  841MPD2    H312418   4.008   4.675  14.375  0.8676  0.0063  1.3483
  841MPD2     N12419   4.220   4.353  14.630  0.2223  0.8673 -0.4737
  841MPD2    H512420   4.239   4.254  14.638 -0.9688  0.7344  0.6155
  841MPD2    N112421   3.962   4.246  14.241 -0.6254 -0.1027  0.3778
  841MPD2    H712422   3.980   4.146  14.251 -2.2836 -0.4443 -0.0945
  842MPD2     C12423   0.019   0.157  17.075  0.1307  0.8319  0.4620
  842MPD2    C112424   4.626   0.100  17.068  0.5640  0.4657 -0.2299
  842MPD2    C212425   4.582   0.024  17.174 -0.3119  0.6913  0.7390
  842MPD2    C312426   4.673   4.719  17.267 -0.2098 -0.1171 -0.0255
  842MPD2    C412427   0.066   0.029  17.267  0.4491  0.5704 -0.3122
  842MPD2    C512428   0.101   0.124  17.174 -0.2751 -0.2123 -0.1247
  842MPD2     H12429   4.481   4.722  17.183 -0.6603  1.5651  0.6614
  842MPD2    H112430   0.142   4.733  17.337 -1.2299 -1.4179  0.5623
  842MPD2    H212431   0.056   0.224  16.998 -0.2876  1.4168  0.7777
  842MPD2    H312432   0.205   0.151  17.158 -0.4830  0.6391 -0.0374
  842MPD2     N12433   4.640   4.623  17.358 -0.2082 -0.2555 -0.0086
  842MPD2    H512434   4.719   4.581  17.406  1.1032  1.8693 -0.3464
  842MPD2    N112435   4.542   0.129  16.962  0.1051 -0.2191 -0.6211
  842MPD2    H712436   4.584   0.165  16.877  0.0466  1.9108  0.2614
  843MPD2     C12437   2.050   1.356  17.210  0.4110  0.6115 -0.8335
  843MPD2    C112438   2.033   1.279  17.323 -0.0297  0.4757 -0.5456
  843MPD2    C212439   2.075   1.336  17.439 -0.5665  0.3456  0.2719
  843MPD2    C312440   2.131   1.466  17.443 -0.1711 -0.6155  0.2777
  843MPD2    C412441   2.128   1.545  17.328 -0.4052 -0.1767  0.2045
  843MPD2    C512442   2.087   1.482  17.214  0.6638 -0.3514 -0.3914
  843MPD2     H12443   2.078   1.285  17.535 -1.2486 -0.3127 -0.0587
  843MPD2    H112444   2.160   1.648  17.327 -2.2362  0.3452 -2.5795
  843MPD2    H212445   2.018   1.315  17.116  1.3583 -2.5037  0.1982
  843MPD2    H312446   2.081   1.546  17.126  0.3857 -0.5889 -0.5472
  843MPD2     N12447   2.162   1.514  17.574 -0.1407  0.4159  0.3428
  843MPD2    H512448   2.150   1.452  17.653 -0.8290 -1.6925 -1.3862
  843MPD2    N112449   1.963   1.157  17.311 -0.3135  0.2629  0.5739
  843MPD2    H712450   1.897   1.153  17.234 -3.8893  0.0229  3.6703
  844MPD2     C12451   4.703   4.139  16.574 -0.2042  0.0809  0.6294
  844MPD2    C112452   0.036   4.195  16.466 -1.2740 -0.4604  0.2534
  844MPD2    C212453   0.147   4.278  16.499  0.0906 -0.2792  0.3169
  844MPD2    C312454   0.193   4.281  16.626 -0.4774  0.0457  0.3304
  844MPD2    C412455   0.129   4.221  16.730  0.6932  0.2117 -0.2744
  844MPD2    C512456   0.010   4.150  16.702 -0.3430 -0.3121  0.3591
  844MPD2     H12457   0.193   4.340  16.423  0.7057 -1.3031 -0.1539
  844MPD2    H112458   0.173   4.204  16.827  1.4100  2.1545 -0.2634
  844MPD2    H212459   4.619   4.071  16.557 -1.7085  2.2886 -0.7288
  844MPD2    H312460   4.683   4.106  16.777 -0.7488 -1.5340 -0.6858
  844MPD2     N12461   0.320   4.348  16.634  0.0333  0.2729  0.2033
  844MPD2    H512462   0.363   4.393  16.554 -0.6997 -0.4678 -0.6073
  844MPD2    N112463   0.013   4.156  16.328 -0.0173  0.0383 -0.6341
  844MPD2    H712464   4.685   4.080  16.310  0.4475  0.1507 -2.7374
  845MPD2     C12465   0.704   0.521  16.753 -0.4085  0.6655 -0.1022
  845MPD2    C112466   0.759   0.447  16.859  0.1485 -1.2652 -0.3278
  845MPD2    C212467   0.753   0.304  16.859 -0.6164 -0.0872  0.0400
  845MPD2    C312468   0.699   0.237  16.755 -0.4324 -0.6363  0.5221
  845MPD2    C412469   0.649   0.309  16.647 -0.3084 -0.1774  0.6928
  845MPD2    C512470   0.663   0.447  16.651  0.0906  0.5526  0.3985
  845MPD2     H12471   0.791   0.248  16.944 -1.3877  0.1305  0.5224
  845MPD2    H112472   0.610   0.263  16.558  0.6773 -1.4840  0.9356
  845MPD2    H212473   0.716   0.628  16.741  0.4693  0.3091 -2.3304
  845MPD2    H312474   0.621   0.508  16.571 -0.1511 -0.1436 -0.0112
  845MPD2     N12475   0.705   0.089  16.762 -0.8640  0.1455  0.4450
  845MPD2    H512476   0.752   0.038  16.836 -1.4271 -1.1056 -0.0734
  845MPD2    N112477   0.824   0.533  16.953  0.4076 -0.1692  0.8309
  845MPD2    H712478   0.808   0.632  16.940  0.4082 -0.4527 -1.2340
  846MPD2     C12479   2.384   0.975  13.708 -0.0304  0.1785  0.3933
  846MPD2    C112480   2.272   1.060  13.724 -0.2173 -0.3909 -0.6264
  846MPD2    C212481   2.208   1.052  13.849 -0.1706 -0.2771  0.2586
  846MPD2    C312482   2.246   0.959  13.949  0.2641 -1.4768  0.0842
  846MPD2    C412483   2.355   0.875  13.922 -0.3759  0.0276  0.3147
  846MPD2    C512484   2.421   0.885  13.802  0.1452 -1.2361 -0.2311
  846MPD2     H12485   2.121   1.113  13.871 -0.7371 -1.3340  0.9858
  846MPD2    H112486   2.380   0.793  13.988 -1.1556 -0.0547  0.5006
  846MPD2    H212487   2.440   0.975  13.615 -1.2743  1.7439 -0.3395
  846MPD2    H312488   2.506   0.818  13.788  1.1197  0.4266 -2.2423
  846MPD2     N12489   2.178   0.960  14.075  0.6361  0.0612  0.6260
  846MPD2    H512490   2.082   0.995  14.080  0.7663  0.3444  1.1446
  846MPD2    N112491   2.220   1.146  13.627 -0.6976  0.3186 -0.7402
  846MPD2    H712492   2.159   1.222  13.653 -0.2837  0.3498  0.1380
  847MPD2     C12493   2.358   2.422  14.577  0.8375 -0.4105 -0.7406
  847MPD2    C112494   2.360   2.309  14.660  0.4511  0.1520  0.1685
  847MPD2    C212495   2.458   2.212  14.648 -0.3730  0.0127 -0.2402
  847MPD2    C312496   2.564   2.226  14.555 -0.3195  0.3578 -0.0953
  847MPD2    C412497   2.565   2.348  14.489 -0.3448  0.3876 -0.0601
  847MPD2    C512498   2.461   2.436  14.491 -0.2619 -0.0873  0.2444
  847MPD2     H12499   2.456   2.130  14.719 -1.1684 -0.5314 -0.8932
  847MPD2    H112500   2.643   2.375  14.418  0.3740  1.2616  1.0721
  847MPD2    H212501   2.277   2.494  14.578 -0.1981 -1.6015  1.5682
  847MPD2    H312502   2.477   2.527  14.434 -0.2163 -0.1871  0.0989
  847MPD2     N12503   2.676   2.141  14.550 -0.0338 -0.3738  0.1288
  847MPD2    H512504   2.754   2.182  14.500  0.6480  0.6981  2.1037
  847MPD2    N112505   2.264   2.305  14.759  1.5900  0.3246 -0.1477
  847MPD2    H712506   2.274   2.231  14.828 -1.4172  0.5503  0.5163
  848MPD2     C12507   0.151   0.100  16.338  0.7307  0.1677 -0.2299
  848MPD2    C112508   0.204   0.153  16.452 -0.4731  0.0271  0.7831
  848MPD2    C212509   0.258   0.282  16.449  0.3278 -0.0477 -0.4482
  848MPD2    C312510   0.267   0.358  16.331  0.2664 -0.3788 -0.8323
  848MPD2    C412511   0.221   0.295  16.220 -0.0927  0.0274  0.4332
  848MPD2    C512512   0.173   0.170  16.216 -0.0388 -0.0918  0.1137
  848MPD2     H12513   0.294   0.327  16.541 -1.9363  0.6133  0.1177
  848MPD2    H112514   0.217   0.347  16.125 -0.8223 -2.2410 -0.7664
  848MPD2    H212515   0.116   4.734  16.334 -1.2634  0.7946  1.2786
  848MPD2    H312516   0.140   0.133  16.120 -1.9962 -1.0855  1.1640
  848MPD2     N12517   0.299   0.490  16.315 -0.1261 -0.4271 -0.1353
  848MPD2    H512518   0.291   0.521  16.219 -1.4576 -1.1154 -0.2334
  848MPD2    N112519   0.203   0.082  16.579 -0.3531  0.4610  0.0585
  848MPD2    H712520   0.239   0.133  16.658 -1.0983  0.2424  0.5412
  849MPD2     C12521   4.244   0.206  13.919  0.0134 -0.3419  0.0281
  849MPD2    C112522   4.361   0.135  13.912  0.0644 -0.2146 -0.0964
  849MPD2    C212523   4.400   0.070  14.027  0.2665  0.0728  0.1871
  849MPD2    C312524   4.327   0.078  14.149  0.3700  0.2562 -0.3684
  849MPD2    C412525   4.213   0.156  14.154  0.1651 -0.3603 -0.0924
  849MPD2    C512526   4.167   0.204  14.030 -0.8904  0.7427 -0.6714
  849MPD2     H12527   4.491   0.012  14.021 -0.0896 -0.1817 -3.0039
  849MPD2    H112528   4.152   0.170  14.243 -2.0801  1.4516 -1.8958
  849MPD2    H212529   4.208   0.265  13.836 -2.8462 -0.9705  0.8097
  849MPD2    H312530   4.079   0.266  14.033 -0.5969  1.0637  1.2869
  849MPD2     N12531   4.378   0.008  14.260  0.0012  0.4731 -0.2015
  849MPD2    H512532   4.454   4.683  14.234 -0.7318 -0.4041 -0.2347
  849MPD2    N112533   4.445   0.110  13.808  0.3895  0.6912  0.3331
  849MPD2    H712534   4.521   0.046  13.829 -0.8751 -0.9398 -0.1229
  850MPD2     C12535   2.411   2.767  14.776  0.5910  0.1376 -0.9116
  850MPD2    C112536   2.429   2.878  14.847 -0.7227  0.4074  0.0475
  850MPD2    C212537   2.557   2.910  14.896 -0.2172  0.1315  0.0332
  850MPD2    C312538   2.666   2.825  14.875 -0.0874  0.5043 -0.3105
  850MPD2    C412539   2.646   2.709  14.796  0.8396  0.2503  0.5589
  850MPD2    C512540   2.523   2.686  14.755 -0.3138 -0.6499  0.6175
  850MPD2     H12541   2.578   3.007  14.942 -2.1032  0.9670 -0.8667
  850MPD2    H112542   2.724   2.633  14.793  1.7219  1.1760  0.1194
  850MPD2    H212543   2.319   2.736  14.729 -0.0148 -3.7504  2.8564
  850MPD2    H312544   2.509   2.598  14.693  0.5347 -1.0364  0.9735
  850MPD2     N12545   2.797   2.849  14.930 -0.4497  0.2333  0.1793
  850MPD2    H512546   2.871   2.780  14.923 -0.4747  0.1927  0.3119
  850MPD2    N112547   2.318   2.960  14.863  0.2536  0.1443  0.2950
  850MPD2    H712548   2.235   2.934  14.812  1.9968 -3.1973 -0.8696
  851MPD2     C12549   2.833   2.858  15.485 -0.5007  0.5940 -0.7564
  851MPD2    C112550   2.712   2.838  15.430 -0.5747 -0.6119 -0.3890
  851MPD2    C212551   2.668   2.702  15.412  0.0278  0.4225 -0.2664
  851MPD2    C312552   2.756   2.605  15.448 -0.1287  0.1907  0.0356
  851MPD2    C412553   2.876   2.628  15.509  0.2425 -0.1066 -0.2143
  851MPD2    C512554   2.917   2.759  15.514 -0.3727  0.1788  0.2959
  851MPD2     H12555   2.569   2.676  15.376  0.3945  1.8995 -2.3571
  851MPD2    H112556   2.939   2.551  15.552 -1.4968 -0.3398  1.9647
  851MPD2    H212557   2.865   2.961  15.498 -1.9698  0.7722  1.5008
  851MPD2    H312558   3.014   2.777  15.559 -0.8853 -0.6717  1.7280
  851MPD2     N12559   2.724   2.468  15.428 -0.2311 -0.3714  0.2552
  851MPD2    H512560   2.627   2.453  15.404 -0.0646 -1.5483  0.2918
  851MPD2    N112561   2.632   2.956  15.401  0.1369  0.3135 -0.0741
  851MPD2    H712562   2.679   3.046  15.401 -1.4147  1.0979 -3.1530
  852MPD2     C12563   2.380   1.362  10.427 -0.2363 -0.3799  0.4582
  852MPD2    C112564   2.478   1.379  10.518 -0.1554 -0.1125 -0.1124
  852MPD2    C212565   2.595   1.443  10.484  0.0432  0.5574 -0.2052
  852MPD2    C312566   2.613   1.507  10.366  0.6252 -0.5030  0.4764
  852MPD2    C412567   2.512   1.489  10.271  0.3673  0.1808  0.3268
  852MPD2    C512568   2.404   1.413  10.304  0.4216 -0.2301 -0.4251
  852MPD2     H12569   2.674   1.452  10.558 -1.7240  0.1508  1.7318
  852MPD2    H112570   2.513   1.545  10.178 -2.4715 -1.0289 -0.4347
  852MPD2    H212571   2.293   1.300  10.443 -1.3138  0.7782 -0.8904
  852MPD2    H312572   2.327   1.389  10.231 -0.2640  1.8123 -0.3498
  852MPD2     N12573   2.734   1.569  10.343 -0.4361 -0.1036 -0.4781
  852MPD2    H512574   2.796   1.577  10.423 -0.7353 -0.1628 -0.2387
  852MPD2    N112575   2.474   1.319  10.650 -0.0698  0.3431  0.1212
  852MPD2    H712576   2.563   1.326  10.699 -0.2152 -1.2667  0.6200
  853MPD2     C12577   3.925   0.010  12.437 -0.2194 -0.7042 -0.3070
  853MPD2    C112578   3.854   0.121  12.398 -0.2645  0.2611 -0.0945
  853MPD2    C212579   3.902   0.204  12.290  0.4951  0.1724  0.3505
  853MPD2    C312580   4.009   0.159  12.219  0.5148 -0.7902  0.6241
  853MPD2    C412581   4.083   0.047  12.266 -0.1750 -0.3191 -0.2027
  853MPD2    C512582   4.042   4.720  12.377 -0.7263  1.1558  0.4657
  853MPD2     H12583   3.840   0.290  12.265  0.6503  0.5823  1.3966
  853MPD2    H112584   4.160   0.008  12.200  1.0466  0.3615  0.8257
  853MPD2    H212585   3.887   4.689  12.520 -0.4876 -1.5992 -1.0511
  853MPD2    H312586   4.092   4.634  12.421 -0.9126  0.1922 -1.1922
  853MPD2     N12587   4.043   0.223  12.101  0.6123 -0.1737 -0.2517
  853MPD2    H512588   4.117   0.178  12.048 -0.4680 -0.6752 -1.3392
  853MPD2    N112589   3.737   0.154  12.464 -0.2422 -0.2951 -0.1980
  853MPD2    H712590   3.721   0.087  12.539  0.7358  3.2487  3.1888
  854MPD2     C12591   0.989   0.529  12.676 -0.1187 -0.8243  0.1414
  854MPD2    C112592   1.030   0.421  12.601 -0.3882  0.5729  0.2349
  854MPD2    C212593   1.113   0.319  12.649 -0.0852 -0.5569  0.5972
  854MPD2    C312594   1.140   0.324  12.784  0.3267  0.7469 -0.2790
  854MPD2    C412595   1.105   0.434  12.864  0.4201  0.3393 -0.4049
  854MPD2    C512596   1.024   0.540  12.807  0.6026 -0.4390  0.4971
  854MPD2     H12597   1.137   0.234  12.587 -2.0397 -0.6199 -0.0741
  854MPD2    H112598   1.128   0.441  12.970 -1.7994 -0.5665  0.1317
  854MPD2    H212599   0.938   0.608  12.623 -0.0638  0.3637  1.8647
  854MPD2    H312600   0.977   0.614  12.871  0.7495 -0.2305  0.3669
  854MPD2     N12601   1.214   0.230  12.848 -0.3539 -0.5138  0.1011
  854MPD2    H512602   1.237   0.252  12.945  1.1085 -2.5014  0.2004
  854MPD2    N112603   1.001   0.424  12.461 -0.2882 -0.0238  0.0607
  854MPD2    H712604   0.938   0.502  12.445 -0.4301 -0.3498 -0.9414
  855MPD2     C12605   1.296   0.312  13.641 -0.4421  0.3492 -0.2619
  855MPD2    C112606   1.362   0.187  13.645 -0.5658  0.2736  0.0136
  855MPD2    C212607   1.401   0.132  13.526 -0.1710 -0.6635 -0.0717
  855MPD2    C312608   1.359   0.191  13.407  0.4504 -0.0486  0.1104
  855MPD2    C412609   1.293   0.308  13.410  0.5722  0.2288 -0.4231
  855MPD2    C512610   1.255   0.364  13.522 -0.1784  0.0953  0.2552
  855MPD2     H12611   1.455   0.038  13.531 -1.0245 -1.0824  1.4109
  855MPD2    H112612   1.263   0.353  13.316  1.2877 -0.0610 -0.7914
  855MPD2    H212613   1.273   0.369  13.731  0.9926  0.0226  0.3201
  855MPD2    H312614   1.197   0.455  13.515  1.9701  1.4448 -0.1039
  855MPD2     N12615   1.370   0.131  13.275 -0.0672 -0.0244  0.3446
  855MPD2    H512616   1.327   0.177  13.195 -0.4968 -0.7749  0.1499
  855MPD2    N112617   1.377   0.104  13.766  0.5936 -0.5925 -0.7456
  855MPD2    H712618   1.434   0.020  13.752 -0.2305 -1.1464 -0.7590
  856MPD2     C12619   3.596   0.705  14.351 -0.1155 -0.3116 -0.6943
  856MPD2    C112620   3.626   0.837  14.338 -0.0016  0.7773 -0.4602
  856MPD2    C212621   3.527   0.933  14.325 -0.4442 -0.2661  0.0151
  856MPD2    C312622   3.396   0.899  14.314 -0.1279 -0.1664 -0.1676
  856MPD2    C412623   3.364   0.763  14.334  1.0988 -0.1476 -0.2057
  856MPD2    C512624   3.463   0.668  14.358 -0.2213 -0.1828  0.0302
  856MPD2     H12625   3.563   1.035  14.324 -1.7774  0.2016  0.2266
  856MPD2    H112626   3.259   0.735  14.337  0.9827  0.1858 -1.2282
  856MPD2    H212627   3.665   0.626  14.378 -1.0025 -1.3555 -1.5001
  856MPD2    H312628   3.444   0.565  14.386  0.1321 -1.2743 -3.7173
  856MPD2     N12629   3.293   0.995  14.295 -0.2023  1.0601 -0.1381
  856MPD2    H512630   3.201   0.952  14.291  0.2934 -0.0636  0.3276
  856MPD2    N112631   3.751   0.887  14.324 -0.3375 -0.4851  0.5033
  856MPD2    H712632   3.764   0.988  14.320 -2.5712 -0.2963 -1.8193
  857MPD2     C12633   0.524   3.425  12.317  0.1096 -0.1036  0.0496
  857MPD2    C112634   0.494   3.407  12.447  0.0868  0.3758  0.1464
  857MPD2    C212635   0.457   3.513  12.529  0.8625  0.0181 -0.1481
  857MPD2    C312636   0.458   3.642  12.490 -0.0406  0.1856  0.1872
  857MPD2    C412637   0.488   3.665  12.353  0.0391 -0.4548 -0.3177
  857MPD2    C512638   0.517   3.558  12.269 -0.0459 -0.2194 -0.0921
  857MPD2     H12639   0.451   3.495  12.635 -0.1429 -3.1440 -0.7486
  857MPD2    H112640   0.500   3.764  12.312  1.5112 -0.5130 -0.0252
  857MPD2    H212641   0.544   3.349  12.242  5.0936  1.3642 -0.1159
  857MPD2    H312642   0.522   3.589  12.166  1.7109 -0.2698 -0.0282
  857MPD2     N12643   0.444   3.749  12.586 -0.7493  0.5200  0.3401
  857MPD2    H512644   0.451   3.707  12.678  2.2889  2.8060  1.1408
  857MPD2    N112645   0.495   3.273  12.493 -0.3240  0.0834  0.0300
  857MPD2    H712646   0.541   3.206  12.432 -0.5161  0.9199 -1.0185
  858MPD2     C12647   0.938   2.683  16.374 -0.5063  0.1513  0.5995
  858MPD2    C112648   0.972   2.562  16.426 -0.5209 -0.2340 -0.0133
  858MPD2    C212649   0.955   2.540  16.560  0.0252  0.5143 -0.0516
  858MPD2    C312650   0.905   2.637  16.642 -0.2454 -0.4805  0.1607
  858MPD2    C412651   0.861   2.754  16.579 -0.3311 -0.1811 -0.6146
  858MPD2    C512652   0.890   2.781  16.448 -0.5997  0.4168 -0.2118
  858MPD2     H12653   0.966   2.438  16.594 -1.8250 -0.2561 -1.6937
  858MPD2    H112654   0.823   2.835  16.641  0.5785  0.1814 -0.5386
  858MPD2    H212655   0.951   2.713  16.270 -1.4786  0.3793  0.5469
  858MPD2    H312656   0.859   2.880  16.416 -0.3634  0.9958  1.3755
  858MPD2     N12657   0.862   2.617  16.778 -0.4395  0.3085 -0.5535
  858MPD2    H512658   0.781   2.672  16.806 -0.0050 -0.5819  2.4242
  858MPD2    N112659   1.026   2.471  16.331 -0.1743 -0.3053 -0.7481
  858MPD2    H712660   0.998   2.479  16.234  0.1597 -0.0127 -0.8189
  859MPD2     C12661   4.459   3.952  15.599  0.2508  0.0396 -0.1397
  859MPD2    C112662   4.418   3.938  15.465 -0.5409  0.2265 -0.7706
  859MPD2    C212663   4.437   3.807  15.412 -0.2251 -0.1918 -0.0826
  859MPD2    C312664   4.488   3.701  15.488  0.4265 -0.1596 -0.6888
  859MPD2    C412665   4.513   3.719  15.621 -0.3258 -0.7464 -0.0209
  859MPD2    C512666   4.496   3.841  15.675 -0.6760  0.0846 -0.4992
  859MPD2     H12667   4.433   3.792  15.304  1.7882  2.4174 -0.5260
  859MPD2    H112668   4.548   3.638  15.684  0.4898  0.8533  1.6110
  859MPD2    H212669   4.476   4.050  15.643 -3.2560  0.7420 -0.3312
  859MPD2    H312670   4.530   3.867  15.774  0.3120 -1.5226 -0.4130
  859MPD2     N12671   4.522   3.576  15.433  1.1112  0.5774 -0.5197
  859MPD2    H512672   4.570   3.515  15.498 -1.3253 -1.1121 -0.3170
  859MPD2    N112673   4.384   4.053  15.398 -0.4588 -0.7460  0.8561
  859MPD2    H712674   4.382   4.144  15.444 -0.7494  0.9724 -2.4893
  860MPD2     C12675   2.226   0.033  11.373  0.3113 -0.0996 -0.2491
  860MPD2    C112676   2.265   0.110  11.486 -0.6694 -0.0147 -0.3592
  860MPD2    C212677   2.212   0.082  11.606 -0.0126 -0.3788  0.0560
  860MPD2    C312678   2.127   4.712  11.622  0.3059  0.0871  0.3538
  860MPD2    C412679   2.088   4.637  11.509 -0.6459 -0.1410 -0.5900
  860MPD2    C512680   2.134   4.673  11.389  0.1198 -0.8520 -0.1218
  860MPD2     H12681   2.259   0.118  11.697  1.4447  0.9831 -1.2238
  860MPD2    H112682   2.009   4.564  11.522  0.7248 -1.5994 -0.5616
  860MPD2    H212683   2.271   0.055  11.277  0.5675 -1.0565 -0.3518
  860MPD2    H312684   2.106   4.621  11.298  3.2184  0.0763 -1.6129
  860MPD2     N12685   2.087   4.689  11.755 -0.4826  0.2222 -0.0268
  860MPD2    H512686   2.134   0.011  11.823 -0.6387  0.7212 -0.3459
  860MPD2    N112687   2.360   0.215  11.478 -0.6686 -0.3027  0.0867
  860MPD2    H712688   2.389   0.269  11.559  0.4140 -0.9245  0.1052
  861MPD2     C12689   1.247   3.143  10.919 -0.3646 -0.0764 -0.1140
  861MPD2    C112690   1.126   3.114  10.979  0.0959  0.2699 -0.6796
  861MPD2    C212691   1.016   3.166  10.919 -0.6604 -0.0360 -0.5767
  861MPD2    C312692   1.021   3.233  10.797 -0.5838 -0.0357  0.8862
  861MPD2    C412693   1.145   3.245  10.734 -0.0304  0.1662 -0.1812
  861MPD2    C512694   1.260   3.204  10.799  0.0571  0.2101 -0.0160
  861MPD2     H12695   0.919   3.156  10.967 -0.2722 -1.4564 -0.0714
  861MPD2    H112696   1.160   3.287  10.635  1.5897  0.4189  0.1743
  861MPD2    H212697   1.343   3.133  10.968 -0.3511 -0.2622 -0.1756
  861MPD2    H312698   1.356   3.215  10.750 -0.2500  0.6608 -0.5302
  861MPD2     N12699   0.906   3.283  10.733  0.0756  0.0468  0.1172
  861MPD2    H512700   0.922   3.353  10.661  0.0001  1.1091  1.1272
  861MPD2    N112701   1.109   3.058  11.105  0.3680 -0.1633 -0.0791
  861MPD2    H712702   1.016   3.063  11.146  0.2546  0.2128 -0.3817
  862MPD2     C12703   0.300   3.648  10.364  0.0225  0.5163  0.0630
  862MPD2    C112704   0.413   3.588  10.422 -0.1792 -0.2696  0.2443
  862MPD2    C212705   0.404   3.461  10.458 -0.1280 -0.0833  0.0874
  862MPD2    C312706   0.284   3.392  10.448 -0.2265  0.0320 -0.4669
  862MPD2    C412707   0.171   3.447  10.390  0.6022 -0.1307 -0.5050
  862MPD2    C512708   0.184   3.577  10.349 -0.0527  0.5391  1.0832
  862MPD2     H12709   0.493   3.412  10.494 -0.9125 -0.3721  1.6056
  862MPD2    H112710   0.078   3.393  10.379 -0.5598  0.9173  4.3300
  862MPD2    H212711   0.301   3.756  10.350 -3.0496  0.6110  0.4527
  862MPD2    H312712   0.095   3.630  10.319 -1.4382 -1.3704  1.8099
  862MPD2     N12713   0.264   3.257  10.499 -0.1832 -0.2776 -0.6277
  862MPD2    H512714   0.174   3.210  10.499 -0.5942  0.5210  1.6665
  862MPD2    N112715   0.534   3.671  10.428 -0.3724  0.6388  0.1243
  862MPD2    H712716   0.529   3.750  10.363  0.8774  0.4184 -0.2480
  863MPD2     C12717   3.359   1.403  16.878 -0.0614 -0.5409  0.2198
  863MPD2    C112718   3.432   1.429  16.767  0.7906 -0.6360  0.3663
  863MPD2    C212719   3.564   1.392  16.757 -0.4096  0.0509 -0.1113
  863MPD2    C312720   3.626   1.315  16.854 -0.5705  0.0073  0.4968
  863MPD2    C412721   3.545   1.281  16.964  0.3257  1.1964  0.8434
  863MPD2    C512722   3.419   1.329  16.978  0.7037 -0.1680  0.1531
  863MPD2     H12723   3.621   1.415  16.668 -0.6153 -1.5228 -0.6556
  863MPD2    H112724   3.584   1.229  17.051  1.4930  0.5957 -0.0511
  863MPD2    H212725   3.254   1.427  16.885 -0.0384 -0.8257  1.5290
  863MPD2    H312726   3.367   1.308  17.071  1.8974 -0.2562  0.7982
  863MPD2     N12727   3.761   1.274  16.849 -0.0708  0.1633  0.2438
  863MPD2    H512728   3.799   1.215  16.923  0.1378  0.5117  0.4135
  863MPD2    N112729   3.364   1.491  16.660  0.2072 -0.7382 -0.7389
  863MPD2    H712730   3.276   1.538  16.678  0.1287 -0.8648 -0.7941
  864MPD2     C12731   4.305   2.378  17.077  0.2002  0.1717 -0.6568
  864MPD2    C112732   4.358   2.319  16.968  0.4346 -0.5184  0.0649
  864MPD2    C212733   4.469   2.370  16.906  0.0201 -1.0442  0.2254
  864MPD2    C312734   4.525   2.486  16.956 -0.2331 -0.6393  0.1146
  864MPD2    C412735   4.475   2.537  17.076 -0.3056  0.4277 -0.4131
  864MPD2    C512736   4.360   2.486  17.132 -0.4528  0.9240 -0.2238
  864MPD2     H12737   4.520   2.318  16.826 -2.0761 -1.1851 -0.9900
  864MPD2    H112738   4.505   2.629  17.125  1.5191  0.9824 -2.5736
  864MPD2    H212739   4.213   2.340  17.120  0.5757 -0.0649 -0.0557
  864MPD2    H312740   4.308   2.534  17.215  0.9377  1.2960  0.4214
  864MPD2     N12741   4.637   2.552  16.899 -0.4365 -0.1402 -0.1621
  864MPD2    H512742   4.663   2.643  16.936  1.7482 -0.6959 -0.3216
  864MPD2    N112743   4.292   2.208  16.925  0.9357 -0.6138 -0.0543
  864MPD2    H712744   4.210   2.175  16.976  0.1339 -0.6388 -1.3458
  865MPD2     C12745   4.380   2.553  16.531 -1.0347 -0.2056  0.4537
  865MPD2    C112746   4.499   2.596  16.475  0.1004  0.2681 -0.0215
  865MPD2    C212747   4.554   2.720  16.510 -0.5866  0.0790 -0.0313
  865MPD2    C312748   4.507   2.799  16.616  0.2605  0.6133  0.3573
  865MPD2    C412749   4.392   2.749  16.672  0.0063  0.1608 -0.9352
  865MPD2    C512750   4.332   2.631  16.635  0.2625 -0.3147  0.0966
  865MPD2     H12751   4.654   2.743  16.476 -0.0386  2.0501  2.8589
  865MPD2    H112752   4.352   2.798  16.760  1.4545 -0.3338  0.0071
  865MPD2    H212753   4.333   2.459  16.503  1.5693 -0.4632 -3.0347
  865MPD2    H312754   4.252   2.590  16.696  0.0210 -1.7854 -1.1917
  865MPD2     N12755   4.567   2.924  16.652 -0.0172 -0.4040  0.1540
  865MPD2    H512756   4.510   2.993  16.700 -0.1814  0.4617 -1.2809
  865MPD2    N112757   4.565   2.509  16.380  0.2711  0.4476 -0.1019
  865MPD2    H712758   4.524   2.418  16.361 -1.6928  1.6958 -1.7527
  866MPD2     C12759   1.519   3.395  11.678 -0.6821  0.1358  0.4838
  866MPD2    C112760   1.537   3.443  11.548  0.0824  0.0029  0.0872
  866MPD2    C212761   1.421   3.472  11.478  0.7483  0.3814  0.5421
  866MPD2    C312762   1.296   3.438  11.523  0.6098  0.4767 -0.0056
  866MPD2    C412763   1.281   3.374  11.648 -0.1473  0.2738  0.0273
  866MPD2    C512764   1.396   3.354  11.719  0.3048  1.1154  0.8483
  866MPD2     H12765   1.438   3.502  11.375 -2.0451  1.6620  0.4505
  866MPD2    H112766   1.189   3.330  11.685 -1.4356  1.8013 -1.3258
  866MPD2    H212767   1.601   3.372  11.744 -0.6004 -1.9100 -0.3165
  866MPD2    H312768   1.399   3.311  11.819  2.1686 -0.9101 -0.0634
  866MPD2     N12769   1.178   3.440  11.441  0.2571 -0.3869 -0.5847
  866MPD2    H512770   1.092   3.406  11.482 -0.1494  0.8305 -0.4361
  866MPD2    N112771   1.670   3.459  11.496  0.4591  1.2223  0.8738
  866MPD2    H712772   1.748   3.418  11.546 -1.2232 -0.6129  1.9671
  867MPD2     C12773   3.088   2.680  16.540  0.6629 -0.0890  0.2446
  867MPD2    C112774   3.200   2.674  16.615 -0.0390 -0.0540  0.7448
  867MPD2    C212775   3.242   2.785  16.681  0.0362  0.4242  0.0092
  867MPD2    C312776   3.173   2.907  16.678  0.2461 -0.2823 -1.0369
  867MPD2    C412777   3.054   2.908  16.601  0.2811  0.3486 -0.2237
  867MPD2    C512778   3.018   2.798  16.532  0.1398  0.0217  0.1917
  867MPD2     H12779   3.338   2.791  16.729  0.9267 -1.0210 -1.6028
  867MPD2    H112780   2.990   2.995  16.598 -1.5221 -1.0037 -0.9473
  867MPD2    H212781   3.036   2.593  16.501 -0.5290  0.7524 -0.0638
  867MPD2    H312782   2.923   2.801  16.480 -0.2342 -0.5273  0.8632
  867MPD2     N12783   3.208   3.017  16.767  0.4807 -0.4328 -0.1692
  867MPD2    H512784   3.147   3.097  16.760 -0.7181 -1.3576 -0.3556
  867MPD2    N112785   3.258   2.544  16.630 -0.6202 -0.0296  0.0236
  867MPD2    H712786   3.210   2.467  16.585 -2.2809  1.0517 -0.0471
  868MPD2     C12787   0.602   1.298  12.953 -0.1987 -0.3488 -0.3693
  868MPD2    C112788   0.670   1.413  12.994  0.2206 -0.0994  0.5083
  868MPD2    C212789   0.607   1.504  13.070 -0.2198  0.3991 -0.5243
  868MPD2    C312790   0.476   1.490  13.097 -0.2542  0.0151 -0.9025
  868MPD2    C412791   0.402   1.383  13.041  0.1276  0.3779 -0.5407
  868MPD2    C512792   0.471   1.289  12.968  0.4697 -0.2905 -0.3134
  868MPD2     H12793   0.668   1.588  13.101  0.8931 -1.8805  3.4072
  868MPD2    H112794   0.294   1.381  13.041  0.1167  1.2194  0.4354
  868MPD2    H212795   0.654   1.227  12.890 -2.0834  0.2158 -2.5708
  868MPD2    H312796   0.418   1.207  12.920 -0.6622  0.4902 -0.4119
  868MPD2     N12797   0.417   1.599  13.156  0.0485 -0.2726  0.2028
  868MPD2    H512798   0.480   1.674  13.182 -0.7923  0.9048 -1.1950
  868MPD2    N112799   0.812   1.438  12.981 -0.3631 -0.1970  0.0861
  868MPD2    H712800   0.858   1.524  13.009 -0.6311  0.8157 -2.6153
  869MPD2     C12801   1.476   4.405   0.585  0.1714 -0.1913 -0.4615
  869MPD2    C112802   1.492   4.427   0.449  0.5655 -0.2189 -0.0297
  869MPD2    C212803   1.574   4.534   0.415 -0.4482  0.8251  0.1793
  869MPD2    C312804   1.652   4.599   0.508  0.5455  0.1781 -0.1997
  869MPD2    C412805   1.642   4.564   0.639  0.7833 -0.5118 -0.2183
  869MPD2    C512806   1.551   4.468   0.684 -0.0557 -0.1572  0.1459
  869MPD2     H12807   1.589   4.555   0.310  0.0987  1.5610  0.4113
  869MPD2    H112808   1.687   4.614   0.724 -0.8475  0.9349 -0.2059
  869MPD2    H212809   1.410   4.326   0.622  1.1109 -1.1816 -0.9074
  869MPD2    H312810   1.541   4.434   0.786  0.6638  0.7034  0.5065
  869MPD2     N12811   1.746   4.702   0.474 -0.4354 -0.8136 -0.3946
  869MPD2    H512812   1.790   0.016   0.550  2.3241 -0.1150 -2.4357
  869MPD2    N112813   1.429   4.334   0.364 -0.5068  0.5620  0.6552
  869MPD2    H712814   1.378   4.259   0.411 -0.6300  0.4450  0.3346
  870MPD2     C12815   1.323   2.801   1.448 -0.0827 -0.3569 -0.1368
  870MPD2    C112816   1.449   2.839   1.387  0.7525  0.5959 -0.6904
  870MPD2    C212817   1.474   2.977   1.377 -0.4763 -0.6023  0.0689
  870MPD2    C312818   1.385   3.069   1.433  1.0061  0.2256 -0.2001
  870MPD2    C412819   1.260   3.034   1.481  0.5008  0.1488 -0.0336
  870MPD2    C512820   1.238   2.901   1.490 -0.2858 -0.1286 -0.0280
  870MPD2     H12821   1.578   3.002   1.362 -0.6571 -0.8543 -1.5558
  870MPD2    H112822   1.192   3.111   1.515 -1.6317 -1.9650  0.5253
  870MPD2    H212823   1.285   2.699   1.452  1.2176 -0.8370 -0.1223
  870MPD2    H312824   1.140   2.883   1.534 -0.8941  2.9239 -0.1449
  870MPD2     N12825   1.407   3.208   1.424  0.1275 -0.4085  0.2257
  870MPD2    H512826   1.321   3.258   1.444 -0.2234 -0.9783  0.1530
  870MPD2    N112827   1.525   2.732   1.324 -0.4063  0.1203  0.2387
  870MPD2    H712828   1.487   2.638   1.326 -1.8519  0.6728 -1.1386
  871MPD2     C12829   2.335   3.254  16.352  0.0818  0.0841 -0.2991
  871MPD2    C112830   2.262   3.217  16.461 -0.7967  0.4834 -0.3217
  871MPD2    C212831   2.209   3.087  16.465  0.5745 -0.4832 -0.2438
  871MPD2    C312832   2.240   2.996  16.367 -0.6029  0.1466  0.6689
  871MPD2    C412833   2.300   3.045  16.251  0.7015  1.0048  0.4184
  871MPD2    C512834   2.350   3.171  16.246  0.1040  0.2861  0.1582
  871MPD2     H12835   2.145   3.074  16.551  0.8425  0.8708  0.1583
  871MPD2    H112836   2.300   2.990  16.157  0.8434 -0.0403  1.0345
  871MPD2    H212837   2.369   3.356  16.341  0.9032 -0.3265 -1.5134
  871MPD2    H312838   2.394   3.206  16.154 -1.5015  0.9480 -0.3564
  871MPD2     N12839   2.190   2.869  16.376 -0.5459 -0.2997 -0.0762
  871MPD2    H512840   2.146   2.838  16.462 -0.3352  0.4010  0.2818
  871MPD2    N112841   2.235   3.314  16.559 -0.2550  0.5102 -0.4174
  871MPD2    H712842   2.264   3.411  16.550 -1.3289  0.7011 -1.9069
  872MPD2     C12843   3.628   0.848  13.860  0.9365 -0.0044 -0.4666
  872MPD2    C112844   3.571   0.760  13.768  0.0576 -0.3899 -0.5322
  872MPD2    C212845   3.438   0.777  13.733  0.2028 -0.4056  0.0839
  872MPD2    C312846   3.364   0.879  13.794 -0.4446  0.4186  0.0936
  872MPD2    C412847   3.425   0.958  13.888 -0.3449  0.1612 -0.2916
  872MPD2    C512848   3.555   0.944  13.913 -0.5697  0.1392 -0.2007
  872MPD2     H12849   3.390   0.707  13.666  0.4547  0.1225 -0.6497
  872MPD2    H112850   3.372   1.026  13.954  0.3461  2.1496 -1.7864
  872MPD2    H212851   3.732   0.845  13.892  0.0054  0.6440  2.6402
  872MPD2    H312852   3.602   1.011  13.984 -0.5399  0.7246 -0.7755
  872MPD2     N12853   3.232   0.911  13.767 -0.2859 -0.1659 -0.9799
  872MPD2    H512854   3.197   0.992  13.817 -2.1779 -0.6372 -1.5131
  872MPD2    N112855   3.644   0.649  13.713 -0.1678 -0.5057 -0.1974
  872MPD2    H712856   3.585   0.600  13.646  0.5346 -0.2808 -0.9784
  873MPD2     C12857   0.368   0.196   1.055 -0.2622  0.4694 -0.0386
  873MPD2    C112858   0.269   0.289   1.063 -0.3866 -0.4316  0.4503
  873MPD2    C212859   0.142   0.246   1.098 -0.2017 -0.9586  0.0423
  873MPD2    C312860   0.114   0.112   1.106  0.1962  0.1003  0.7162
  873MPD2    C412861   0.215   0.022   1.099  0.0033  0.6721 -0.4748
  873MPD2    C512862   0.346   0.060   1.075  0.5431 -0.1210 -0.6238
  873MPD2     H12863   0.065   0.320   1.114  1.1963  1.2057 -3.2685
  873MPD2    H112864   0.205   4.656   1.130  0.1958  0.6204 -0.5815
  873MPD2    H212865   0.468   0.217   1.021  0.0483  0.6190  0.9460
  873MPD2    H312866   0.418   4.718   1.056  0.8660  0.4885 -1.9368
  873MPD2     N12867   4.720   0.063   1.129 -0.3146  0.0650 -0.1029
  873MPD2    H512868   4.696   4.707   1.097  3.7750 -0.2321 -2.2838
  873MPD2    N112869   0.298   0.421   1.022 -0.1576 -0.0875 -0.0224
  873MPD2    H712870   0.396   0.442   1.007 -0.2198  0.7350  0.7130
  874MPD2     C12871   4.328   0.734  16.412  0.1787 -0.7700  0.4658
  874MPD2    C112872   4.418   0.652  16.464  0.0626 -1.6062 -0.0097
  874MPD2    C212873   4.547   0.692  16.458 -0.2105  0.3621 -0.5320
  874MPD2    C312874   4.593   0.806  16.396  0.0518 -0.3095 -1.2124
  874MPD2    C412875   4.506   0.880  16.326  0.1656  0.3573 -0.2372
  874MPD2    C512876   4.378   0.838  16.338  0.3368 -0.1966  0.4911
  874MPD2     H12877   4.623   0.629  16.502 -0.4996  0.7590  0.5205
  874MPD2    H112878   4.529   0.972  16.274 -2.7122  1.7222  0.8917
  874MPD2    H212879   4.223   0.717  16.436  0.2807 -0.5245  1.0667
  874MPD2    H312880   4.301   0.885  16.278  2.0732  0.4980 -1.1873
  874MPD2     N12881   4.733   0.825  16.396 -0.0601  0.0662  0.3350
  874MPD2    H512882   0.053   0.765  16.455  2.6632  2.9143  0.6169
  874MPD2    N112883   4.369   0.534  16.529 -0.3563  0.5676 -0.5455
  874MPD2    H712884   4.272   0.509  16.510  0.1093 -0.7244 -1.2350
  875MPD2     C12885   0.953   3.548  14.613  0.8226  0.5775 -0.0395
  875MPD2    C112886   0.836   3.546  14.686 -0.3991 -0.4950 -0.1072
  875MPD2    C212887   0.849   3.589  14.818 -0.6323 -0.6050  0.8312
  875MPD2    C312888   0.965   3.645  14.870  0.0503  0.2256  0.3921
  875MPD2    C412889   1.081   3.639  14.793  0.1037 -0.7329  0.1710
  875MPD2    C512890   1.068   3.586  14.668 -0.4166  1.0026 -0.1851
  875MPD2     H12891   0.762   3.564  14.876 -0.8907 -1.8728 -0.0941
  875MPD2    H112892   1.167   3.682  14.843  2.0524 -1.2016 -2.7889
  875MPD2    H212893   0.960   3.528  14.507  0.9293  0.1012  0.0584
  875MPD2    H312894   1.145   3.600  14.593 -0.8279 -0.7520 -0.9303
  875MPD2     N12895   0.971   3.711  14.989  0.5992 -0.6845 -0.0004
  875MPD2    H512896   1.066   3.738  15.013  0.5201 -0.0282 -0.4164
  875MPD2    N112897   0.710   3.508  14.639 -0.2159 -0.2319 -0.2112
  875MPD2    H712898   0.632   3.519  14.702 -1.0143  2.5722 -1.7371
  876MPD2     C12899   4.732   0.556  16.038  0.3815 -0.0302  0.5058
  876MPD2    C112900   0.010   0.449  15.952  0.3147  0.5875 -0.3815
  876MPD2    C212901   4.682   0.330  15.977  0.2935  0.5774  0.3848
  876MPD2    C312902   4.612   0.304  16.090 -0.0160  0.2530 -0.2268
  876MPD2    C412903   4.581   0.410  16.171  0.6566 -0.2129 -0.2954
  876MPD2    C512904   4.648   0.532  16.142 -0.3988 -0.3074  0.4240
  876MPD2     H12905   4.689   0.251  15.903 -0.8034  0.8729 -0.0282
  876MPD2    H112906   4.518   0.408  16.260 -1.4091 -1.3555 -1.7793
  876MPD2    H212907   0.045   0.649  16.015  3.3553 -1.7553  0.0157
  876MPD2    H312908   4.624   0.618  16.204 -2.0544 -0.6202  0.2187
  876MPD2     N12909   4.561   0.172  16.110 -0.0528 -0.1342 -0.3461
  876MPD2    H512910   4.596   0.105  16.043  2.2022  1.1254 -0.4664
  876MPD2    N112911   0.090   0.463  15.834 -0.0072 -0.1399  0.5487
  876MPD2    H712912   0.134   0.554  15.827 -1.7611  0.6083 -0.7955
  877MPD2     C12913   4.668   0.848  15.187  0.0910 -0.1412 -0.2143
  877MPD2    C112914   0.012   0.742  15.150  0.2630 -0.1355 -0.6447
  877MPD2    C212915   0.069   0.736  15.031 -1.2608  0.6065 -0.3557
  877MPD2    C312916   0.042   0.830  14.934  0.2535  0.3116  0.2594
  877MPD2    C412917   4.693   0.934  14.966  0.2581  0.1319 -0.2133
  877MPD2    C512918   4.635   0.942  15.094  0.1990  0.0310 -0.6420
  877MPD2     H12919   0.124   0.646  15.004 -3.1965 -0.1906 -1.7108
  877MPD2    H112920   4.674   1.019  14.901  3.0870  1.6516  0.9437
  877MPD2    H212921   4.613   0.859  15.280  0.7082 -0.2859  0.1634
  877MPD2    H312922   4.574   1.030  15.109 -0.6893 -0.8044  0.6316
  877MPD2     N12923   0.107   0.832  14.811 -0.9818  0.0527 -0.2379
  877MPD2    H512924   0.061   0.880  14.734  1.8142 -0.6858 -2.3780
  877MPD2    N112925   0.056   0.639  15.238 -0.5441  0.2493 -0.1843
  877MPD2    H712926   0.114   0.572  15.188 -1.0044 -1.6505  1.8007
  878MPD2     C12927   4.493   4.225  12.946  0.6237 -0.4647  0.0969
  878MPD2    C112928   4.504   4.356  12.931  0.2625 -0.6992 -0.9722
  878MPD2    C212929   4.503   4.429  13.048  0.0570 -0.4221  0.4718
  878MPD2    C312930   4.485   4.368  13.174 -0.9059 -0.1301 -0.4699
  878MPD2    C412931   4.461   4.235  13.177  0.6612  0.1055  0.3124
  878MPD2    C512932   4.471   4.161  13.066  0.4467  0.3974 -0.0047
  878MPD2     H12933   4.524   4.535  13.053 -1.0603 -0.1728 -0.1555
  878MPD2    H112934   4.457   4.182  13.272  0.2403 -1.2206 -0.4536
  878MPD2    H212935   4.509   4.157  12.863 -1.9024 -0.6814 -0.1936
  878MPD2    H312936   4.470   4.053  13.075 -0.1301  0.2873 -1.3733
  878MPD2     N12937   4.489   4.443  13.299  0.0726  0.4869  0.0477
  878MPD2    H512938   4.486   4.392  13.387  2.5672  0.1804 -0.0274
  878MPD2    N112939   4.517   4.407  12.803  0.0268  0.0209  0.0191
  878MPD2    H712940   4.528   4.344  12.724  1.8654  1.2743 -0.7389
  879MPD2     C12941   0.387   0.727  17.279  0.0495 -0.1009 -0.5122
  879MPD2    C112942   0.380   0.825  17.183  0.0428  0.0928  0.2053
  879MPD2    C212943   0.250   0.828  17.120  0.0113 -0.3375 -0.2288
  879MPD2    C312944   0.148   0.731  17.130  0.4222  0.4678  0.9360
  879MPD2    C412945   0.169   0.627  17.224 -0.3486  0.7169  0.3440
  879MPD2    C512946   0.284   0.629  17.294  0.6519  0.3043 -0.0600
  879MPD2     H12947   0.238   0.912  17.053 -0.4261 -0.4852 -0.3399
  879MPD2    H112948   0.106   0.540  17.241  0.9512  0.5348  4.2518
  879MPD2    H212949   0.477   0.712  17.337 -1.0467 -4.4788  0.1054
  879MPD2    H312950   0.306   0.551  17.366 -1.2827  0.4282  0.6661
  879MPD2     N12951   0.026   0.743  17.065  0.3445 -0.5427 -0.3125
  879MPD2    H512952   4.692   0.671  17.067 -2.0913  1.8942  0.0145
  879MPD2    N112953   0.488   0.913  17.161  0.4359 -0.1597 -0.4085
  879MPD2    H712954   0.568   0.897  17.222  0.8124 -0.2317 -0.9174
  880MPD2     C12955   0.828   3.165   0.120 -0.2535  0.9664 -0.0904
  880MPD2    C112956   0.914   3.193   0.222  0.1867  0.5949  0.0913
  880MPD2    C212957   0.973   3.080   0.285  0.6012  0.2745 -0.1206
  880MPD2    C312958   0.938   2.947   0.244 -0.4071  0.4386  0.1733
  880MPD2    C412959   0.852   2.923   0.139 -0.7340 -0.2868  0.4043
  880MPD2    C512960   0.802   3.039   0.079  0.4338 -0.2923  0.2333
  880MPD2     H12961   1.040   3.090   0.369  0.2763  2.5842 -0.1424
  880MPD2    H112962   0.835   2.826   0.092 -1.2565 -0.3341  0.6829
  880MPD2    H212963   0.783   3.249   0.069 -2.0021 -0.2922 -0.6506
  880MPD2    H312964   0.733   3.022  17.744 -1.6688 -1.3041  2.2006
  880MPD2     N12965   1.002   2.843   0.311  0.1713 -0.6330  0.2376
  880MPD2    H512966   1.059   2.879   0.387 -1.5864  2.1707  0.2115
  880MPD2    N112967   0.948   3.327   0.248 -0.4186 -0.0853  0.2713
  880MPD2    H712968   0.896   3.396   0.194  0.4671 -0.0061 -0.4696
  881MPD2     C12969   1.679   4.020   0.048  0.5609 -0.0104  1.1708
  881MPD2    C112970   1.606   3.922  17.731  0.3967  0.1065 -0.1852
  881MPD2    C212971   1.507   3.867   0.057 -0.5977  0.6245  0.0215
  881MPD2    C312972   1.493   3.879   0.196  0.1816 -0.0563 -0.3878
  881MPD2    C412973   1.579   3.962   0.260 -0.3649  0.2054 -0.2565
  881MPD2    C512974   1.676   4.024   0.183  0.2136  0.1582 -0.3610
  881MPD2     H12975   1.442   3.794   0.010  0.7749 -1.8828  2.0387
  881MPD2    H112976   1.577   3.987   0.366 -0.6182 -1.7472  0.1895
  881MPD2    H212977   1.761   4.059  17.737  1.6613  0.7737  3.2735
  881MPD2    H312978   1.740   4.102   0.225  1.6426 -1.5351  0.6054
  881MPD2     N12979   1.393   3.809   0.273 -0.0578  0.1755 -0.4367
  881MPD2    H512980   1.405   3.824   0.372  3.2575  2.2545 -1.1468
  881MPD2    N112981   1.605   3.917  17.589  0.2764 -0.4647 -0.0114
  881MPD2    H712982   1.661   3.988  17.543  1.0558 -0.8767  0.2806
  882MPD2     C12983   4.633   0.613  14.030  0.0939 -0.2188 -0.1894
  882MPD2    C112984   4.628   0.644  14.166  0.2522 -0.8104 -0.5733
  882MPD2    C212985   4.504   0.618  14.231 -0.4296 -0.2115 -0.2628
  882MPD2    C312986   4.397   0.556  14.167  0.2360 -0.5017  0.1666
  882MPD2    C412987   4.417   0.502  14.046  0.3501 -0.3596  0.2319
  882MPD2    C512988   4.528   0.543  13.974  0.1135 -1.0234  0.1634
  882MPD2     H12989   4.489   0.640  14.336 -0.2318 -0.4492 -0.1855
  882MPD2    H112990   4.344   0.451  13.984 -0.7474  3.2762 -1.4785
  882MPD2    H212991   4.720   0.648  13.975 -0.5845 -0.2329 -1.2821
  882MPD2    H312992   4.531   0.526  13.867 -2.5037 -1.2673  0.1187
  882MPD2     N12993   4.269   0.529  14.229 -0.0112  0.3766  0.3215
  882MPD2    H512994   4.199   0.508  14.159  0.1254  0.6804  0.0950
  882MPD2    N112995   0.003   0.697  14.230 -0.1972 -0.1184  0.6706
  882MPD2    H712996   0.093   0.708  14.184 -0.3811  0.9159  0.5659
  883MPD2     C12997   1.268   0.556  15.442 -0.0862  0.2100  0.1760
  883MPD2    C112998   1.397   0.533  15.410 -0.2444 -0.1444  0.3469
  883MPD2    C212999   1.487   0.501  15.511  0.3101  0.3107 -0.0817
  883MPD2    C313000   1.447   0.498  15.644 -0.1807  0.1868 -0.4823
  883MPD2    C413001   1.314   0.530  15.675 -0.7616 -0.5491  0.5710
  883MPD2    C513002   1.227   0.550  15.571  0.4375 -0.0144 -0.1800
  883MPD2     H13003   1.590   0.475  15.489 -0.6637 -2.2236 -1.6501
  883MPD2    H113004   1.277   0.552  15.774 -0.3540 -1.4771  0.9277
  883MPD2    H213005   1.197   0.580  15.364  1.4882 -0.9786 -1.6049
  883MPD2    H313006   1.122   0.564  15.594  0.3330 -2.2270  0.7373
  883MPD2     N13007   1.542   0.476  15.744  0.0294 -0.1283 -0.1893
  883MPD2    H513008   1.637   0.455  15.715  0.6816  0.1149  1.7320
  883MPD2    N113009   1.444   0.532  15.279  0.5322 -0.3617  0.1974
  883MPD2    H713010   1.543   0.515  15.270  0.6356 -0.6883  2.1490
  884MPD2     C13011   3.775   0.935  15.331  0.4596 -0.0674 -0.2398
  884MPD2    C113012   3.744   1.047  15.268 -0.0702 -0.5809 -0.1403
  884MPD2    C213013   3.634   1.123  15.311  0.0964 -0.2909 -0.0072
  884MPD2    C313014   3.562   1.079  15.421  0.2365 -0.4511 -0.3239
  884MPD2    C413015   3.592   0.960  15.480 -0.1095 -0.3692  0.6714
  884MPD2    C513016   3.694   0.880  15.426  0.0478 -0.3838  0.4845
  884MPD2     H13017   3.607   1.215  15.261  2.7715  1.0938  1.1040
  884MPD2    H113018   3.540   0.930  15.570 -1.4418  2.4335  0.8421
  884MPD2    H213019   3.870   0.887  15.309  0.2010  0.0893 -1.6907
  884MPD2    H313020   3.711   0.784  15.473 -0.1248 -0.4035  0.5053
  884MPD2     N13021   3.449   1.149  15.452  0.4588 -0.4000 -0.6329
  884MPD2    H513022   3.417   1.210  15.376  0.1137 -0.5077 -0.5742
  884MPD2    N113023   3.832   1.082  15.161 -0.0180  0.3488  0.2149
  884MPD2    H713024   3.895   1.011  15.127  1.8203  2.0554  0.0193
  885MPD2     C13025   1.705   1.475  17.520  0.7599 -0.4138 -0.1637
  885MPD2    C113026   1.728   1.553  17.632  0.1176 -0.0348  0.0824
  885MPD2    C213027   1.792   1.668  17.613  0.7822 -0.0745 -0.8568
  885MPD2    C313028   1.847   1.706  17.492 -0.0609  0.3381 -0.1123
  885MPD2    C413029   1.822   1.627  17.382 -0.5651  0.3115 -0.2358
  885MPD2    C513030   1.749   1.510  17.396 -0.5379 -0.2500 -0.4100
  885MPD2     H13031   1.807   1.728  17.702 -1.8962  0.0196 -0.4636
  885MPD2    H113032   1.853   1.646  17.280  1.3974 -0.4084  0.2365
  885MPD2    H213033   1.659   1.377  17.533 -0.7962  0.0362 -2.3536
  885MPD2    H313034   1.732   1.440  17.315 -0.8101  2.1175 -2.3996
  885MPD2     N13035   1.917   1.830  17.468 -0.2659 -0.4996 -0.2799
  885MPD2    H513036   1.958   1.846  17.377  0.2817  1.6868  0.3563
  885MPD2    N113037   1.670   1.511   0.004 -0.4655 -0.9944  0.0595
  885MPD2    H713038   1.606   1.432  17.744 -2.2553  0.7050 -2.9107
  886MPD2     C13039   3.595   0.292  15.988 -0.0148 -0.0655 -0.0003
  886MPD2    C113040   3.665   0.201  15.909 -0.1674  0.3840  0.2794
  886MPD2    C213041   3.613   0.171  15.782  0.0501  0.0192 -0.2150
  886MPD2    C313042   3.522   0.249  15.723 -0.0980  0.1319 -0.3079
  886MPD2    C413043   3.477   0.361  15.785 -0.2374  0.2894  0.0878
  886MPD2    C513044   3.509   0.386  15.920 -0.1976 -0.4109  0.4159
  886MPD2     H13045   3.656   0.086  15.731 -1.0435  0.3400 -1.6542
  886MPD2    H113046   3.403   0.419  15.732  1.0960  1.4279 -0.5220
  886MPD2    H213047   3.627   0.322  16.087 -1.8221  3.1467 -0.3873
  886MPD2    H313048   3.472   0.475  15.970  3.8463  0.5748  1.6786
  886MPD2     N13049   3.480   0.216  15.589  0.6135 -0.1256  0.0199
  886MPD2    H513050   3.532   0.137  15.553  1.1379 -0.5298  1.6610
  886MPD2    N113051   3.769   0.111  15.957 -0.6357  0.5255 -0.2657
  886MPD2    H713052   3.827   0.068  15.884 -0.5287 -0.8488  0.6332
  887MPD2     C13053   4.389   0.068  15.698  0.1843  0.3039  0.2110
  887MPD2    C113054   4.345   0.135  15.816  0.2560 -0.1066  0.6654
  887MPD2    C213055   4.351   0.266  15.830  0.3023 -0.4027  1.0160
  887MPD2    C313056   4.432   0.332  15.744 -0.5425  0.1388  0.3283
  887MPD2    C413057   4.495   0.267  15.640  0.2048 -0.6299  0.6382
  887MPD2    C513058   4.465   0.133  15.606  0.1438  0.6516 -0.4082
  887MPD2     H13059   4.298   0.321  15.907 -2.0420  1.5006 -1.9308
  887MPD2    H113060   4.568   0.317  15.578 -1.5605 -0.6130 -1.3835
  887MPD2    H213061   4.373   4.699  15.685 -0.4939  0.4816 -0.3881
  887MPD2    H313062   4.522   0.081  15.529  2.1443  1.5642  0.4458
  887MPD2     N13063   4.431   0.468  15.769  0.2745 -0.4036  0.1861
  887MPD2    H513064   4.390   0.502  15.855 -3.8039 -0.0772 -1.8822
  887MPD2    N113065   4.255   0.075  15.904  0.1014 -0.0581  0.8497
  887MPD2    H713066   4.209   0.135  15.970 -2.1478 -0.4967 -0.3339
  888MPD2     C13067   0.770   4.714  14.817  0.4909 -0.3687 -0.2312
  888MPD2    C113068   0.767   0.039  14.945 -0.6303  0.1564  0.4769
  888MPD2    C213069   0.825   0.165  14.958 -0.2675  0.3782 -0.3069
  888MPD2    C313070   0.874   0.226  14.844 -0.2569  0.3538 -0.4184
  888MPD2    C413071   0.885   0.160  14.721 -0.7279 -0.6269  0.1095
  888MPD2    C513072   0.835   0.035  14.712 -0.2444  0.2825 -0.0015
  888MPD2     H13073   0.819   0.218  15.053  2.8276  0.8131 -0.3710
  888MPD2    H113074   0.916   0.208  14.629  0.6007 -0.0390  0.8634
  888MPD2    H213075   0.729   4.615  14.802 -1.6819  0.0950  2.4849
  888MPD2    H313076   0.839   4.728  14.613  1.9239 -3.0251  1.5732
  888MPD2     N13077   0.921   0.363  14.848 -0.8581 -0.2448  0.1005
  888MPD2    H513078   0.934   0.393  14.944  2.5423  1.0945 -0.7863
  888MPD2    N113079   0.705   4.723  15.063  0.4001  0.1469 -0.1135
  888MPD2    H713080   0.685   0.043  15.144 -0.3541 -2.0211  1.2359
  889MPD2     C13081   0.463   4.618  12.680  0.4255 -0.1311 -0.6033
  889MPD2    C113082   0.443   4.554  12.808  0.8031 -0.4969  0.0148
  889MPD2    C213083   0.443   4.642  12.921 -0.6314  0.5252 -0.6705
  889MPD2    C313084   0.450   0.045  12.908 -0.3745  0.1311  0.5642
  889MPD2    C413085   0.453   0.100  12.778 -0.4346  0.0714 -0.4395
  889MPD2    C513086   0.475   0.018  12.670 -0.0867 -0.3327 -0.1416
  889MPD2     H13087   0.457   4.591  13.016  0.1408  3.3452  0.7326
  889MPD2    H113088   0.454   0.208  12.770 -1.6834  0.0245 -1.2811
  889MPD2    H213089   0.497   4.562  12.594  2.5438 -0.7635  0.6298
  889MPD2    H313090   0.498   0.059  12.572  0.0100 -0.6672 -0.2584
  889MPD2     N13091   0.450   0.129  13.025 -0.4063  0.0146  0.2617
  889MPD2    H513092   0.453   0.076  13.112  1.0058 -0.6679 -0.2104
  889MPD2    N113093   0.449   4.411  12.827 -0.2545  0.3234  0.1998
  889MPD2    H713094   0.457   4.376  12.922 -1.6064  1.1401  0.6285
  890MPD2     C13095   4.728   1.468  14.423  0.7669 -0.0351 -0.5670
  890MPD2    C113096   0.117   1.511  14.409  0.3646  0.2374 -0.3161
  890MPD2    C213097   0.199   1.479  14.515  0.4541 -0.5739 -0.5024
  890MPD2    C313098   0.154   1.399  14.620  0.6270 -0.8041 -0.0873
  890MPD2    C413099   0.023   1.347  14.621 -0.9625 -0.0918  0.5732
  890MPD2    C513100   4.684   1.390  14.525  0.1964  0.2440 -0.4155
  890MPD2     H13101   0.303   1.509  14.515  0.0525  0.8432 -0.8377
  890MPD2    H113102   4.711   1.282  14.692 -1.0923 -0.4604  0.1463
  890MPD2    H213103   4.653   1.479  14.346 -0.7687 -0.7766  0.8423
  890MPD2    H313104   4.590   1.339  14.506  0.0136  0.6744 -0.6599
  890MPD2     N13105   0.249   1.349  14.718 -0.3514 -0.7677 -0.1190
  890MPD2    H513106   0.348   1.366  14.703 -0.6019  2.4716  2.0263
  890MPD2    N113107   0.161   1.596  14.306  0.2775  0.8244  0.1397
  890MPD2    H713108   0.093   1.615  14.233  1.0524  1.8783 -0.3040
  891MPD2     C13109   2.942   0.255  16.340 -0.8023 -0.1167  0.2439
  891MPD2    C113110   2.870   0.141  16.384 -0.6079 -0.4169  0.4323
  891MPD2    C213111   2.919   0.067  16.485 -1.1733  0.3721 -0.5609
  891MPD2    C313112   3.039   0.087  16.544  0.0657  0.4200 -0.3634
  891MPD2    C413113   3.105   0.204  16.503  0.1022 -0.9120  0.2069
  891MPD2    C513114   3.057   0.286  16.405 -0.2558  0.5207 -0.1308
  891MPD2     H13115   2.857   4.720  16.516 -0.8178  0.8699  1.5206
  891MPD2    H113116   3.206   0.226  16.538 -0.2576  0.8026  0.1578
  891MPD2    H213117   2.909   0.318  16.258  1.2479  1.8804  0.9618
  891MPD2    H313118   3.112   0.378  16.386  0.6609  0.2915  1.3964
  891MPD2     N13119   3.095   4.729  16.634  0.4448  0.2459 -0.4759
  891MPD2    H513120   3.045   4.643  16.655  2.4214 -1.1030 -1.2734
  891MPD2    N113121   2.738   0.120  16.335  0.0144 -0.2564 -0.1314
  891MPD2    H713122   2.696   0.189  16.274  1.9074  0.4226 -0.6553
  892MPD2     C13123   3.766   0.321  15.178  0.4462 -0.5327  0.3034
  892MPD2    C113124   3.738   0.433  15.104 -0.0340 -0.4254  0.1941
  892MPD2    C213125   3.802   0.457  14.985 -0.1992  0.7435 -0.5354
  892MPD2    C313126   3.891   0.364  14.931  0.7262 -0.2741  0.1973
  892MPD2    C413127   3.931   0.260  15.009 -0.5577  0.7557  0.6321
  892MPD2    C513128   3.865   0.233  15.127 -0.3883 -0.4285 -0.1681
  892MPD2     H13129   3.777   0.546  14.928  2.4730  1.5983 -0.3960
  892MPD2    H113130   4.010   0.193  14.977 -1.5624 -0.0117 -0.2323
  892MPD2    H213131   3.714   0.294  15.268  1.9757 -1.3509  0.9482
  892MPD2    H313132   3.886   0.140  15.181  3.2399  0.8243  0.5998
  892MPD2     N13133   3.937   0.388  14.798  0.2455 -0.4169  0.4261
  892MPD2    H513134   3.964   0.298  14.759 -0.5094  0.4596 -2.1001
  892MPD2    N113135   3.648   0.532  15.149 -0.4650 -0.1340 -0.2928
  892MPD2    H713136   3.636   0.607  15.082 -1.2647 -1.4120 -1.5571
  893MPD2     C13137   0.496   3.761   1.512 -0.1474  0.0264 -0.2811
  893MPD2    C113138   0.479   3.843   1.407  0.1965  0.4026 -0.5945
  893MPD2    C213139   0.351   3.869   1.360 -0.3566  0.5900 -0.4046
  893MPD2    C313140   0.233   3.813   1.424 -0.0522  0.5669  0.2486
  893MPD2    C413141   0.261   3.737   1.537 -0.0519  0.2511  0.0044
  893MPD2    C513142   0.389   3.722   1.581  0.1879 -0.4343  0.0821
  893MPD2     H13143   0.342   3.926   1.268  1.5988 -0.3272 -1.1449
  893MPD2    H113144   0.182   3.682   1.586  2.8811 -2.4286  1.7472
  893MPD2    H213145   0.595   3.730   1.543  0.7331  1.8243 -1.2588
  893MPD2    H313146   0.395   3.651   1.664  1.2281 -0.1413  0.2488
  893MPD2     N13147   0.099   3.827   1.383  0.4216  0.0724 -0.1513
  893MPD2    H513148   0.022   3.780   1.430  0.0377  0.0854 -0.7670
  893MPD2    N113149   0.599   3.883   1.345  0.1061  0.3862  0.7904
  893MPD2    H713150   0.689   3.841   1.369 -0.6649 -1.8686 -0.2403
  894MPD2     C13151   3.089   1.350   0.780  0.5255 -0.0016  0.8230
  894MPD2    C113152   3.126   1.421   0.888 -0.0671 -0.4819 -1.0006
  894MPD2    C213153   3.240   1.488   0.901 -0.1831  0.5022 -0.2315
  894MPD2    C313154   3.315   1.519   0.786  0.1992  0.1087  0.3164
  894MPD2    C413155   3.275   1.457   0.672 -0.4786  0.3386 -0.7987
  894MPD2    C513156   3.160   1.381   0.665 -0.3032 -0.0351  0.3228
  894MPD2     H13157   3.258   1.545   0.992 -0.7524  1.3407 -0.6378
  894MPD2    H113158   3.327   1.464   0.577  3.0991  2.6182  1.3251
  894MPD2    H213159   3.000   1.288   0.774 -0.2166  1.0480  1.0244
  894MPD2    H313160   3.133   1.340   0.569  2.7060 -0.5335 -0.2878
  894MPD2     N13161   3.429   1.602   0.797  0.3672 -0.4490 -0.4410
  894MPD2    H513162   3.457   1.623   0.892 -0.1777  1.6863 -0.7574
  894MPD2    N113163   3.044   1.428   1.009  0.5316 -0.2334 -0.4155
  894MPD2    H713164   3.088   1.489   1.078 -1.9655 -0.0007  0.9549
  895MPD2     C13165   3.184   4.591  13.553  0.3382 -0.0350 -0.3288
  895MPD2    C113166   3.148   4.572  13.420 -0.0338 -0.0360 -0.2356
  895MPD2    C213167   3.152   4.441  13.371  0.2402  0.4186  0.4323
  895MPD2    C313168   3.164   4.334  13.455  0.5896 -0.0329  0.1723
  895MPD2    C413169   3.198   4.358  13.586 -0.4914  0.0769 -0.4450
  895MPD2    C513170   3.213   4.483  13.631  0.7444 -0.1636  0.1866
  895MPD2     H13171   3.115   4.433  13.270  1.7276 -2.1505  0.0875
  895MPD2    H113172   3.212   4.280  13.659 -0.1397  0.4735 -0.0922
  895MPD2    H213173   3.202   4.691  13.592 -1.4267  0.0383  0.3200
  895MPD2    H313174   3.226   4.498  13.738  0.1640  1.1423  0.0833
  895MPD2     N13175   3.149   4.204  13.396  0.1413  0.2261  0.5316
  895MPD2    H513176   3.139   4.198  13.296  0.3863  0.0627  0.5180
  895MPD2    N113177   3.105   4.675  13.332  0.1232 -0.9192  0.1815
  895MPD2    H713178   3.070   4.642  13.242  1.0364 -0.4479 -0.3384
  896MPD2     C13179   0.398   2.528   1.305 -0.8813 -0.5286 -0.1234
  896MPD2    C113180   0.368   2.490   1.176 -0.5754  0.0752  0.0768
  896MPD2    C213181   0.247   2.424   1.160 -0.0656  0.5796 -0.3584
  896MPD2    C313182   0.162   2.394   1.266 -1.2973 -0.4636  0.7274
  896MPD2    C413183   0.193   2.443   1.395 -0.1672 -0.3804  0.9103
  896MPD2    C513184   0.313   2.509   1.416 -0.4070  0.0570  0.1818
  896MPD2     H13185   0.221   2.388   1.062 -0.3154  1.7363 -0.7208
  896MPD2    H113186   0.127   2.421   1.478  0.6386 -1.4577  1.2688
  896MPD2    H213187   0.486   2.589   1.321 -1.2016  0.2738 -1.3786
  896MPD2    H313188   0.341   2.557   1.509 -0.1372 -3.7199  2.0377
  896MPD2     N13189   0.039   2.325   1.235 -0.5707 -0.1434 -1.0719
  896MPD2    H513190   0.028   2.300   1.137  1.1388  2.3403 -1.8867
  896MPD2    N113191   0.459   2.516   1.071 -0.0326  0.4840 -0.5095
  896MPD2    H713192   0.530   2.584   1.093  0.3997  0.3632 -1.5595
  897MPD2     C13193   1.865   4.265  10.627 -0.3087 -0.1667 -1.1121
  897MPD2    C113194   1.773   4.279  10.526  0.1114  0.4272 -0.4681
  897MPD2    C213195   1.640   4.229  10.537 -0.0693 -0.2879 -0.1974
  897MPD2    C313196   1.605   4.179  10.660  0.5687 -0.7944  0.0800
  897MPD2    C413197   1.701   4.157  10.758 -0.2087 -0.7087 -0.3157
  897MPD2    C513198   1.828   4.207  10.745 -0.2262 -0.0353 -0.1539
  897MPD2     H13199   1.568   4.255  10.460  1.6345 -0.7070 -1.9299
  897MPD2    H113200   1.681   4.118  10.857 -0.3028  0.4548  0.1169
  897MPD2    H213201   1.970   4.294  10.625  0.2513 -2.1488  0.2936
  897MPD2    H313202   1.902   4.184  10.821  0.1027 -1.0319 -0.7725
  897MPD2     N13203   1.469   4.151  10.674  0.5535 -0.6731 -0.0022
  897MPD2    H513204   1.410   4.165  10.593  0.0972  0.9364  0.6010
  897MPD2    N113205   1.824   4.336  10.408  0.3756 -0.7153 -0.6185
  897MPD2    H713206   1.913   4.384  10.413  0.8043 -1.5693 -0.1039
  898MPD2     C13207   2.662   0.325  17.726  0.5493 -0.1550 -1.0011
  898MPD2    C113208   2.778   0.348  17.662 -0.0429 -0.2060 -0.1757
  898MPD2    C213209   2.789   0.465  17.583  0.0338  0.3669  0.3613
  898MPD2    C313210   2.693   0.568  17.577  0.1503 -0.3575  0.6492
  898MPD2    C413211   2.589   0.551  17.665 -0.1223 -0.2529 -0.0224
  898MPD2    C513212   2.573   0.430  17.729  0.7770  0.0794  0.3917
  898MPD2     H13213   2.875   0.492  17.522  1.8856  0.2168  2.8896
  898MPD2    H113214   2.518   0.630  17.682 -0.5849 -0.3379 -1.5575
  898MPD2    H213215   2.643   0.240   0.043 -0.1748 -0.2057 -1.2887
  898MPD2    H313216   2.487   0.420   0.047 -0.4988  0.5415 -1.2170
  898MPD2     N13217   2.712   0.674  17.490  0.6711  0.0877  0.3109
  898MPD2    H513218   2.779   0.664  17.414 -0.4406  0.2096 -0.6944
  898MPD2    N113219   2.889   0.257  17.654 -0.0395  0.0874  0.2573
  898MPD2    H713220   2.969   0.279  17.595 -0.1067 -2.8286 -0.8875
  899MPD2     C13221   4.470   0.990  17.231 -0.0983  0.2221 -0.7851
  899MPD2    C113222   4.342   0.983  17.184  0.7227 -0.1625 -0.1628
  899MPD2    C213223   4.274   0.868  17.217  0.3646  0.4111 -0.0848
  899MPD2    C313224   4.329   0.769  17.302 -0.4137 -0.2231  0.2846
  899MPD2    C413225   4.460   0.775  17.333 -0.1879 -0.1828  0.5410
  899MPD2    C513226   4.537   0.883  17.293  0.0432 -0.7301 -0.3669
  899MPD2     H13227   4.181   0.847  17.165  0.8393 -1.3400 -0.2268
  899MPD2    H113228   4.505   0.689  17.382  1.6804 -1.3030 -3.1579
  899MPD2    H213229   4.523   1.084  17.228 -1.0837  0.8325  0.7054
  899MPD2    H313230   4.636   0.896  17.335 -0.7643  2.1339  0.6457
  899MPD2     N13231   4.252   0.667  17.358 -0.5103 -0.3059 -0.0263
  899MPD2    H513232   4.299   0.597  17.414  0.1564  0.9266  0.9551
  899MPD2    N113233   4.292   1.090  17.105 -0.3778 -0.2570 -0.1416
  899MPD2    H713234   4.354   1.157  17.062  1.0798  0.0513  2.4201
  900MPD2     C13235   3.834   2.521  12.963 -0.0377 -0.3006  0.4838
  900MPD2    C113236   3.760   2.425  12.899  0.3951  0.4957  0.2382
  900MPD2    C213237   3.675   2.468  12.801 -1.2841 -0.9476  0.4370
  900MPD2    C313238   3.652   2.602  12.770  0.4039  0.0734 -0.5593
  900MPD2    C413239   3.728   2.694  12.840  0.1758  0.5533  0.0962
  900MPD2    C513240   3.816   2.659  12.932 -0.3292  0.2212 -0.1041
  900MPD2     H13241   3.624   2.394  12.739  0.5025 -0.1741 -1.9866
  900MPD2    H113242   3.707   2.800  12.834 -0.6131  0.5235  2.2845
  900MPD2    H213243   3.908   2.504  13.039 -0.3065  2.6643  1.4085
  900MPD2    H313244   3.868   2.742  12.977 -0.2610  0.7098 -1.0800
  900MPD2     N13245   3.570   2.634  12.655 -0.1792 -0.2418 -0.0756
  900MPD2    H513246   3.528   2.552  12.612 -3.8370  1.7836 -0.3566
  900MPD2    N113247   3.788   2.294  12.923  0.3505 -0.0139  0.1176
  900MPD2    H713248   3.876   2.268  12.967 -1.0652 -1.8435  1.8903
  901MPD2     C13249   3.499   1.207  12.886  0.0689  0.0414 -0.7283
  901MPD2    C113250   3.635   1.219  12.875 -0.5278  0.5554 -0.5727
  901MPD2    C213251   3.696   1.344  12.883 -0.0423 -0.4857  0.0913
  901MPD2    C313252   3.621   1.456  12.898  0.5225 -0.3968  0.6103
  901MPD2    C413253   3.494   1.437  12.950 -0.1525 -0.5875  0.0898
  901MPD2    C513254   3.429   1.310  12.945  0.5186 -0.5416  0.2359
  901MPD2     H13255   3.801   1.359  12.861 -0.3619  0.7257 -0.5867
  901MPD2    H113256   3.431   1.520  12.980 -1.1015 -1.6908  1.2042
  901MPD2    H213257   3.451   1.114  12.860  0.1497 -0.0929 -0.3990
  901MPD2    H313258   3.323   1.295  12.961  0.0869  1.6519 -0.4958
  901MPD2     N13259   3.694   1.587  12.902  0.0658  0.2407 -0.2544
  901MPD2    H513260   3.793   1.580  12.877  0.4874 -1.7895  2.0356
  901MPD2    N113261   3.700   1.092  12.847 -0.3398 -0.2515  0.5644
  901MPD2    H713262   3.647   1.006  12.840 -3.5812  1.7552  0.6647
  902MPD2     C13263   2.700   0.419  12.595  0.2692 -0.0902  0.4024
  902MPD2    C113264   2.813   0.420  12.668  0.2583  0.0674 -0.0302
  902MPD2    C213265   2.930   0.361  12.618 -0.2100 -0.5358  0.1137
  902MPD2    C313266   2.930   0.320  12.489 -0.2068 -0.2961  0.0842
  902MPD2    C413267   2.813   0.311  12.419  0.8790 -0.3797  0.3881
  902MPD2    C513268   2.690   0.357  12.472  0.5590 -0.2345 -0.0521
  902MPD2     H13269   3.016   0.378  12.682  0.7791  1.3592 -1.7175
  902MPD2    H113270   2.797   0.265  12.322  1.9129  0.5924 -0.2459
  902MPD2    H213271   2.615   0.468  12.641  0.3433  0.0696  0.3698
  902MPD2    H313272   2.601   0.368  12.411  0.4963  3.3295  0.7284
  902MPD2     N13273   3.048   0.301  12.412 -0.1089  0.1135 -0.0076
  902MPD2    H513274   3.020   0.297  12.315  3.0301  0.4926 -0.9034
  902MPD2    N113275   2.800   0.496  12.790  0.4078  0.4788  0.0305
  902MPD2    H713276   2.725   0.563  12.803  0.0838  0.4967 -1.8692
  903MPD2     C13277   3.332   0.295  11.650 -0.0817  0.3356  0.1452
  903MPD2    C113278   3.245   0.341  11.748 -0.4065 -0.0350 -0.0226
  903MPD2    C213279   3.118   0.381  11.709 -0.0723  0.1302 -0.1600
  903MPD2    C313280   3.077   0.364  11.578 -0.2916  0.3925  0.0424
  903MPD2    C413281   3.165   0.328  11.480 -0.4481 -0.8869 -0.2574
  903MPD2    C513282   3.294   0.299  11.518 -0.0257  0.2118 -0.1751
  903MPD2     H13283   3.047   0.419  11.782  0.9055  2.3103 -0.3627
  903MPD2    H113284   3.131   0.314  11.379  1.9445  0.1903 -1.2238
  903MPD2    H213285   3.429   0.256  11.677 -0.8028 -0.4680  1.5534
  903MPD2    H313286   3.357   0.248  11.445  0.6087  2.2701 -1.0894
  903MPD2     N13287   2.944   0.396  11.551 -0.5451  0.4705 -0.1312
  903MPD2    H513288   2.889   0.433  11.628 -0.5485 -0.0408  0.1117
  903MPD2    N113289   3.288   0.341  11.878 -0.2603  0.6165  0.2229
  903MPD2    H713290   3.383   0.313  11.901  0.0707  1.8491  0.3813
  904MPD2     C13291   2.337   3.925  14.164  0.0302  0.0746 -0.3032
  904MPD2    C113292   2.430   4.012  14.120 -0.0911 -0.5512 -0.4907
  904MPD2    C213293   2.559   3.982  14.157 -0.6257 -0.4211 -0.4065
  904MPD2    C313294   2.592   3.867  14.228 -0.6859 -0.5086  0.1939
  904MPD2    C413295   2.504   3.779  14.268  0.5648 -1.2220  0.0518
  904MPD2    C513296   2.372   3.809  14.229  0.3310 -0.2789  0.1363
  904MPD2     H13297   2.629   4.061  14.131  0.3192 -1.1231  0.0155
  904MPD2    H113298   2.517   3.679  14.309 -0.4542 -1.1546  0.5472
  904MPD2    H213299   2.232   3.946  14.147  0.5546  3.3171  0.4514
  904MPD2    H313300   2.291   3.745  14.262 -0.3397  1.0901  1.1394
  904MPD2     N13301   2.734   3.864  14.241 -0.6940 -0.2308 -0.4308
  904MPD2    H513302   2.792   3.930  14.190  0.7814 -1.2348 -0.0630
  904MPD2    N113303   2.418   4.129  14.042  0.1906  0.2207  0.9912
  904MPD2    H713304   2.502   4.185  14.030  1.1650 -1.1422  1.5666
  905MPD2     C13305   2.460   4.441  13.235  1.1800 -0.5515  0.3005
  905MPD2    C113306   2.454   4.353  13.340 -0.8176  0.3567  0.8699
  905MPD2    C213307   2.525   4.240  13.346  0.6363 -0.6243  0.6499
  905MPD2    C313308   2.605   4.204  13.238 -0.2197 -0.0914 -0.3903
  905MPD2    C413309   2.617   4.295  13.139  0.4745  0.6061 -0.2560
  905MPD2    C513310   2.536   4.409  13.132 -0.0298 -0.8611 -0.1344
  905MPD2     H13311   2.535   4.183  13.438  1.4184 -0.4576  0.6713
  905MPD2    H113312   2.686   4.290  13.056  1.4856 -1.3036  0.7227
  905MPD2    H213313   2.399   4.530  13.242  0.3397 -1.1065 -0.0688
  905MPD2    H313314   2.564   4.463  13.042  0.9928  1.9351  1.8689
  905MPD2     N13315   2.704   4.098  13.246  0.1598  0.4601  0.0402
  905MPD2    H513316   2.772   4.104  13.170 -0.4617  0.0498 -0.5449
  905MPD2    N113317   2.386   4.393  13.457 -0.1657 -0.4979 -0.4751
  905MPD2    H713318   2.357   4.490  13.462  1.5679 -0.0456  0.9693
  906MPD2     C13319   0.187   4.371  11.397 -0.4298 -0.0531 -0.6556
  906MPD2    C113320   0.187   4.310  11.275  0.0428  0.6953 -0.9583
  906MPD2    C213321   0.116   4.194  11.256 -0.0813 -0.2527  0.3076
  906MPD2    C313322   0.061   4.132  11.365 -0.0197  0.1580  0.1534
  906MPD2    C413323   0.077   4.190  11.496 -0.3711  0.7432  0.5094
  906MPD2    C513324   0.143   4.307  11.510 -0.4307  0.7108  0.2043
  906MPD2     H13325   0.119   4.150  11.157  0.5615  0.0178  0.2079
  906MPD2    H113326   0.033   4.140  11.582  1.1749 -1.0856  0.2598
  906MPD2    H213327   0.238   4.465  11.414  1.0802 -0.8673 -0.6889
  906MPD2    H313328   0.161   4.348  11.609 -0.4987  1.7076 -0.1947
  906MPD2     N13329   4.722   4.014  11.368 -0.2928  0.4732 -0.2589
  906MPD2    H513330   4.675   3.985  11.453 -0.8796 -0.0639 -0.7647
  906MPD2    N113331   0.237   4.374  11.160 -0.2541 -0.1665  0.1571
  906MPD2    H713332   0.213   4.328  11.073 -0.5291  1.5685 -0.6838
  907MPD2     C13333   3.597   3.606  15.604 -0.3655 -0.1131 -0.0506
  907MPD2    C113334   3.658   3.484  15.607 -0.0411 -0.7492 -0.0761
  907MPD2    C213335   3.696   3.438  15.731  0.5991  0.6012  0.6371
  907MPD2    C313336   3.688   3.514  15.843 -0.1364 -0.0146  0.7687
  907MPD2    C413337   3.643   3.640  15.834 -0.0320  0.3037 -0.5191
  907MPD2    C513338   3.596   3.687  15.717 -0.8258 -0.3710 -0.0023
  907MPD2     H13339   3.748   3.345  15.751 -0.9963 -0.8479 -1.9395
  907MPD2    H113340   3.640   3.708  15.919  2.7416 -1.4161  0.9449
  907MPD2    H213341   3.544   3.641  15.517  0.5326 -3.8737 -2.0917
  907MPD2    H313342   3.543   3.780  15.698 -0.1294  0.3095  1.4248
  907MPD2     N13343   3.730   3.457  15.964  0.3612 -1.1899 -0.3210
  907MPD2    H513344   3.760   3.360  15.964 -0.9507 -1.5893 -0.0250
  907MPD2    N113345   3.668   3.400  15.501 -1.1790 -0.3992 -0.3716
  907MPD2    H713346   3.714   3.312  15.520 -3.2164 -1.5783 -0.9013
  908MPD2     C13347   1.947   4.125   9.422  0.3673  0.0699 -0.6205
  908MPD2    C113348   1.829   4.075   9.484  0.2852  0.5761 -0.2572
  908MPD2    C213349   1.789   4.138   9.603 -0.1161  0.3811 -0.4976
  908MPD2    C313350   1.859   4.254   9.653  0.0510 -0.2687  0.2939
  908MPD2    C413351   1.971   4.291   9.585 -0.3489  0.3171  0.3609
  908MPD2    C513352   2.008   4.239   9.463 -0.0697 -0.1723 -0.1588
  908MPD2     H13353   1.704   4.098   9.657  0.2437  0.8585  0.4324
  908MPD2    H113354   2.033   4.376   9.614 -2.3095  1.3886  1.3647
  908MPD2    H213355   1.982   4.084   9.328  0.8134 -0.2639 -0.3046
  908MPD2    H313356   2.094   4.281   9.411 -0.1372  0.7276  0.4672
  908MPD2     N13357   1.821   4.311   9.777 -0.1658 -0.5432  0.2123
  908MPD2    H513358   1.757   4.260   9.837  0.7190 -0.9200  0.8403
  908MPD2    N113359   1.767   3.971   9.421 -0.0290  0.2078  0.5241
  908MPD2    H713360   1.799   3.954   9.326 -1.6957 -1.9242  0.3591
  909MPD2     C13361   1.744   1.973  11.875 -0.1138 -0.1705 -0.8283
  909MPD2    C113362   1.757   2.096  11.821 -0.3202 -0.4760 -0.0234
  909MPD2    C213363   1.730   2.202  11.905 -0.2929 -0.1740  0.2518
  909MPD2    C313364   1.682   2.186  12.036  0.0960 -0.0087  0.4740
  909MPD2    C413365   1.637   2.063  12.071  0.3182  0.5649  0.8059
  909MPD2    C513366   1.669   1.960  11.988 -0.8322 -0.0013  0.1966
  909MPD2     H13367   1.758   2.304  11.880 -0.6944 -0.4153 -1.2166
  909MPD2    H113368   1.583   2.031  12.159 -0.6113  1.1130  0.4364
  909MPD2    H213369   1.755   1.885  11.813  1.6355 -0.3582 -0.2641
  909MPD2    H313370   1.661   1.860  12.031 -3.5606  1.5120  3.1571
  909MPD2     N13371   1.661   2.299  12.122  0.2495 -0.3168  0.1156
  909MPD2    H513372   1.712   2.382  12.094  0.4859 -0.5275 -0.0862
  909MPD2    N113373   1.807   2.118  11.688  0.1053  0.3091  0.6008
  909MPD2    H713374   1.824   2.214  11.659 -0.6942  0.6193  1.1711
  910MPD2     C13375   3.310   4.180  16.206  0.0241 -0.4677  0.3845
  910MPD2    C113376   3.278   4.067  16.128 -0.2816 -0.1511 -0.5082
  910MPD2    C213377   3.209   4.081  16.011 -0.5965  1.8184 -0.3867
  910MPD2    C313378   3.180   4.206  15.962  0.0353  0.1662  0.7202
  910MPD2    C413379   3.218   4.316  16.036 -0.7490 -0.1932 -0.2305
  910MPD2    C513380   3.279   4.306  16.157  0.2561 -0.1394  0.5031
  910MPD2     H13381   3.165   3.995  15.961 -1.1051  0.9297  1.5650
  910MPD2    H113382   3.192   4.413  15.995 -1.0059  0.3146  1.0995
  910MPD2    H213383   3.365   4.167  16.298 -0.7077 -1.7247  0.6369
  910MPD2    H313384   3.306   4.396  16.213  0.6851  1.8387 -2.9168
  910MPD2     N13385   3.101   4.229  15.849 -0.2612 -0.7498  0.6096
  910MPD2    H513386   3.077   4.325  15.827 -1.2272 -0.6849  1.9034
  910MPD2    N113387   3.302   3.931  16.178 -0.4625 -0.1233  0.3128
  910MPD2    H713388   3.280   3.858  16.112 -1.1271  0.7311 -0.4201
  911MPD2     C13389   0.885   4.265  16.438 -0.3255  0.4130  0.3309
  911MPD2    C113390   0.973   4.375  16.445  0.5426  0.1065 -0.7702
  911MPD2    C213391   0.918   4.509  16.436 -0.6437 -0.1821 -0.6079
  911MPD2    C313392   0.781   4.520  16.401  0.0663 -0.3964 -0.1677
  911MPD2    C413393   0.707   4.404  16.393  0.3663 -0.6469 -0.1606
  911MPD2    C513394   0.757   4.283  16.410  0.0666 -0.6654 -0.2737
  911MPD2     H13395   0.985   4.592  16.457 -2.5603  1.2482 -0.1499
  911MPD2    H113396   0.600   4.398  16.377  0.2746  0.3846  0.0175
  911MPD2    H213397   0.923   4.165  16.450  0.4496  0.6072 -0.5386
  911MPD2    H313398   0.691   4.196  16.414 -0.2780 -0.4427 -1.0287
  911MPD2     N13399   0.723   4.640  16.366 -0.7408  0.7547  0.0461
  911MPD2    H513400   0.629   4.651  16.331 -0.2041  1.4639 -1.1823
  911MPD2    N113401   1.113   4.351  16.475 -0.3054  0.3266  0.2692
  911MPD2    H713402   1.150   4.257  16.464  2.3067  1.5115 -1.2706
  912MPD2     C13403   0.401   4.692  15.720 -0.3255  0.1018  0.1312
  912MPD2    C113404   0.404   4.669  15.856  0.3282 -0.1146 -0.2229
  912MPD2    C213405   0.366   4.541  15.898  1.2598 -0.3105 -0.0677
  912MPD2    C313406   0.307   4.441  15.811 -0.3617  0.1534 -0.1394
  912MPD2    C413407   0.312   4.472  15.674 -0.0135 -0.0907 -0.7567
  912MPD2    C513408   0.360   4.591  15.635 -0.4486 -0.0649  0.0838
  912MPD2     H13409   0.364   4.522  16.005  1.1232  0.5429  0.0824
  912MPD2    H113410   0.288   4.391  15.607 -1.9629  1.3767 -1.8444
  912MPD2    H213411   0.442   0.050  15.688 -1.3575  0.7745  0.8245
  912MPD2    H313412   0.365   4.617  15.530  2.8822 -1.2490 -0.0510
  912MPD2     N13413   0.263   4.320  15.863  0.1254  0.4040 -0.3181
  912MPD2    H513414   0.253   4.321  15.964 -0.2495 -1.2987 -0.3370
  912MPD2    N113415   0.458   0.027  15.944  0.1866  0.0321 -0.4788
  912MPD2    H713416   0.506   0.104  15.897  1.0797 -0.8050 -0.9191
  913MPD2     C13417   1.783   1.887  10.469  0.4286  0.3090  1.1769
  913MPD2    C113418   1.794   1.847  10.338  0.2685 -0.3596 -0.1641
  913MPD2    C213419   1.871   1.926  10.255 -0.1913 -0.7385  0.1760
  913MPD2    C313420   1.927   2.046  10.301  0.6110 -0.5645  1.7298
  913MPD2    C413421   1.896   2.094  10.428 -0.5294  0.5108  0.4525
  913MPD2    C513422   1.831   2.008  10.509  0.2168 -0.7878  0.4249
  913MPD2     H13423   1.885   1.885  10.155 -1.8548  1.4438 -0.9363
  913MPD2    H113424   1.927   2.191  10.465 -2.6514  1.0859  0.6835
  913MPD2    H213425   1.724   1.829  10.539 -0.8574  0.2190  0.0285
  913MPD2    H313426   1.815   2.026  10.615 -1.6037 -0.2868  0.0491
  913MPD2     N13427   2.015   2.130  10.226 -0.4098 -0.2369 -0.4141
  913MPD2    H513428   2.048   2.218  10.264  1.9605 -0.6261 -1.5832
  913MPD2    N113429   1.720   1.732  10.298  0.1878 -0.1391 -0.2024
  913MPD2    H713430   1.684   1.675  10.374 -3.2210  2.6205  0.2603
  914MPD2     C13431   4.346   1.246  12.191 -0.1643 -0.8056  0.6599
  914MPD2    C113432   4.347   1.280  12.327 -0.2428 -0.1133 -0.5623
  914MPD2    C213433   4.291   1.190  12.417  0.0464 -0.4097 -0.2662
  914MPD2    C313434   4.230   1.070  12.379 -0.4504 -0.1397 -0.0634
  914MPD2    C413435   4.236   1.037  12.249  0.1877 -0.1865  0.0803
  914MPD2    C513436   4.299   1.123  12.161 -1.1962 -0.3248 -0.7017
  914MPD2     H13437   4.296   1.223  12.521 -1.7277 -0.5517 -0.1340
  914MPD2    H113438   4.185   0.954  12.202  1.1300  0.2965 -1.7655
  914MPD2    H213439   4.394   1.307  12.115  0.2483 -1.2111  0.5946
  914MPD2    H313440   4.311   1.108  12.054  1.8739  1.3405 -0.5874
  914MPD2     N13441   4.174   0.989  12.481  0.3632  0.1853  0.1520
  914MPD2    H513442   4.165   1.037  12.570  1.3609 -0.4987  0.6244
  914MPD2    N113443   4.389   1.409  12.365 -0.2735 -0.1718 -0.0967
  914MPD2    H713444   4.417   1.465  12.285 -1.5181 -0.3387 -0.6529
  915MPD2     C13445   2.285   1.572  15.758 -0.5785  1.0022 -0.6292
  915MPD2    C113446   2.174   1.637  15.714  0.1544  0.1213 -0.2774
  915MPD2    C213447   2.097   1.705  15.804 -0.7041  0.9234 -0.3005
  915MPD2    C313448   2.122   1.707  15.937 -0.2216 -0.4615  0.2055
  915MPD2    C413449   2.241   1.648  15.988 -1.0053  0.7344  0.4446
  915MPD2    C513450   2.319   1.575  15.898  0.6500 -0.5660  0.5159
  915MPD2     H13451   2.004   1.754  15.777 -0.0748  2.1116 -0.2718
  915MPD2    H113452   2.287   1.644  16.086 -1.3636 -2.0008  0.4879
  915MPD2    H213453   2.341   1.509  15.690 -0.8835  1.4643 -1.3097
  915MPD2    H313454   2.414   1.534  15.930  0.9495 -0.3677 -0.1055
  915MPD2     N13455   2.029   1.775  16.025  0.6835  0.3954 -0.2909
  915MPD2    H513456   1.944   1.813  15.984 -0.6672 -3.3117 -0.9408
  915MPD2    N113457   2.147   1.642  15.572  0.5463 -0.0669 -0.3214
  915MPD2    H713458   2.219   1.592  15.521 -1.1253 -4.0324  1.1442
  916MPD2     C13459   4.699   4.593  15.664 -0.3351 -0.2889  0.2599
  916MPD2    C113460   4.653   4.489  15.744  0.0720  0.8252  0.1984
  916MPD2    C213461   4.647   4.362  15.699  0.1867  0.5189  0.1091
  916MPD2    C313462   4.696   4.341  15.568 -0.7662  0.2912  0.6820
  916MPD2    C413463   0.017   4.442  15.496 -0.5295  0.3271 -0.0960
  916MPD2    C513464   0.015   4.570  15.540  0.1613 -0.0696 -0.0982
  916MPD2     H13465   4.614   4.283  15.766  0.4357 -0.5634 -1.0478
  916MPD2    H113466   0.068   4.433  15.401 -1.6637  1.7842 -0.8483
  916MPD2    H213467   4.702   4.695  15.699  2.3777 -0.2180 -0.1780
  916MPD2    H313468   0.057   4.650  15.480 -0.1813 -1.6516 -2.4574
  916MPD2     N13469   4.707   4.205  15.523  0.2747 -0.4819 -0.1582
  916MPD2    H513470   4.669   4.133  15.584  0.1010  1.2437  1.7531
  916MPD2    N113471   4.608   4.525  15.869 -0.0229  0.0043  0.6926
  916MPD2    H713472   4.626   4.618  15.904 -0.1197  0.3929 -0.3002
  917MPD2     C13473   0.151   1.893  11.655 -0.0693 -0.5190 -0.6732
  917MPD2    C113474   0.258   1.914  11.736  0.9635 -0.0087  0.3904
  917MPD2    C213475   0.368   1.978  11.682  0.7583 -0.4811  0.2537
  917MPD2    C313476   0.371   2.009  11.550 -0.2290 -0.4868 -0.6688
  917MPD2    C413477   0.266   1.984  11.470 -0.4335 -0.0417 -0.4513
  917MPD2    C513478   0.154   1.934  11.523 -0.3050  1.0530  0.5629
  917MPD2     H13479   0.453   2.002  11.745  2.1035 -0.7785 -1.4294
  917MPD2    H113480   0.267   2.017  11.366 -1.0829  0.3880 -0.3211
  917MPD2    H213481   0.069   1.834  11.694  2.0149 -1.1454  2.7404
  917MPD2    H313482   0.066   1.917  11.462  0.6018 -0.8571 -0.2237
  917MPD2     N13483   0.476   2.067  11.474 -0.3137 -0.4182  0.4808
  917MPD2    H513484   0.466   2.075  11.374 -0.8702 -1.0589  0.4848
  917MPD2    N113485   0.250   1.878  11.873 -0.2107 -0.1224  0.0409
  917MPD2    H713486   0.161   1.846  11.909  0.2145 -0.6964  0.5809
  918MPD2     C13487   0.611   2.147  12.753  0.4061 -0.0174  0.4781
  918MPD2    C113488   0.684   2.126  12.634  0.4534  0.0029  0.5238
  918MPD2    C213489   0.635   2.043  12.535 -0.0702  0.4231  0.4305
  918MPD2    C313490   0.515   1.974  12.553  0.4554 -0.4492  0.5174
  918MPD2    C413491   0.435   2.011  12.657 -0.4314  0.0757  0.0038
  918MPD2    C513492   0.481   2.090  12.756  0.2958 -0.2748 -0.3262
  918MPD2     H13493   0.699   2.018  12.452 -0.4477  0.9099 -0.0045
  918MPD2    H113494   0.340   1.963  12.674 -0.2558 -0.3259 -0.1350
  918MPD2    H213495   0.641   2.227  12.820 -0.7137  2.3966 -1.9181
  918MPD2    H313496   0.412   2.125  12.831  0.9448 -2.0261  1.1022
  918MPD2     N13497   0.470   1.887  12.449 -0.1548 -0.1119  0.1411
  918MPD2    H513498   0.544   1.867  12.383 -0.3207 -0.4593  0.0644
  918MPD2    N113499   0.814   2.178  12.614  1.0209  0.7151 -0.2472
  918MPD2    H713500   0.856   2.157  12.524 -0.8612 -0.9455 -0.7468
  919MPD2     C13501   1.253   1.134  11.165 -0.4759  0.1050  0.4643
  919MPD2    C113502   1.190   1.010  11.138  0.2225  0.8607 -0.1117
  919MPD2    C213503   1.087   1.012  11.048 -0.2274  0.8666  0.6928
  919MPD2    C313504   1.050   1.122  10.977  0.0677 -0.1301  0.0194
  919MPD2    C413505   1.097   1.245  11.022  0.6531  0.0573 -0.4423
  919MPD2    C513506   1.192   1.252  11.116 -0.2178 -0.0081  0.0102
  919MPD2     H13507   1.053   0.912  11.023 -0.1020  0.5529  1.7799
  919MPD2    H113508   1.066   1.336  10.971  1.3264 -0.3391 -1.5635
  919MPD2    H213509   1.337   1.148  11.233 -0.8394  1.8868  0.5418
  919MPD2    H313510   1.233   1.351  11.125  1.2144 -0.5936 -0.0571
  919MPD2     N13511   0.938   1.128  10.887  0.1420  0.0962  0.2996
  919MPD2    H513512   0.900   1.220  10.863  0.9751  0.3571 -0.0017
  919MPD2    N113513   1.221   0.891  11.214  0.3761 -0.0162 -0.2716
  919MPD2    H713514   1.160   0.810  11.208 -1.2163  1.1028  0.7648
  920MPD2     C13515   0.471   1.703  10.251  0.6946  0.1424 -0.8852
  920MPD2    C113516   0.364   1.627  10.290 -0.3193  0.1275  0.4977
  920MPD2    C213517   0.394   1.515  10.361 -0.4096  0.2610 -0.5937
  920MPD2    C313518   0.519   1.481  10.402  0.3953  0.2711  0.2265
  920MPD2    C413519   0.625   1.560  10.368  0.7517 -0.5112  0.3968
  920MPD2    C513520   0.597   1.672  10.287  0.8428 -0.7044 -0.1374
  920MPD2     H13521   0.311   1.466  10.410 -0.9252 -1.3643 -3.1120
  920MPD2    H113522   0.728   1.539  10.395  0.8260  1.2555  1.4891
  920MPD2    H213523   0.466   1.797  10.196  1.3727  0.3517 -0.5831
  920MPD2    H313524   0.675   1.746  10.269 -0.0075  0.4717  1.0702
  920MPD2     N13525   0.533   1.358  10.471 -0.0665  0.2821  0.6087
  920MPD2    H513526   0.458   1.290  10.463  0.2149 -0.1064  1.2793
  920MPD2    N113527   0.227   1.661  10.257  0.1366 -0.3165 -0.4347
  920MPD2    H713528   0.155   1.595  10.283  1.0321 -1.9367 -2.0840
  921MPD2     C13529   2.069   0.029  16.705 -0.5829 -0.0672 -0.3530
  921MPD2    C113530   2.059   4.703  16.588 -0.4684 -0.8413  0.9354
  921MPD2    C213531   1.947   4.634  16.556  0.3856  0.2389 -0.0258
  921MPD2    C313532   1.837   4.639  16.643 -0.2112  0.9028  0.3846
  921MPD2    C413533   1.847   4.711  16.760 -0.3345  0.2386 -0.2325
  921MPD2    C513534   1.960   0.033  16.790  0.3140  0.0274  0.3291
  921MPD2     H13535   1.943   4.585  16.460 -2.0380  0.3295  0.0373
  921MPD2    H113536   1.760   4.724  16.823 -2.1476  1.1976 -2.9669
  921MPD2    H213537   2.162   0.073  16.740 -1.3753  1.8800 -0.6922
  921MPD2    H313538   1.961   0.089  16.883  0.5729 -1.0844  1.0005
  921MPD2     N13539   1.718   4.562  16.619  0.3752 -0.2822 -0.0294
  921MPD2    H513540   1.633   4.586  16.670 -2.5133 -0.2285 -4.8453
  921MPD2    N113541   2.165   4.726  16.496  0.0774  0.2814 -0.2002
  921MPD2    H713542   2.249   0.027  16.540  0.2101 -0.2970  0.0554
  922MPD2     C13543   2.553   3.099  17.138 -0.1132 -0.1312 -0.0942
  922MPD2    C113544   2.476   3.141  17.240 -0.0768  0.0514  0.1344
  922MPD2    C213545   2.376   3.054  17.285 -0.5883  0.1808  0.6356
  922MPD2    C313546   2.372   2.924  17.240 -0.1550  0.6219 -0.0589
  922MPD2    C413547   2.449   2.885  17.132 -0.6433 -0.0276 -0.1190
  922MPD2    C513548   2.549   2.970  17.084 -0.0680  0.8936  0.5735
  922MPD2     H13549   2.314   3.085  17.367 -1.4927 -1.1625  0.4673
  922MPD2    H113550   2.443   2.790  17.081 -2.5055 -0.3551  0.7224
  922MPD2    H213551   2.629   3.158  17.089 -1.4916 -0.5681 -2.7255
  922MPD2    H313552   2.616   2.928  17.010  1.1279 -0.3638  2.3736
  922MPD2     N13553   2.277   2.839  17.307  0.1268  0.1455 -0.4123
  922MPD2    H513554   2.212   2.878  17.375  2.1542 -0.3770  1.7877
  922MPD2    N113555   2.475   3.266  17.297 -0.5093  0.1281  0.5176
  922MPD2    H713556   2.400   3.290  17.360 -0.7480 -1.2966  0.7746
  923MPD2     C13557   4.570   0.300   9.027 -0.8051 -1.2874 -0.2503
  923MPD2    C113558   4.518   0.300   9.154 -0.0329 -0.2776 -0.0137
  923MPD2    C213559   4.581   0.222   9.253 -0.0997  0.4116  1.0486
  923MPD2    C313560   4.696   0.149   9.214  0.2557  0.1648 -0.0718
  923MPD2    C413561   0.005   0.153   9.090  0.9507  0.4265  0.0146
  923MPD2    C513562   4.682   0.227   8.990 -0.2819  0.0627  0.5745
  923MPD2     H13563   4.545   0.219   9.355 -0.2173 -0.6282  0.9723
  923MPD2    H113564   0.087   0.090   9.058  1.1370  0.2320  0.8900
  923MPD2    H213565   4.525   0.363   8.951 -0.2313  0.5462  0.9359
  923MPD2    H313566   4.726   0.236   8.892 -0.9279 -0.5596  0.2352
  923MPD2     N13567   0.022   0.066   9.305  0.0612  0.7474 -0.2169
  923MPD2    H513568   0.100   0.008   9.277  0.5617  0.5501  1.6071
  923MPD2    N113569   4.405   0.376   9.188  0.4399  0.4945 -0.0691
  923MPD2    H713570   4.381   0.454   9.127 -1.4677  0.2923  0.4107
  924MPD2     C13571   4.007   2.760  16.028  0.0049 -0.0453  0.0915
  924MPD2    C113572   3.917   2.795  16.123  0.2431  0.3037 -0.3297
  924MPD2    C213573   3.927   2.923  16.178  0.2375  0.0350  0.7384
  924MPD2    C313574   4.029   3.011  16.132  0.5372 -0.2284  0.6963
  924MPD2    C413575   4.102   2.976  16.022 -0.0100  0.0193  0.0519
  924MPD2    C513576   4.094   2.851  15.969  0.1182  0.2873 -0.7420
  924MPD2     H13577   3.852   2.953  16.249 -2.5249 -1.0987 -1.7142
  924MPD2    H113578   4.170   3.050  15.983  1.1786 -0.7740  0.6183
  924MPD2    H213579   4.004   2.660  15.986 -1.7048  1.3557 -3.1262
  924MPD2    H313580   4.165   2.824  15.891  0.9294  0.7375 -0.1598
  924MPD2     N13581   4.039   3.144  16.187  0.2072  0.1418 -0.1530
  924MPD2    H513582   4.102   3.210  16.144  0.9396 -0.7373 -0.4188
  924MPD2    N113583   3.810   2.718  16.170 -0.6448 -0.1634 -0.7765
  924MPD2    H713584   3.737   2.752  16.232  0.8002  3.0887 -0.8541
  925MPD2     C13585   3.006   0.629  14.345 -0.1641  0.3874  0.3032
  925MPD2    C113586   2.886   0.673  14.306  0.2216 -0.4828  0.3498
  925MPD2    C213587   2.770   0.660  14.384 -0.1254 -0.2485 -0.2301
  925MPD2    C313588   2.784   0.626  14.513 -0.1677  0.7273 -0.2820
  925MPD2    C413589   2.900   0.572  14.555  0.5159 -0.2234  0.0923
  925MPD2    C513590   3.013   0.574  14.472  0.4859  0.8134 -0.4662
  925MPD2     H13591   2.677   0.698  14.342  0.5684 -0.9808 -2.4677
  925MPD2    H113592   2.925   0.537  14.655 -2.9540  0.9589  1.3861
  925MPD2    H213593   3.091   0.621  14.279 -1.1158 -0.1947 -0.8649
  925MPD2    H313594   3.107   0.528  14.501 -1.2080 -3.0569 -1.0894
  925MPD2     N13595   2.675   0.610  14.603 -0.0142  0.2254 -0.1518
  925MPD2    H513596   2.691   0.563  14.691 -1.0532 -0.1906 -0.1834
  925MPD2    N113597   2.861   0.721  14.175 -0.0215  0.6368  0.5723
  925MPD2    H713598   2.766   0.743  14.149 -0.2908 -1.9514 -0.6300
  926MPD2     C13599   1.417   3.679  13.795 -0.4287  1.2012 -0.2754
  926MPD2    C113600   1.328   3.749  13.724 -0.5729  0.3670 -1.0082
  926MPD2    C213601   1.369   3.817  13.607 -0.1617 -0.0459  0.0699
  926MPD2    C313602   1.495   3.792  13.554  0.0571  0.4688  0.1143
  926MPD2    C413603   1.575   3.708  13.624  0.3933  0.2312  0.0607
  926MPD2    C513604   1.540   3.654  13.744 -0.4082 -0.3714 -0.0683
  926MPD2     H13605   1.294   3.880  13.560  0.2709 -0.1779 -0.7986
  926MPD2    H113606   1.670   3.683  13.578 -0.0312  0.1141 -0.7459
  926MPD2    H213607   1.384   3.630  13.886 -0.5946  2.1358  0.1703
  926MPD2    H313608   1.608   3.586  13.795  0.7305  0.4648 -0.4661
  926MPD2     N13609   1.549   3.866  13.440 -0.7191 -0.7198 -0.1336
  926MPD2    H513610   1.647   3.862  13.416 -0.9921 -1.9910 -1.0035
  926MPD2    N113611   1.195   3.762  13.757  0.1550  0.2365 -0.0860
  926MPD2    H713612   1.141   3.823  13.697  0.6971  0.4714 -0.3389
  927MPD2     C13613   0.900   1.058  17.632  0.9781 -0.2787 -0.1817
  927MPD2    C113614   0.951   0.932  17.624  0.0534  0.1191  0.3186
  927MPD2    C213615   1.059   0.907  17.545 -0.7075  0.1149 -0.2128
  927MPD2    C313616   1.121   1.009  17.470  0.2531  0.4768  0.0815
  927MPD2    C413617   1.053   1.130  17.463 -0.5399  0.0890 -0.3306
  927MPD2    C513618   0.946   1.155  17.551 -0.1040  0.4036 -0.3235
  927MPD2     H13619   1.110   0.813  17.531 -0.6888  0.3801 -1.8813
  927MPD2    H113620   1.087   1.215  17.406  0.4328 -1.8271 -2.5943
  927MPD2    H213621   0.823   1.073  17.706  0.9296 -2.0683  0.1451
  927MPD2    H313622   0.901   1.253  17.563 -0.3874  0.4131 -1.4853
  927MPD2     N13623   1.223   0.983  17.380 -1.1065 -0.0667 -0.5448
  927MPD2    H513624   1.246   0.887  17.355  1.5827 -0.3680  3.1599
  927MPD2    N113625   0.908   0.830  17.712  0.1298 -0.1698 -0.0610
  927MPD2    H713626   0.822   0.848   0.016 -0.1901  1.1379 -1.0634
  928MPD2     C13627   3.209   0.306   1.033  0.5717 -0.7002  0.5120
  928MPD2    C113628   3.323   0.372   1.063 -0.6436 -0.6429 -0.5345
  928MPD2    C213629   3.437   0.343   0.989  0.3095 -0.2698 -0.2480
  928MPD2    C313630   3.432   0.247   0.887 -0.6333  0.2080  0.5583
  928MPD2    C413631   3.318   0.170   0.873 -0.2812  0.3766 -0.0231
  928MPD2    C513632   3.209   0.203   0.950  0.2739  0.3878 -0.0402
  928MPD2     H13633   3.522   0.409   0.996 -1.0215  1.1711  2.5868
  928MPD2    H113634   3.313   0.083   0.808  0.2774  0.9591 -0.8431
  928MPD2    H213635   3.119   0.337   1.083  0.8363 -2.2889  1.9813
  928MPD2    H313636   3.120   0.141   0.946  0.6064 -0.1521  0.9414
  928MPD2     N13637   3.542   0.208   0.805 -0.0867 -0.3594 -0.5370
  928MPD2    H513638   3.521   0.131   0.742  0.2684  0.0138 -1.1123
  928MPD2    N113639   3.317   0.466   1.161 -0.1534  0.4803 -0.0946
  928MPD2    H713640   3.222   0.477   1.195 -1.2424 -1.5511 -2.4213
  929MPD2     C13641   4.262   4.580  10.488 -0.4138 -0.4032  0.1348
  929MPD2    C113642   4.170   4.490  10.527 -0.1235  0.2533 -0.5364
  929MPD2    C213643   4.048   4.482  10.453 -0.5430 -0.0693 -0.2960
  929MPD2    C313644   4.023   4.572  10.352 -0.5428  0.2822 -0.3664
  929MPD2    C413645   4.119   4.662  10.320 -0.8818 -0.2595 -0.1718
  929MPD2    C513646   4.236   4.663  10.381  0.4501 -0.3679  0.0589
  929MPD2     H13647   3.976   4.404  10.475 -1.2898  0.6661 -0.1316
  929MPD2    H113648   4.113   4.730  10.236  1.6589  1.0936  0.7422
  929MPD2    H213649   4.353   4.589  10.546 -1.3629 -0.8189  1.6635
  929MPD2    H313650   4.312   0.001  10.360 -0.5792  0.8248  0.6327
  929MPD2     N13651   3.900   4.583  10.286  0.7962  0.0053 -0.9886
  929MPD2    H513652   3.879   4.663  10.226  0.0411  1.9370  1.8834
  929MPD2    N113653   4.193   4.413  10.641 -0.4053 -0.2390  0.2069
  929MPD2    H713654   4.283   4.435  10.684 -0.9313  1.6951  0.3270
  930MPD2     C13655   0.818   2.035  13.999 -0.1148  0.0181  0.1336
  930MPD2    C113656   0.952   2.016  13.972  0.0978  0.3385  0.3397
  930MPD2    C213657   0.988   1.902  13.905  0.2245  0.2223  0.4142
  930MPD2    C313658   0.895   1.818  13.850  1.3335  0.2979 -0.8757
  930MPD2    C413659   0.759   1.848  13.872 -0.3122 -0.0434 -0.7566
  930MPD2    C513660   0.724   1.948  13.952  0.9270 -0.4840 -0.4294
  930MPD2     H13661   1.094   1.879  13.898 -0.2201 -1.3874 -0.8962
  930MPD2    H113662   0.673   1.803  13.825 -1.5240 -0.6882  2.0326
  930MPD2    H213663   0.792   2.123  14.056 -1.6577 -0.9595  0.9415
  930MPD2    H313664   0.617   1.953  13.971  0.8263 -1.1573 -0.8135
  930MPD2     N13665   0.922   1.717  13.752 -0.0413 -0.2419 -0.7693
  930MPD2    H513666   0.838   1.671  13.718 -0.5052  0.9527 -1.2607
  930MPD2    N113667   1.052   2.108  14.020  0.2318 -0.2182  0.1049
  930MPD2    H713668   1.029   2.207  14.023  0.0423 -0.1952 -2.2458
  931MPD2     C13669   1.307   0.202   0.309 -0.4907  0.4935  0.4636
  931MPD2    C113670   1.191   0.242   0.370 -0.1493 -0.6598 -0.2756
  931MPD2    C213671   1.183   0.203   0.505  0.1567 -0.5319  0.0354
  931MPD2    C313672   1.275   0.114   0.569  0.2180 -0.4240 -0.2329
  931MPD2    C413673   1.393   0.087   0.502 -0.6265  0.7377  0.0084
  931MPD2    C513674   1.411   0.131   0.373 -0.0553  0.4067 -0.1364
  931MPD2     H13675   1.090   0.235   0.552  0.1673  1.0874 -1.0278
  931MPD2    H113676   1.482   0.046   0.549 -1.5067  0.6926  1.6240
  931MPD2    H213677   1.323   0.231   0.206 -1.3581 -0.6184  0.0099
  931MPD2    H313678   1.501   0.114   0.314  0.9227  0.5871  1.3057
  931MPD2     N13679   1.264   0.065   0.701  0.0882 -1.2301  0.5176
  931MPD2    H513680   1.345   0.009   0.730 -0.5899 -2.1682  0.5989
  931MPD2    N113681   1.099   0.321   0.296 -0.6036  0.4122 -0.8508
  931MPD2    H713682   1.129   0.341   0.201  0.0288 -0.7270 -0.8896
  932MPD2     C13683   3.190   0.376  11.096  0.0428 -0.1262  0.0263
  932MPD2    C113684   3.276   0.475  11.129  0.1280  0.2335  0.8034
  932MPD2    C213685   3.405   0.442  11.177 -0.2454  0.4927 -0.4849
  932MPD2    C313686   3.448   0.307  11.183 -0.1704 -0.2055 -0.1205
  932MPD2    C413687   3.358   0.208  11.147 -0.3144 -0.4262 -0.0252
  932MPD2    C513688   3.230   0.242  11.105 -0.3604  0.3287  0.4350
  932MPD2     H13689   3.464   0.525  11.213  1.9221 -2.2278  2.2600
  932MPD2    H113690   3.377   0.102  11.142 -0.9626 -0.6991  3.0516
  932MPD2    H213691   3.092   0.395  11.055 -0.1182 -0.5813  0.2001
  932MPD2    H313692   3.163   0.161  11.078  1.7179 -1.5245  0.8111
  932MPD2     N13693   3.578   0.274  11.223 -0.2628  0.7357  0.2300
  932MPD2    H513694   3.600   0.175  11.217 -0.1895  0.6999  1.0825
  932MPD2    N113695   3.249   0.613  11.117  0.3752 -0.1319  0.1997
  932MPD2    H713696   3.322   0.680  11.139  1.3372 -1.0254 -0.2810
  933MPD2     C13697   2.936   0.997   1.741 -0.0193  0.6096  0.0572
  933MPD2    C113698   2.942   0.915   1.629  0.7497 -0.0879  0.4891
  933MPD2    C213699   2.819   0.890   1.558 -0.3020 -0.2364  0.2996
  933MPD2    C313700   2.702   0.933   1.617 -0.1358  0.0734  0.2373
  933MPD2    C413701   2.701   1.003   1.736  0.5538  0.8439 -0.4324
  933MPD2    C513702   2.820   1.041   1.798 -0.6721 -0.2581 -0.3389
  933MPD2     H13703   2.819   0.835   1.464  1.9569 -0.1020  0.2191
  933MPD2    H113704   2.608   1.038   1.781 -0.5572 -1.2887 -1.0140
  933MPD2    H213705   3.027   1.020   1.796  0.6870  0.2857 -0.9697
  933MPD2    H313706   2.826   1.093   1.892 -1.1733 -2.7329  1.0714
  933MPD2     N13707   2.583   0.913   1.553 -0.1243 -0.3568 -0.6635
  933MPD2    H513708   2.591   0.862   1.465 -0.2757  0.9684 -1.4326
  933MPD2    N113709   3.072   0.890   1.577 -0.1788 -0.6809  0.7063
  933MPD2    H713710   3.145   0.951   1.612 -0.6138  1.0657 -1.4430
  934MPD2     C13711   0.295   2.109   1.398  0.4479 -0.6051 -0.8352
  934MPD2    C113712   0.338   2.052   1.276 -0.4385 -0.4070 -0.4319
  934MPD2    C213713   0.261   1.957   1.212 -0.8900 -0.6693  0.0304
  934MPD2    C313714   0.142   1.906   1.264  0.6822  0.9256  0.9719
  934MPD2    C413715   0.099   1.969   1.377 -0.7352  0.8707 -0.2435
  934MPD2    C513716   0.173   2.067   1.448  0.4560  0.2968 -0.3293
  934MPD2     H13717   0.286   1.923   1.112  0.7212 -1.9642  0.8701
  934MPD2    H113718   0.015   1.922   1.428 -0.8825  0.4796 -0.8520
  934MPD2    H213719   0.346   2.187   1.453  0.3870 -0.6966 -0.6516
  934MPD2    H313720   0.125   2.108   1.537 -0.3288  0.4087 -0.8033
  934MPD2     N13721   0.068   1.802   1.204  0.0145 -0.4995  0.2904
  934MPD2    H513722   4.718   1.773   1.245 -1.5920  0.2094 -2.6210
  934MPD2    N113723   0.449   2.103   1.208 -0.4228 -0.6295 -0.0248
  934MPD2    H713724   0.474   2.074   1.114 -0.1438  1.5210 -0.6162
  935MPD2     C13725   0.352   1.022   0.654 -0.9165 -0.4661  0.0669
  935MPD2    C113726   0.215   1.014   0.658 -0.5594  0.6579  1.0045
  935MPD2    C213727   0.130   1.120   0.688  0.6927 -0.0774  0.4279
  935MPD2    C313728   0.190   1.242   0.729 -0.8801 -0.2715 -0.0965
  935MPD2    C413729   0.330   1.255   0.726  0.0439 -0.6301 -0.2565
  935MPD2    C513730   0.408   1.142   0.692 -0.4611 -0.0114  0.4269
  935MPD2     H13731   0.022   1.109   0.690  0.5953  0.5275 -0.8533
  935MPD2    H113732   0.385   1.338   0.769  2.4481 -1.8808 -0.8983
  935MPD2    H213733   0.416   0.943   0.617 -0.3985 -1.0951  2.3096
  935MPD2    H313734   0.514   1.163   0.698 -0.7353  1.3822  0.3219
  935MPD2     N13735   0.120   1.348   0.793 -0.0253 -0.0290  0.0663
  935MPD2    H513736   0.170   1.421   0.842  1.3954  0.2845 -1.8304
  935MPD2    N113737   0.150   0.897   0.627 -0.1757 -0.2968 -0.1182
  935MPD2    H713738   0.049   0.901   0.613 -0.5606 -3.5669  1.5212
  936MPD2     C13739   2.774   3.659  12.334 -0.5042  0.6599  0.3271
  936MPD2    C113740   2.836   3.591  12.442  0.6179 -0.3793 -0.2090
  936MPD2    C213741   2.918   3.661  12.528 -0.4049  0.5471  0.3766
  936MPD2    C313742   2.936   3.799  12.514 -0.1473  0.7287  0.0157
  936MPD2    C413743   2.859   3.863  12.416 -0.4804  0.0059  0.1982
  936MPD2    C513744   2.786   3.792  12.323  0.1246 -0.0102  0.0337
  936MPD2     H13745   2.977   3.609  12.602 -0.1616  0.3864  0.0696
  936MPD2    H113746   2.866   3.972  12.419 -1.2671  0.1194 -2.1112
  936MPD2    H213747   2.713   3.610  12.259  0.0124 -0.7012  0.7881
  936MPD2    H313748   2.738   3.842  12.240 -1.8444 -1.7258  0.1426
  936MPD2     N13749   3.042   3.859  12.586  0.7052  0.0535 -0.6090
  936MPD2    H513750   3.092   3.800  12.651  1.7637 -0.7474 -2.1530
  936MPD2    N113751   2.818   3.451  12.464  0.1748  0.8204  0.5608
  936MPD2    H713752   2.864   3.403  12.541  0.9523  0.0155 -0.4174
  937MPD2     C13753   1.583   0.230  11.376  0.4746  0.3586  1.3328
  937MPD2    C113754   1.635   0.359  11.372  0.8205  0.6054  0.2949
  937MPD2    C213755   1.757   0.375  11.297  0.0826  0.6476 -0.3200
  937MPD2    C313756   1.821   0.263  11.239  0.1005  0.8325 -0.3795
  937MPD2    C413757   1.767   0.133  11.250 -0.3574 -0.4540 -0.2848
  937MPD2    C513758   1.645   0.124  11.310  0.2547 -0.6125 -0.2864
  937MPD2     H13759   1.805   0.472  11.288  0.0266  0.6131 -0.9474
  937MPD2    H113760   1.804   0.037  11.213  3.1002  0.6737  0.2299
  937MPD2    H213761   1.499   0.200  11.438  2.0491 -3.0593  1.8113
  937MPD2    H313762   1.591   0.030  11.312 -1.7870  0.5866  0.5892
  937MPD2     N13763   1.949   0.287  11.184 -0.2552  0.0902  0.2043
  937MPD2    H513764   1.986   0.381  11.178 -1.6552  0.5131 -1.7794
  937MPD2    N113765   1.560   0.472  11.415 -0.3798 -0.5063 -0.1586
  937MPD2    H713766   1.604   0.562  11.401 -1.8982  0.2050 -0.4065
  938MPD2     C13767   3.584   1.401   0.362  0.0129 -0.3010 -0.6600
  938MPD2    C113768   3.680   1.453   0.445 -0.0211 -0.1997  0.3527
  938MPD2    C213769   3.687   1.408   0.572 -0.1681 -0.6288 -0.3687
  938MPD2    C313770   3.592   1.329   0.632  0.4524 -0.0375  0.2435
  938MPD2    C413771   3.502   1.275   0.546 -0.4807  0.5194  0.0571
  938MPD2    C513772   3.505   1.306   0.414  0.5205  0.3712  0.2182
  938MPD2     H13773   3.772   1.436   0.634 -0.1805  1.2710 -1.2039
  938MPD2    H113774   3.428   1.205   0.585 -0.6309  1.0720  0.7763
  938MPD2    H213775   3.579   1.428   0.257 -4.0584 -2.1968 -0.9770
  938MPD2    H313776   3.436   1.253   0.350  0.6749  2.2688 -1.5378
  938MPD2     N13777   3.584   1.313   0.773  0.7441  0.3200 -0.1307
  938MPD2    H513778   3.510   1.250   0.800  1.9580 -0.4432  1.4003
  938MPD2    N113779   3.757   1.565   0.405  0.3809 -0.3711  0.3443
  938MPD2    H713780   3.821   1.601   0.476  0.4245  1.7317 -0.7479
  939MPD2     C13781   4.565   2.427   0.410 -1.0820 -0.0509 -0.6030
  939MPD2    C113782   4.443   2.415   0.341 -0.1939  0.0256  0.4063
  939MPD2    C213783   4.428   2.335   0.227 -0.0012  0.8343  0.5535
  939MPD2    C313784   4.544   2.278   0.175  0.2617  0.6506 -0.1851
  939MPD2    C413785   4.660   2.295   0.249  0.3756 -0.1172  0.1423
  939MPD2    C513786   4.672   2.362   0.367 -0.1657 -0.0065  0.6498
  939MPD2     H13787   4.329   2.326   0.185  0.9963 -0.0322 -1.6346
  939MPD2    H113788   0.020   2.261   0.213 -0.0232  1.1495 -2.1432
  939MPD2    H213789   4.576   2.495   0.495  0.6259  0.8856 -1.5644
  939MPD2    H313790   0.032   2.378   0.413  0.0751  1.6924 -0.4323
  939MPD2     N13791   4.535   2.200   0.063 -0.2595  0.5848  0.7627
  939MPD2    H513792   4.438   2.185   0.037  0.5125 -2.0286 -0.5331
  939MPD2    N113793   4.337   2.485   0.400 -0.5986 -0.5912  0.1811
  939MPD2    H713794   4.341   2.523   0.494 -0.1341  1.8952 -0.8355
  940MPD2     C13795   4.608   3.273  12.855 -0.6152  0.2830 -0.0357
  940MPD2    C113796   4.480   3.252  12.892 -0.0297  0.2976 -0.0998
  940MPD2    C213797   4.390   3.218  12.793 -0.8170  0.0857 -0.1777
  940MPD2    C313798   4.442   3.162  12.675 -0.9294 -0.1846  0.3511
  940MPD2    C413799   4.574   3.176  12.647  0.2727  0.0781  0.3671
  940MPD2    C513800   4.655   3.241  12.735  0.1513  0.3749 -0.0349
  940MPD2     H13801   4.282   3.227  12.801 -0.8186  1.1412 -1.4507
  940MPD2    H113802   4.605   3.122  12.559  1.0412  0.9899  0.0724
  940MPD2    H213803   4.681   3.312  12.924  1.6923 -0.7655 -1.8704
  940MPD2    H313804   0.021   3.264  12.712  0.3734 -1.6106 -1.0013
  940MPD2     N13805   4.354   3.093  12.589 -0.3636  0.6820  0.4144
  940MPD2    H513806   4.394   3.051  12.506 -0.3383  3.4655 -1.0080
  940MPD2    N113807   4.436   3.295  13.022 -0.0744 -0.1922 -0.2331
  940MPD2    H713808   4.340   3.319  13.044  0.2434  1.3734 -0.5503
  941MPD2     C13809   3.258   3.284   9.855 -0.6196 -0.2799 -0.1889
  941MPD2    C113810   3.355   3.276   9.956 -0.3943  0.7064  0.1598
  941MPD2    C213811   3.380   3.151  10.015 -0.0420 -0.2923  0.0625
  941MPD2    C313812   3.303   3.038   9.984  0.6622 -0.2913  0.5284
  941MPD2    C413813   3.197   3.055   9.897 -0.5216  0.5385  0.9482
  941MPD2    C513814   3.175   3.178   9.836  0.0522  0.6424  0.9091
  941MPD2     H13815   3.458   3.144  10.089  0.5825  1.1787 -0.4545
  941MPD2    H113816   3.120   2.984   9.869  1.2076 -1.1521  0.4964
  941MPD2    H213817   3.230   3.377   9.809  2.3889  0.2127 -1.0215
  941MPD2    H313818   3.096   3.182   9.762  1.3313  2.4098 -0.3512
  941MPD2     N13819   3.317   2.913  10.053  0.0425  0.3275  0.1887
  941MPD2    H513820   3.234   2.853  10.047  1.4617 -1.4959 -1.2267
  941MPD2    N113821   3.425   3.394   9.987 -0.0070  0.1631  0.5665
  941MPD2    H713822   3.413   3.472   9.923 -1.5051 -0.2137  0.3873
  942MPD2     C13823   3.222   4.605   9.517  0.4342  0.0193 -0.4495
  942MPD2    C113824   3.159   4.685   9.429  0.1926 -0.3831 -0.4962
  942MPD2    C213825   3.226   0.014   9.326  0.9150 -0.5770 -0.6366
  942MPD2    C313826   3.363   0.006   9.310  0.7040  0.7352  0.6364
  942MPD2    C413827   3.430   4.670   9.410 -0.3141 -0.4493 -0.1144
  942MPD2    C513828   3.361   4.599   9.509  0.4675  0.9525 -0.5989
  942MPD2     H13829   3.168   0.074   9.256 -3.1933  1.7988  4.8497
  942MPD2    H113830   3.538   4.659   9.406 -0.2284  0.3625 -0.2529
  942MPD2    H213831   3.175   4.543   9.592 -0.9536  1.6601  0.0439
  942MPD2    H313832   3.424   4.531   9.565 -2.0348  0.2573  1.3799
  942MPD2     N13833   3.438   0.078   9.211 -0.2369 -0.5873  0.6186
  942MPD2    H513834   3.536   0.088   9.235 -0.1058  1.3418 -0.7057
  942MPD2    N113835   3.016   4.699   9.435  0.2923  0.2156  0.1882
  942MPD2    H713836   2.969   0.003   9.354  0.0679 -0.1523  0.1299
  943MPD2     C13837   1.995   3.504  10.376  0.7695  0.0314  0.5655
  943MPD2    C113838   2.054   3.402  10.439  0.2471 -0.1341  0.7048
  943MPD2    C213839   1.983   3.322  10.530  0.2077  0.6021  0.4505
  943MPD2    C313840   1.850   3.346  10.548 -0.8105  0.0209  0.8769
  943MPD2    C413841   1.786   3.446  10.478  0.4370  0.2526 -0.0630
  943MPD2    C513842   1.860   3.522  10.390  0.1505  0.2468 -0.0515
  943MPD2     H13843   2.027   3.232  10.570 -1.1176 -0.8158 -1.2536
  943MPD2    H113844   1.678   3.460  10.479  0.0077 -2.9462 -1.5412
  943MPD2    H213845   2.052   3.570  10.312  0.8390 -1.0226 -0.4527
  943MPD2    H313846   1.810   3.602  10.335 -1.0825 -2.2367 -2.5265
  943MPD2     N13847   1.772   3.272  10.636 -0.5972 -0.0671  0.4313
  943MPD2    H513848   1.683   3.310  10.668 -0.2545  0.3658  0.8732
  943MPD2    N113849   2.190   3.393  10.408 -0.1937  0.2912  0.5930
  943MPD2    H713850   2.219   3.442  10.324 -0.5447 -2.6852 -1.2379
  944MPD2     C13851   1.948   2.111  11.048 -0.5122 -0.2948  0.4783
  944MPD2    C113852   1.993   2.234  11.074  0.5485  0.2952  0.1637
  944MPD2    C213853   1.932   2.309  11.175 -0.3493 -0.0484  0.7437
  944MPD2    C313854   1.824   2.252  11.239 -0.3288 -0.0063  0.4856
  944MPD2    C413855   1.777   2.129  11.209 -0.1542 -0.2758 -0.2873
  944MPD2    C513856   1.846   2.058  11.115 -0.0682  0.1326  0.4097
  944MPD2     H13857   1.976   2.404  11.203  0.7571 -0.6901  1.2112
  944MPD2    H113858   1.697   2.080  11.264 -1.3218 -1.0468 -2.7120
  944MPD2    H213859   2.002   2.046  10.980 -2.1864 -0.4902 -0.6680
  944MPD2    H313860   1.821   1.953  11.104 -0.9857  0.4946 -0.9032
  944MPD2     N13861   1.768   2.335  11.339  0.3203 -1.0547  0.3789
  944MPD2    H513862   1.816   2.423  11.354 -2.1268  0.5518 -1.2334
  944MPD2    N113863   2.113   2.274  11.013  0.3206 -0.7648  0.0848
  944MPD2    H713864   2.147   2.205  10.947  2.1326  1.2015 -1.0488
    1TMC1    C113865   0.131   3.198  14.353  0.1069 -0.1729  0.9599
    1TMC1    C213866   0.052   3.171  14.241  0.1312 -0.2207 -0.3630
    1TMC1    C313867   0.051   3.045  14.196 -0.3477 -0.1932 -0.1608
    1TMC1    C413868   0.212   3.101  14.408  0.2426 -0.0506 -0.4957
    1TMC1    C513869   0.214   2.979  14.357 -0.2333 -0.3919  0.0691
    1TMC1    C613870   0.130   2.947  14.249  0.0442  0.1137  0.2549
    1TMC1     C13871   0.134   3.330  14.411 -0.0233  0.3346  0.4251
    1TMC1     O13872   0.192   3.354  14.519  0.2749 -0.0128  0.1610
    1TMC1     H13873   4.715   3.242  14.205  1.2160  0.8969 -0.4188
    1TMC1    H113874   0.271   3.123  14.496 -0.1389 -2.0354  0.2506
    1TMC1    H213875   0.117   2.848  14.207  0.5951  0.6052 -1.0461
    1TMC1    C713876   0.290   2.869  14.423  0.3406 -0.6932  0.0208
    1TMC1    C813877   4.694   2.996  14.096 -0.0912 -0.1714 -0.1894
    1TMC1    O113878   0.342   2.773  14.364 -0.0679  0.2728 -0.3253
    1TMC1    O213879   4.668   2.877  14.082  0.3833  0.0872  0.1838
    1TMC1    O313880   0.250   2.865  14.551 -0.2069  0.5853 -0.8224
    1TMC1    H313881   0.181   2.931  14.575  3.2728  2.9205  2.6964
    1TMC1    O513882   4.656   3.087  14.009  0.3822  0.1338  0.0008
    1TMC1    H513883   4.711   3.167  14.024 -2.1591  1.3266  2.8329
    2MPD2     C13884   4.701   3.813  14.372 -0.6213  0.0981  0.5339
    2MPD2    C113885   4.715   3.759  14.244  0.0169 -0.6024  0.8612
    2MPD2    C213886   0.025   3.635  14.229 -0.0017  0.5286 -0.2116
    2MPD2    C313887   0.060   3.558  14.341 -0.2927 -0.1122 -0.1761
    2MPD2    C413888   0.055   3.610  14.470  0.4504 -0.0516  0.2204
    2MPD2    C513889   0.008   3.741  14.482 -0.1117  0.0721  0.2169
    2MPD2     H13890   0.047   3.603  14.128  1.7217  1.6306 -0.1777
    2MPD2    H113891   0.069   3.545  14.555 -0.7511 -1.0507 -0.3488
    2MPD2    H213892   4.660   3.910  14.399 -0.9138 -0.0085  0.4702
    2MPD2    H313893   4.718   3.768  14.584  2.9881 -0.6177  1.2345
    2MPD2     N13894   0.096   3.421  14.316 -0.3028  0.3756 -0.0029
    2MPD2    H513895   0.085   3.393  14.219  0.0462  0.4591 -0.0645
    2MPD2    N113896   4.654   3.820  14.132  0.2173  0.3507 -0.3823
    2MPD2    H713897   4.650   3.760  14.050 -0.2314 -1.7674  1.1850
    3TMC2    C113898   4.518   3.980  14.012  0.0615 -0.4120 -0.0262
    3TMC2    C213899   4.420   4.082  14.021 -0.1094 -0.0802 -0.7594
    3TMC2    C313900   4.367   4.121  13.906 -0.1652  0.9473 -0.2247
    3TMC2    C413901   4.517   3.898  13.903 -0.2225 -0.7984  0.3219
    3TMC2    C513902   4.444   3.933  13.793  0.2077 -0.2044 -0.1721
    3TMC2    C613903   4.386   4.056  13.788  0.4039 -0.2140  0.7858
    3TMC2     C13904   4.590   3.946  14.137  1.0286  0.1584  0.9139
    3TMC2     O13905   4.569   4.020  14.233 -0.1197  0.2076 -0.3205
    3TMC2     H13906   4.413   4.147  14.108  0.5098 -2.3608  0.9812
    3TMC2    H113907   4.570   3.804  13.892  1.7205  0.1631  1.5415
    3TMC2    H213908   4.350   4.099  13.695 -1.7360 -1.6318  0.9631
    3TMC2    C713909   4.512   3.897  13.676  0.1362 -1.0227  0.1756
    3TMC2    C813910   4.271   4.229  13.902  0.3129 -0.1555  0.1302
    3TMC2    O113911   4.507   3.786  13.631 -0.5114 -0.3478 -0.1197
    3TMC2    O213912   4.248   4.283  13.799  0.3406 -0.5335 -0.1950
    3TMC2    O513913   4.174   4.191  13.994 -0.4040  0.0253  0.0929
    3TMC2    H513914   4.200   4.117  14.054 -1.5635 -0.5403 -0.1121
    4TMC2    C113915   0.127   4.682  13.174  0.0073  0.0881  0.4813
    4TMC2    C213916   0.191   0.032  13.254  0.2692  0.6960 -0.1958
    4TMC2    C313917   0.225   4.734  13.379 -0.4276 -0.1982  0.3634
    4TMC2    C413918   0.095   4.554  13.210 -0.2350 -0.1695 -0.5153
    4TMC2    C513919   0.133   4.522  13.339 -0.7461  0.4036  0.0834
    4TMC2    C613920   0.205   4.603  13.422 -0.6360 -0.0549  0.1530
    4TMC2     C13921   0.111   4.716  13.042  0.9249 -0.2946  0.4043
    4TMC2     O13922   0.071   0.092  13.031  0.5268  0.2895 -0.2335
    4TMC2     H13923   0.201   0.133  13.214 -0.1786  0.3161 -1.2781
    4TMC2    H113924   0.035   4.488  13.147  0.2901  0.1544 -1.3650
    4TMC2    H213925   0.231   4.573  13.522  2.8430 -1.2794 -1.1067
    4TMC2    C713926   0.087   4.397  13.399  0.6864  0.2066 -0.6669
    4TMC2    C813927   0.263   0.109  13.469  0.1546 -0.4284 -0.0010
    4TMC2    O113928   0.063   4.401  13.518 -0.2959 -0.2230 -0.5367
    4TMC2    O213929   0.242   0.230  13.448 -0.4313  0.1452 -0.5147
    4TMC2    O513930   0.295   0.064  13.589 -0.4794  0.3134  0.0637
    4TMC2    H513931   0.348   4.719  13.592  1.5998  1.7022  1.9157
    5MPD2     C13932   0.025   4.599  12.546 -0.1199 -0.6962 -0.1426
    5MPD2    C113933   0.077   4.488  12.612 -0.5569  0.2221  0.1242
    5MPD2    C213934   0.115   4.494  12.746 -0.2080 -0.3237  0.1415
    5MPD2    C313935   0.094   4.608  12.818  0.4842 -0.2686  0.2316
    5MPD2    C413936   0.052   4.719  12.751 -0.6282 -0.2993 -0.8875
    5MPD2    C513937   0.027   4.718  12.616 -0.3321  0.3420 -0.1203
    5MPD2     H13938   0.148   4.410  12.806 -3.5409 -0.5250  1.6650
    5MPD2    H113939   0.030   0.066  12.815  0.1614  0.0612 -1.0929
    5MPD2    H213940   4.733   4.593  12.442 -1.6590  0.2516  0.2354
    5MPD2    H313941   4.721   0.070  12.572 -0.9929 -0.7529 -1.7118
    5MPD2     N13942   0.126   4.610  12.954  0.3295  0.0922 -0.2723
    5MPD2    H513943   0.155   4.522  12.995  0.1662 -0.0549 -0.4727
    5MPD2    N113944   0.076   4.376  12.529  0.1804  0.5575  0.4919
    5MPD2    H713945   0.040   4.391  12.436  1.1394 -0.1995 -0.0024
    6MPD1     C13946   3.226   3.904  13.109  0.8169 -0.3685  0.1607
    6MPD1    C113947   3.259   4.035  13.070  0.2361  0.6143 -0.1127
    6MPD1    C213948   3.390   4.056  13.023 -0.2485  0.3616 -0.2403
    6MPD1    C313949   3.480   3.949  13.018 -0.3495  0.2032 -0.4302
    6MPD1    C413950   3.446   3.826  13.067 -0.8091 -0.0431  0.0291
    6MPD1    C513951   3.318   3.803  13.105  0.7134 -0.7765 -1.4427
    6MPD1     H13952   3.416   4.151  12.978  2.9459 -1.0414 -1.3386
    6MPD1    H113953   3.516   3.744  13.062 -1.4167 -0.5935  0.3706
    6MPD1    H213954   3.135   3.873  13.158 -0.4417  3.9435  0.5201
    6MPD1    H313955   3.285   3.708  13.146  1.5069 -0.1996  0.5429
    6MPD1     N13956   3.605   3.960  12.951 -0.7424  0.3958  0.2198
    6MPD1    H513957   3.659   3.875  12.948 -0.1139  0.8562 -1.6988
    6MPD1    N113958   3.181   4.145  13.099 -0.0147 -0.7252  0.0037
    6MPD1    H613959   3.203   4.223  13.037 -1.1640 -0.8758 -0.5972
    6MPD1    H713960   3.083   4.127  13.076  0.1161 -2.0623  0.5372
    7MPD2     C13961   4.319   3.686  12.795  0.4039 -0.1448  0.1902
    7MPD2    C113962   4.285   3.769  12.692 -0.1956 -0.0357  0.2086
    7MPD2    C213963   4.381   3.808  12.599  0.4987 -0.2554  0.4419
    7MPD2    C313964   4.514   3.775  12.614 -0.4156 -0.0274  0.5266
    7MPD2    C413965   4.545   3.691  12.720 -0.1995  0.9193 -0.7570
    7MPD2    C513966   4.444   3.649  12.810 -0.0123  0.3842  0.4103
    7MPD2     H13967   4.365   3.865  12.508  0.2469 -0.9132  0.0701
    7MPD2    H113968   4.646   3.656  12.735  0.3159  2.0597 -1.5552
    7MPD2    H213969   4.249   3.660  12.873 -3.1668  1.8251 -2.3458
    7MPD2    H313970   4.469   3.590  12.898 -0.1313 -2.6394 -1.6081
    7MPD2     N13971   4.600   3.832  12.517  0.2097  0.5408 -0.1140
    7MPD2    H513972   4.566   3.898  12.449 -1.1123 -1.1096 -1.0565
    7MPD2    N113973   4.153   3.810  12.663 -0.5662  0.3190  0.3072
    7MPD2    H713974   4.144   3.877  12.588 -0.8281 -1.4157 -1.2062
    8TMC3    C113975   0.049   3.915  12.431  0.2788 -0.1237  0.5284
    8TMC3    C213976   0.105   4.011  12.505  0.1833  0.1484 -0.1024
    8TMC3    C313977   0.084   4.143  12.470 -0.4804  0.0046 -0.6337
    8TMC3    C413978   4.709   3.944  12.320 -0.3805  0.4551  0.2846
    8TMC3    C513979   4.689   4.078  12.296 -0.2215  0.6185 -0.7214
    8TMC3    C613980   0.005   4.181  12.364 -0.4931  0.1632  0.1598
    8TMC3     C13981   4.737   3.806  12.505  0.9086 -0.0907 -0.7831
    8TMC3     O13982   0.058   3.740  12.591 -0.3407  0.0879  0.1259
    8TMC3     H13983   0.177   3.990  12.583  1.5910  1.0772 -1.1285
    8TMC3    H113984   4.672   3.868  12.253  0.4953 -0.3371  0.7066
    8TMC3    H213985   0.006   4.279  12.316 -2.2419  0.9147  1.6874
    8TMC3    C713986   4.540   4.089  12.287  0.1043 -0.1065 -0.4934
    8TMC3    C813987   0.114   4.252  12.568  0.6726  0.2016 -0.1833
    8TMC3    O113988   4.484   3.986  12.323  0.3103 -0.7108 -0.0203
    8TMC3    O213989   0.130   4.216  12.687 -0.0356 -0.2512 -0.9940
    9TMC3    C113990   3.778   4.050  12.802  0.5320 -0.1831  0.5085
    9TMC3    C213991   3.806   4.135  12.707  1.3693 -0.6843 -0.3490
    9TMC3    C313992   3.881   4.091  12.604 -0.1372  0.0271  0.2446
    9TMC3    C413993   3.840   3.925  12.807  0.9528 -0.1714  0.4037
    9TMC3    C513994   3.934   3.884  12.710 -0.0323  0.0366  0.7035
    9TMC3    C613995   3.955   3.972  12.606 -0.1202  0.3629 -0.0056
    9TMC3     C13996   3.661   4.074  12.889 -0.9839 -0.1639 -0.2447
    9TMC3     O13997   3.618   4.188  12.874  0.4431 -0.4555  0.4637
    9TMC3     H13998   3.769   4.237  12.706 -1.0533 -1.5846 -3.3917
    9TMC3    H113999   3.826   3.858  12.891 -2.1171 -0.3527 -0.2484
    9TMC3    H214000   4.011   3.937  12.521  2.8842  1.2879  1.5676
    9TMC3    C714001   4.039   3.788  12.745  0.1834 -0.5268 -0.3178
    9TMC3    C814002   3.942   4.193  12.523  0.2768  0.5188  0.7508
    9TMC3    O114003   4.019   3.707  12.834  0.4909  0.6144 -0.3374
    9TMC3    O214004   3.908   4.311  12.541  0.2642  0.3904 -0.2728
   10MPD2     C14005   4.317   4.371  12.215 -0.2267 -0.2645  0.6278
   10MPD2    C114006   4.358   4.260  12.280  0.1148  0.3711 -0.3378
   10MPD2    C214007   4.269   4.184  12.359  0.9212 -0.3778 -0.0279
   10MPD2    C314008   4.141   4.227  12.375 -0.1043 -0.1718 -0.1134
   10MPD2    C414009   4.099   4.342  12.314 -0.5447  0.5697 -0.1773
   10MPD2    C514010   4.178   4.401  12.222  0.0848  0.1571  0.7143
   10MPD2     H14011   4.303   4.097  12.415  1.0729 -0.7109 -0.6371
   10MPD2    H114012   3.995   4.367  12.337 -0.1603  0.0459  2.1045
   10MPD2    H214013   4.380   4.437  12.156 -0.3789 -0.1331  0.6137
   10MPD2    H314014   4.151   4.488  12.163 -1.1451 -0.0412  0.9875
   10MPD2     N14015   4.052   4.147  12.448  0.5939  0.4737  0.3167
   10MPD2    H514016   4.086   4.053  12.464 -4.7046 -1.7342 -1.4357
   10MPD2    N114017   4.492   4.218  12.269  0.0550 -0.4767  0.2918
   10MPD2    H714018   4.554   4.278  12.214  0.4981  0.1069  1.4242
   11MPD2     C14019   4.638   3.911  13.403 -0.2972  0.0929 -0.0610
   11MPD2    C114020   4.641   4.014  13.499  0.1990 -0.1923  0.1231
   11MPD2    C214021   4.713   4.130  13.469  0.6466  0.1044 -0.4190
   11MPD2    C314022   0.019   4.165  13.345  0.7413 -0.0427  0.4816
   11MPD2    C414023   0.010   4.068  13.247  0.2051 -0.3260  0.3530
   11MPD2    C514024   4.691   3.949  13.279  0.4463 -0.2456 -0.5892
   11MPD2     H14025   4.712   4.210  13.543 -2.4015  0.8483 -1.2865
   11MPD2    H114026   0.035   4.086  13.143 -1.2120  0.1834  0.0959
   11MPD2    H214027   4.571   3.828  13.416 -1.4961  1.3609  1.8476
   11MPD2    H314028   4.672   3.891  13.189 -2.0706  2.0549 -1.5228
   11MPD2     N14029   0.072   4.293  13.315  0.1495 -0.0893  0.2925
   11MPD2    H514030   0.106   4.300  13.219 -0.8173 -0.1752 -0.0609
   11MPD2    N114031   4.586   4.004  13.629  0.0001 -0.5240 -0.7793
   11MPD2    H714032   4.593   4.089  13.683  0.2040 -0.5564 -0.7584
    1MPD1     C14033   1.394   0.074  16.703  0.0759  0.0414  0.1244
    1MPD1    C114034   1.469   0.015  16.808  0.2527 -0.0327  0.2620
    1MPD1    C214035   1.549   0.100  16.883 -0.0444 -0.0309 -0.3475
    1MPD1    C314036   1.550   0.236  16.861 -0.6315 -0.1679 -0.3229
    1MPD1    C414037   1.478   0.291  16.757 -0.6449 -0.9619 -0.7994
    1MPD1    C514038   1.402   0.208  16.683  0.2611 -0.4406  0.1195
    1MPD1     H14039   1.613   0.052  16.956  1.1132 -1.1013 -2.0653
    1MPD1    H114040   1.485   0.398  16.737 -2.7001 -0.3682  1.7581
    1MPD1    H214041   1.335   0.019  16.631 -1.4625  1.0943  0.5946
    1MPD1    H314042   1.345   0.248  16.600  1.1657 -1.3863 -0.9598
    1MPD1     N14043   1.641   0.323  16.927  0.5523  0.4657 -0.6258
    1MPD1    H514044   1.654   0.414  16.884  2.6992  1.6689  2.6084
    1MPD1    N114045   1.475   4.613  16.808 -0.1642  0.3649 -0.3111
    1MPD1    H614046   1.395   4.566  16.768 -1.2495  1.7361  0.2470
    1MPD1    H714047   1.506   4.578  16.899 -0.2771  1.2765  0.0808
    2MPD1     C14048   2.256   0.202  17.740  0.2715 -0.1594  0.5698
    2MPD1    C114049   2.140   0.270  17.740  0.1234 -0.3657 -0.1861
    2MPD1    C214050   2.082   0.306  17.617 -0.6695 -0.5341  0.0936
    2MPD1    C314051   2.134   0.257  17.504 -0.2578 -0.5962 -0.4239
    2MPD1    C414052   2.246   0.172  17.500  0.2397 -0.2974  0.6604
    2MPD1    C514053   2.307   0.154  17.621  0.5452  0.7045 -0.6160
    2MPD1     H14054   2.011   0.388  17.615 -0.9313 -0.6928  2.7876
    2MPD1    H114055   2.295   0.145  17.407  2.1952  1.0723  1.2864
    2MPD1    H214056   2.315   0.190   0.083 -1.5008  0.6111  1.8576
    2MPD1    H314057   2.396   0.093  17.621  0.4807  0.6066 -1.0214
    2MPD1     N14058   2.068   0.300  17.387  0.0916 -0.6033 -0.2962
    2MPD1    H514059   1.991   0.365  17.396  0.8667  0.5722 -2.0838
    2MPD1    N114060   2.097   0.334   0.112 -0.8887 -0.2528  0.7233
    2MPD1    H614061   2.105   0.268   0.189 -0.3591  0.0446  0.9276
    2MPD1    H714062   2.004   0.371   0.096  0.2069  1.7790 -1.0050
    3TMC3    C114063   2.042   0.333  17.159 -0.1482  0.4914 -0.2774
    3TMC3    C214064   2.112   0.338  17.040  0.4955  0.0763 -0.0060
    3TMC3    C314065   2.030   0.378  16.935 -0.3709 -0.0784 -0.3954
    3TMC3    C414066   1.906   0.334  17.165  0.9951  1.0430  0.2501
    3TMC3    C514067   1.830   0.360  17.055  0.6272  0.1412  0.6029
    3TMC3    C614068   1.893   0.384  16.937  0.2055  0.1494  0.2019
    3TMC3     C14069   2.119   0.282  17.265 -0.6456 -0.4458  0.4735
    3TMC3     O14070   2.203   0.204  17.223 -0.0008  0.0697  1.0013
    3TMC3     H14071   2.218   0.360  17.045  0.8279 -1.3456 -1.0246
    3TMC3    H114072   1.863   0.282  17.251  1.9324  1.1351  0.7802
    3TMC3    H214073   1.844   0.414  16.846  0.7191  2.4622  0.6704
    3TMC3    C714074   1.707   0.288  17.038 -0.2205  0.5454 -0.4172
    3TMC3    C814075   2.099   0.384  16.809 -0.1093  0.1310 -0.4172
    3TMC3    O114076   1.685   0.196  17.120 -0.2216  0.0967  0.3816
    3TMC3    O214077   2.035   0.430  16.714  0.2640 -0.4278 -0.0077
    4MPD1     C14078   2.520   0.329  16.537  0.6406  0.0253 -0.0019
    4MPD1    C114079   2.536   0.244  16.642 -0.2112  0.0519  0.2241
    4MPD1    C214080   2.435   0.249  16.734  0.3892 -0.2741  0.2754
    4MPD1    C314081   2.322   0.318  16.709  0.4740 -0.3979 -0.5994
    4MPD1    C414082   2.305   0.388  16.596 -0.0605 -0.2547 -0.2348
    4MPD1    C514083   2.408   0.393  16.508  0.3135 -0.2812  0.1581
    4MPD1     H14084   2.440   0.207  16.833  0.5245  0.8511  0.7468
    4MPD1    H114085   2.208   0.434  16.582 -0.1148 -0.6374 -1.0728
    4MPD1    H214086   2.597   0.350  16.463 -0.0982  2.4411 -0.1128
    4MPD1    H314087   2.400   0.448  16.415  0.5091 -1.2863 -0.4455
    4MPD1     N14088   2.220   0.313  16.810  0.4459  0.3308 -0.0765
    4MPD1    H514089   2.251   0.265  16.894  1.1834  0.7363 -0.1140
    4MPD1    N114090   2.659   0.202  16.683 -0.5562  0.7670 -0.3985
    4MPD1    H614091   2.727   0.185  16.608 -2.2376 -0.4404 -1.6497
    4MPD1    H714092   2.650   0.123  16.746  2.7774  0.9393  0.3056
    1TCq1    O114093   2.347   0.794  10.844 -0.1802 -0.0333 -0.5132
    1TCq1    C114094   2.342   0.821  10.707 -0.3377  0.9059 -0.3042
    1TCq1    O214095   2.444   0.853  10.644  0.7988  0.6837 -0.0093
    1TCq1    C214096   2.225   0.756  10.657  0.6146 -0.1452 -0.4072
    1TCq1    C314097   2.186   0.782  10.530  0.4256  0.1337 -0.1325
    1TCq1    C414098   2.053   0.753  10.499  0.3823 -0.4590 -0.7372
    1TCq1    C514099   1.982   0.665  10.577  0.1095  0.3928 -1.1629
    1TCq1    C614100   2.036   0.622  10.690  0.1912  0.2053 -0.3413
    1TCq1    C714101   2.148   0.679  10.745 -0.2203  0.1100 -1.0134
    1TCq1    C814102   1.978   0.506  10.752  0.3923 -0.3452  0.3518
    1TCq1    O414103   1.989   0.495  10.872 -0.3199  0.4324  0.3240
    1TCq1    C914104   2.006   0.760  10.363  0.4394 -0.7941 -0.5073
    1TCq1    O514105   2.078   0.829  10.288  0.0420 -0.1871  0.5922
    1TCq1    O614106   1.917   0.676  10.331  0.3013 -0.3783  0.4676
    1TCq1    H114107   2.261   0.811  10.887  0.0267  2.6342 -1.1725
    1TCq1    H214108   2.256   0.811  10.453  1.5278  0.4085  0.9894
    1TCq1    H314109   1.881   0.637  10.549 -0.9930  2.7026  0.5172
    1TCq1    H414110   2.178   0.647  10.844 -0.8945 -0.1496 -0.8934
    2MPD1     C14111   1.719   0.064  10.710 -0.6917  0.6341 -0.2147
    2MPD1    C114112   1.739   0.106  10.581 -0.0841 -0.6270 -0.0232
    2MPD1    C214113   1.810   0.228  10.560 -0.0872 -0.1527 -0.0876
    2MPD1    C314114   1.851   0.307  10.674  0.0107  0.2468  0.4912
    2MPD1    C414115   1.816   0.265  10.797  0.1255 -0.3266 -0.1943
    2MPD1    C514116   1.759   0.143  10.812  0.1767  0.4501  0.4574
    2MPD1     H14117   1.817   0.270  10.461  0.8350 -0.9004 -0.3403
    2MPD1    H114118   1.827   0.331  10.882  1.6117 -0.5925 -0.1776
    2MPD1    H214119   1.674   4.707  10.737  0.3688 -0.3801 -1.9679
    2MPD1    H314120   1.738   0.109  10.913  0.1831 -1.3933 -0.1614
    2MPD1     N14121   1.927   0.424  10.654  0.4746  0.0171  0.0507
    2MPD1    H514122   1.937   0.458  10.559 -1.1207  1.7232  0.4948
    2MPD1    N114123   1.717   0.018  10.475  0.2391  0.0327 -0.2121
    2MPD1    H614124   1.659   4.675  10.502  1.4127 -1.6872 -2.8508
    2MPD1    H714125   1.673   0.059  10.393 -1.0485 -1.8065 -0.4570
    1TMC1    C114126   4.113   2.627   1.331 -0.4103 -0.4948 -0.7782
    1TMC1    C214127   4.150   2.683   1.448  0.0008 -0.0488 -0.7426
    1TMC1    C314128   4.055   2.743   1.528 -0.1079  0.5197  0.0199
    1TMC1    C414129   3.981   2.639   1.284  0.5579  0.0845 -0.0402
    1TMC1    C514130   3.893   2.707   1.368  0.2606 -0.3684  0.2412
    1TMC1    C614131   3.923   2.755   1.493  1.0020 -0.2467  0.0088
    1TMC1     C14132   4.214   2.555   1.252 -0.6052 -0.7327 -0.3911
    1TMC1     O14133   4.329   2.554   1.283 -0.4541  0.4103 -0.5971
    1TMC1     H14134   4.253   2.672   1.481 -0.4967  0.9476  1.1567
    1TMC1    H114135   3.927   2.590   1.204  1.3798  2.1466 -1.8441
    1TMC1    H214136   3.847   2.800   1.556 -0.8176 -1.6007 -1.2422
    1TMC1    C714137   3.751   2.722   1.334  1.1358 -0.3408  0.4034
    1TMC1    C814138   4.101   2.856   1.613 -0.3934 -0.3804  0.6705
    1TMC1    O114139   3.712   2.719   1.217 -0.1203  0.5338 -0.3789
    1TMC1    O214140   4.040   2.954   1.625 -0.3875  0.2804 -0.3199
    1TMC1    O314141   3.690   2.670   1.439 -0.6854 -0.2629  0.5804
    1TMC1    H314142   3.748   2.636   1.510  0.1820  0.7525  0.3535
    1TMC1    O514143   4.213   2.814   1.675 -0.9158 -0.7443 -0.6548
    1TMC1    H514144   4.223   2.716   1.673  2.3226 -0.3900 -1.8377
    2MPD1     C14145   4.308   2.373   0.775  0.8488  0.6212  0.2912
    2MPD1    C114146   4.173   2.378   0.789  0.1204  0.6008 -0.4507
    2MPD1    C214147   4.127   2.434   0.910 -0.4368 -0.4783  0.4436
    2MPD1    C314148   4.218   2.466   1.011  0.1129  0.4770 -0.8469
    2MPD1    C414149   4.352   2.445   0.996 -0.2598  0.0703  0.5968
    2MPD1    C514150   4.395   2.401   0.877 -0.5018 -0.1449  0.0143
    2MPD1     H14151   4.019   2.441   0.920 -0.5157  1.6474 -1.8601
    2MPD1    H114152   4.423   2.467   1.074  0.9043 -0.0049 -0.4408
    2MPD1    H214153   4.351   2.338   0.681 -1.0441  1.3332 -0.8220
    2MPD1    H314154   4.501   2.388   0.855  0.2653  3.3729  1.6746
    2MPD1     N14155   4.160   2.511   1.129 -0.4763  0.6367  0.3455
    2MPD1    H514156   4.065   2.543   1.112 -0.1972  1.2259 -0.1441
    2MPD1    N114157   4.090   2.327   0.693  0.3081 -0.1005 -0.1815
    2MPD1    H614158   4.009   2.282   0.735  0.3023  0.5457  0.5191
    2MPD1    H714159   4.136   2.263   0.629 -1.3474  0.4608 -1.9510
    1MPD1     C14160   0.838   4.408  12.802  0.2886  0.2570  0.0707
    1MPD1    C114161   0.902   4.292  12.823  0.6387  0.2921 -0.1739
    1MPD1    C214162   0.888   4.184  12.733  0.7823  0.4589 -0.4023
    1MPD1    C314163   0.812   4.193  12.616  0.3037  0.5112 -0.4157
    1MPD1    C414164   0.758   4.321  12.588  0.4937 -1.0707 -0.2302
    1MPD1    C514165   0.762   4.416  12.686  0.4172 -0.2952 -0.5730
    1MPD1     H14166   0.927   4.087  12.761 -0.2515 -0.3680 -1.8782
    1MPD1    H114167   0.698   4.340  12.500  2.0885  1.7619 -0.6828
    1MPD1    H214168   0.839   4.494  12.867  1.5491  0.3176 -0.0328
    1MPD1    H314169   0.708   4.506  12.657 -0.5606 -0.2985  1.2854
    1MPD1     N14170   0.793   4.081  12.539 -0.2136 -0.1367 -0.5697
    1MPD1    H514171   0.836   4.000  12.583 -0.5864 -0.4256 -0.7380
    1MPD1    N114172   0.997   4.285  12.922 -0.1843 -0.0867 -0.5143
    1MPD1    H614173   0.964   4.333  13.006  0.7416  2.5568 -1.6637
    1MPD1    H714174   1.036   4.197  12.956 -0.0442  1.1802  2.6120
    2MPD1     C14175   0.264   1.136  10.935  0.0436 -0.2962  0.3759
    2MPD1    C114176   0.395   1.088  10.950 -0.4434 -0.1082 -0.9180
    2MPD1    C214177   0.410   0.950  10.950 -0.0068  0.5621  0.0135
    2MPD1    C314178   0.300   0.867  10.946  0.0424  0.6674 -0.6713
    2MPD1    C414179   0.171   0.915  10.933 -0.5647  0.1973 -0.0136
    2MPD1    C514180   0.158   1.050  10.936  0.0272  0.4678 -0.4752
    2MPD1     H14181   0.512   0.914  10.954  0.4381  1.7096 -0.8983
    2MPD1    H114182   0.080   0.859  10.914 -1.1508  0.7339  1.2588
    2MPD1    H214183   0.248   1.243  10.926  0.2198 -0.3217 -0.2756
    2MPD1    H314184   0.057   1.089  10.928 -0.3347 -0.7456 -1.8388
    2MPD1     N14185   0.322   0.726  10.940  0.2999  0.0045 -0.2528
    2MPD1    H514186   0.234   0.674  10.941  0.4271 -0.1850  0.7474
    2MPD1    N114187   0.506   1.175  10.929 -0.2323  0.6154  0.6682
    2MPD1    H614188   0.591   1.138  10.971  0.0299  0.3686 -0.0748
    2MPD1    H714189   0.489   1.268  10.965 -1.3097  0.3657  0.8084
    3MPD1     C14190   4.663   0.134  10.464  0.6240  0.3783  0.5692
    3MPD1    C114191   4.678   0.267  10.464  0.4637  0.5138  0.3222
    3MPD1    C214192   0.016   0.320  10.569 -0.7455 -0.4613  0.5516
    3MPD1    C314193   0.050   0.247  10.680 -0.9773  0.3643  0.2252
    3MPD1    C414194   0.013   0.122  10.680  1.0015  0.5901 -0.2697
    3MPD1    C514195   4.679   0.060  10.580 -0.5762 -0.3206  0.1181
    3MPD1     H14196   0.056   0.420  10.558  3.5866 -2.0301  1.9465
    3MPD1    H114197   0.060   0.061  10.756  0.2618  1.5673  0.9679
    3MPD1    H214198   4.630   0.084  10.374  1.8500  2.5047 -1.0573
    3MPD1    H314199   4.657   4.691  10.575 -2.1132  0.0220 -0.3476
    3MPD1     N14200   0.136   0.305  10.772 -0.9592 -0.0083 -0.0370
    3MPD1    H514201   0.195   0.380  10.737 -2.3363  1.1305  0.0771
    3MPD1    N114202   4.675   0.349  10.350 -0.8350  0.6545  0.5716
    3MPD1    H614203   4.606   0.326  10.278 -0.5377 -1.1991  0.8596
    3MPD1    H714204   4.674   0.448  10.373 -1.0327  0.7637  0.0880
    4MPD2     C14205   1.257   3.993  12.049  0.3993 -0.8689 -0.1340
    4MPD2    C114206   1.134   3.960  12.006 -0.6514 -0.0592  0.3541
    4MPD2    C214207   1.094   4.001  11.882  0.0540 -0.3293  0.3753
    4MPD2    C314208   1.168   4.092  11.800 -0.3172 -0.3869  0.1287
    4MPD2    C414209   1.288   4.125  11.851 -0.0616  0.3851 -0.8300
    4MPD2    C514210   1.333   4.076  11.974 -0.0459 -1.0133 -0.6530
    4MPD2     H14211   0.993   3.968  11.857  0.0038 -0.6233  0.9634
    4MPD2    H114212   1.343   4.208  11.808  4.4640 -2.1395  0.0279
    4MPD2    H214213   1.290   3.963  12.148 -1.6262 -1.0482  0.4788
    4MPD2    H314214   1.436   4.096  12.004 -0.8863 -1.2328  2.4158
    4MPD2     N14215   1.124   4.145  11.680 -0.5023  0.0556  0.4939
    4MPD2    H514216   1.176   4.214  11.627 -1.4527  1.0511  0.8538
    4MPD2    N114217   1.037   3.890  12.084 -0.1259 -0.0646  0.4442
    4MPD2    H714218   0.958   3.856  12.030 -0.3011 -1.4025  1.5418
    5TMC3    C114219   0.909   3.815  12.257 -0.3756 -0.0972 -0.2630
    5TMC3    C214220   0.862   3.878  12.372  0.0167 -0.2802  0.2668
    5TMC3    C314221   0.748   3.943  12.352 -0.0659  0.4422  0.0815
    5TMC3    C414222   0.830   3.793  12.149  0.2466  0.5183  0.0600
    5TMC3    C514223   0.710   3.851  12.139  0.2570 -0.8987 -0.4078
    5TMC3    C614224   0.679   3.934  12.238 -0.5887  0.4927 -0.4023
    5TMC3     C14225   1.048   3.855  12.216  0.3670 -0.2201  0.1666
    5TMC3     O14226   1.128   3.878  12.305 -0.4728  0.4017 -0.3034
    5TMC3     H14227   0.936   3.898  12.449  2.6909 -1.1111 -2.0706
    5TMC3    H114228   0.868   3.723  12.075  1.7604  2.6636 -1.1753
    5TMC3    H214229   0.603   4.008  12.216 -1.0261 -0.8148 -3.2724
    5TMC3    C714230   0.689   3.899  12.004  0.1117 -0.9694 -0.4163
    5TMC3    C814231   0.746   4.078  12.412  0.5594  0.2365  0.1486
    5TMC3    O114232   0.784   3.878  11.932  0.1687  0.0498  0.2275
    5TMC3    O214233   0.687   4.167  12.348  0.1861  0.0046  0.0112
    6TMC3    C114234   0.428   0.519  10.982 -0.1261  0.0492 -0.1861
    6TMC3    C214235   0.316   0.460  10.927  0.7108 -0.5937  0.3954
    6TMC3    C314236   0.285   0.326  10.956  0.4750  0.3604  0.5020
    6TMC3    C414237   0.499   0.464  11.076 -0.2193  0.7428 -0.3903
    6TMC3    C514238   0.466   0.334  11.114 -0.2360  0.0115  0.1266
    6TMC3    C614239   0.364   0.259  11.048 -0.0395 -0.3161  0.4308
    6TMC3     C14240   0.445   0.661  10.955 -0.4656  1.0600 -0.0113
    6TMC3     O14241   0.560   0.702  10.957 -0.3067  0.0149  0.2238
    6TMC3     H14242   0.261   0.515  10.851  2.7216 -1.0043 -1.3696
    6TMC3    H114243   0.583   0.511  11.125  1.0578 -1.1186 -0.7815
    6TMC3    H214244   0.344   0.159  11.085  0.8708 -0.9556 -0.8017
    6TMC3    C714245   0.571   0.242  11.166  0.4537 -0.3656 -0.1052
    6TMC3    C814246   0.178   0.255  10.892  0.0048  0.1887  0.2943
    6TMC3    O114247   0.578   0.131  11.118  0.0025 -0.4415 -0.1671
    6TMC3    O214248   0.133   0.155  10.944  0.2929  0.0292  0.0492
    7MPD2     C14249   0.444   4.145  11.626 -0.9785 -0.0806  0.5355
    7MPD2    C114250   0.567   4.086  11.629  0.3570 -0.5390 -0.2860
    7MPD2    C214251   0.616   4.025  11.740 -0.1307 -0.2830 -0.4695
    7MPD2    C314252   0.532   4.014  11.855  0.2135  0.0103 -0.1935
    7MPD2    C414253   0.407   4.070  11.848  0.5142 -0.4604 -0.6117
    7MPD2    C514254   0.359   4.125  11.732 -0.1299  0.0949  0.1161
    7MPD2     H14255   0.720   3.993  11.734 -0.2908 -1.1606  1.3154
    7MPD2    H114256   0.338   4.043  11.928  1.9132 -1.4346  0.2678
    7MPD2    H214257   0.401   4.195  11.541 -0.2017 -1.6557 -0.7868
    7MPD2    H314258   0.258   4.164  11.736  0.3369  1.7504 -4.1731
    7MPD2     N14259   0.573   3.964  11.979 -0.3571  0.1946  0.0038
    7MPD2    H514260   0.511   3.982  12.057  0.8124  1.7072  0.5810
    7MPD2    N114261   0.670   4.109  11.531  0.1708 -0.2203 -0.1105
    7MPD2    H714262   0.759   4.066  11.553  1.4180  1.9773 -0.8683
    8TMC3    C114263   0.801   4.205  11.359  0.1128  0.9579 -0.1922
    8TMC3    C214264   0.824   4.335  11.365 -0.4242  0.0709  0.1953
    8TMC3    C314265   0.927   4.384  11.441 -0.6519 -0.3952  0.9300
    8TMC3    C414266   0.885   4.116  11.422  0.1613 -0.7755  0.2949
    8TMC3    C514267   0.993   4.163  11.488  0.3106 -0.5725 -0.1077
    8TMC3    C614268   1.006   4.299  11.506 -0.1053 -0.4641  0.9551
    8TMC3     C14269   0.663   4.195  11.422  0.3772 -0.0165 -0.1483
    8TMC3     O14270   0.575   4.269  11.377  0.1636  0.4216 -0.0357
    8TMC3     H14271   0.762   4.401  11.305  0.2777 -0.8455 -1.5462
    8TMC3    H114272   0.859   4.011  11.410  3.6039 -1.6886  0.9978
    8TMC3    H214273   1.072   4.346  11.579  1.0276 -2.3680  1.1559
    8TMC3    C714274   1.020   4.091  11.614 -0.7372 -0.7367 -0.6834
    8TMC3    C814275   0.951   4.527  11.458 -0.4997  0.4529  0.5665
    8TMC3    O114276   0.952   3.991  11.620 -0.0330  0.3085 -0.5444
    8TMC3    O214277   1.045   4.558  11.532 -0.0268 -0.0346 -0.4410
    9MPD2     C14278   0.940   0.090  11.486  0.3850 -0.3771  0.2622
    9MPD2    C114279   0.856   0.007  11.412 -0.1664  0.5673 -0.4988
    9MPD2    C214280   0.767   0.079  11.331  0.1630 -0.2954 -0.0936
    9MPD2    C314281   0.750   0.216  11.339 -0.4573  0.7425  0.1714
    9MPD2    C414282   0.826   0.289  11.426  0.0170  0.4785 -0.2088
    9MPD2    C514283   0.922   0.231  11.496 -0.5075  0.1607  0.8206
    9MPD2     H14284   0.693   0.028  11.271  0.4980 -1.6229  0.6205
    9MPD2    H114285   0.810   0.396  11.428  0.8528  0.5716  1.5393
    9MPD2    H214286   1.010   0.041  11.551  1.1966  0.1808 -0.1913
    9MPD2    H314287   0.995   0.292  11.547 -0.7366  0.8800  0.2819
    9MPD2     N14288   0.651   0.293  11.271 -0.5195  0.7387  0.1192
    9MPD2    H514289   0.624   0.382  11.312  0.7894  1.2445 -0.1229
    9MPD2    N114290   0.856   4.610  11.405  0.7668 -0.3266 -0.7324
    9MPD2    H714291   0.780   4.575  11.348 -1.5691  2.6429  0.5196
    1MPD1     C14292   4.275   2.501  14.598 -0.3664 -0.1808 -0.0621
    1MPD1    C114293   4.398   2.455  14.577  0.0495  0.8884 -0.8188
    1MPD1    C214294   4.502   2.529  14.633 -0.4560  0.2096  0.5231
    1MPD1    C314295   4.482   2.637  14.714 -0.1850  0.1914  0.1859
    1MPD1    C414296   4.357   2.683  14.741 -0.1594 -0.0516 -0.1943
    1MPD1    C514297   4.257   2.608  14.685 -0.6253  0.0149  0.0726
    1MPD1     H14298   4.602   2.501  14.602 -1.0751 -1.3270 -0.1107
    1MPD1    H114299   4.336   2.765  14.809  0.8867  1.7082 -1.9864
    1MPD1    H214300   4.198   2.460  14.533  1.9167 -4.2254 -0.2223
    1MPD1    H314301   4.156   2.646  14.698 -0.9047 -1.0126  0.9362
    1MPD1     N14302   4.588   2.699  14.785 -0.6152  0.0911 -0.2123
    1MPD1    H514303   4.563   2.760  14.863  1.3479 -0.1914  0.6497
    1MPD1    N114304   4.421   2.372  14.469  1.2744  0.5234 -0.0093
    1MPD1    H614305   4.499   2.306  14.475 -1.6945 -2.9022  1.1834
    1MPD1    H714306   4.337   2.317  14.449  0.6957  1.7725 -0.9881
    2TMC2    C114307   0.135   2.913  15.002  0.0286  0.1520 -0.1605
    2TMC2    C214308   0.260   2.863  15.007  0.1364 -0.0541  0.2218
    2TMC2    C314309   0.301   2.759  14.925  0.2742 -0.5173 -0.5752
    2TMC2    C414310   0.043   2.845  14.930  0.4215 -0.6918 -0.4817
    2TMC2    C514311   0.080   2.729  14.861 -0.5047  0.3962 -0.0810
    2TMC2    C614312   0.209   2.693  14.850 -0.5597  0.3070 -0.7331
    2TMC2     C14313   0.099   2.977  15.128 -0.1522 -0.1662  0.1755
    2TMC2     O14314   0.185   3.045  15.175 -0.4097  0.2469  0.1397
    2TMC2     H14315   0.329   2.909  15.077  2.3978  1.5416 -3.0607
    2TMC2    H114316   4.683   2.891  14.917  1.1168  0.9864  0.2672
    2TMC2    H214317   0.234   2.622  14.772  2.8204 -0.2470  0.8737
    2TMC2    C714318   4.722   2.679  14.763  0.0153  0.0381  0.0745
    2TMC2    C814319   0.442   2.763  14.897 -1.1579  0.6645 -0.3919
    2TMC2    O114320   0.030   2.611  14.673 -0.2952  0.2585 -0.1663
    2TMC2    O214321   0.486   2.721  14.793 -0.2844  0.3034 -0.2693
    2TMC2    O514322   0.495   2.724  15.015  0.0282  0.4061 -0.0430
    2TMC2    H514323   0.436   2.729  15.093 -0.9480  0.2052 -0.7760
    3MPD1     C14324   4.537   3.118  15.502  0.4659  0.4030 -0.4231
    3MPD1    C114325   4.458   3.078  15.398 -0.4830 -0.0718 -0.0047
    3MPD1    C214326   4.514   3.030  15.289 -0.3128  0.2957 -0.2009
    3MPD1    C314327   4.649   3.016  15.274 -0.1090 -0.0442 -0.1133
    3MPD1    C414328   4.731   3.055  15.378  0.5184  0.0059  0.4488
    3MPD1    C514329   4.670   3.104  15.493 -0.5411  0.1855  0.2075
    3MPD1     H14330   4.443   3.004  15.210 -0.4540  1.5087 -0.4703
    3MPD1    H114331   0.102   3.045  15.379  0.6796  1.7309  0.3539
    3MPD1    H214332   4.502   3.166  15.593  0.3320 -0.9502  0.2438
    3MPD1    H314333   4.715   3.138  15.586  2.4427 -0.6313 -0.9525
    3MPD1     N14334   4.705   2.983  15.148 -0.2165  0.0597  0.6128
    3MPD1    H514335   4.635   2.958  15.079  0.5892  1.3202 -0.6557
    3MPD1    N114336   4.322   3.068  15.409 -0.0872 -0.3089 -0.1310
    3MPD1    H614337   4.291   3.145  15.468 -0.6088 -1.6356  1.3215
    3MPD1    H714338   4.281   3.073  15.316 -0.3791 -2.0955 -0.0875
    1TMC1    C114339   2.863   2.372  13.110 -0.6874  0.2937 -0.3091
    1TMC1    C214340   2.856   2.279  13.209 -0.3424  0.7978 -0.2258
    1TMC1    C314341   2.836   2.146  13.179  0.0464  0.1345  0.0672
    1TMC1    C414342   2.836   2.341  12.980  0.1342 -0.6835  0.2905
    1TMC1    C514343   2.806   2.208  12.957 -0.6543  0.7641  0.5290
    1TMC1    C614344   2.813   2.111  13.053 -1.2275  0.0461  0.0869
    1TMC1     C14345   2.890   2.510  13.144 -0.3611  0.7678 -0.0928
    1TMC1     O14346   2.824   2.593  13.082 -0.3652 -0.1908  0.0980
    1TMC1     H14347   2.877   2.303  13.313 -1.4370 -0.9845  0.3876
    1TMC1    H114348   2.839   2.416  12.901 -0.0585 -0.2695  0.6758
    1TMC1    H214349   2.776   2.013  13.026 -0.7157 -0.2396  0.4400
    1TMC1    C714350   2.733   2.187  12.834 -0.1428 -0.2878 -0.4004
    1TMC1    C814351   2.750   2.093  13.281 -0.0020  0.5036 -0.5264
    1TMC1    O114352   2.764   2.236  12.725  0.1898  0.6308  0.6201
    1TMC1    O214353   2.682   2.156  13.362  0.5034  0.2651  0.2055
    1TMC1    O314354   2.632   2.103  12.844 -0.4562  0.0010 -0.2917
    1TMC1    H314355   2.618   2.083  12.939 -1.3327  0.0705 -0.4055
    1TMC1    O514356   2.749   1.954  13.279 -0.1578 -0.0728 -0.2999
    1TMC1    H514357   2.802   1.916  13.205 -0.1199 -1.2251  0.3283
    2MPD2     C14358   3.030   2.758  13.214  0.4520 -0.1911 -0.1459
    2MPD2    C114359   3.061   2.637  13.274 -0.0653 -0.3380  0.5562
    2MPD2    C214360   3.168   2.634  13.359 -0.2240  0.1221 -0.0742
    2MPD2    C314361   3.257   2.736  13.375 -0.1312 -0.5235  0.4121
    2MPD2    C414362   3.229   2.854  13.302 -0.5479  0.1167  0.2586
    2MPD2    C514363   3.112   2.867  13.227 -0.1742  0.2937 -0.4973
    2MPD2     H14364   3.188   2.544  13.416 -1.5080  0.5190  0.9802
    2MPD2    H114365   3.291   2.943  13.308  1.2748 -1.1095 -0.4134
    2MPD2    H214366   2.941   2.768  13.154  1.4492  0.5900 -1.5009
    2MPD2    H314367   3.100   2.961  13.175 -0.3300  1.3019  1.3562
    2MPD2     N14368   3.360   2.732  13.472  0.0915 -0.0663 -0.0404
    2MPD2    H514369   3.368   2.653  13.535 -1.2583 -0.7332 -0.7101
    2MPD2    N114370   2.985   2.527  13.244 -0.3248 -0.1375  0.2889
    2MPD2    H714371   3.020   2.446  13.296 -0.0882 -0.6922 -0.7347
    3TCq1    O114372   3.942   2.892  13.477  0.5651 -0.4014  0.3202
    3TCq1    C114373   3.929   2.857  13.607  0.2068  0.9202  0.5798
    3TCq1    O214374   4.016   2.812  13.677 -0.0839  0.1273 -0.4865
    3TCq1    C214375   3.797   2.794  13.622  1.1793  0.7966 -0.5014
    3TCq1    C314376   3.777   2.724  13.734 -0.1694  0.2511  0.0545
    3TCq1    C414377   3.643   2.678  13.751 -0.7237  0.4813 -0.2227
    3TCq1    C514378   3.541   2.711  13.670  0.0990 -0.2566 -0.1291
    3TCq1    C614379   3.569   2.790  13.567 -0.0799  0.4697  0.0849
    3TCq1    C714380   3.698   2.827  13.541  0.1993  0.3192  0.9046
    3TCq1    C814381   3.468   2.816  13.462 -0.1066 -0.0946 -0.1304
    3TCq1    O414382   3.494   2.896  13.375  0.0973 -0.1619  0.1944
    3TCq1    C914383   3.616   2.621  13.880 -0.0315  0.1517 -1.0910
    3TCq1    O514384   3.493   2.621  13.909 -0.1416  0.4069  0.1751
    3TCq1    O614385   3.709   2.612  13.971  0.7167  0.3043 -0.6705
    3TCq1    H114386   3.863   2.920  13.426 -0.2850 -0.8765  1.3701
    3TCq1    H214387   3.858   2.705  13.803  0.7220  1.7735 -0.5854
    3TCq1    H314388   3.445   2.668  13.694  0.0367  0.2075  0.4656
    3TCq1    H414389   3.712   2.900  13.461 -0.7968  1.2414  1.5616
    1MPD2     C14390   2.986   4.080  14.580 -0.2172 -0.0578 -0.5774
    1MPD2    C114391   2.888   3.991  14.606  0.5250 -0.0284  0.0827
    1MPD2    C214392   2.931   3.861  14.632  0.7205  0.2631  0.1763
    1MPD2    C314393   3.058   3.819  14.631 -0.5991 -0.2905  0.5334
    1MPD2    C414394   3.159   3.909  14.600 -0.3315  0.2273  0.3786
    1MPD2    C514395   3.119   4.038  14.573  0.3107 -0.4961 -0.1554
    1MPD2     H14396   2.856   3.783  14.640 -0.1503  0.8017 -2.6788
    1MPD2    H114397   3.262   3.874  14.597 -0.9545 -1.4708 -0.9579
    1MPD2    H214398   2.964   4.183  14.555  0.7682  0.2273 -0.2695
    1MPD2    H314399   3.193   4.117  14.567 -1.2874  1.0314  0.1055
    1MPD2     N14400   3.067   3.679  14.657  0.0318 -0.0534 -0.5273
    1MPD2    H514401   2.978   3.630  14.665 -0.2066  0.3096 -0.9359
    1MPD2    N114402   2.751   4.032  14.604 -0.0243 -0.1610  0.1757
    1MPD2    H714403   2.728   4.130  14.588 -1.2192 -0.3316  0.8550
    2TMC3    C114404   2.499   4.003  14.632  0.3952 -0.1097  0.2147
    2TMC3    C214405   2.415   3.911  14.687  0.1791  0.3779  0.0196
    2TMC3    C314406   2.286   3.888  14.638 -0.2564 -0.3424  0.7519
    2TMC3    C414407   2.462   4.070  14.520 -0.3602 -0.0809 -0.3999
    2TMC3    C514408   2.329   4.057  14.485  0.1498  0.7469 -0.1248
    2TMC3    C614409   2.252   3.954  14.529 -0.6022  0.1135 -0.1163
    2TMC3     C14410   2.641   3.951  14.648 -0.3551 -0.0666 -0.1715
    2TMC3     O14411   2.647   3.833  14.672 -0.1630 -0.4427  0.2757
    2TMC3     H14412   2.452   3.856  14.773  0.1593  1.0051  0.4368
    2TMC3    H114413   2.526   4.134  14.461  0.4073  0.1171  0.6528
    2TMC3    H214414   2.151   3.936  14.492 -0.2064 -1.5609 -0.4118
    2TMC3    C714415   2.269   4.163  14.413 -0.0068  0.0575  0.3740
    2TMC3    C814416   2.262   3.750  14.619 -0.8006  0.7791 -0.4400
    2TMC3    O114417   2.157   4.138  14.366 -0.3926  0.2140  0.3117
    2TMC3    O214418   2.157   3.704  14.582  0.4371 -0.1485 -0.3944
    3TCq1    O114419   2.970   0.408  14.117  0.7667 -0.6628 -0.2963
    3TCq1    C114420   2.844   0.367  14.093  0.0887 -0.3736  0.2739
    3TCq1    O214421   2.797   0.357  13.977  0.2783  0.6739 -0.0234
    3TCq1    C214422   2.777   0.327  14.215 -0.0850  0.0653  1.0683
    3TCq1    C314423   2.855   0.283  14.319  0.0209 -0.4810  0.6565
    3TCq1    C414424   2.800   0.198  14.408  0.1982  0.7537  0.2019
    3TCq1    C514425   2.664   0.163  14.394  0.1554 -0.1273  0.3696
    3TCq1    C614426   2.592   0.202  14.285  0.3141 -0.4607 -0.3453
    3TCq1    C714427   2.650   0.280  14.195 -0.4714 -0.4234 -0.7482
    3TCq1    C814428   2.479   0.119  14.247  0.1875  0.4966 -0.3977
    3TCq1    O414429   2.404   0.163  14.162 -0.1309  0.0141  0.0516
    3TCq1    C914430   2.871   0.163  14.524 -0.0610 -0.1344  0.2031
    3TCq1    O514431   2.806   0.095  14.604  0.3451  0.7248  0.0681
    3TCq1    O614432   2.989   0.206  14.539  0.2586 -0.2242  0.2067
    3TCq1    H114433   2.981   0.411  14.214 -0.2741 -0.5645 -0.1844
    3TCq1    H214434   2.962   0.294  14.329  0.2180 -0.0721 -1.8103
    3TCq1    H314435   2.611   0.107  14.471  2.1346 -1.5727  0.6727
    3TCq1    H414436   2.603   0.317  14.105  0.7138  1.5666 -0.5242
    4MPD2     C14437   2.286   4.629  14.187  0.1587 -0.6801  0.4411
    4MPD2    C114438   2.395   4.617  14.264 -0.2953  0.1073  0.2991
    4MPD2    C214439   2.410   4.510  14.345 -0.5924  0.1030 -0.2477
    4MPD2    C314440   2.318   4.399  14.348  0.4451 -0.2055 -0.2061
    4MPD2    C414441   2.214   4.410  14.258 -0.5594 -0.5767 -0.3872
    4MPD2    C514442   2.197   4.521  14.184  0.4026 -0.3735 -0.4367
    4MPD2     H14443   2.503   4.518  14.400 -0.6007  0.5031 -0.2918
    4MPD2    H114444   2.142   4.333  14.235  1.0561 -2.0790 -0.3374
    4MPD2    H214445   2.264   4.709  14.116  0.7093  0.0524  1.1096
    4MPD2    H314446   2.107   4.521  14.124 -1.3877 -0.0565  2.2150
    4MPD2     N14447   2.343   4.278  14.422 -0.0097 -0.3640 -0.2739
    4MPD2    H514448   2.428   4.269  14.477  0.1914 -0.7494 -0.6369
    4MPD2    N114449   2.491   4.727  14.285  0.1776  0.1602 -0.5928
    4MPD2    H714450   2.574   4.703  14.338 -0.5112  2.5044  1.5464
    5TMC2    C114451   2.939   3.338  14.633  0.0285 -0.6694  0.0190
    5TMC2    C214452   2.971   3.266  14.748  0.1606  0.1704  0.1899
    5TMC2    C314453   3.094   3.288  14.805  0.4223 -0.3855  0.1451
    5TMC2    C414454   3.029   3.432  14.582  0.3235 -0.3105  0.3621
    5TMC2    C514455   3.141   3.463  14.661 -0.1615 -0.3909  0.1941
    5TMC2    C614456   3.173   3.392  14.771  0.1793 -0.1154  0.4127
    5TMC2     C14457   2.810   3.403  14.627  0.5821 -0.1611  0.2660
    5TMC2     O14458   2.812   3.517  14.673  0.1486  0.5185  0.4554
    5TMC2     H14459   2.901   3.190  14.782 -1.7911  1.6477 -0.5183
    5TMC2    H114460   2.999   3.495  14.499 -0.6296 -1.7118 -0.3622
    5TMC2    H214461   3.252   3.422  14.839  0.2356  0.0798  0.2601
    5TMC2    C714462   3.180   3.600  14.662  0.5372 -0.3311 -0.5745
    5TMC2    C814463   3.140   3.214  14.924  0.1199 -0.4262 -0.4625
    5TMC2    O114464   3.288   3.626  14.708  0.2106  0.2752  0.1353
    5TMC2    O214465   3.258   3.192  14.944 -0.2920 -0.0692 -0.0688
    5TMC2    O514466   3.060   3.269  15.021 -0.1988  0.4153  0.3482
    5TMC2    H514467   2.967   3.271  14.990 -0.1562  2.1249  0.3661
    6MPD2     C14468   2.310   3.455  14.643  0.2567  0.2766 -0.8312
    6MPD2    C114469   2.411   3.550  14.629  0.5493 -1.2126  0.1606
    6MPD2    C214470   2.538   3.502  14.623 -0.6580 -0.6350 -0.1462
    6MPD2    C314471   2.573   3.367  14.629  0.6288 -0.0151  0.1331
    6MPD2    C414472   2.472   3.284  14.638 -0.3657 -0.7578 -0.1022
    6MPD2    C514473   2.342   3.326  14.664 -0.5674  0.2725 -0.1161
    6MPD2     H14474   2.610   3.578  14.595 -0.8634 -0.0111  1.0183
    6MPD2    H114475   2.500   3.179  14.634  0.8669 -0.3996 -0.8582
    6MPD2    H214476   2.210   3.495  14.658  0.2181 -0.0765 -0.1032
    6MPD2    H314477   2.262   3.255  14.679 -0.3484  0.3101  1.3000
    6MPD2     N14478   2.701   3.321  14.617 -0.0802 -0.5844  0.6449
    6MPD2    H514479   2.718   3.221  14.618 -1.1301 -0.7818 -0.3664
    6MPD2    N114480   2.381   3.687  14.634 -0.5528  0.4027 -0.2166
    6MPD2    H714481   2.464   3.744  14.645 -0.7598  1.0519 -1.9300
  945NH4     N114482   0.287   4.098   1.019 -0.2821  0.1574 -0.0074
  945NH4     H214483   0.278   4.048   0.929  1.4995  0.7967 -0.5497
  945NH4     H314484   0.341   4.036   1.084  0.2902  1.7189  1.0134
  945NH4     H414485   0.192   4.110   1.059 -0.8767 -0.9175 -1.1056
  945NH4     H514486   0.331   4.191   1.001  2.1147 -0.3640  3.0389
  946SOD     NA14487   3.869   2.472  14.021  0.6370  0.3347  0.0191
  947SOD     NA14488   1.227   4.501  15.998  0.5470 -0.1634  0.3891
  948SOD     NA14489   0.343   1.967  14.763  0.5472 -0.5126 -0.2428
  949SOD     NA14490   3.819   1.583  16.307  0.2104  0.0680  0.6004
  950SOD     NA14491   2.898   1.634   8.732  0.0174 -0.5294 -0.2092
  951SOD     NA14492   0.468   3.146   9.137  0.0269 -0.5557 -0.1871
  952SOD     NA14493   0.857   3.178   6.364 -0.2475 -0.0944  0.3167
  953SOL     OW14494   2.904   2.902   2.450 -0.6615  0.5759 -0.2181
  953SOL    HW114495   2.945   2.953   2.519 -2.3936  0.3782  0.9420
  953SOL    HW214496   2.881   2.829   2.507  0.8672 -0.1089 -0.4878
  954SOL     OW14497   2.302   4.315   4.708 -0.2371  0.1704 -0.6301
  954SOL    HW114498   2.253   4.291   4.787  1.0194 -0.8168 -0.1527
  954SOL    HW214499   2.329   4.230   4.674 -0.9417 -0.0444 -0.6625
  955SOL     OW14500   0.698   3.719   5.702  0.4040 -0.5136 -0.3638
  955SOL    HW114501   0.744   3.637   5.687 -0.6735 -1.0306 -0.8779
  955SOL    HW214502   0.608   3.690   5.684 -0.1164  0.5580  0.5260
  956SOL     OW14503   2.553   2.715   6.001 -0.4142 -0.8667 -0.1922
  956SOL    HW114504   2.600   2.744   6.079 -1.0423  1.0031 -0.5168
  956SOL    HW214505   2.608   2.746   5.929  0.8270 -3.0074 -0.1722
  957SOL     OW14506   2.009   2.036   6.251  0.3855 -0.6371 -0.1508
  957SOL    HW114507   2.046   2.066   6.334  2.2621  0.3424 -1.3271
  957SOL    HW214508   2.045   2.098   6.188 -1.8790 -1.0636 -1.8396
  958SOL     OW14509   4.524   0.425  15.043  0.1416 -0.5731 -0.2067
  958SOL    HW114510   4.548   0.380  14.962  1.0446  0.3280 -0.4357
  958SOL    HW214511   4.510   0.516  15.018 -0.1641 -1.4881 -3.3452
  959SOL     OW14512   2.956   3.516   6.116  0.3193  0.2723 -0.3327
  959SOL    HW114513   2.968   3.503   6.022  2.1934  1.1823 -0.2107
  959SOL    HW214514   3.022   3.583   6.130 -0.5382  1.4025 -1.6638
  960SOL     OW14515   0.233   1.864   8.031  0.0192 -0.1940  0.2631
  960SOL    HW114516   0.230   1.791   7.969 -1.0104  0.3355 -0.3132
  960SOL    HW214517   0.322   1.897   8.023  0.2110 -0.5464  0.9939
  961SOL     OW14518   1.437   2.353   7.627 -0.0380 -0.1207  0.2305
  961SOL    HW114519   1.402   2.285   7.570 -1.7413  2.0806 -1.3342
  961SOL    HW214520   1.373   2.423   7.613  1.0421  0.7852 -0.1129
  962SOL     OW14521   4.024   3.389  15.284  0.0005  0.1022 -0.3319
  962SOL    HW114522   3.947   3.413  15.233 -0.1911 -0.3253 -0.2367
  962SOL    HW214523   4.094   3.387  15.219  0.5120  0.3887  0.2003
  963SOL     OW14524   4.264   1.419   4.596  0.0889 -0.5174 -0.2184
  963SOL    HW114525   4.208   1.494   4.620  1.2014 -0.5693  2.6313
  963SOL    HW214526   4.356   1.437   4.618 -1.0584  3.4485  1.3699
  964SOL     OW14527   3.643   0.162   1.526 -0.2241 -0.2203  0.7087
  964SOL    HW114528   3.658   0.254   1.503  1.7925 -1.0077 -1.0616
  964SOL    HW214529   3.670   0.167   1.618  0.4138 -0.7024  0.5473
  965SOL     OW14530   3.763   1.453   4.588  0.1609  0.0898 -0.1467
  965SOL    HW114531   3.848   1.482   4.553  0.2612 -0.3410 -0.2585
  965SOL    HW214532   3.762   1.363   4.557  0.8035  0.0159  0.0344
  966SOL     OW14533   1.472   1.730  17.737 -0.5016 -0.4921  0.2050
  966SOL    HW114534   1.504   1.807  17.689  1.3875 -0.6205  1.2591
  966SOL    HW214535   1.450   1.666  17.670 -0.3091 -2.1706  1.7365
  967SOL     OW14536   3.700   2.700   3.736  0.1763  0.2452 -0.0384
  967SOL    HW114537   3.720   2.788   3.768 -0.6307  1.0553 -1.7420
  967SOL    HW214538   3.778   2.677   3.686 -0.5176  0.8051 -1.3938
  968SOL     OW14539   1.489   3.304   3.010  0.6485 -0.3138 -1.0146
  968SOL    HW114540   1.420   3.369   2.997  0.1594 -0.4553  0.7945
  968SOL    HW214541   1.513   3.321   3.101 -0.1433 -2.0940 -0.4811
  969SOL     OW14542   4.433   4.404   7.576 -0.4710  0.0477  0.7280
  969SOL    HW114543   4.424   4.499   7.571  1.0969  0.1075 -1.0244
  969SOL    HW214544   4.343   4.375   7.562 -0.4636  0.6878 -0.6306
  970SOL     OW14545   4.197   3.972  14.654 -0.0633  0.1925 -0.1370
  970SOL    HW114546   4.101   3.980  14.652 -0.3107 -2.5551  1.3360
  970SOL    HW214547   4.213   3.889  14.698 -2.8998  0.6999  1.8610
  971SOL     OW14548   3.306   0.100   3.209  0.3410 -0.5325 -0.0641
  971SOL    HW114549   3.330   0.193   3.216  0.9007 -0.8019  1.7681
  971SOL    HW214550   3.212   0.115   3.214  0.6615  1.4788 -0.1006
  972SOL     OW14551   3.265   1.757   8.303  0.3299  0.6360 -0.2980
  972SOL    HW114552   3.352   1.718   8.306  0.2301  0.4722  0.4629
  972SOL    HW214553   3.255   1.774   8.396  0.0157  1.3497 -0.4603
  973SOL     OW14554   0.920   3.359  16.868  0.5059 -0.2440  0.0935
  973SOL    HW114555   0.843   3.354  16.813  1.1898  0.7092 -0.9457
  973SOL    HW214556   0.917   3.278  16.920  0.6470  0.1765  0.7647
  974SOL     OW14557   1.138   2.881   9.575 -0.3831 -0.7550 -0.3008
  974SOL    HW114558   1.142   2.789   9.548  0.6436  0.2102 -3.3686
  974SOL    HW214559   1.217   2.916   9.532 -3.2346  0.6580 -4.3473
  975SOL     OW14560   4.313   1.151  13.607 -0.2752 -0.0808 -0.1547
  975SOL    HW114561   4.257   1.114  13.540 -2.4123  1.0478  1.0279
  975SOL    HW214562   4.382   1.188  13.552 -1.1203  2.3671  0.4469
  976SOL     OW14563   2.271   2.624   8.391  0.2242  0.3763  0.3073
  976SOL    HW114564   2.273   2.715   8.360 -0.0815  1.1456  2.5715
  976SOL    HW214565   2.363   2.621   8.416  0.5424 -1.5830 -1.1496
  977SOL     OW14566   2.870   0.552   5.179 -0.0071 -0.3039 -0.0470
  977SOL    HW114567   2.854   0.539   5.086  2.2939  2.0465 -0.7660
  977SOL    HW214568   2.962   0.526   5.184  0.4392  1.6118  1.5711
  978SOL     OW14569   2.825   0.238   4.885  0.5632 -0.4021 -0.0289
  978SOL    HW114570   2.826   0.334   4.880  0.1738 -0.3667  0.6593
  978SOL    HW214571   2.750   0.219   4.940  1.8657  1.6234  2.4601
  979SOL     OW14572   3.228   0.349   4.522  0.0488 -0.1247 -1.0099
  979SOL    HW114573   3.288   0.407   4.476  0.9417 -1.5458 -1.6468
  979SOL    HW214574   3.289   0.282   4.555 -0.1920 -0.9400 -2.2295
  980SOL     OW14575   2.739   1.486  12.616 -0.5904 -0.3103 -0.2554
  980SOL    HW114576   2.799   1.504  12.544 -3.3589  1.1924 -2.1721
  980SOL    HW214577   2.653   1.491  12.574 -0.4263 -0.1742 -0.5758
  981SOL     OW14578   2.231   2.647  15.373  0.7365 -0.8415  0.3763
  981SOL    HW114579   2.202   2.725  15.422 -0.3534 -1.2191  0.3476
  981SOL    HW214580   2.300   2.683  15.318 -0.8896 -2.2519 -2.5395
  982SOL     OW14581   0.298   3.554   6.412  0.9872 -0.2815  0.5698
  982SOL    HW114582   0.375   3.498   6.401  0.6406 -0.9987  1.8621
  982SOL    HW214583   0.253   3.514   6.486  1.9724 -0.8692  0.8630
  983SOL     OW14584   0.226   1.734   8.305 -0.5058 -0.7710 -0.3952
  983SOL    HW114585   0.205   1.774   8.221 -1.1120 -2.1172 -0.8796
  983SOL    HW214586   0.269   1.656   8.269  2.1646  0.7560 -0.5375
  984SOL     OW14587   0.270   3.741   3.143 -0.2125 -0.0217  0.0459
  984SOL    HW114588   0.239   3.715   3.230 -0.6423  0.5427  0.0661
  984SOL    HW214589   0.241   3.664   3.095  0.8331  0.6998 -1.7351
  985SOL     OW14590   0.644   2.659  15.328  0.0579 -0.2281 -0.2730
  985SOL    HW114591   0.637   2.603  15.250  0.1379  1.8607 -1.7903
  985SOL    HW214592   0.596   2.738  15.300 -1.1049 -0.4045  1.2089
  986SOL     OW14593   2.288   1.618   9.009 -0.2712 -0.5044  0.9323
  986SOL    HW114594   2.231   1.542   9.002 -0.3132 -0.3417 -0.4242
  986SOL    HW214595   2.296   1.632   9.104 -0.4310 -0.7809  0.9870
  987SOL     OW14596   2.118   4.599   5.567  0.1271 -0.1024 -0.4996
  987SOL    HW114597   2.182   4.614   5.637  1.3973 -1.3969 -1.3989
  987SOL    HW214598   2.042   4.642   5.608  1.5274  0.2057  1.7678
  988SOL     OW14599   0.874   0.531   4.467  0.2724  0.5621  0.5436
  988SOL    HW114600   0.885   0.615   4.513 -1.1870  0.2483  1.4646
  988SOL    HW214601   0.845   0.548   4.377 -1.4507  1.9572  1.3637
  989SOL     OW14602   0.588   2.436   9.290  0.2571  0.2990  0.5138
  989SOL    HW114603   0.627   2.426   9.377  0.8574 -1.8393 -0.0075
  989SOL    HW214604   0.603   2.349   9.253  0.5867 -0.8646  3.3958
  990SOL     OW14605   2.269   1.719  16.720 -0.2366 -0.5317  0.0349
  990SOL    HW114606   2.339   1.669  16.678  1.2542  1.4897  0.0700
  990SOL    HW214607   2.188   1.688  16.680  0.0486 -0.5857 -0.5065
  991SOL     OW14608   4.211   4.508  11.876  0.3910  0.3409  0.3584
  991SOL    HW114609   4.203   4.577  11.810 -2.4496  2.5322  3.0183
  991SOL    HW214610   4.119   4.482  11.873  0.2819  0.9207 -1.8621
  992SOL     OW14611   3.229   3.361   7.799  0.0753 -0.2766  0.3047
  992SOL    HW114612   3.146   3.331   7.836  0.4236 -2.8434 -1.0205
  992SOL    HW214613   3.201   3.441   7.754  0.8247 -1.2964 -1.9809
  993SOL     OW14614   1.422   0.057   5.353 -0.1387  0.4381 -0.3372
  993SOL    HW114615   1.327   0.067   5.348 -0.2401 -0.6117 -0.4252
  993SOL    HW214616   1.450   0.016   5.271 -2.5300 -0.6659 -0.5867
  994SOL     OW14617   3.159   4.350   9.031  0.4043 -0.1957  0.6595
  994SOL    HW114618   3.254   4.358   9.021  0.2405  0.7184 -0.2249
  994SOL    HW214619   3.151   4.338   9.125  1.1637  0.2948  0.7870
  995SOL     OW14620   3.116   3.241  16.590 -0.0815  0.1121  0.1607
  995SOL    HW114621   3.091   3.275  16.504  2.1493  0.3839 -0.3879
  995SOL    HW214622   3.210   3.256  16.589 -0.2419  1.1479  0.6799
  996SOL     OW14623   2.288   1.131   3.803  0.3899 -0.0350 -0.8562
  996SOL    HW114624   2.325   1.063   3.747  1.2219  1.4008 -2.0716
  996SOL    HW214625   2.286   1.201   3.738 -1.8075  0.3508 -0.3712
  997SOL     OW14626   2.379   4.203   4.109 -0.3346  0.3324  0.4789
  997SOL    HW114627   2.436   4.260   4.160 -0.5423  0.7400  0.2507
  997SOL    HW214628   2.430   4.128   4.078 -2.0298 -0.5574 -0.1281
  998SOL     OW14629   0.193   2.075  12.905  0.2283  0.3888  0.6171
  998SOL    HW114630   0.133   2.013  12.948 -0.8461  0.3061 -1.0024
  998SOL    HW214631   0.264   2.094  12.965 -1.5076 -0.0760  2.8191
  999SOL     OW14632   3.454   3.239   4.618  0.3598 -0.1314  0.2055
  999SOL    HW114633   3.525   3.244   4.682  0.0281 -0.9632  0.6434
  999SOL    HW214634   3.409   3.323   4.624 -3.3581 -2.2131  1.8267
 1000SOL     OW14635   0.672   3.431   0.990 -0.0901  0.3456 -0.3018
 1000SOL    HW114636   0.585   3.466   1.006 -0.3611 -1.6345  2.6523
 1000SOL    HW214637   0.731   3.502   1.016  1.0625  0.3222 -2.8929
 1001SOL     OW14638   2.834   0.410   7.437  0.5798  0.4453 -0.2918
 1001SOL    HW114639   2.865   0.368   7.357  0.5824 -0.5233  0.2280
 1001SOL    HW214640   2.832   0.339   7.501  0.4465 -0.4863 -1.3276
 1002SOL     OW14641   3.960   4.295   1.889 -0.2591 -0.4203  0.4009
 1002SOL    HW114642   3.887   4.342   1.931 -1.1507 -0.5004 -1.0539
 1002SOL    HW214643   3.980   4.226   1.952 -1.3721 -2.3158 -1.3387
 1003SOL     OW14644   0.273   4.021   2.348 -0.0386 -0.7382  0.2317
 1003SOL    HW114645   0.189   4.033   2.391 -0.5359 -1.9991 -0.3754
 1003SOL    HW214646   0.267   3.934   2.307  0.3290  0.4006 -2.2638
 1004SOL     OW14647   0.679   3.782  10.157 -0.7218  0.1543  0.0403
 1004SOL    HW114648   0.619   3.785  10.082  2.0295  1.6423 -2.1120
 1004SOL    HW214649   0.654   3.859  10.208 -0.4955  1.2255 -1.4661
 1005SOL     OW14650   3.705   0.676   4.925  0.7880  0.0489  0.2041
 1005SOL    HW114651   3.787   0.627   4.921  1.7000  1.4752  1.6746
 1005SOL    HW214652   3.743   0.764   4.931  0.9429 -0.0369  0.4585
 1006SOL     OW14653   4.575   4.709  11.760  0.3113 -0.3768  0.0033
 1006SOL    HW114654   4.520   4.668  11.694  0.6638  0.1291 -0.6085
 1006SOL    HW214655   4.558   0.064  11.740  1.5118 -0.0584  0.4345
 1007SOL     OW14656   4.084   4.364   2.780  0.1780 -0.4033  0.4915
 1007SOL    HW114657   4.010   4.319   2.822  0.9621 -1.7501  0.4523
 1007SOL    HW214658   4.037   4.438   2.742 -0.4313 -1.3667 -0.6311
 1008SOL     OW14659   3.843   4.114   7.415 -0.7775 -0.0601  0.4616
 1008SOL    HW114660   3.813   4.024   7.400  0.7947 -0.1978 -1.8940
 1008SOL    HW214661   3.792   4.138   7.493 -1.4558  1.6886 -0.5206
 1009SOL     OW14662   1.266   0.046  12.442  0.6239  0.0574  0.3408
 1009SOL    HW114663   1.200   0.100  12.400 -0.6592 -1.1071  0.8793
 1009SOL    HW214664   1.248   0.043  12.536 -2.0076  1.0446 -0.1328
 1010SOL     OW14665   0.635   2.938  15.310 -0.0890 -0.4803  0.5056
 1010SOL    HW114666   0.582   2.985  15.245 -1.0506  0.1735  1.7517
 1010SOL    HW214667   0.637   3.002  15.382  1.9637  0.4666 -0.3982
 1011SOL     OW14668   1.750   2.198   1.919 -0.9207 -0.3027 -0.1136
 1011SOL    HW114669   1.801   2.161   1.848 -1.6162  0.7523 -1.1564
 1011SOL    HW214670   1.821   2.203   1.984 -0.3520 -1.3552 -0.6524
 1012SOL     OW14671   3.270   2.526  14.038 -0.0880  0.1883 -0.7599
 1012SOL    HW114672   3.345   2.567  13.994  0.4537  3.0745  2.8305
 1012SOL    HW214673   3.279   2.435  14.009  0.7758 -0.0248  0.1704
 1013SOL     OW14674   4.734   0.052   5.293 -0.1035 -0.0058 -0.3628
 1013SOL    HW114675   0.059   4.718   5.287 -0.1887 -0.1748  0.7694
 1013SOL    HW214676   4.705   0.060   5.202  2.6889 -0.2149 -1.2664
 1014SOL     OW14677   2.623   2.361   6.596  0.3922  0.4596  0.0233
 1014SOL    HW114678   2.639   2.416   6.673  4.0316  0.6354 -0.8862
 1014SOL    HW214679   2.686   2.291   6.613 -0.7532 -0.2879  1.3146
 1015SOL     OW14680   3.368   1.558   5.870  0.2193  0.6077  0.6611
 1015SOL    HW114681   3.328   1.632   5.916 -1.1545  1.0806 -1.2920
 1015SOL    HW214682   3.343   1.581   5.781  1.4575 -0.7609 -0.0288
 1016SOL     OW14683   1.847   0.355   5.231  0.0799  0.1556  0.3164
 1016SOL    HW114684   1.889   0.277   5.267  0.4842 -0.3335 -1.2185
 1016SOL    HW214685   1.825   0.333   5.140 -0.1963  2.1189 -0.0993
 1017SOL     OW14686   1.084   2.295   7.130 -0.3189  0.2555 -0.0803
 1017SOL    HW114687   1.055   2.262   7.215 -0.3811  0.8766  0.1394
 1017SOL    HW214688   1.066   2.389   7.123 -0.5302  0.2258  0.0515
 1018SOL     OW14689   0.742   2.092  13.623  0.0876  0.1299 -0.4906
 1018SOL    HW114690   0.772   2.022  13.680 -2.0834 -1.5378 -1.3774
 1018SOL    HW214691   0.827   2.134  13.613 -1.6605  3.3599 -1.7390
 1019SOL     OW14692   2.415   2.301   8.480  0.2881 -0.0859 -0.2113
 1019SOL    HW114693   2.422   2.282   8.386 -2.0912 -3.0795  0.2041
 1019SOL    HW214694   2.338   2.357   8.486 -0.4511 -1.0040 -1.1028
 1020SOL     OW14695   0.465   0.635   4.566 -0.2320  0.0591 -0.2567
 1020SOL    HW114696   0.407   0.703   4.533 -0.9284 -0.8696 -0.9608
 1020SOL    HW214697   0.481   0.584   4.486  1.2291  0.0049  0.0709
 1021SOL     OW14698   1.290   0.553   5.799 -0.0032 -0.1027  0.4731
 1021SOL    HW114699   1.321   0.466   5.772 -1.0906  0.0621 -1.3111
 1021SOL    HW214700   1.252   0.535   5.885  1.3702 -1.3969  0.8258
 1022SOL     OW14701   3.512   0.417  10.295 -0.4786  0.5451 -0.1742
 1022SOL    HW114702   3.495   0.398  10.387  0.9259  1.5561  0.2962
 1022SOL    HW214703   3.436   0.372  10.257 -1.6964  0.2386  2.6498
 1023SOL     OW14704   2.821   3.397   3.028  0.4170  0.4152 -0.2293
 1023SOL    HW114705   2.799   3.454   3.102  0.1473 -0.5086  0.4045
 1023SOL    HW214706   2.791   3.441   2.948 -0.0516 -0.2910 -0.4341
 1024SOL     OW14707   1.474   3.338   4.326 -0.3471  0.5276 -0.2541
 1024SOL    HW114708   1.520   3.255   4.321 -0.0917  0.5578  1.3899
 1024SOL    HW214709   1.473   3.350   4.421  1.6003 -0.3218 -0.1274
 1025SOL     OW14710   3.247   3.059   1.213 -0.6668 -0.0068  0.3822
 1025SOL    HW114711   3.252   3.004   1.291 -1.9134  0.9532  1.1457
 1025SOL    HW214712   3.337   3.089   1.215 -1.3216  2.0794 -0.9094
 1026SOL     OW14713   0.300   3.048   7.068  0.4888  0.2663 -0.7298
 1026SOL    HW114714   0.352   3.033   7.147 -1.7674  2.9984  1.3125
 1026SOL    HW214715   0.219   3.081   7.107  0.8713  1.0223 -0.5885
 1027SOL     OW14716   1.411   1.832   8.995  0.6076 -0.4457 -0.4568
 1027SOL    HW114717   1.435   1.797   9.080  2.1025  2.6059  0.3400
 1027SOL    HW214718   1.492   1.873   8.968 -0.9412  2.2195 -1.0552
 1028SOL     OW14719   2.831   2.294   5.959  0.4071 -0.0385 -0.2130
 1028SOL    HW114720   2.899   2.355   5.929  0.3783 -0.1264 -0.4599
 1028SOL    HW214721   2.765   2.311   5.892 -2.2188  0.0946  2.4554
 1029SOL     OW14722   2.239   0.528   0.282  0.1402  0.0786  0.5840
 1029SOL    HW114723   2.252   0.469   0.208  1.6606  0.1446  0.8014
 1029SOL    HW214724   2.227   0.453   0.340  0.2061 -1.1859 -1.0447
 1030SOL     OW14725   0.153   1.428  15.456  1.0537  0.3869 -0.5747
 1030SOL    HW114726   0.096   1.472  15.393  1.1774  0.5201 -0.5927
 1030SOL    HW214727   0.245   1.429  15.430  0.8589  0.8470 -1.2452
 1031SOL     OW14728   4.663   0.160   0.279 -0.2110 -0.2104  0.1760
 1031SOL    HW114729   4.673   0.090   0.214 -0.6069 -0.8589  0.8178
 1031SOL    HW214730   4.569   0.174   0.292 -0.4665 -1.5491 -0.2156
 1032SOL     OW14731   3.768   2.846  14.050  0.5560  0.4534 -0.0118
 1032SOL    HW114732   3.827   2.819  14.120  1.3143 -0.1189 -0.8783
 1032SOL    HW214733   3.730   2.762  14.024  1.8691 -0.5279  1.2831
 1033SOL     OW14734   3.559   0.409   5.561 -0.2804  0.3064  0.4572
 1033SOL    HW114735   3.646   0.387   5.528 -0.9540 -1.1585 -0.3306
 1033SOL    HW214736   3.516   0.328   5.587 -0.6733  0.0439 -0.9993
 1034SOL     OW14737   0.570   0.564   3.552 -0.5062 -0.0207 -0.0547
 1034SOL    HW114738   0.562   0.577   3.646  3.9954  0.6304  0.2243
 1034SOL    HW214739   0.569   0.469   3.544  2.1528  0.0533 -1.0858
 1035SOL     OW14740   3.895   3.828   4.579 -0.2093 -0.2105  0.7545
 1035SOL    HW114741   3.988   3.847   4.590  0.0795 -1.8625  1.2149
 1035SOL    HW214742   3.860   3.886   4.512  0.0057  1.1603  1.8424
 1036SOL     OW14743   4.426   0.290   6.280 -0.3011 -0.7357 -0.3076
 1036SOL    HW114744   4.399   0.381   6.275 -2.7182 -1.3709  1.1266
 1036SOL    HW214745   4.512   0.323   6.308 -0.4141 -0.7988  0.1160
 1037SOL     OW14746   3.477   4.333   3.699 -0.4868  0.5046 -0.3324
 1037SOL    HW114747   3.515   4.378   3.623 -0.6799  0.7029 -0.3113
 1037SOL    HW214748   3.433   4.411   3.735  0.4994  2.1243 -2.6110
 1038SOL     OW14749   1.215   1.356   5.869  0.1978  0.5380  0.2779
 1038SOL    HW114750   1.280   1.359   5.799 -1.1715 -1.1570 -1.0882
 1038SOL    HW214751   1.261   1.338   5.951 -0.6296  0.0796  0.6533
 1039SOL     OW14752   4.157   4.037   7.402  0.0410 -0.1338 -0.2433
 1039SOL    HW114753   4.077   4.089   7.410 -0.3089 -0.9316  1.3625
 1039SOL    HW214754   4.168   4.032   7.307 -3.5060  1.8086 -0.7597
 1040SOL     OW14755   1.998   2.003   5.366  0.7290 -0.3066  0.4897
 1040SOL    HW114756   1.996   1.908   5.353 -0.8558 -0.0236 -1.2708
 1040SOL    HW214757   2.092   2.020   5.359  0.5774  0.0366 -0.5709
 1041SOL     OW14758   3.302   1.453   9.550  0.1226 -0.1811 -0.0971
 1041SOL    HW114759   3.340   1.504   9.622 -1.1775  1.8582 -0.8347
 1041SOL    HW214760   3.262   1.526   9.501  0.6303  0.6004  0.6482
 1042SOL     OW14761   1.595   1.283   2.863  0.3380  0.2363 -0.0779
 1042SOL    HW114762   1.508   1.321   2.852  0.8166  1.0857 -0.8745
 1042SOL    HW214763   1.582   1.252   2.953 -1.3790  1.4808  0.1130
 1043SOL     OW14764   2.888   4.522   7.487 -0.0431  0.5908  0.0138
 1043SOL    HW114765   2.934   4.466   7.550  1.2890  1.0361 -0.5548
 1043SOL    HW214766   2.893   4.600   7.542 -1.5885  0.4453  0.3539
 1044SOL     OW14767   2.608   1.527   3.407  0.3815  0.3474  0.0482
 1044SOL    HW114768   2.617   1.479   3.489  1.8357  1.4070  0.5159
 1044SOL    HW214769   2.542   1.476   3.360 -1.1664  1.7216  0.7417
 1045SOL     OW14770   4.117   0.945  16.512  0.3553 -0.1271 -0.8349
 1045SOL    HW114771   4.210   0.966  16.510  0.5263 -0.7551  0.7278
 1045SOL    HW214772   4.088   0.996  16.436  2.3933  1.3730 -0.6059
 1046SOL     OW14773   4.348   3.754   7.376 -0.4280  0.4886  0.3278
 1046SOL    HW114774   4.444   3.745   7.371 -0.4060 -0.6131  2.3763
 1046SOL    HW214775   4.328   3.792   7.291 -4.5256 -1.5160  0.4242
 1047SOL     OW14776   0.978   0.284   7.171  0.1874  0.0959 -0.0136
 1047SOL    HW114777   1.022   0.211   7.215  0.5109  1.0751  1.2558
 1047SOL    HW214778   0.975   0.239   7.086  0.7398  1.1175 -0.5783
 1048SOL     OW14779   4.181   4.536   1.236 -0.0928 -0.2829  0.6632
 1048SOL    HW114780   4.102   4.542   1.183 -0.2317  0.7990  0.9965
 1048SOL    HW214781   4.137   4.509   1.317 -1.0378 -0.1018  0.2077
 1049SOL     OW14782   3.970   0.752  16.668 -0.6949  0.0802 -0.0044
 1049SOL    HW114783   4.057   0.749  16.710 -1.1141 -0.2012  0.8544
 1049SOL    HW214784   3.973   0.824  16.605  0.4086  1.1799  1.2713
 1050SOL     OW14785   2.658   0.632   6.416 -0.3157  0.1307 -0.5615
 1050SOL    HW114786   2.634   0.544   6.390 -2.1290  1.2326 -2.6077
 1050SOL    HW214787   2.677   0.671   6.331 -0.3127 -0.8281 -0.9907
 1051SOL     OW14788   3.141   2.963   4.619  0.4190  0.4508 -0.1249
 1051SOL    HW114789   3.153   3.057   4.630 -2.5128  0.7423  0.5585
 1051SOL    HW214790   3.108   2.963   4.529  2.8979 -0.8388 -1.0279
 1052SOL     OW14791   4.337   4.111   5.798  0.0425 -0.3934 -0.4726
 1052SOL    HW114792   4.361   4.019   5.792  0.7142 -0.3981  2.4627
 1052SOL    HW214793   4.287   4.106   5.879  0.3508 -0.9632 -0.3160
 1053SOL     OW14794   3.292   4.594   7.166 -0.1995 -0.1951 -0.0453
 1053SOL    HW114795   3.372   4.544   7.149  2.2316  2.6171  3.1059
 1053SOL    HW214796   3.331   4.682   7.158 -1.6803  0.6534  2.2161
 1054SOL     OW14797   1.576   4.384   3.891 -0.3456 -0.1058  0.5277
 1054SOL    HW114798   1.530   4.467   3.902  0.6755  0.8161 -2.1057
 1054SOL    HW214799   1.618   4.373   3.976 -1.6658 -1.4113  1.0066
 1055SOL     OW14800   2.468   3.414   4.912 -0.2196  0.5566 -0.4791
 1055SOL    HW114801   2.461   3.325   4.877 -0.3368  0.1949  0.4753
 1055SOL    HW214802   2.412   3.405   4.989  0.3681  1.3635  0.0396
 1056SOL     OW14803   4.618   4.515   4.255 -0.0230 -0.0855  0.2154
 1056SOL    HW114804   4.561   4.591   4.254 -0.9072 -0.7184  1.6715
 1056SOL    HW214805   4.678   4.553   4.319 -0.7129  2.2650 -0.5659
 1057SOL     OW14806   2.608   0.212   7.273 -0.2379  0.4727 -0.2955
 1057SOL    HW114807   2.672   0.190   7.206  1.0715  0.0184  1.1027
 1057SOL    HW214808   2.664   0.182   7.345  1.6262 -0.1728 -2.0483
 1058SOL     OW14809   1.324   1.816   6.946 -0.2194 -0.6174 -0.0078
 1058SOL    HW114810   1.266   1.815   7.022  1.5904 -0.0809  1.3781
 1058SOL    HW214811   1.265   1.846   6.876  0.8983  0.6963 -0.4096
 1059SOL     OW14812   0.149   0.907   3.269 -0.2300 -0.0670  0.0205
 1059SOL    HW114813   0.134   0.892   3.362  1.2191 -0.0458  0.2605
 1059SOL    HW214814   0.242   0.930   3.267 -0.8474  2.2445 -3.2757
 1060SOL     OW14815   2.398   2.000   1.381  0.0719 -0.3015  0.8991
 1060SOL    HW114816   2.367   2.087   1.403  0.3432  0.3638 -1.3428
 1060SOL    HW214817   2.320   1.957   1.345  1.2353  0.5210 -2.5439
 1061SOL     OW14818   2.350   2.516   2.705 -0.1289 -0.1559  0.4780
 1061SOL    HW114819   2.350   2.487   2.614  2.1949 -0.6639  0.6333
 1061SOL    HW214820   2.439   2.551   2.695 -1.0107  1.6386 -1.1845
 1062SOL     OW14821   0.469   3.405  11.384  0.7295  0.1829 -0.0526
 1062SOL    HW114822   0.504   3.332  11.333 -0.6721 -2.1446  2.3083
 1062SOL    HW214823   0.546   3.414  11.440 -0.4943 -0.6265  1.7663
 1063SOL     OW14824   0.131   4.151   2.108 -0.3498  0.2914  0.1256
 1063SOL    HW114825   0.195   4.142   2.179  2.1321  2.1130 -1.9061
 1063SOL    HW214826   0.048   4.121   2.144  0.8608 -0.4123  2.3480
 1064SOL     OW14827   0.959   1.206   2.923 -0.1725 -0.3079  0.4434
 1064SOL    HW114828   1.024   1.251   2.977 -1.1955 -0.1160  1.4881
 1064SOL    HW214829   0.876   1.246   2.948 -0.9729 -0.3013 -2.2597
 1065SOL     OW14830   0.430   3.173   0.766 -0.4001  0.2432 -0.3597
 1065SOL    HW114831   0.405   3.248   0.711  2.8745  3.1875  2.1417
 1065SOL    HW214832   0.406   3.104   0.704 -0.7461  0.4438 -0.4478
 1066SOL     OW14833   2.691   2.655   2.969 -0.0540  0.1635 -0.0050
 1066SOL    HW114834   2.766   2.715   2.968 -0.2317  0.3267 -2.0459
 1066SOL    HW214835   2.715   2.587   2.907  0.6223  0.5476 -0.1711
 1067SOL     OW14836   2.714   4.003  10.195  0.3831  0.3761 -0.6085
 1067SOL    HW114837   2.683   3.952  10.270 -0.9252  0.6821 -0.9388
 1067SOL    HW214838   2.637   3.998  10.138  0.3990  2.5958 -0.7962
 1068SOL     OW14839   0.215   3.490   4.486  0.7436  0.0932 -0.1176
 1068SOL    HW114840   0.234   3.461   4.575  1.0504 -0.7196 -0.4551
 1068SOL    HW214841   0.119   3.489   4.492  0.7019  1.4815 -0.5337
 1069SOL     OW14842   0.786   0.927   4.312 -1.1596  0.1221 -0.1629
 1069SOL    HW114843   0.708   0.909   4.259 -0.0128 -1.5720 -1.2705
 1069SOL    HW214844   0.862   0.881   4.276 -1.3916  0.7332 -1.4129
 1070SOL     OW14845   2.767   3.582   3.259  0.1216 -0.0593 -0.0017
 1070SOL    HW114846   2.786   3.652   3.196 -4.1809  0.0643 -1.1448
 1070SOL    HW214847   2.706   3.622   3.321 -0.2688  1.6591 -1.4968
 1071SOL     OW14848   3.846   3.528   6.482 -0.5149 -0.1546  0.2315
 1071SOL    HW114849   3.865   3.583   6.407  1.0000 -1.9492 -0.7099
 1071SOL    HW214850   3.881   3.444   6.451 -0.1566  0.0049  0.1961
 1072SOL     OW14851   2.623   0.075  14.791  0.3355 -0.5637  0.0066
 1072SOL    HW114852   2.683   0.073  14.716 -0.9185  0.1061 -1.0245
 1072SOL    HW214853   2.644   0.163  14.823 -1.7730  0.1225 -0.4897
 1073SOL     OW14854   4.301   3.501   6.298  0.2631 -0.3008  0.2579
 1073SOL    HW114855   4.305   3.433   6.232 -0.3645  0.3326 -0.4278
 1073SOL    HW214856   4.233   3.478   6.362  0.7208  0.0847  0.8908
 1074SOL     OW14857   1.832   2.407   2.822 -0.0752  0.5041  0.4280
 1074SOL    HW114858   1.848   2.474   2.889  1.1335 -0.4608  1.0818
 1074SOL    HW214859   1.919   2.402   2.783 -0.3714  2.0019 -0.4071
 1075SOL     OW14860   4.499   2.320   3.345  0.5009 -0.1920 -0.1761
 1075SOL    HW114861   4.461   2.249   3.397  0.6144  0.0012  0.1788
 1075SOL    HW214862   4.496   2.272   3.263 -0.6471  0.5005 -0.5452
 1076SOL     OW14863   0.674   1.703   6.303 -0.0543 -0.8404  0.0921
 1076SOL    HW114864   0.717   1.618   6.294 -0.9862 -1.4232  1.1294
 1076SOL    HW214865   0.716   1.748   6.230 -0.0904 -1.4580 -0.3121
 1077SOL     OW14866   2.561   1.705   4.354 -0.2778 -0.4555  0.0026
 1077SOL    HW114867   2.649   1.735   4.330 -0.6160  0.5643  0.0414
 1077SOL    HW214868   2.562   1.641   4.283 -0.1711 -1.6488  1.0790
 1078SOL     OW14869   2.140   4.429   2.682  0.1065  0.0612 -0.1014
 1078SOL    HW114870   2.047   4.409   2.697 -0.0594 -0.3427 -1.7254
 1078SOL    HW214871   2.140   4.448   2.588 -1.0978  0.2578 -0.0608
 1079SOL     OW14872   0.718   2.822   2.171  0.0041 -0.2065  0.2225
 1079SOL    HW114873   0.750   2.875   2.244  0.6501  0.1247 -0.3077
 1079SOL    HW214874   0.792   2.764   2.152  0.1837 -0.0318  0.3908
 1080SOL     OW14875   2.267   2.680   4.921 -0.2409 -0.6604 -0.1220
 1080SOL    HW114876   2.318   2.684   4.840  0.7895  0.3123  0.5687
 1080SOL    HW214877   2.232   2.769   4.930  0.1465 -0.6715  1.4912
 1081SOL     OW14878   3.220   3.798  17.396 -0.7696 -0.0277 -0.3210
 1081SOL    HW114879   3.257   3.730  17.340  0.4789  1.4990 -1.3329
 1081SOL    HW214880   3.140   3.752  17.424 -0.3291 -0.0493  0.9103
 1082SOL     OW14881   1.693   4.146   5.594 -0.3770 -0.5464 -0.7319
 1082SOL    HW114882   1.713   4.060   5.560  1.8795 -0.1727 -0.3661
 1082SOL    HW214883   1.636   4.183   5.527  0.4798 -0.6773 -1.5213
 1083SOL     OW14884   1.716   3.941   1.910  0.1693 -0.0412 -0.1402
 1083SOL    HW114885   1.673   3.909   1.988  0.8009  1.2170  0.7211
 1083SOL    HW214886   1.687   3.881   1.840 -0.9678  0.9506 -0.5158
 1084SOL     OW14887   0.413   1.998   3.952 -0.0736 -0.2821  0.4113
 1084SOL    HW114888   0.356   1.967   4.022  2.4338  0.4639  2.8043
 1084SOL    HW214889   0.486   1.935   3.952  0.2308  0.0690  0.7504
 1085SOL     OW14890   0.359   3.327   0.549  0.1193 -0.1057 -0.3145
 1085SOL    HW114891   0.294   3.388   0.515  1.0314  2.1061  1.8639
 1085SOL    HW214892   0.387   3.281   0.471  0.0510 -1.1882  0.3029
 1086SOL     OW14893   1.049   3.319   6.388 -0.6152  0.0933  0.5359
 1086SOL    HW114894   1.086   3.397   6.428  0.1636  1.1475 -2.2503
 1086SOL    HW214895   1.054   3.341   6.295 -1.4169 -0.5568  0.3353
 1087SOL     OW14896   3.651   3.739   8.389  0.0007 -0.1943 -0.3418
 1087SOL    HW114897   3.560   3.740   8.418 -0.2560  1.8080 -1.2212
 1087SOL    HW214898   3.672   3.646   8.383 -0.7252 -0.4207  0.6446
 1088SOL     OW14899   0.743   0.344   1.608  0.4928  0.0224  0.0134
 1088SOL    HW114900   0.726   0.438   1.622  2.0085  0.3528 -0.3656
 1088SOL    HW214901   0.656   0.306   1.621  0.1355  1.1609  1.0481
 1089SOL     OW14902   3.294   1.843   6.628 -0.0762  0.4872 -0.2130
 1089SOL    HW114903   3.338   1.926   6.646  1.0923 -0.2651  0.3974
 1089SOL    HW214904   3.203   1.865   6.652 -0.6535 -1.4585 -0.6685
 1090SOL     OW14905   4.287   0.046   9.546  0.1398 -0.0015 -0.4111
 1090SOL    HW114906   4.303   0.120   9.488  0.4835 -0.6180 -1.1040
 1090SOL    HW214907   4.319   4.704   9.502 -0.6628 -0.1838 -0.6615
 1091SOL     OW14908   2.204   1.761  10.678 -0.4608 -0.6155 -0.5702
 1091SOL    HW114909   2.285   1.717  10.705  0.0369  0.1172 -0.8519
 1091SOL    HW214910   2.166   1.683  10.638  0.3380  0.8268 -4.1674
 1092SOL     OW14911   1.926   4.547   5.858 -0.3640  0.2906  0.2490
 1092SOL    HW114912   1.880   4.537   5.941 -1.2506  1.6158 -0.0814
 1092SOL    HW214913   2.015   4.532   5.892  0.5592  0.9301 -1.8906
 1093SOL     OW14914   3.202   1.005   6.222  0.1276  0.0245  0.1101
 1093SOL    HW114915   3.231   1.096   6.213 -0.7801  0.3229  0.1560
 1093SOL    HW214916   3.159   1.010   6.307 -0.4462  0.6748 -0.2185
 1094SOL     OW14917   3.456   1.341   4.795 -0.0063 -0.3695  0.5210
 1094SOL    HW114918   3.506   1.412   4.837 -0.3269 -0.4464  1.0396
 1094SOL    HW214919   3.376   1.391   4.779  0.4975 -0.2157 -1.5078
 1095SOL     OW14920   3.661   0.882   5.522  0.3232  0.2442 -0.0386
 1095SOL    HW114921   3.632   0.818   5.588 -0.9346  0.7793 -0.0683
 1095SOL    HW214922   3.718   0.919   5.589  0.6564 -2.1236  0.9877
 1096SOL     OW14923   1.431   3.567  16.556 -0.0908  0.2115 -0.7679
 1096SOL    HW114924   1.501   3.515  16.517 -0.8529 -1.0918 -0.4152
 1096SOL    HW214925   1.396   3.616  16.481  2.6544 -0.5826 -2.5503
 1097SOL     OW14926   2.559   3.801   2.441  0.3804  0.1757  0.1991
 1097SOL    HW114927   2.603   3.817   2.357 -1.1420  1.6736 -0.3226
 1097SOL    HW214928   2.473   3.834   2.415  1.3067  0.8670 -1.9887
 1098SOL     OW14929   3.952   0.562   0.257 -0.2989  0.3441  0.4307
 1098SOL    HW114930   3.877   0.526   0.210  0.9869 -2.1520  0.3076
 1098SOL    HW214931   4.015   0.585   0.190 -2.2617  2.2656 -0.7521
 1099SOL     OW14932   2.666   1.759   3.560 -0.3623  0.0799  0.1861
 1099SOL    HW114933   2.716   1.749   3.479  0.1653  1.6127  0.3172
 1099SOL    HW214934   2.601   1.689   3.555  0.2195 -0.3469 -1.3784
 1100SOL     OW14935   0.239   1.635   8.967 -0.6717  0.4195  0.1344
 1100SOL    HW114936   0.248   1.555   9.019  1.1496  0.1424 -0.6246
 1100SOL    HW214937   0.318   1.676   9.001 -1.0955  0.8705  0.5799
 1101SOL     OW14938   3.909   3.329   3.915 -0.1439  0.2432  0.7355
 1101SOL    HW114939   3.989   3.287   3.884 -0.1686  1.3502 -0.8474
 1101SOL    HW214940   3.870   3.254   3.961 -0.1108 -0.0039  0.3636
 1102SOL     OW14941   0.760   1.076  11.387 -0.3266 -0.3475  0.2091
 1102SOL    HW114942   0.731   1.003  11.442  1.4166  0.8152  2.6570
 1102SOL    HW214943   0.752   1.159  11.434  0.7585  0.1137 -0.4119
 1103SOL     OW14944   4.097   1.946  14.935 -0.4122 -0.1225 -0.3709
 1103SOL    HW114945   4.057   1.868  14.896 -1.3840  0.1880  0.0060
 1103SOL    HW214946   4.131   1.918  15.020  0.0048  0.5872 -0.2948
 1104SOL     OW14947   1.721   2.918   6.014  0.2122  0.0279 -0.1260
 1104SOL    HW114948   1.678   2.859   6.076 -0.6646  0.6443 -0.1333
 1104SOL    HW214949   1.666   2.996   6.003 -2.3385 -1.4173  2.2280
 1105SOL     OW14950   3.600   3.582  14.690 -0.3006  0.0435  0.0333
 1105SOL    HW114951   3.576   3.540  14.607  1.1502 -3.8083  1.5944
 1105SOL    HW214952   3.512   3.613  14.713 -0.7504 -0.0310 -1.6026
 1106SOL     OW14953   2.241   1.867   8.044 -0.3657  0.4270 -0.0979
 1106SOL    HW114954   2.289   1.914   7.976  0.0158 -2.8219 -2.0347
 1106SOL    HW214955   2.301   1.866   8.119  0.0762 -2.3754 -0.4989
 1107SOL     OW14956   1.624   4.191  11.520 -0.0560  0.5184 -0.6684
 1107SOL    HW114957   1.565   4.266  11.512  0.2974  0.9240  0.4564
 1107SOL    HW214958   1.693   4.220  11.580  1.9147  0.2412 -2.8016
 1108SOL     OW14959   3.778   4.138   9.134 -0.0145  0.3068  0.2483
 1108SOL    HW114960   3.839   4.112   9.204 -2.2825 -0.1927  2.0518
 1108SOL    HW214961   3.707   4.076   9.148 -0.3480  0.3196 -1.4464
 1109SOL     OW14962   0.052   3.781   9.796  0.3828 -0.6848 -0.6515
 1109SOL    HW114963   0.079   3.695   9.766  2.7683  0.3671 -1.5175
 1109SOL    HW214964   0.109   3.843   9.751  1.0564 -2.0584 -1.6906
 1110SOL     OW14965   1.806   4.293   2.942  0.0087 -0.4193 -0.1520
 1110SOL    HW114966   1.767   4.214   2.979  0.8363 -1.6854 -1.9693
 1110SOL    HW214967   1.854   4.329   3.017  0.1776 -1.0000  0.0238
 1111SOL     OW14968   4.045   1.394  12.893  0.4202  0.3931  0.8455
 1111SOL    HW114969   4.023   1.413  12.984  0.1749  0.5911  0.7435
 1111SOL    HW214970   4.014   1.304  12.894  0.0538  0.5075 -2.2656
 1112SOL     OW14971   2.867   4.429   7.070  0.4187  1.1018  0.1064
 1112SOL    HW114972   2.777   4.444   7.097 -0.6317  3.4328 -4.7876
 1112SOL    HW214973   2.850   4.414   6.977 -1.3186 -1.9910  0.9216
 1113SOL     OW14974   2.372   0.515   1.686  0.2811  0.0074 -0.0122
 1113SOL    HW114975   2.436   0.487   1.750 -1.3230 -0.5676  1.3288
 1113SOL    HW214976   2.320   0.566   1.748  1.1112  1.9048 -0.8740
 1114SOL     OW14977   0.759   4.695   1.668  0.2128  0.4717  0.0829
 1114SOL    HW114978   0.667   4.673   1.687 -0.2732  2.5906  0.2093
 1114SOL    HW214979   0.763   0.047   1.702 -0.5349  0.2990  0.6356
 1115SOL     OW14980   2.152   4.440   4.455 -0.9004  0.1892  0.2535
 1115SOL    HW114981   2.178   4.509   4.516 -2.0899 -0.1289  1.1198
 1115SOL    HW214982   2.160   4.363   4.511  0.5441  1.2601  1.5162
 1116SOL     OW14983   3.783   3.623  13.610  0.6622  0.4254 -0.0006
 1116SOL    HW114984   3.857   3.598  13.556  0.3274 -1.6127  0.5024
 1116SOL    HW214985   3.822   3.680  13.676  0.3772  0.4117  0.1808
 1117SOL     OW14986   2.368   4.094   5.653 -0.1570  0.3912  0.6451
 1117SOL    HW114987   2.442   4.088   5.713  1.5739 -0.2387 -1.5629
 1117SOL    HW214988   2.405   4.151   5.585 -1.5090 -0.0552 -0.4853
 1118SOL     OW14989   3.941   0.219  15.766  0.4981  0.4743  0.3907
 1118SOL    HW114990   3.853   0.243  15.740  0.1123 -1.8003 -0.4135
 1118SOL    HW214991   3.967   0.177  15.684 -0.9187 -1.5271  0.9607
 1119SOL     OW14992   3.482   0.544   2.690 -0.1124 -0.0810  0.0152
 1119SOL    HW114993   3.390   0.559   2.670  0.4583  3.6871  0.1660
 1119SOL    HW214994   3.482   0.451   2.715  3.4751  0.8293  3.4403
 1120SOL     OW14995   0.260   2.643   8.381 -0.2613  0.4005 -0.2099
 1120SOL    HW114996   0.237   2.566   8.434  1.1994  0.0625 -0.0754
 1120SOL    HW214997   0.247   2.628   8.287  0.6566 -1.0457 -0.1077
 1121SOL     OW14998   3.443   1.124   7.041 -0.0496 -0.5968 -0.7285
 1121SOL    HW114999   3.440   1.038   7.083 -0.2118 -0.2455 -0.0246
 1121SOL    HW215000   3.349   1.127   7.022 -0.0892 -0.4088 -0.5042
 1122SOL     OW15001   1.289   3.171  16.087 -0.4492 -0.1380  0.4424
 1122SOL    HW115002   1.355   3.228  16.128  0.1380 -1.7644  1.7238
 1122SOL    HW215003   1.266   3.112  16.158  0.8220 -0.9422  0.1899
 1123SOL     OW15004   2.077   0.047   1.330  0.2100  0.1408  0.1674
 1123SOL    HW115005   2.172   0.050   1.323  0.3335  0.0847  1.7821
 1123SOL    HW215006   2.060   0.134   1.294 -2.2140 -1.2187 -1.9921
 1124SOL     OW15007   4.280   3.371   3.266  0.4184 -0.3070  0.2398
 1124SOL    HW115008   4.229   3.302   3.225 -3.8747  2.8130  0.3224
 1124SOL    HW215009   4.215   3.440   3.279  1.9051  1.0672  0.3865
 1125SOL     OW15010   0.168   3.395   7.555  0.4270 -0.0505 -0.2661
 1125SOL    HW115011   0.139   3.479   7.591  0.4274  0.0868 -0.5899
 1125SOL    HW215012   0.252   3.426   7.521  0.4395  0.6305  0.3928
 1126SOL     OW15013   3.226   4.454   2.137  0.3794 -0.1366 -0.0888
 1126SOL    HW115014   3.157   4.519   2.145  1.7716  1.4674 -1.1167
 1126SOL    HW215015   3.287   4.514   2.179  0.9564 -0.0006 -1.1169
 1127SOL     OW15016   1.662   0.717   8.668  0.7839  0.5108  0.1727
 1127SOL    HW115017   1.747   0.673   8.660  1.2727  2.0188 -2.8769
 1127SOL    HW215018   1.617   0.678   8.594  0.3610  1.7781 -0.2271
 1128SOL     OW15019   2.751   3.211  15.449 -0.3363 -0.7322  0.0020
 1128SOL    HW115020   2.686   3.251  15.507 -1.0295 -1.5249 -0.2282
 1128SOL    HW215021   2.829   3.261  15.473  0.2989 -1.7451  0.0392
 1129SOL     OW15022   2.243   0.952   2.280 -0.5254  0.0506  0.0305
 1129SOL    HW115023   2.256   0.887   2.348  2.2907  0.0126 -0.5466
 1129SOL    HW215024   2.184   1.018   2.317  0.6716  0.1578  1.7201
 1130SOL     OW15025   4.185   3.557   5.369  0.5007 -0.2567 -0.8917
 1130SOL    HW115026   4.273   3.542   5.402  0.5428  1.1171 -0.3695
 1130SOL    HW215027   4.138   3.526   5.446  0.3712 -1.0086 -1.2810
 1131SOL     OW15028   1.646   1.461  11.970  0.1927 -0.1000  0.3869
 1131SOL    HW115029   1.627   1.469  12.063  0.2485  0.4641  0.3522
 1131SOL    HW215030   1.635   1.366  11.967 -1.4835  0.1837 -2.7262
 1132SOL     OW15031   0.401   2.266  17.455 -0.0611 -0.2117 -0.3322
 1132SOL    HW115032   0.439   2.354  17.464 -1.6705  0.5229 -0.5653
 1132SOL    HW215033   0.412   2.230  17.543 -1.7242  1.9394  0.7581
 1133SOL     OW15034   4.118   3.210   9.827 -0.5936 -0.3511  0.2757
 1133SOL    HW115035   4.136   3.259   9.746 -0.3007  1.6293  1.5436
 1133SOL    HW215036   4.024   3.195   9.831 -0.9132  1.8701  1.0223
 1134SOL     OW15037   1.713   4.394   4.139 -0.4294 -0.4856  0.7173
 1134SOL    HW115038   1.763   4.468   4.104 -1.2934  0.8268  2.2556
 1134SOL    HW215039   1.765   4.362   4.213  1.6639 -2.1540 -1.4961
 1135SOL     OW15040   4.674   3.327   6.011  0.3618  0.1734  0.3392
 1135SOL    HW115041   0.020   3.372   6.011 -0.1582  1.1547 -4.4310
 1135SOL    HW215042   4.649   3.352   6.100  1.0822  0.4490  0.4631
 1136SOL     OW15043   2.662   0.399  16.205  0.2513 -0.3768  0.1518
 1136SOL    HW115044   2.611   0.452  16.144  0.2313 -0.9357 -0.3203
 1136SOL    HW215045   2.711   0.462  16.256  1.0301 -0.3306 -0.6517
 1137SOL     OW15046   1.258   0.782   8.768 -0.1770  0.6816 -0.2870
 1137SOL    HW115047   1.251   0.831   8.686  2.3292 -0.5767 -1.2366
 1137SOL    HW215048   1.167   0.756   8.782  0.6190 -1.6585  0.5821
 1138SOL     OW15049   0.689   2.263   6.263 -0.3613  0.2403  0.0077
 1138SOL    HW115050   0.773   2.218   6.273  0.0591  0.7063 -1.4072
 1138SOL    HW215051   0.633   2.202   6.215  1.4049 -0.4278 -1.2165
 1139SOL     OW15052   1.294   4.486   1.994  0.9219 -0.4881  0.2959
 1139SOL    HW115053   1.363   4.445   1.942  1.3935  1.1075 -0.3320
 1139SOL    HW215054   1.299   4.578   1.972  0.5593 -0.5923 -0.2191
 1140SOL     OW15055   3.138   3.208  10.248 -0.2014 -0.6521  0.2776
 1140SOL    HW115056   3.175   3.205  10.160  0.5639  2.1115  0.4876
 1140SOL    HW215057   3.215   3.215  10.305  1.0722  2.4865 -1.7923
 1141SOL     OW15058   2.546   4.034   4.877  0.0979  0.2810 -0.2261
 1141SOL    HW115059   2.597   3.974   4.823  2.9996  1.1805  1.5034
 1141SOL    HW215060   2.624   4.074   4.915 -0.8694  1.1528  0.8460
 1142SOL     OW15061   2.919   0.112   8.935  0.4197  0.1824  0.2197
 1142SOL    HW115062   2.842   0.136   8.883 -0.8685 -1.7855  1.2372
 1142SOL    HW215063   2.909   0.168   9.013  1.6739  0.6434  0.0413
 1143SOL     OW15064   0.927   0.714   8.107 -0.2072  0.8399  0.0036
 1143SOL    HW115065   0.899   0.623   8.119  0.1857  0.8513  0.9666
 1143SOL    HW215066   0.891   0.759   8.183  0.6159  0.8889  0.3635
 1144SOL     OW15067   0.174   1.466   7.359 -0.4220 -0.2357 -0.6493
 1144SOL    HW115068   0.128   1.383   7.370  0.1729 -0.3670  0.8282
 1144SOL    HW215069   0.163   1.475   7.264  0.7275  0.1931 -0.7422
 1145SOL     OW15070   3.259   3.089   3.556 -0.3419 -0.3482 -0.4901
 1145SOL    HW115071   3.182   3.069   3.609  0.6276 -0.2579  0.9527
 1145SOL    HW215072   3.298   3.166   3.598  0.8338 -2.0780  1.5379
 1146SOL     OW15073   1.604   3.424   5.867  0.4658  0.6280 -0.6150
 1146SOL    HW115074   1.653   3.494   5.910 -1.7329  1.0782  1.1310
 1146SOL    HW215075   1.663   3.383   5.803 -1.0169 -3.0816  0.3981
 1147SOL     OW15076   0.376   2.246   7.715 -0.1647 -0.7011 -0.0349
 1147SOL    HW115077   0.402   2.233   7.806  2.8551 -0.3747 -0.8610
 1147SOL    HW215078   0.448   2.229   7.654 -0.7625  0.5782 -1.1132
 1148SOL     OW15079   3.400   0.122  14.747 -0.0246 -0.5593  0.3594
 1148SOL    HW115080   3.403   0.032  14.714 -2.3717  0.9449 -3.8964
 1148SOL    HW215081   3.455   0.173  14.687 -1.2240 -0.1134 -0.3459
 1149SOL     OW15082   3.171   1.388   4.759 -0.4514 -0.0674  0.3032
 1149SOL    HW115083   3.122   1.314   4.722  2.3001 -1.4696 -0.5626
 1149SOL    HW215084   3.125   1.466   4.728 -0.8509 -0.0940  0.8252
 1150SOL     OW15085   2.775   1.309   6.238 -0.3240  0.0763 -0.3329
 1150SOL    HW115086   2.772   1.238   6.302 -1.4003  1.0681  0.7147
 1150SOL    HW215087   2.738   1.386   6.280 -1.5900 -0.5283 -0.3426
 1151SOL     OW15088   1.465   0.231   2.620 -0.1021 -0.1228  0.4427
 1151SOL    HW115089   1.527   0.176   2.571  0.6418  1.1855 -0.0988
 1151SOL    HW215090   1.525   0.286   2.671  2.4408  1.0603 -3.7971
 1152SOL     OW15091   3.516   3.539  14.441 -0.3117  0.7107  0.2861
 1152SOL    HW115092   3.431   3.501  14.421 -0.3665  0.3437  1.2255
 1152SOL    HW215093   3.574   3.467  14.416 -1.0212  0.1935  0.1267
 1153SOL     OW15094   1.120   4.723   2.811  0.6586  0.1954  0.2955
 1153SOL    HW115095   1.061   4.681   2.874 -0.9759 -0.5078 -1.7062
 1153SOL    HW215096   1.204   4.721   2.857  1.0750  5.0254 -0.3003
 1154SOL     OW15097   1.329   1.675   2.739  0.1631  0.9019  0.2214
 1154SOL    HW115098   1.306   1.728   2.816 -2.8438  0.3340 -0.2844
 1154SOL    HW215099   1.319   1.740   2.671  0.2068  1.2409  0.5387
 1155SOL     OW15100   1.028   1.578  12.275  0.5328  0.0877 -0.0429
 1155SOL    HW115101   1.094   1.587  12.207  0.4354 -0.6373 -0.2306
 1155SOL    HW215102   1.073   1.521  12.338  2.0007  1.5714  0.2382
 1156SOL     OW15103   4.512   0.287   4.502 -0.4277 -0.6623  0.0378
 1156SOL    HW115104   4.530   0.369   4.547  3.1913 -1.0601 -0.6088
 1156SOL    HW215105   4.493   0.312   4.411  0.5617  1.1439  0.3333
 1157SOL     OW15106   4.073   1.970   3.793 -0.0630  0.3670  0.2927
 1157SOL    HW115107   3.994   2.008   3.831 -0.6482  0.1270 -0.7050
 1157SOL    HW215108   4.134   2.000   3.861  0.4135 -0.0336  0.0389
 1158SOL     OW15109   1.213   2.158   9.362 -0.5766 -0.6822 -0.5180
 1158SOL    HW115110   1.227   2.156   9.267  1.7619 -1.6653 -0.1650
 1158SOL    HW215111   1.301   2.137   9.393  0.4055  1.7877 -1.6485
 1159SOL     OW15112   4.516   4.128   2.803 -0.3035 -0.2934  0.0654
 1159SOL    HW115113   4.532   4.213   2.762  3.1955 -0.4426  1.1015
 1159SOL    HW215114   4.587   4.076   2.767  0.2409  1.3194 -1.2021
 1160SOL     OW15115   1.183   0.031   3.962 -0.2581 -0.1382  0.4254
 1160SOL    HW115116   1.185   0.017   4.057 -0.6782  0.5575  0.5337
 1160SOL    HW215117   1.161   0.124   3.958  1.7574  0.3438  0.8412
 1161SOL     OW15118   0.970   1.255   4.210  0.1755 -0.4221 -0.5667
 1161SOL    HW115119   0.984   1.225   4.120  1.1101  1.1461 -0.9323
 1161SOL    HW215120   0.877   1.235   4.220 -0.0013 -0.0115 -1.4160
 1162SOL     OW15121   4.428   3.518  16.913  0.2305 -0.1923  0.2023
 1162SOL    HW115122   4.507   3.572  16.918 -0.6703  1.1273  0.2372
 1162SOL    HW215123   4.427   3.505  16.818  1.2090  0.9537  0.0432
 1163SOL     OW15124   3.332   1.149   6.441  0.0150  0.8606  0.1234
 1163SOL    HW115125   3.285   1.224   6.475  0.4702  0.5085  1.5225
 1163SOL    HW215126   3.392   1.190   6.379 -1.4241  1.8434 -0.6214
 1164SOL     OW15127   4.020   2.539   8.702 -0.6540 -0.8722  0.3048
 1164SOL    HW115128   3.986   2.562   8.616  2.4037  0.9195 -0.4167
 1164SOL    HW215129   3.985   2.610   8.757 -1.7792 -0.4623 -0.9298
 1165SOL     OW15130   2.895   0.456   7.796  0.1076 -0.4582  0.0727
 1165SOL    HW115131   2.940   0.540   7.785 -0.4935 -0.4263 -2.0696
 1165SOL    HW215132   2.971   0.398   7.791 -0.2824 -0.9753  0.1328
 1166SOL     OW15133   0.426   0.575   6.887  0.9319 -0.2687  0.0233
 1166SOL    HW115134   0.457   0.607   6.972  0.3995  0.3852 -0.0333
 1166SOL    HW215135   0.330   0.583   6.889  1.0215  0.0752  2.4753
 1167SOL     OW15136   0.684   1.607   0.083 -0.2640 -0.1266 -0.8081
 1167SOL    HW115137   0.626   1.637   0.152  0.3281  0.3260 -0.5048
 1167SOL    HW215138   0.751   1.563   0.136 -1.8870 -0.0036  1.3097
 1168SOL     OW15139   4.606   1.018   4.645 -0.1962  0.4239 -0.3687
 1168SOL    HW115140   4.560   0.944   4.685 -0.3259  0.0047 -1.3054
 1168SOL    HW215141   4.585   1.001   4.554  0.3979 -0.0400 -0.4200
 1169SOL     OW15142   2.855   3.272   6.144 -0.2594  0.0698 -0.2776
 1169SOL    HW115143   2.929   3.222   6.108 -0.9961 -0.4356 -1.1161
 1169SOL    HW215144   2.888   3.362   6.138 -0.0465  0.1276  1.9945
 1170SOL     OW15145   1.094   1.891  17.199 -0.3280  0.5670 -0.4564
 1170SOL    HW115146   1.163   1.900  17.265  1.3430  1.1850 -2.2805
 1170SOL    HW215147   1.037   1.831  17.248 -0.9363 -0.0678 -1.9524
 1171SOL     OW15148   2.517   3.245   9.577  0.1734 -0.2151 -0.2353
 1171SOL    HW115149   2.531   3.168   9.522 -0.1036  0.3727 -1.1233
 1171SOL    HW215150   2.598   3.250   9.629  0.1001  0.1229 -0.1518
 1172SOL     OW15151   0.016   0.332  13.129  0.7297 -0.1419  0.0941
 1172SOL    HW115152   4.665   0.306  13.155  0.9596 -0.7398  0.2700
 1172SOL    HW215153   0.041   0.247  13.092 -1.8054 -0.8665  0.0475
 1173SOL     OW15154   1.471   2.164   2.873 -0.1832  0.6673  0.5223
 1173SOL    HW115155   1.512   2.196   2.793  2.3980 -0.4470  1.4081
 1173SOL    HW215156   1.385   2.136   2.842  0.8528 -1.1035 -0.7344
 1174SOL     OW15157   4.649   0.239   2.901  0.4057  0.3666  0.2724
 1174SOL    HW115158   4.699   0.270   2.976  1.1557  1.5384 -0.7060
 1174SOL    HW215159   4.629   0.324   2.863 -1.6392 -0.3325 -0.2383
 1175SOL     OW15160   1.113   1.145  14.856 -0.0392 -0.8223  0.2771
 1175SOL    HW115161   1.057   1.184  14.923 -0.9995  0.0909 -1.0576
 1175SOL    HW215162   1.069   1.182  14.780  1.7975 -2.2565 -1.4540
 1176SOL     OW15163   1.135   3.169   5.650  0.0091 -0.1163  0.7132
 1176SOL    HW115164   1.202   3.121   5.600 -1.3407 -0.6184 -0.5870
 1176SOL    HW215165   1.176   3.176   5.736 -2.7402 -0.9197  2.0721
 1177SOL     OW15166   4.106   3.108   7.228  0.0809 -0.1984  0.5246
 1177SOL    HW115167   4.151   3.191   7.246  0.2192 -0.2939  0.6246
 1177SOL    HW215168   4.046   3.106   7.303 -0.7996 -1.0376 -0.2071
 1178SOL     OW15169   2.500   2.660   8.519  0.4731  0.0414  1.0143
 1178SOL    HW115170   2.528   2.649   8.610  0.2700 -0.4428  1.0173
 1178SOL    HW215171   2.570   2.711   8.478  0.5044 -0.3815  0.5348
 1179SOL     OW15172   1.833   0.573   8.347 -0.1039 -0.4533  0.2243
 1179SOL    HW115173   1.821   0.480   8.365 -0.4568 -0.6682 -1.1403
 1179SOL    HW215174   1.892   0.601   8.417 -0.7604  0.4263  0.4236
 1180SOL     OW15175   4.220   3.309   0.143 -0.4825 -0.5127 -0.1817
 1180SOL    HW115176   4.160   3.287   0.072 -1.9816 -2.2524  1.6456
 1180SOL    HW215177   4.303   3.307   0.096 -0.0535  0.1290  0.5444
 1181SOL     OW15178   0.664   4.149   2.451  0.0989 -0.5484 -0.7580
 1181SOL    HW115179   0.622   4.186   2.373 -1.7466 -0.0279  0.4830
 1181SOL    HW215180   0.756   4.156   2.427  0.0956 -4.2479 -1.9764
 1182SOL     OW15181   0.467   0.246   8.548  0.7523  0.4284 -0.3236
 1182SOL    HW115182   0.454   0.341   8.554 -2.8166  0.0244 -1.3149
 1182SOL    HW215183   0.509   0.232   8.633  1.3426 -1.6860 -0.9667
 1183SOL     OW15184   0.420   0.515   1.675  0.0563 -0.8614 -0.3088
 1183SOL    HW115185   0.508   0.552   1.664  0.7911 -2.4331  0.2883
 1183SOL    HW215186   0.408   0.477   1.588  0.0984  0.2959 -0.8123
 1184SOL     OW15187   1.809   3.108  12.891 -0.1725  0.5710 -0.0160
 1184SOL    HW115188   1.760   3.075  12.966  0.6997 -2.7531 -0.9230
 1184SOL    HW215189   1.896   3.125  12.927 -0.4917  2.0692  0.0282
 1185SOL     OW15190   1.008   2.120  15.328  0.2399 -0.0739 -0.0519
 1185SOL    HW115191   1.066   2.175  15.380  1.4257  0.0791 -1.5496
 1185SOL    HW215192   1.075   2.067  15.285  0.2955 -0.8685  1.0084
 1186SOL     OW15193   1.781   1.571  10.535  0.4289  0.0242  0.5799
 1186SOL    HW115194   1.859   1.571  10.479  0.8337 -0.2051  1.1509
 1186SOL    HW215195   1.814   1.607  10.617  3.4037 -0.4588 -0.3955
 1187SOL     OW15196   1.233   4.483   6.631 -0.2360  0.1001  0.2722
 1187SOL    HW115197   1.292   4.434   6.574 -1.1105  0.2410 -0.7754
 1187SOL    HW215198   1.219   4.563   6.580 -3.7222 -0.2017  0.7112
 1188SOL     OW15199   3.760   3.828   2.019  0.0493  0.1335 -0.1097
 1188SOL    HW115200   3.811   3.846   1.940 -3.0799 -2.3061 -2.6537
 1188SOL    HW215201   3.800   3.743   2.040  0.4212  0.0721 -1.0593
 1189SOL     OW15202   1.035   2.839  15.954 -0.0152  0.3671  0.3405
 1189SOL    HW115203   1.082   2.907  15.907 -0.8120  0.2772 -0.5794
 1189SOL    HW215204   0.988   2.881  16.026  1.3185 -3.9707  3.7991
 1190SOL     OW15205   2.159   1.069  10.348 -0.3646  0.1747 -0.4112
 1190SOL    HW115206   2.074   1.099  10.317 -0.2327 -0.3319 -1.2691
 1190SOL    HW215207   2.150   0.976  10.324 -0.1450  0.4332 -1.4697
 1191SOL     OW15208   2.642   2.486  16.313  0.1118 -0.3140 -0.0561
 1191SOL    HW115209   2.556   2.452  16.339 -0.5296  0.2179 -1.4716
 1191SOL    HW215210   2.651   2.428  16.238  2.1263  0.8513 -0.7040
 1192SOL     OW15211   4.144   3.745   4.126 -0.0247 -0.6024  0.1272
 1192SOL    HW115212   4.185   3.683   4.067 -0.1014  1.2733 -1.8985
 1192SOL    HW215213   4.087   3.692   4.182  0.3805 -2.1376 -0.9084
 1193SOL     OW15214   1.736   2.023   6.315  0.2834 -0.0827  0.1067
 1193SOL    HW115215   1.831   2.027   6.309  0.3476 -0.0263  1.1588
 1193SOL    HW215216   1.717   2.049   6.405  1.3688 -1.3269  0.6830
 1194SOL     OW15217   3.915   4.054   6.374 -0.5080 -0.0955  0.8195
 1194SOL    HW115218   3.839   3.996   6.377 -2.0346  1.9365  1.0442
 1194SOL    HW215219   3.926   4.055   6.469 -2.2902  0.0267  1.0170
 1195SOL     OW15220   1.658   0.409   8.813  0.3041 -0.3376  0.3242
 1195SOL    HW115221   1.703   0.461   8.880  1.2625  0.5885 -1.0354
 1195SOL    HW215222   1.574   0.406   8.859 -0.4344  0.9475 -0.9457
 1196SOL     OW15223   0.722   4.317  14.451  0.7203 -0.1154  0.2589
 1196SOL    HW115224   0.647   4.376  14.456 -1.1759 -2.4379 -0.8334
 1196SOL    HW215225   0.696   4.261  14.378 -2.3268  0.8368  0.6094
 1197SOL     OW15226   1.887   4.096   6.881  0.0247  0.5837 -0.0447
 1197SOL    HW115227   1.810   4.078   6.827  0.8033  0.3884 -1.0857
 1197SOL    HW215228   1.882   4.022   6.942  0.1301  1.9297  1.5648
 1198SOL     OW15229   3.944   3.124  15.301  0.3233 -0.3653 -0.1725
 1198SOL    HW115230   3.983   3.211  15.296 -1.5953  0.4093 -1.5662
 1198SOL    HW215231   3.901   3.125  15.386 -0.0621 -1.8682 -0.3378
 1199SOL     OW15232   3.975   3.410   0.879  0.2311 -0.5374  0.3923
 1199SOL    HW115233   3.935   3.328   0.849  2.6152  0.0248 -4.2828
 1199SOL    HW215234   3.904   3.451   0.929  0.6120  0.7742 -0.1723
 1200SOL     OW15235   1.310   3.511  10.974 -0.1605 -0.1784  0.2453
 1200SOL    HW115236   1.325   3.469  11.059  3.5806 -0.0867 -0.3570
 1200SOL    HW215237   1.396   3.551  10.958 -0.0314 -0.4839  0.1552
 1201SOL     OW15238   3.421   2.899   7.299  0.2610  0.3223 -0.4786
 1201SOL    HW115239   3.452   2.836   7.234  1.6340 -1.0142  1.4829
 1201SOL    HW215240   3.434   2.858   7.384 -2.3500  0.1775 -0.1389
 1202SOL     OW15241   1.780   0.864  13.590  0.4824 -0.1709 -0.2666
 1202SOL    HW115242   1.835   0.790  13.567 -1.8815 -1.9466 -0.2585
 1202SOL    HW215243   1.705   0.859  13.531  1.4053  0.4001 -1.4731
 1203SOL     OW15244   3.247   2.061  12.124  0.0531 -0.0128 -0.4513
 1203SOL    HW115245   3.207   2.014  12.197  0.2258  2.2934  1.1022
 1203SOL    HW215246   3.208   2.008  12.054 -1.6252 -1.1725  1.3692
 1204SOL     OW15247   0.853   0.162   4.453 -0.2673  0.0956 -0.7379
 1204SOL    HW115248   0.856   0.205   4.368 -0.9823  2.4043  0.4131
 1204SOL    HW215249   0.791   0.215   4.503  0.4567 -0.5803  0.8992
 1205SOL     OW15250   1.789   2.165   5.288 -0.4659  0.3850 -0.0510
 1205SOL    HW115251   1.856   2.106   5.322 -1.1666  0.1080  0.8527
 1205SOL    HW215252   1.843   2.238   5.259  0.5243 -0.9305 -1.4909
 1206SOL     OW15253   3.607   2.047   8.169  0.1283 -0.5016  0.2082
 1206SOL    HW115254   3.668   2.120   8.160 -1.0988  0.7255  1.7940
 1206SOL    HW215255   3.522   2.091   8.165 -0.4169 -1.6239 -0.5327
 1207SOL     OW15256   2.477   4.208   3.000 -0.2442  0.1673 -0.2458
 1207SOL    HW115257   2.434   4.188   3.083 -1.3096 -0.1574 -0.8717
 1207SOL    HW215258   2.409   4.272   2.979  1.2145  0.7846 -3.0031
 1208SOL     OW15259   1.279   4.686  16.118 -0.6373 -0.2576  0.0114
 1208SOL    HW115260   1.367   4.718  16.139 -0.2113 -3.1483  2.5819
 1208SOL    HW215261   1.229   0.004  16.179 -2.5094 -0.5739 -1.2508
 1209SOL     OW15262   1.526   3.457  17.640 -0.5722 -0.3131  0.1173
 1209SOL    HW115263   1.516   3.413  17.556  0.4188 -2.4567  1.1394
 1209SOL    HW215264   1.542   3.547  17.611 -1.3434  0.1494  1.1132
 1210SOL     OW15265   4.466   4.615   5.400 -0.2466 -0.5407  0.3419
 1210SOL    HW115266   4.489   4.708   5.397  1.0331 -0.9434 -1.9413
 1210SOL    HW215267   4.380   4.601   5.360  0.4804 -1.2879 -0.9433
 1211SOL     OW15268   1.837   2.255   0.650 -0.0194 -0.4927 -0.2158
 1211SOL    HW115269   1.790   2.339   0.654 -1.2992 -1.2180 -0.1663
 1211SOL    HW215270   1.927   2.285   0.643 -0.1673  0.5764  2.2528
 1212SOL     OW15271   3.429   3.383   5.814 -0.7995  0.0603 -0.2858
 1212SOL    HW115272   3.425   3.452   5.879  0.4937 -1.2190  1.1553
 1212SOL    HW215273   3.481   3.428   5.746  0.5323 -0.4316  0.4071
 1213SOL     OW15274   2.521   2.011   9.623 -0.3756 -0.1783  0.1887
 1213SOL    HW115275   2.556   1.931   9.585  0.4383  0.2881 -0.0368
 1213SOL    HW215276   2.572   2.087   9.595  0.7055 -1.0725 -0.2769
 1214SOL     OW15277   1.068   1.913   3.370 -0.4600  0.3147  0.1797
 1214SOL    HW115278   1.116   1.993   3.348 -3.7721  2.1272 -0.5407
 1214SOL    HW215279   0.986   1.962   3.368  0.5256  1.9295 -0.2713
 1215SOL     OW15280   3.937   3.685   3.051  0.2023 -0.8238  1.0808
 1215SOL    HW115281   3.937   3.703   3.145 -2.5032 -1.3154  1.1540
 1215SOL    HW215282   4.003   3.741   3.010 -0.4383 -1.3848 -0.7009
 1216SOL     OW15283   0.131   1.083   9.577 -0.2311  0.1132 -0.2645
 1216SOL    HW115284   0.125   1.035   9.494 -0.8772 -0.1978 -0.0385
 1216SOL    HW215285   0.081   1.021   9.629 -0.3439 -0.0593 -0.5744
 1217SOL     OW15286   2.255   1.958  14.614  0.5357 -0.2180 -0.0640
 1217SOL    HW115287   2.229   1.961  14.707  2.3184  0.6105  0.3987
 1217SOL    HW215288   2.187   2.003  14.565  1.3587  0.4036 -0.6248
 1218SOL     OW15289   0.015   2.070   5.164  0.3577 -0.0430 -0.3177
 1218SOL    HW115290   0.088   2.014   5.139  0.7083 -0.5236  1.8644
 1218SOL    HW215291   4.682   2.007   5.179 -1.1187  1.3972 -1.0952
 1219SOL     OW15292   1.974   4.425  11.171  0.4404 -0.0731 -0.1097
 1219SOL    HW115293   1.971   4.445  11.265 -0.6206  0.9323 -0.3467
 1219SOL    HW215294   1.907   4.356  11.161  1.9867 -1.9018  2.0468
 1220SOL     OW15295   1.872   2.641  11.252 -0.5623  0.7361  0.7989
 1220SOL    HW115296   1.957   2.679  11.230  0.7817 -1.5005  2.2239
 1220SOL    HW215297   1.813   2.688  11.192 -1.6859  0.2630  1.5306
 1221SOL     OW15298   1.790   0.791   9.091  0.3473 -0.1848 -0.2673
 1221SOL    HW115299   1.787   0.706   9.047 -1.7484  1.2117 -2.7794
 1221SOL    HW215300   1.793   0.858   9.023 -0.4098 -0.3324 -0.4412
 1222SOL     OW15301   0.076   0.491   2.520 -0.2283  0.2127 -0.2021
 1222SOL    HW115302   0.004   0.552   2.537  0.2552  1.0218 -1.0659
 1222SOL    HW215303   0.142   0.528   2.578  1.1088 -1.8591 -0.3916
 1223SOL     OW15304   1.201   1.216   7.774  0.5058  0.2198 -0.1569
 1223SOL    HW115305   1.163   1.286   7.826 -0.4561 -1.0232  0.8029
 1223SOL    HW215306   1.164   1.147   7.829  0.5323  1.0390  0.8858
 1224SOL     OW15307   3.217   4.226   2.301 -0.0102  0.1728  0.0496
 1224SOL    HW115308   3.164   4.158   2.260 -0.3768  0.5940 -0.1747
 1224SOL    HW215309   3.224   4.291   2.231  0.1373 -1.0535 -1.0730
 1225SOL     OW15310   1.800   0.094   3.139  0.0301  0.4885  0.1413
 1225SOL    HW115311   1.796   0.090   3.044  0.3342  0.8334  0.1129
 1225SOL    HW215312   1.878   0.040   3.155 -0.5118 -0.0149  1.1049
 1226SOL     OW15313   4.197   2.609  13.702 -0.4161 -0.4980  0.7629
 1226SOL    HW115314   4.152   2.673  13.648 -0.0240 -1.9881 -1.3270
 1226SOL    HW215315   4.252   2.555  13.645 -0.5569  1.0158 -0.8016
 1227SOL     OW15316   0.591   2.841  16.838 -0.2610  0.2185 -0.3732
 1227SOL    HW115317   0.498   2.842  16.858  0.1053 -0.3884  1.3780
 1227SOL    HW215318   0.590   2.889  16.755  1.1260  0.1483 -0.4350
 1228SOL     OW15319   2.149   3.277  11.554  0.0958 -0.0669  0.1030
 1228SOL    HW115320   2.097   3.230  11.619 -0.4862  0.1139 -0.2308
 1228SOL    HW215321   2.104   3.246  11.475  0.3022 -0.9110  0.3191
 1229SOL     OW15322   2.705   4.340   4.886  0.5180  0.3483 -0.2278
 1229SOL    HW115323   2.751   4.303   4.811  1.8680  0.8257  0.3430
 1229SOL    HW215324   2.687   4.428   4.854 -0.4805  0.4191  0.5410
 1230SOL     OW15325   2.554   1.020   4.284 -0.1967  0.3539  0.2724
 1230SOL    HW115326   2.639   1.028   4.328  0.3625 -3.6113 -0.0669
 1230SOL    HW215327   2.574   1.019   4.191  1.6935 -0.8942  0.6893
 1231SOL     OW15328   0.529   2.904   7.736  0.7661 -0.2931  0.4477
 1231SOL    HW115329   0.439   2.926   7.712  0.6903 -2.2784 -1.0972
 1231SOL    HW215330   0.559   2.886   7.647  1.4124 -1.5326  0.9089
 1232SOL     OW15331   4.488   3.726   4.748 -0.6382 -0.2935 -0.0431
 1232SOL    HW115332   4.448   3.745   4.663  0.0152  0.3833 -0.1996
 1232SOL    HW215333   4.570   3.777   4.747  0.5818 -2.2564 -0.3588
 1233SOL     OW15334   0.780   1.399  10.923 -0.0542 -0.0495  0.2299
 1233SOL    HW115335   0.694   1.378  10.959 -0.2743  0.8302  0.2209
 1233SOL    HW215336   0.791   1.488  10.956  1.8396 -0.1910 -0.0063
 1234SOL     OW15337   4.694   3.461   5.293 -0.2244 -0.2463  0.3648
 1234SOL    HW115338   0.019   3.421   5.354 -0.6651  0.0905  1.0302
 1234SOL    HW215339   4.671   3.544   5.333 -0.5365 -0.8512  1.4382
 1235SOL     OW15340   1.251   3.522   1.865  0.6627  0.4495  0.3124
 1235SOL    HW115341   1.339   3.495   1.889  0.6164 -0.2863 -0.3583
 1235SOL    HW215342   1.278   3.600   1.817  1.4480 -0.5767 -0.8872
 1236SOL     OW15343   4.279   2.536   3.027 -0.6245  0.2299 -0.5976
 1236SOL    HW115344   4.261   2.469   2.960  1.4454  0.0119 -0.9361
 1236SOL    HW215345   4.198   2.541   3.077  1.4665  1.3643  2.6439
 1237SOL     OW15346   0.244   0.870   7.266  0.0138  0.2184  0.8189
 1237SOL    HW115347   0.279   0.879   7.354  0.7575  1.7088  0.3718
 1237SOL    HW215348   0.225   0.776   7.260  0.3398  0.2105 -0.0491
 1238SOL     OW15349   3.282   0.067   1.261  0.2434  0.3685 -0.1735
 1238SOL    HW115350   3.329   0.085   1.179  0.0454  1.7547  0.0095
 1238SOL    HW215351   3.279   4.709   1.253  0.9005  0.1303  2.5365
 1239SOL     OW15352   0.212   0.376   2.233 -0.2092 -0.0508  0.1666
 1239SOL    HW115353   0.220   0.288   2.270  1.1363  0.6941  1.6401
 1239SOL    HW215354   0.200   0.357   2.140  0.3571 -1.2489  0.3396
 1240SOL     OW15355   3.820   1.061   2.198  0.0648 -0.2859 -0.2942
 1240SOL    HW115356   3.737   1.071   2.152 -0.2207 -0.6729  0.1421
 1240SOL    HW215357   3.868   1.143   2.205  1.2247 -0.9413 -0.5394
 1241SOL     OW15358   2.869   1.008   2.592 -0.2206 -0.3658  0.3611
 1241SOL    HW115359   2.818   0.969   2.521  0.3178  2.6625 -1.6981
 1241SOL    HW215360   2.895   1.092   2.553 -1.1915  0.2671  1.0802
 1242SOL     OW15361   4.676   2.177  14.471 -0.0896 -0.1156 -0.3248
 1242SOL    HW115362   4.691   2.113  14.401 -1.1200  0.7866 -1.3646
 1242SOL    HW215363   4.599   2.140  14.515  1.7571 -0.7630  2.3140
 1243SOL     OW15364   0.760   1.038   9.661  0.0761 -0.6617  0.1461
 1243SOL    HW115365   0.724   0.988   9.734  0.8613  1.8476  2.2476
 1243SOL    HW215366   0.853   1.046   9.681 -0.3512  2.3780  0.9713
 1244SOL     OW15367   2.197   1.003   4.173  0.4284  0.2291 -0.3747
 1244SOL    HW115368   2.105   0.994   4.198  1.0858 -0.0272  2.0179
 1244SOL    HW215369   2.225   1.031   4.261  0.0286 -2.3393  0.5904
 1245SOL     OW15370   0.493   2.166   1.980 -0.0595 -0.2664 -0.0254
 1245SOL    HW115371   0.434   2.121   2.040  1.6367 -0.8488  1.2162
 1245SOL    HW215372   0.457   2.254   1.969  0.5700  0.3824  2.9614
 1246SOL     OW15373   3.685   1.043   4.196  0.0095  0.0428 -0.4300
 1246SOL    HW115374   3.644   1.088   4.122  0.6035  0.0674 -0.7467
 1246SOL    HW215375   3.748   0.984   4.154 -0.7478 -1.9734  1.3004
 1247SOL     OW15376   3.975   0.670  11.253  0.1749 -0.4480 -0.2900
 1247SOL    HW115377   3.942   0.746  11.301  1.4550 -0.6338  0.8754
 1247SOL    HW215378   3.937   0.687  11.167 -0.0581  1.5671  0.2184
 1248SOL     OW15379   0.139   1.229  12.425 -0.2809 -0.3101  0.1200
 1248SOL    HW115380   0.174   1.297  12.367 -1.7344  0.7602  0.5076
 1248SOL    HW215381   0.058   1.264  12.461 -0.1581  0.9661 -0.8545
 1249SOL     OW15382   3.684   2.331   4.361 -0.0891 -0.4389  0.4280
 1249SOL    HW115383   3.769   2.326   4.405  0.9419 -0.1302 -1.5520
 1249SOL    HW215384   3.711   2.360   4.274 -1.1931 -1.3772 -0.2234
 1250SOL     OW15385   4.422   3.791   5.078  0.0898  0.8871  0.1409
 1250SOL    HW115386   4.491   3.856   5.076 -0.6463  1.6515 -0.3424
 1250SOL    HW215387   4.434   3.754   4.990  1.4778  1.5682  0.0540
 1251SOL     OW15388   1.527   3.176   7.556  0.0568  0.1679  0.1945
 1251SOL    HW115389   1.477   3.132   7.487 -0.0588  0.0329  0.3639
 1251SOL    HW215390   1.458   3.233   7.591 -1.0133 -1.6064  1.0065
 1252SOL     OW15391   4.635   0.648   7.029 -0.4058  0.1574 -0.4240
 1252SOL    HW115392   4.548   0.684   7.016  0.9415  2.3766 -3.5328
 1252SOL    HW215393   4.654   0.660   7.122  2.2453  2.9606 -1.2968
 1253SOL     OW15394   1.881   3.754  13.442  0.4250 -0.2876 -0.0239
 1253SOL    HW115395   1.965   3.711  13.457  1.6436  2.0859  0.0527
 1253SOL    HW215396   1.902   3.846  13.458  2.4366 -1.0116  1.5482
 1254SOL     OW15397   2.301   2.882   7.808 -0.0733 -0.7243 -0.6860
 1254SOL    HW115398   2.321   2.805   7.754 -0.5920  0.1986 -2.1903
 1254SOL    HW215399   2.225   2.923   7.766 -1.1512 -1.0638  0.9544
 1255SOL     OW15400   0.322   1.754   5.910  0.5054 -0.0631  0.5460
 1255SOL    HW115401   0.280   1.749   5.996  0.6561  0.3335  0.6421
 1255SOL    HW215402   0.412   1.730   5.931  0.4112 -0.4452  0.5076
 1256SOL     OW15403   0.213   3.237  12.168 -0.0372 -0.4372  0.5201
 1256SOL    HW115404   0.196   3.283  12.251  0.7722  0.5777  0.1223
 1256SOL    HW215405   0.204   3.311  12.107 -0.3840  0.8113  2.0708
 1257SOL     OW15406   3.815   3.640   5.979 -0.1175  0.2112  0.0164
 1257SOL    HW115407   3.812   3.557   5.932  1.1628  0.7729 -1.0266
 1257SOL    HW215408   3.720   3.645   5.993  0.0573  0.5222  1.1364
 1258SOL     OW15409   3.413   1.651  17.285 -0.5345 -0.3169  0.2258
 1258SOL    HW115410   3.383   1.637  17.195 -4.0506 -0.4052  1.4224
 1258SOL    HW215411   3.492   1.598  17.281 -0.2316  0.3510 -3.4188
 1259SOL     OW15412   3.747   2.373   4.832 -0.8450 -0.8420  0.2732
 1259SOL    HW115413   3.678   2.431   4.864  0.4981  1.8345 -1.6761
 1259SOL    HW215414   3.697   2.295   4.812 -0.6407 -0.8252 -0.3024
 1260SOL     OW15415   0.883   0.385   0.724  0.2624  0.0005  0.1747
 1260SOL    HW115416   0.934   0.308   0.750  1.0011  0.7996  1.1167
 1260SOL    HW215417   0.948   0.449   0.696 -2.6450  3.3644  1.1434
 1261SOL     OW15418   3.617   0.761   7.283 -0.5645  0.0047  0.3944
 1261SOL    HW115419   3.648   0.789   7.369  0.8016 -1.1546  0.2742
 1261SOL    HW215420   3.568   0.684   7.312 -0.0273  0.2223  1.8859
 1262SOL     OW15421   1.166   1.778   8.891 -0.1671  0.1615 -0.3254
 1262SOL    HW115422   1.251   1.800   8.930 -1.0845  2.2519  0.5005
 1262SOL    HW215423   1.190   1.721   8.818 -0.8949 -0.8641  0.2279
 1263SOL     OW15424   0.600   3.086   1.377 -0.1692 -0.7577 -0.7664
 1263SOL    HW115425   0.666   3.026   1.413 -0.2615 -1.5176 -1.8631
 1263SOL    HW215426   0.531   3.020   1.373  0.7051 -1.8238  1.6774
 1264SOL     OW15427   3.189   2.039   7.721  0.2691  0.3157 -0.1075
 1264SOL    HW115428   3.168   1.946   7.715  1.1713 -0.0024  1.6737
 1264SOL    HW215429   3.283   2.050   7.708  0.6029 -0.9787  1.1982
 1265SOL     OW15430   3.296   2.508  15.168  0.0075 -0.1081 -0.3714
 1265SOL    HW115431   3.329   2.585  15.122  0.0325 -0.0606 -0.2723
 1265SOL    HW215432   3.339   2.511  15.253 -0.5843 -0.2314 -0.0688
 1266SOL     OW15433   2.692   3.862   3.799  0.3741  0.3951 -0.2172
 1266SOL    HW115434   2.720   3.797   3.864 -0.7239  0.6622  0.5331
 1266SOL    HW215435   2.610   3.820   3.770 -1.5675  2.5101  2.2003
 1267SOL     OW15436   3.585   4.368   7.482 -0.6112  0.2140  0.2722
 1267SOL    HW115437   3.630   4.374   7.398 -0.1295  1.0778  0.5801
 1267SOL    HW215438   3.493   4.384   7.463 -0.7012 -1.0312 -0.3340
 1268SOL     OW15439   0.940   0.909  13.522  0.7265 -0.3560  0.2054
 1268SOL    HW115440   0.876   0.940  13.458  0.4112 -2.4009 -0.4730
 1268SOL    HW215441   1.024   0.921  13.477  1.5369  1.7802  2.2586
 1269SOL     OW15442   0.095   1.938  12.654 -0.0126  0.1320  0.3527
 1269SOL    HW115443   0.114   1.988  12.734  0.6358  0.3555  0.0567
 1269SOL    HW215444   0.177   1.892  12.636  0.2464  1.4249 -1.7022
 1270SOL     OW15445   2.217   1.706  13.602  0.3216 -0.1368  0.1304
 1270SOL    HW115446   2.123   1.686  13.602  0.4863 -0.8990  1.2585
 1270SOL    HW215447   2.230   1.715  13.696  0.2460  1.6495 -0.0380
 1271SOL     OW15448   3.356   1.144   4.265 -0.1477  0.0575  0.2558
 1271SOL    HW115449   3.368   1.093   4.185 -2.4371 -1.0525  0.6031
 1271SOL    HW215450   3.426   1.099   4.312  1.4934  0.6711 -1.5987
 1272SOL     OW15451   2.605   4.084   3.281 -0.0894  0.1603  0.2615
 1272SOL    HW115452   2.641   4.122   3.361 -1.0836  1.5676  0.0307
 1272SOL    HW215453   2.516   4.120   3.276 -0.7250 -1.2921  1.0594
 1273SOL     OW15454   4.297   0.272  14.620  0.1823 -0.9224 -0.1804
 1273SOL    HW115455   4.272   0.198  14.566 -0.6070 -1.2494  0.6370
 1273SOL    HW215456   4.387   0.290  14.590  0.0107 -3.1244 -1.9502
 1274SOL     OW15457   1.562   4.472   7.922  0.1071  0.0898  0.0265
 1274SOL    HW115458   1.605   4.557   7.914 -2.5547  1.4402  0.1885
 1274SOL    HW215459   1.525   4.456   7.835 -1.4665  1.6545  0.4107
 1275SOL     OW15460   3.231   1.806   2.821  0.0507 -0.1154  0.1940
 1275SOL    HW115461   3.216   1.721   2.861  2.0605 -0.9689 -0.8648
 1275SOL    HW215462   3.240   1.864   2.897 -0.8577  1.1233 -0.6365
 1276SOL     OW15463   0.321   3.517   2.628 -0.0602 -0.3898  0.0900
 1276SOL    HW115464   0.278   3.545   2.547  0.6270 -0.2072 -0.2124
 1276SOL    HW215465   0.368   3.599   2.645  1.1219 -1.4603  1.9280
 1277SOL     OW15466   4.322   3.065   5.959  0.0839  0.8100  0.2227
 1277SOL    HW115467   4.407   3.035   5.991 -1.2303 -0.4099  2.4551
 1277SOL    HW215468   4.315   3.015   5.878 -0.1687 -0.8061  1.2595
 1278SOL     OW15469   3.457   0.017  11.564  0.1943 -0.7316 -0.1224
 1278SOL    HW115470   3.529   0.078  11.579  0.4060 -1.0484  0.1519
 1278SOL    HW215471   3.475   4.726  11.474  0.3129 -2.5239  0.4484
 1279SOL     OW15472   2.825   4.679  16.898 -0.3638  0.3701 -0.7210
 1279SOL    HW115473   2.739   4.717  16.918 -0.7514 -1.4311  1.1111
 1279SOL    HW215474   2.888   0.014  16.903  3.2456 -2.9548  2.1458
 1280SOL     OW15475   4.426   0.985   8.654 -0.2794  0.2483  0.4680
 1280SOL    HW115476   4.464   1.071   8.636 -0.8526  0.5434  0.6856
 1280SOL    HW215477   4.484   0.963   8.728 -0.4697  1.0520  0.8513
 1281SOL     OW15478   4.406   3.259  14.538  0.0958 -0.4701  0.2415
 1281SOL    HW115479   4.434   3.169  14.554  0.2386 -0.0693  2.1895
 1281SOL    HW215480   4.446   3.281  14.454  0.5927 -1.7536  0.1478
 1282SOL     OW15481   0.967   1.003   8.828 -0.3907 -0.1906  0.7050
 1282SOL    HW115482   0.976   1.010   8.923 -2.7418  0.9522  0.8452
 1282SOL    HW215483   0.952   1.091   8.795  1.1527  0.0671  0.6895
 1283SOL     OW15484   0.301   2.382   0.518 -0.0488 -0.3969 -0.3517
 1283SOL    HW115485   0.321   2.329   0.441  0.2642 -2.1908  0.9477
 1283SOL    HW215486   0.250   2.323   0.573 -0.7613  1.0875  0.5686
 1284SOL     OW15487   1.107   3.778   2.016  0.0296 -0.0188  0.1040
 1284SOL    HW115488   1.107   3.682   2.012 -0.2836  0.0272 -0.9627
 1284SOL    HW215489   1.196   3.797   2.046  1.1348  0.0105 -3.1901
 1285SOL     OW15490   1.696   2.429   6.255  0.0967 -0.1838  0.0358
 1285SOL    HW115491   1.685   2.421   6.350 -2.1511 -4.6788 -0.6290
 1285SOL    HW215492   1.792   2.435   6.257  0.1269  0.2516 -3.4207
 1286SOL     OW15493   3.470   3.388   2.246  0.3460 -0.2379  0.0395
 1286SOL    HW115494   3.522   3.467   2.262  0.1814  0.0788 -0.9790
 1286SOL    HW215495   3.447   3.351   2.331  1.5921 -1.4002 -0.1166
 1287SOL     OW15496   2.443   1.803   5.554  0.4922  0.2991 -0.2215
 1287SOL    HW115497   2.432   1.712   5.529  0.3323 -0.0161  0.9713
 1287SOL    HW215498   2.537   1.802   5.539  0.5823 -0.0620  0.3507
 1288SOL     OW15499   3.742   1.079   0.425  0.4816 -0.6189 -0.0009
 1288SOL    HW115500   3.760   1.047   0.336  0.2642 -1.0533  0.1117
 1288SOL    HW215501   3.711   1.169   0.411 -1.1400 -1.1430  0.1910
 1289SOL     OW15502   2.424   1.922  16.822  0.1306  0.4136  0.0588
 1289SOL    HW115503   2.371   1.844  16.807 -1.1405  1.4290 -0.7399
 1289SOL    HW215504   2.359   1.987  16.849  0.0523  0.0826  0.6936
 1290SOL     OW15505   4.724   2.246  10.951  0.0609  0.3695  0.0188
 1290SOL    HW115506   4.736   2.337  10.980 -0.2891  0.2073  0.6820
 1290SOL    HW215507   0.057   2.208  11.005 -1.4457 -1.7017  0.5389
 1291SOL     OW15508   2.388   3.079   5.954  0.6024 -0.0748 -0.1963
 1291SOL    HW115509   2.423   3.156   5.998  1.4163  0.0297 -1.0238
 1291SOL    HW215510   2.335   3.035   6.021  0.3441 -0.1021 -0.4224
 1292SOL     OW15511   2.914   3.312   7.169  0.2183  0.3502  0.0642
 1292SOL    HW115512   2.899   3.345   7.080  1.4147 -2.0037 -1.0083
 1292SOL    HW215513   2.981   3.246   7.154 -0.1487  0.5773 -2.6590
 1293SOL     OW15514   1.085   1.649   2.459 -0.2714  0.9673 -0.4706
 1293SOL    HW115515   1.069   1.740   2.435 -1.6052  1.6051  2.8568
 1293SOL    HW215516   1.181   1.649   2.459 -0.2812  4.3584  0.6842
 1294SOL     OW15517   3.931   2.608   6.304 -0.3125 -0.2922  0.2655
 1294SOL    HW115518   3.901   2.544   6.369  0.6543 -1.6662 -0.6487
 1294SOL    HW215519   3.902   2.567   6.223 -5.1490  1.1028  1.2841
 1295SOL     OW15520   3.403   0.475   6.167 -0.6813  0.1923  0.0556
 1295SOL    HW115521   3.483   0.507   6.208 -0.4757  1.8212 -1.6379
 1295SOL    HW215522   3.402   0.519   6.082 -0.4906 -1.5583 -0.8660
 1296SOL     OW15523   0.256   0.729  14.067  0.2396  0.0339 -0.6438
 1296SOL    HW115524   0.329   0.773  14.024 -0.7391  0.8295 -1.4758
 1296SOL    HW215525   0.217   0.684  13.992 -3.9284 -0.2711  1.6440
 1297SOL     OW15526   4.695   4.272  17.380  0.8844  0.0117 -0.2634
 1297SOL    HW115527   0.032   4.332  17.379  0.0654  1.0725  1.0788
 1297SOL    HW215528   4.624   4.332  17.402 -1.9036 -3.4032  0.1697
 1298SOL     OW15529   1.442   2.173  15.160  0.1429  0.0333  0.6003
 1298SOL    HW115530   1.403   2.207  15.079  0.2566 -2.5731 -0.5598
 1298SOL    HW215531   1.531   2.149  15.134  1.0173  1.1733  2.5241
 1299SOL     OW15532   0.456   1.842   5.675 -0.0852 -0.2500 -0.0847
 1299SOL    HW115533   0.379   1.819   5.726  0.4329  3.3183  2.3317
 1299SOL    HW215534   0.522   1.805   5.734  0.2031  0.1715 -0.1439
 1300SOL     OW15535   0.029   0.016   1.588  0.4141  0.3357 -0.5057
 1300SOL    HW115536   4.686   0.056   1.555  0.8007  2.1587  0.7732
 1300SOL    HW215537   0.020   0.027   1.683  1.0143 -1.3212 -0.2565
 1301SOL     OW15538   2.497   3.610   9.547 -0.0259  0.3438 -0.5552
 1301SOL    HW115539   2.428   3.660   9.505 -1.9633 -0.9912  1.0649
 1301SOL    HW215540   2.485   3.623   9.641  0.2214 -0.5742 -0.4006
 1302SOL     OW15541   1.012   1.493  16.856  0.9699 -0.2075  0.2589
 1302SOL    HW115542   1.036   1.449  16.775  0.7343 -1.7337  1.0034
 1302SOL    HW215543   1.026   1.582  16.825 -0.2961 -0.2383 -0.3863
 1303SOL     OW15544   1.195   0.136   3.108  0.1909 -0.7093  0.8352
 1303SOL    HW115545   1.204   0.182   3.025  2.3270 -1.5670  0.6094
 1303SOL    HW215546   1.243   0.192   3.169 -0.1826  0.8059 -0.2767
 1304SOL     OW15547   3.424   0.127   4.661 -0.0417 -0.1135 -0.4392
 1304SOL    HW115548   3.363   0.113   4.734  1.1500  0.3938  0.6573
 1304SOL    HW215549   3.483   0.052   4.662 -0.3713 -0.4028 -2.6944
 1305SOL     OW15550   2.644   3.978  17.105  0.1411  0.2367 -0.4066
 1305SOL    HW115551   2.648   3.905  17.166 -3.9530  0.6954  0.3775
 1305SOL    HW215552   2.722   3.960  17.052  0.8723  2.6467 -0.1659
 1306SOL     OW15553   2.093   1.133   0.016 -0.0391  0.1228  0.5613
 1306SOL    HW115554   2.055   1.107  17.679 -0.3044  0.8071  0.4628
 1306SOL    HW215555   2.109   1.052   0.063 -0.8025  0.6098  1.6675
 1307SOL     OW15556   2.937   0.617  12.036 -0.1175  0.3382 -0.7909
 1307SOL    HW115557   2.881   0.573  12.100 -0.7455  0.3832 -1.3036
 1307SOL    HW215558   3.006   0.551  12.026  0.8391  1.0048  1.4188
 1308SOL     OW15559   3.831   1.370   5.059  0.1600  0.3127 -0.1217
 1308SOL    HW115560   3.805   1.322   5.138  2.2886 -0.7299 -0.0594
 1308SOL    HW215561   3.909   1.412   5.095 -2.0244  4.2722  0.0453
 1309SOL     OW15562   2.179   3.198   7.917  0.3006 -0.5179 -0.1334
 1309SOL    HW115563   2.222   3.217   7.833 -1.5681  2.1813 -0.4840
 1309SOL    HW215564   2.252   3.161   7.967 -0.1811  0.1811  1.0887
 1310SOL     OW15565   2.059   2.212   2.192  0.1180 -1.0737  0.7033
 1310SOL    HW115566   2.073   2.184   2.283  0.3882 -1.3729  0.5716
 1310SOL    HW215567   1.968   2.241   2.198  0.4362  0.4780 -2.2706
 1311SOL     OW15568   0.472   2.358   8.996 -0.1366 -0.8071 -0.2793
 1311SOL    HW115569   0.516   2.422   8.940 -0.4362 -1.3475 -1.1229
 1311SOL    HW215570   0.546   2.333   9.052 -0.5740 -2.0679 -0.2714
 1312SOL     OW15571   1.558   0.986   9.259 -0.3498 -0.2693  0.1555
 1312SOL    HW115572   1.598   1.073   9.259  2.3776 -1.4976 -0.1172
 1312SOL    HW215573   1.537   0.979   9.166 -0.7784  2.2748  0.0607
 1313SOL     OW15574   0.551   1.426   3.276 -0.3354  0.1950  0.1434
 1313SOL    HW115575   0.477   1.382   3.317 -0.5353  0.7874  0.4173
 1313SOL    HW215576   0.587   1.456   3.360 -3.4895 -0.6471  1.7990
 1314SOL     OW15577   3.391   0.687  10.821 -0.0715 -0.1850  0.5945
 1314SOL    HW115578   3.335   0.633  10.877  0.7949 -0.9008  0.7771
 1314SOL    HW215579   3.321   0.722  10.766 -0.3788 -1.0234  0.4460
 1315SOL     OW15580   0.789   0.606   4.225 -0.6563  0.7510 -0.4671
 1315SOL    HW115581   0.798   0.578   4.134 -1.3245  0.8700 -0.5739
 1315SOL    HW215582   0.849   0.680   4.220 -1.5403  1.3620 -2.1203
 1316SOL     OW15583   1.442   3.190   3.995 -0.1585  0.6682 -0.1285
 1316SOL    HW115584   1.397   3.121   3.947  1.2168 -0.5976  0.3843
 1316SOL    HW215585   1.385   3.260   3.965  0.9671  1.8121  0.3857
 1317SOL     OW15586   4.731   2.055   3.063 -0.6424  0.5004 -0.4434
 1317SOL    HW115587   0.060   2.003   3.110  0.6572 -0.2482 -3.0579
 1317SOL    HW215588   4.724   1.995   2.988  1.2593  0.1145 -0.3326
 1318SOL     OW15589   1.461   2.749   5.984 -0.4340  0.5442  0.2786
 1318SOL    HW115590   1.512   2.671   6.005  0.4398  1.8321  2.9908
 1318SOL    HW215591   1.472   2.792   6.069  2.3993  2.3727 -1.0284
 1319SOL     OW15592   0.681   4.521   3.701 -0.2887 -0.1013 -0.2594
 1319SOL    HW115593   0.733   4.469   3.763 -0.8074 -2.2486 -1.6049
 1319SOL    HW215594   0.601   4.469   3.691 -2.6993  2.9564  2.8433
 1320SOL     OW15595   4.164   3.632   8.402 -0.3015  0.3723  0.1423
 1320SOL    HW115596   4.095   3.638   8.336 -0.5168  0.2735  0.3568
 1320SOL    HW215597   4.164   3.537   8.411 -0.9622  0.2435 -1.3270
 1321SOL     OW15598   1.464   0.561  13.179 -0.5579  0.0570 -0.1458
 1321SOL    HW115599   1.450   0.623  13.108  1.2629 -0.7703 -1.1993
 1321SOL    HW215600   1.403   0.604  13.239 -1.5661 -2.3280  0.5808
 1322SOL     OW15601   2.850   3.493  15.558  0.1917 -0.3354 -0.0981
 1322SOL    HW115602   2.881   3.581  15.576 -0.1381  0.5928 -3.9708
 1322SOL    HW215603   2.824   3.509  15.467  0.3794  1.6250  0.1953
 1323SOL     OW15604   2.111   0.475  16.236  0.4803 -0.1945  0.0962
 1323SOL    HW115605   2.146   0.488  16.148 -1.4560 -0.1719 -0.6835
 1323SOL    HW215606   2.159   0.545  16.279  0.5983 -0.4103  0.3116
 1324SOL     OW15607   0.506   0.993   9.047 -0.4421 -0.0114  0.2030
 1324SOL    HW115608   0.441   0.928   9.020  1.6609 -2.6337  1.3977
 1324SOL    HW215609   0.553   1.010   8.965 -1.0062  3.3073  0.5497
 1325SOL     OW15610   2.025   1.149   2.417  0.2694  0.2448 -0.6876
 1325SOL    HW115611   1.936   1.154   2.451  0.6016  0.8942  0.0906
 1325SOL    HW215612   2.079   1.166   2.495 -1.1801 -1.7605  0.7726
 1326SOL     OW15613   4.281   1.968   4.384  0.3649  0.0600 -0.3470
 1326SOL    HW115614   4.296   1.932   4.472 -0.2892  0.3742 -0.1092
 1326SOL    HW215615   4.211   2.033   4.392  0.3768 -0.1094  1.1892
 1327SOL     OW15616   0.508   3.397   2.189  0.6163  0.1495  0.2425
 1327SOL    HW115617   0.471   3.483   2.210  0.2665 -0.0990  0.6398
 1327SOL    HW215618   0.433   3.356   2.146 -1.9860  0.8742  4.1406
 1328SOL     OW15619   2.080   1.382   1.746 -0.1826  0.0233  0.4392
 1328SOL    HW115620   2.066   1.407   1.837  0.1778 -2.5566  1.1921
 1328SOL    HW215621   2.077   1.464   1.696  1.6334 -0.2351 -0.1176
 1329SOL     OW15622   2.402   2.885   2.210 -0.4124 -0.2587 -0.9175
 1329SOL    HW115623   2.446   2.876   2.295 -1.1235  3.4993 -0.1791
 1329SOL    HW215624   2.452   2.825   2.154 -0.3059 -0.0748 -1.0190
 1330SOL     OW15625   1.718   3.267  12.358 -0.3263  0.1469 -0.1759
 1330SOL    HW115626   1.638   3.320  12.368  1.0025  2.0086  0.7123
 1330SOL    HW215627   1.773   3.328  12.308  0.7469  0.8720  1.8829
 1331SOL     OW15628   1.301   3.324   0.572  0.7789  0.2041  0.8586
 1331SOL    HW115629   1.215   3.329   0.531  0.9528  2.9185  0.8414
 1331SOL    HW215630   1.267   3.298   0.658 -2.5736 -2.1843 -1.1704
 1332SOL     OW15631   0.978   4.650   1.101 -0.2139 -0.2922  0.3865
 1332SOL    HW115632   1.006   4.616   1.016 -2.8766 -0.9132 -0.2364
 1332SOL    HW215633   0.890   4.685   1.082  0.6697  1.7574  0.0205
 1333SOL     OW15634   0.708   4.573   0.312 -0.3754  0.1291 -0.1447
 1333SOL    HW115635   0.761   4.625   0.372 -1.3281  0.0646  0.7534
 1333SOL    HW215636   0.619   4.592   0.340 -0.0090  0.2174  0.9456
 1334SOL     OW15637   0.353   0.768  15.085 -0.6998  0.1150 -0.4198
 1334SOL    HW115638   0.440   0.775  15.046 -1.4729 -0.4047 -2.2147
 1334SOL    HW215639   0.306   0.736  15.008  1.6540  1.1926 -2.3089
 1335SOL     OW15640   2.262   3.496  11.271 -0.9729 -0.1359 -0.4633
 1335SOL    HW115641   2.312   3.541  11.340  2.1855 -1.6270 -1.7565
 1335SOL    HW215642   2.333   3.464  11.215 -1.1823 -1.5461  0.0700
 1336SOL     OW15643   2.597   2.601   2.650  0.5077  0.4407  0.2799
 1336SOL    HW115644   2.589   2.681   2.598 -2.6644 -1.6228 -2.4581
 1336SOL    HW215645   2.691   2.579   2.645  0.6014  1.6518 -3.1436
 1337SOL     OW15646   1.087   3.928   2.319 -0.1627 -0.1804 -0.0454
 1337SOL    HW115647   1.073   3.940   2.413 -3.4373  3.5934 -0.9954
 1337SOL    HW215648   1.124   4.014   2.299 -0.0457  0.2223  1.8330
 1338SOL     OW15649   3.027   4.294   5.850  0.1500  0.2184  0.1339
 1338SOL    HW115650   3.096   4.238   5.812 -0.7996 -1.2608  0.5747
 1338SOL    HW215651   2.989   4.238   5.918 -2.1654  0.1012 -1.2322
 1339SOL     OW15652   0.901   3.838   5.486 -0.3996 -0.2123 -0.0855
 1339SOL    HW115653   0.873   3.748   5.501 -0.6120 -0.1600 -0.1607
 1339SOL    HW215654   0.950   3.828   5.404 -0.5192  1.3610 -0.3592
 1340SOL     OW15655   3.668   3.483   1.825 -0.2206 -0.0724  0.4570
 1340SOL    HW115656   3.673   3.387   1.821  0.1000 -0.0596  0.5841
 1340SOL    HW215657   3.744   3.503   1.879  0.0641 -1.0650  0.4362
 1341SOL     OW15658   2.895   2.235   9.402 -0.0648 -0.3584  0.3491
 1341SOL    HW115659   2.829   2.223   9.471 -0.6694  2.8933  0.3764
 1341SOL    HW215660   2.963   2.282   9.450 -0.2938  1.4046 -1.0603
 1342SOL     OW15661   0.587   0.453   5.106 -0.4764 -0.2813  0.2499
 1342SOL    HW115662   0.637   0.533   5.123  0.0883 -0.3455 -1.1490
 1342SOL    HW215663   0.611   0.439   5.015  0.5403  0.7417  0.3496
 1343SOL     OW15664   1.065   2.048   4.271 -0.3119  0.4466  0.1747
 1343SOL    HW115665   1.149   2.027   4.231  0.5275  1.3158  1.5109
 1343SOL    HW215666   1.064   2.144   4.267  0.6490  0.4343 -0.2510
 1344SOL     OW15667   1.598   1.476  12.235 -0.5526  0.1244  0.5523
 1344SOL    HW115668   1.519   1.511  12.275  0.2653  1.1540  1.2597
 1344SOL    HW215669   1.665   1.541  12.256 -2.5682  2.4171 -0.1055
 1345SOL     OW15670   1.573   1.463  12.535  0.3004 -0.5517  0.7207
 1345SOL    HW115671   1.565   1.523  12.460  1.2161 -0.2070  0.9032
 1345SOL    HW215672   1.625   1.514  12.597  1.2756  0.0340 -0.5646
 1346SOL     OW15673   1.439   3.354  12.050  0.3422 -0.5722  0.5863
 1346SOL    HW115674   1.431   3.279  12.109  2.5276 -0.7915  0.5983
 1346SOL    HW215675   1.534   3.366  12.055  0.2890  1.1986 -2.5227
 1347SOL     OW15676   3.205   3.801   0.191  0.1198  0.1662  0.6215
 1347SOL    HW115677   3.137   3.845   0.140  2.3860  1.2466 -1.4605
 1347SOL    HW215678   3.280   3.782   0.134 -0.1468 -0.8264  0.6117
 1348SOL     OW15679   2.099   0.420   5.229 -0.4977  0.1965 -0.1258
 1348SOL    HW115680   2.004   0.429   5.231 -0.7175 -1.1887 -3.6592
 1348SOL    HW215681   2.121   0.409   5.321 -1.3014 -1.3520 -0.1163
 1349SOL     OW15682   1.302   3.734  15.794 -0.2003 -0.2506 -0.1462
 1349SOL    HW115683   1.332   3.646  15.769  0.6639 -0.3294  1.2022
 1349SOL    HW215684   1.334   3.738  15.884 -0.7406 -0.9335  0.0753
 1350SOL     OW15685   3.490   3.254   2.004 -0.2782 -0.0640  0.0744
 1350SOL    HW115686   3.488   3.313   2.079 -0.8507  0.0873 -0.0545
 1350SOL    HW215687   3.534   3.187   2.057 -2.4257 -1.2610  0.3605
 1351SOL     OW15688   3.110   3.058   0.469 -0.1229  0.2997  0.6081
 1351SOL    HW115689   3.099   2.995   0.540 -0.4043  0.7961  1.0072
 1351SOL    HW215690   3.204   3.057   0.452  0.2467 -0.7835  2.8087
 1352SOL     OW15691   1.064   1.834   3.626 -0.3783 -0.2440 -0.0358
 1352SOL    HW115692   1.079   1.740   3.638 -1.4185 -0.4558 -0.3547
 1352SOL    HW215693   1.041   1.843   3.533  1.2127  1.9570 -0.2159
 1353SOL     OW15694   0.071   4.011  17.443 -0.1978  0.2751 -0.4623
 1353SOL    HW115695   0.145   4.020  17.503 -0.1088  0.5467 -0.6170
 1353SOL    HW215696   0.049   4.101  17.418  0.4088  0.5083 -0.1471
 1354SOL     OW15697   4.725   3.178   9.220 -0.3727 -0.6945  0.1120
 1354SOL    HW115698   4.637   3.209   9.244 -1.0133 -0.8005 -2.1361
 1354SOL    HW215699   4.722   3.199   9.127  1.7435  0.5035  0.3317
 1355SOL     OW15700   1.567   2.896  12.745  0.2283  0.1481  0.0990
 1355SOL    HW115701   1.624   2.940  12.682  0.6710 -0.6279 -0.0529
 1355SOL    HW215702   1.618   2.889  12.825  0.9205 -1.5698 -0.4913
 1356SOL     OW15703   3.338   0.364   3.382 -0.1644 -0.1734  0.5056
 1356SOL    HW115704   3.383   0.375   3.298  1.7770 -2.2518  1.2965
 1356SOL    HW215705   3.410   0.323   3.429  0.6025  1.3686  0.6748
 1357SOL     OW15706   0.184   1.048  12.967 -0.0354 -0.2859  0.5096
 1357SOL    HW115707   0.137   1.006  12.895 -0.3213 -0.4332  0.7834
 1357SOL    HW215708   0.129   1.126  12.975  1.9344  1.0265  1.1986
 1358SOL     OW15709   2.124   3.664   5.860  0.9572 -0.3774 -0.2321
 1358SOL    HW115710   2.205   3.612   5.859 -0.3512 -2.3864 -1.6285
 1358SOL    HW215711   2.160   3.751   5.842  2.7330 -1.1905 -0.6441
 1359SOL     OW15712   0.016   3.512   8.658  0.1600  0.3142  0.3656
 1359SOL    HW115713   0.025   3.425   8.696  1.1572  0.5284  0.6327
 1359SOL    HW215714   0.099   3.523   8.611  0.0511  0.5694  0.2320
 1360SOL     OW15715   4.169   3.360   8.405  0.1637  0.0879  0.1249
 1360SOL    HW115716   4.194   3.323   8.320  0.1547  2.1041 -0.7389
 1360SOL    HW215717   4.084   3.320   8.427  0.4460  0.5477  2.0147
 1361SOL     OW15718   4.575   1.885   5.110  0.5636 -0.1417  0.1724
 1361SOL    HW115719   4.582   1.834   5.030 -2.6893  1.3910 -1.0971
 1361SOL    HW215720   4.518   1.957   5.086  2.5061  1.2303 -0.2932
 1362SOL     OW15721   0.652   3.184   7.192  0.3969  0.0417 -0.0230
 1362SOL    HW115722   0.641   3.250   7.125  1.6154  0.1565 -0.1239
 1362SOL    HW215723   0.638   3.098   7.151 -2.5369  0.6694 -0.3171
 1363SOL     OW15724   2.370   3.096   5.136 -0.0561  0.0476 -0.7930
 1363SOL    HW115725   2.293   3.059   5.180  0.1378  0.2936 -0.2422
 1363SOL    HW215726   2.421   3.017   5.118 -1.8592 -1.5709  1.1774
 1364SOL     OW15727   4.322   0.575   8.960 -0.0737 -0.0596  0.2530
 1364SOL    HW115728   4.251   0.525   8.921  0.9085 -1.2819  0.0383
 1364SOL    HW215729   4.374   0.585   8.880 -1.6624  1.2941 -0.6262
 1365SOL     OW15730   0.340   3.138   8.584  0.2038 -0.0033 -0.0787
 1365SOL    HW115731   0.246   3.143   8.600  0.4540  0.4536  1.2526
 1365SOL    HW215732   0.354   3.045   8.567 -1.2459 -0.3778  0.7416
 1366SOL     OW15733   2.606   3.638   8.612 -0.1648 -0.0559  1.0981
 1366SOL    HW115734   2.651   3.554   8.618  2.3190  0.9738 -3.5686
 1366SOL    HW215735   2.528   3.622   8.559  0.2443  0.6255  0.3050
 1367SOL     OW15736   4.598   1.207   5.215  0.2972  0.1021 -0.3559
 1367SOL    HW115737   4.532   1.246   5.158  1.6565  1.2932 -1.1280
 1367SOL    HW215738   4.548   1.130   5.242 -2.7212  1.5611 -1.7588
 1368SOL     OW15739   4.422   0.864   6.711  0.1089 -0.7940  0.1552
 1368SOL    HW115740   4.438   0.913   6.630  0.9325  1.4410  1.6678
 1368SOL    HW215741   4.484   0.791   6.704  0.9603 -0.1955  1.4705
 1369SOL     OW15742   0.222   2.684   6.753 -0.2717 -0.1323 -0.2425
 1369SOL    HW115743   0.200   2.642   6.836  1.5211 -1.3059 -0.3774
 1369SOL    HW215744   0.141   2.736   6.749  0.2995  0.9290  2.3792
 1370SOL     OW15745   3.553   0.356  14.236 -0.3181  0.1237 -0.5281
 1370SOL    HW115746   3.599   0.403  14.167 -0.8946 -1.2434 -1.8390
 1370SOL    HW215747   3.464   0.391  14.235  0.3893  1.8831 -2.5199
 1371SOL     OW15748   0.231   2.691   9.159 -0.2808 -0.0317  0.0609
 1371SOL    HW115749   0.223   2.596   9.149  0.8632 -0.0942 -0.3810
 1371SOL    HW215750   0.244   2.716   9.067  2.4707 -3.2747 -0.4091
 1372SOL     OW15751   1.611   1.193   4.458 -0.7791  0.7779  0.1229
 1372SOL    HW115752   1.568   1.154   4.381 -0.0542  0.9306 -0.3600
 1372SOL    HW215753   1.693   1.221   4.416  1.1829 -2.7598  1.6083
 1373SOL     OW15754   3.059   1.808  13.421 -0.5910  0.3803 -0.1404
 1373SOL    HW115755   3.050   1.712  13.414  1.3629  0.1385  0.8115
 1373SOL    HW215756   2.967   1.821  13.397 -0.9281 -0.8419  0.4526
 1374SOL     OW15757   3.667   1.524   4.917 -0.2928  0.2961  0.1328
 1374SOL    HW115758   3.722   1.474   4.977 -1.0904  0.4112  0.9565
 1374SOL    HW215759   3.702   1.518   4.828 -0.8585 -0.2730 -0.0558
 1375SOL     OW15760   3.031   0.643   4.393 -0.0153  0.0798  0.3013
 1375SOL    HW115761   3.095   0.592   4.343 -0.2417 -1.4349  1.5533
 1375SOL    HW215762   3.092   0.713   4.416  0.3389 -0.3756  0.7681
 1376SOL     OW15763   4.464   1.560  12.131  0.4778 -0.3991  0.0585
 1376SOL    HW115764   4.398   1.620  12.097 -0.2412 -0.8638  0.6360
 1376SOL    HW215765   4.529   1.620  12.169  1.8683 -1.2241 -0.9771
 1377SOL     OW15766   1.944   1.179   7.051  0.0009  0.5740 -0.6757
 1377SOL    HW115767   1.923   1.258   7.102  2.6746  1.0748 -0.3382
 1377SOL    HW215768   1.861   1.155   7.011 -1.8243  4.7361  0.5336
 1378SOL     OW15769   0.985   1.419  14.652  0.3133 -0.0537  0.4606
 1378SOL    HW115770   1.076   1.423  14.680  1.2383 -0.1832 -2.4786
 1378SOL    HW215771   0.936   1.435  14.732 -0.1337  3.2621 -0.4982
 1379SOL     OW15772   2.320   3.832   9.899  0.1883 -0.3119 -0.3810
 1379SOL    HW115773   2.238   3.799   9.935  1.2302 -0.4501  1.8854
 1379SOL    HW215774   2.347   3.774   9.827 -1.0716  0.1949 -1.2592
 1380SOL     OW15775   2.071   4.567   4.961  0.2715  0.7295  0.2026
 1380SOL    HW115776   2.055   4.583   5.054 -0.3178  1.5042 -0.0269
 1380SOL    HW215777   2.021   4.639   4.922 -0.0743  1.2372  1.5772
 1381SOL     OW15778   2.638   0.040  10.608 -0.3902 -0.5543 -0.0404
 1381SOL    HW115779   2.552   0.002  10.623 -0.8293  0.1771 -0.7004
 1381SOL    HW215780   2.695   4.710  10.569 -2.0374 -1.3869 -0.9940
 1382SOL     OW15781   1.413   0.184   4.954 -0.3700  0.0422  0.4095
 1382SOL    HW115782   1.324   0.151   4.967 -0.1338 -0.9459 -0.5348
 1382SOL    HW215783   1.397   0.278   4.958 -0.4736 -0.0563  2.4609
 1383SOL     OW15784   0.439   0.994   7.946  0.2268 -0.3463 -0.2755
 1383SOL    HW115785   0.477   0.913   7.981  0.2953 -0.4334 -0.5539
 1383SOL    HW215786   0.368   1.002   8.009 -0.3392 -0.6025 -0.8876
 1384SOL     OW15787   0.804   2.491   7.713 -0.2675 -0.4544 -0.0751
 1384SOL    HW115788   0.792   2.504   7.807  0.6196 -0.2259  0.0106
 1384SOL    HW215789   0.713   2.489   7.684 -0.1538 -1.2765 -0.3685
 1385SOL     OW15790   0.397   4.390   1.851 -0.2646 -0.1231  0.5169
 1385SOL    HW115791   0.484   4.373   1.889  0.3906 -0.1329 -0.9947
 1385SOL    HW215792   0.345   4.318   1.889 -1.0439  0.0841 -0.1608
 1386SOL     OW15793   2.809   1.058   4.408 -0.2666  0.3163 -0.0131
 1386SOL    HW115794   2.903   1.060   4.386 -0.1202 -2.5908  0.3775
 1386SOL    HW215795   2.806   1.144   4.450  0.4653  0.0708  0.5400
 1387SOL     OW15796   3.360   3.083   4.395  0.4182 -0.0266  0.3411
 1387SOL    HW115797   3.386   3.152   4.456 -2.0710 -0.0942  1.4738
 1387SOL    HW215798   3.422   3.010   4.405  0.2578 -0.2774 -0.5011
 1388SOL     OW15799   3.803   0.650   1.324 -0.1316  0.1413  0.2836
 1388SOL    HW115800   3.881   0.626   1.274 -0.4307 -0.7343  0.2534
 1388SOL    HW215801   3.807   0.746   1.327  0.1684  0.1298  0.3138
 1389SOL     OW15802   2.014   1.937  16.897 -0.0690 -0.8068  0.4679
 1389SOL    HW115803   2.080   2.003  16.878 -0.6427 -0.0003  1.2391
 1389SOL    HW215804   1.935   1.984  16.869  0.6933 -1.0533 -2.0989
 1390SOL     OW15805   1.207   1.177   4.554  0.1851  0.3326  0.5451
 1390SOL    HW115806   1.228   1.246   4.618  0.6426 -0.7139  1.5184
 1390SOL    HW215807   1.208   1.228   4.473  0.4658  0.1724  0.4491
 1391SOL     OW15808   4.095   3.233   5.577 -0.2092  0.2387  0.1677
 1391SOL    HW115809   4.167   3.276   5.624  0.4416  1.4884 -1.9611
 1391SOL    HW215810   4.032   3.301   5.554  1.8833  1.7946 -0.9819
 1392SOL     OW15811   1.328   3.743   1.728 -0.2065 -0.2872 -0.1426
 1392SOL    HW115812   1.422   3.754   1.714 -0.1144  0.2353  0.8953
 1392SOL    HW215813   1.306   3.824   1.776  0.1237 -1.3729  1.8473
 1393SOL     OW15814   1.686   0.615  16.845 -0.0305 -1.1327 -0.8096
 1393SOL    HW115815   1.627   0.646  16.776  1.1673  2.5250 -0.1848
 1393SOL    HW215816   1.694   0.693  16.900 -0.9264 -1.5166 -0.1350
 1394SOL     OW15817   3.929   3.739  14.887 -0.3278 -0.3589 -0.4735
 1394SOL    HW115818   3.834   3.744  14.900 -0.0341  0.4053  1.3834
 1394SOL    HW215819   3.962   3.768  14.972 -0.0680 -0.3742 -0.5669
 1395SOL     OW15820   0.863   4.062   6.939 -0.0671 -0.2091 -0.3141
 1395SOL    HW115821   0.884   4.067   7.032 -1.7125  0.6657  0.0183
 1395SOL    HW215822   0.849   4.153   6.915  1.6274  0.1921  0.2415
 1396SOL     OW15823   0.654   1.907  17.722 -0.1834  0.2799 -0.7761
 1396SOL    HW115824   0.738   1.882   0.014  0.1527 -0.2138 -1.8201
 1396SOL    HW215825   0.660   2.003  17.725 -2.3890  0.3810  0.2940
 1397SOL     OW15826   1.720   1.676   4.686 -0.0754 -0.0944 -0.3162
 1397SOL    HW115827   1.724   1.767   4.717 -1.3191 -0.6018  1.3686
 1397SOL    HW215828   1.696   1.694   4.595 -2.2797 -2.6536 -0.2553
 1398SOL     OW15829   3.013   4.365   6.718 -0.4047 -0.1960 -0.4646
 1398SOL    HW115830   3.030   4.290   6.774  2.4009  2.3183  2.0802
 1398SOL    HW215831   3.019   4.321   6.634 -0.7360 -0.4212 -0.3707
 1399SOL     OW15832   0.020   2.847   7.191  0.2270 -0.5488 -0.2060
 1399SOL    HW115833   0.004   2.855   7.096  0.9619  0.4879 -0.2434
 1399SOL    HW215834   0.101   2.798   7.200  0.5402 -0.0701 -0.4069
 1400SOL     OW15835   1.385   3.588   7.609  0.1950 -0.1723  0.1278
 1400SOL    HW115836   1.474   3.586   7.645 -0.5171 -2.4670  1.7873
 1400SOL    HW215837   1.403   3.629   7.525 -0.0232 -1.3414 -0.4914
 1401SOL     OW15838   2.585   3.802   7.638 -0.0996 -0.0555 -0.1115
 1401SOL    HW115839   2.633   3.719   7.638  0.7537  0.4377 -0.1156
 1401SOL    HW215840   2.613   3.834   7.552 -2.1705  0.1991 -0.6681
 1402SOL     OW15841   3.988   0.012   1.542 -0.2012 -0.0094  0.1151
 1402SOL    HW115842   4.040   4.668   1.544 -0.1900 -0.0284 -1.1621
 1402SOL    HW215843   4.019   0.059   1.465 -0.2985  1.2276  0.8401
 1403SOL     OW15844   1.397   4.171   6.238 -0.6609 -0.0058 -0.3630
 1403SOL    HW115845   1.446   4.109   6.183  0.7886  1.3819 -0.6562
 1403SOL    HW215846   1.315   4.167   6.188  0.3701 -2.1492 -1.9046
 1404SOL     OW15847   3.003   3.273   6.411  0.3955 -0.0144 -0.4771
 1404SOL    HW115848   2.957   3.258   6.328  0.8631 -4.5222  0.0565
 1404SOL    HW215849   3.014   3.181   6.437  0.5856  0.0958 -0.1731
 1405SOL     OW15850   0.025   0.228  12.007 -0.0257  0.6583 -0.3618
 1405SOL    HW115851   0.097   0.288  12.026 -0.2956  0.4644  1.2845
 1405SOL    HW215852   4.685   0.279  12.030 -0.7100 -1.0824  1.2017
 1406SOL     OW15853   2.850   2.824   4.967  0.7176 -0.4687 -0.4562
 1406SOL    HW115854   2.901   2.797   4.891  1.9151  2.9388 -0.8877
 1406SOL    HW215855   2.857   2.920   4.960 -1.1881 -0.4478 -1.9993
 1407SOL     OW15856   3.717   0.907   5.789  0.0301 -0.1175  0.1513
 1407SOL    HW115857   3.714   0.839   5.856  1.0254 -0.9596 -0.6557
 1407SOL    HW215858   3.625   0.932   5.797 -1.2526 -4.2874 -1.5171
 1408SOL     OW15859   2.252   1.689   7.786  0.2260  0.2251  0.1337
 1408SOL    HW115860   2.223   1.778   7.765 -3.1441 -0.6853  0.8683
 1408SOL    HW215861   2.225   1.689   7.878 -0.4067  0.6033 -0.0527
 1409SOL     OW15862   3.789   1.836   4.329  0.3091  0.2160  0.3578
 1409SOL    HW115863   3.702   1.820   4.365  0.3110  0.1996  0.3554
 1409SOL    HW215864   3.778   1.782   4.250 -1.6263  0.6765  0.3158
 1410SOL     OW15865   1.125   3.024   5.957  0.3741 -0.5051  0.1994
 1410SOL    HW115866   1.143   2.934   5.929  0.5983 -0.4978  0.3159
 1410SOL    HW215867   1.189   3.076   5.909 -0.1874 -0.2029 -0.2144
 1411SOL     OW15868   2.356   3.384   2.543  0.9486 -0.0932 -0.2433
 1411SOL    HW115869   2.423   3.452   2.545 -0.2750  1.1514 -2.3486
 1411SOL    HW215870   2.339   3.382   2.449 -1.1624  0.1199  0.1386
 1412SOL     OW15871   2.448   1.109   5.845  0.0446 -0.3075 -0.3652
 1412SOL    HW115872   2.510   1.141   5.780  1.2464  1.0244  1.4277
 1412SOL    HW215873   2.391   1.057   5.788 -0.1716 -0.6509  0.1616
 1413SOL     OW15874   4.709   3.820   5.066  0.0579 -0.0700  0.5929
 1413SOL    HW115875   4.729   3.881   4.995  2.4145 -0.2439  1.0990
 1413SOL    HW215876   0.035   3.755   5.035  0.2966  0.5105 -0.1304
 1414SOL     OW15877   3.793   3.108   0.523 -0.1900 -0.5309  0.4798
 1414SOL    HW115878   3.764   3.025   0.486 -0.8463 -0.6682  1.3027
 1414SOL    HW215879   3.714   3.139   0.567 -0.3225 -1.0327  0.5976
 1415SOL     OW15880   1.154   2.017   9.107  0.4446 -0.1884  0.1816
 1415SOL    HW115881   1.084   2.017   9.041  1.1130  1.6554 -0.5167
 1415SOL    HW215882   1.228   2.022   9.046 -0.0655 -3.8585 -0.7741
 1416SOL     OW15883   3.411   3.766   7.701  0.3253 -0.4766 -0.2631
 1416SOL    HW115884   3.464   3.687   7.698 -1.0164 -1.3703 -0.1018
 1416SOL    HW215885   3.412   3.788   7.794  1.3586 -0.1481 -0.3517
 1417SOL     OW15886   1.819   3.566   8.810  0.4148  0.3867  0.4288
 1417SOL    HW115887   1.759   3.620   8.758  1.7873 -0.5081 -2.0574
 1417SOL    HW215888   1.902   3.595   8.774 -0.7654  0.9463 -1.8351
 1418SOL     OW15889   0.755   2.434   7.980  0.1171 -0.0261 -0.0807
 1418SOL    HW115890   0.661   2.421   7.987  0.3134 -1.2856  0.1113
 1418SOL    HW215891   0.785   2.451   8.069 -1.3561 -1.2167  0.6307
 1419SOL     OW15892   2.779   0.476   9.897  0.2545 -0.4051  0.5507
 1419SOL    HW115893   2.708   0.411   9.901  0.2103 -0.2991  1.4008
 1419SOL    HW215894   2.798   0.483   9.991  3.0388 -2.3719  0.1542
 1420SOL     OW15895   2.296   1.418   1.950  0.5159 -0.0089  0.9136
 1420SOL    HW115896   2.300   1.501   1.904 -2.7294 -0.2164  0.2456
 1420SOL    HW215897   2.335   1.445   2.033 -1.5674 -3.0731  2.9080
 1421SOL     OW15898   3.366   2.008  10.499 -0.3013 -0.2893 -0.4286
 1421SOL    HW115899   3.399   2.029  10.587 -0.7230  1.4585 -0.6888
 1421SOL    HW215900   3.394   1.917  10.488 -0.8942 -0.5699  0.3680
 1422SOL     OW15901   0.536   3.606  13.592 -0.2768 -0.1706 -0.0976
 1422SOL    HW115902   0.487   3.548  13.651 -2.3615  1.7548  0.0608
 1422SOL    HW215903   0.463   3.638  13.539  1.0876  2.1320 -0.5704
 1423SOL     OW15904   3.444   2.410   7.330  0.2666 -1.0768 -0.6183
 1423SOL    HW115905   3.445   2.433   7.238 -1.8758  2.2324  0.2201
 1423SOL    HW215906   3.479   2.321   7.321  1.9522 -0.1818 -2.9378
 1424SOL     OW15907   4.082   1.145   8.602  0.0024 -0.2089  0.4231
 1424SOL    HW115908   4.016   1.091   8.559  2.1615 -1.8440 -0.8682
 1424SOL    HW215909   4.090   1.217   8.540 -2.5722  0.0632  0.4327
 1425SOL     OW15910   0.667   4.668   3.091  0.1934 -0.2807  0.4573
 1425SOL    HW115911   0.746   4.665   3.146  0.9467 -2.7559 -0.7751
 1425SOL    HW215912   0.698   4.606   3.025 -1.4412 -0.8688  0.2384
 1426SOL     OW15913   1.664   4.165   4.828 -0.2639  0.0443  0.8385
 1426SOL    HW115914   1.609   4.112   4.886 -1.7141 -0.4034 -0.9519
 1426SOL    HW215915   1.748   4.149   4.871 -1.7293 -1.5935  3.0899
 1427SOL     OW15916   0.190   3.588   3.358 -0.1270 -0.4608  0.2100
 1427SOL    HW115917   0.233   3.631   3.432  1.1616 -1.5360  0.0922
 1427SOL    HW215918   0.120   3.535   3.397 -0.3539  1.7926  2.8457
 1428SOL     OW15919   1.893   0.562   8.640 -0.4857  0.0715  0.7193
 1428SOL    HW115920   1.862   0.472   8.632  2.7986 -0.9202 -0.9854
 1428SOL    HW215921   1.970   0.544   8.694 -0.2656 -2.1372 -0.3310
 1429SOL     OW15922   1.927   1.970   2.450 -0.4352  0.1594  0.1546
 1429SOL    HW115923   1.896   2.007   2.533 -1.4387  0.8088 -0.5218
 1429SOL    HW215924   1.839   1.933   2.438 -0.8417  1.1973 -0.0570
 1430SOL     OW15925   2.177   3.165   6.562  0.6491 -0.2327 -0.3803
 1430SOL    HW115926   2.192   3.184   6.470 -2.6809  1.0496 -0.6721
 1430SOL    HW215927   2.127   3.085   6.545 -0.3010  0.5563 -1.2654
 1431SOL     OW15928   1.128   1.239   9.320 -0.6197  0.2046 -0.0427
 1431SOL    HW115929   1.212   1.218   9.361 -0.9537  0.5440  0.8295
 1431SOL    HW215930   1.071   1.194   9.383  1.6064  0.6192  2.2913
 1432SOL     OW15931   3.387   2.616   2.937  0.4655 -0.0157 -0.1824
 1432SOL    HW115932   3.470   2.663   2.947  1.3333 -1.4347 -0.7667
 1432SOL    HW215933   3.324   2.642   3.005 -0.9611  0.1203 -1.5677
 1433SOL     OW15934   0.250   2.426   9.125  0.1155 -0.1246  0.3399
 1433SOL    HW115935   0.213   2.338   9.132  0.0630 -0.0793  0.6156
 1433SOL    HW215936   0.339   2.410   9.091  0.2654  0.5392  0.4165
 1434SOL     OW15937   3.782   1.724   8.538  0.1573 -0.0822  0.5400
 1434SOL    HW115938   3.740   1.707   8.454  0.1477 -0.4369  0.6168
 1434SOL    HW215939   3.865   1.757   8.505 -0.9496  2.8907  0.7590
 1435SOL     OW15940   4.083   4.097   4.261 -0.1996  0.1629 -0.7140
 1435SOL    HW115941   4.107   4.016   4.305  1.0500  0.4875 -0.8079
 1435SOL    HW215942   4.162   4.113   4.209 -0.2661  1.2173 -0.4949
 1436SOL     OW15943   3.100   1.752   7.709  0.0194 -0.2895 -0.3220
 1436SOL    HW115944   3.120   1.718   7.796  1.3430 -4.0131 -2.0435
 1436SOL    HW215945   3.075   1.676   7.656  1.4322  0.1795 -1.6665
 1437SOL     OW15946   2.778   1.919   3.123  0.4432  0.3512 -0.3766
 1437SOL    HW115947   2.726   1.842   3.146  1.0885  0.4244  1.3049
 1437SOL    HW215948   2.859   1.888   3.083  0.3218  0.6361 -0.8528
 1438SOL     OW15949   3.582   1.483   6.056  0.2317 -0.2006  0.0179
 1438SOL    HW115950   3.654   1.518   6.003  0.0335  0.6818  0.3288
 1438SOL    HW215951   3.515   1.491   5.987  1.8368  5.0424 -0.9644
 1439SOL     OW15952   0.537   2.506   4.471  0.2752 -0.7515  0.5283
 1439SOL    HW115953   0.530   2.427   4.525 -0.9224  0.6255  2.3969
 1439SOL    HW215954   0.446   2.529   4.456  0.2708 -0.5340  0.8843
 1440SOL     OW15955   0.012   2.990   0.927  0.7076 -0.5826  0.1535
 1440SOL    HW115956   0.107   2.982   0.924  0.5992 -1.1376 -1.8513
 1440SOL    HW215957   4.733   2.940   1.007 -2.1839  1.6634  0.9771
 1441SOL     OW15958   0.469   1.039   1.945 -0.0076  0.5645  0.2274
 1441SOL    HW115959   0.442   1.077   2.029 -1.7592  0.6935 -0.3953
 1441SOL    HW215960   0.395   1.066   1.891 -0.2503 -0.6501 -0.0547
 1442SOL     OW15961   3.911   0.460  10.462  0.0320 -0.7495  0.5694
 1442SOL    HW115962   3.892   0.370  10.437 -0.3888 -0.6996  0.7189
 1442SOL    HW215963   3.866   0.508  10.393  0.1424 -0.7456  0.4990
 1443SOL     OW15964   0.732   4.109   3.771  0.0052  0.0948 -0.3366
 1443SOL    HW115965   0.820   4.135   3.801  0.6920 -0.6442 -1.7237
 1443SOL    HW215966   0.718   4.031   3.825 -0.2217 -0.5941 -1.4038
 1444SOL     OW15967   1.413   3.264  16.340 -0.3148 -0.5072  0.3321
 1444SOL    HW115968   1.388   3.218  16.419 -1.3624  1.6231  1.2423
 1444SOL    HW215969   1.468   3.195  16.303 -0.2230  0.5094 -1.4738
 1445SOL     OW15970   1.556   1.100  17.635 -0.9007  0.3158 -0.2230
 1445SOL    HW115971   1.616   1.135  17.701  0.4335  0.5878 -1.5585
 1445SOL    HW215972   1.485   1.165  17.639 -0.9946  0.1338  0.9060
 1446SOL     OW15973   4.665   1.358  15.812  0.1573  0.0634 -0.0528
 1446SOL    HW115974   0.019   1.384  15.807  0.2954 -0.8132 -2.1168
 1446SOL    HW215975   4.680   1.265  15.794 -0.5124  0.1258 -0.9610
 1447SOL     OW15976   2.824   0.011   2.286 -0.9913 -0.1739 -0.7775
 1447SOL    HW115977   2.741   0.054   2.308 -1.1583 -0.4077 -0.9415
 1447SOL    HW215978   2.878   0.037   2.361 -1.7080  0.2217 -0.3960
 1448SOL     OW15979   3.133   0.362   7.760 -0.0016  0.1495  0.4786
 1448SOL    HW115980   3.204   0.384   7.820  1.3957  0.3050 -1.2351
 1448SOL    HW215981   3.174   0.362   7.674 -2.0645 -0.4272 -0.5171
 1449SOL     OW15982   1.093   2.360   6.654 -0.1739  1.0165  0.6341
 1449SOL    HW115983   1.183   2.391   6.641  0.4267 -0.9546  0.0782
 1449SOL    HW215984   1.053   2.445   6.675  1.7531  1.9489  0.5993
 1450SOL     OW15985   3.371   3.636  13.486  0.4053 -0.3816  0.2165
 1450SOL    HW115986   3.455   3.675  13.462 -0.2333 -0.2805 -1.7782
 1450SOL    HW215987   3.354   3.680  13.570 -0.4599 -0.2893 -0.0096
 1451SOL     OW15988   4.692   2.251   7.257  0.0712 -0.1295 -0.2570
 1451SOL    HW115989   4.704   2.184   7.190 -0.3981 -3.4195  2.9598
 1451SOL    HW215990   0.024   2.233   7.321 -1.5033 -1.2325  1.1478
 1452SOL     OW15991   2.020   1.522   1.512 -0.0372 -0.3889  0.2343
 1452SOL    HW115992   2.113   1.531   1.532 -0.1172  1.7577 -0.3748
 1452SOL    HW215993   1.990   1.613   1.511  1.9363  0.2802  1.8126
 1453SOL     OW15994   0.482   0.454   6.307 -0.2132  0.5753  0.4314
 1453SOL    HW115995   0.445   0.541   6.291  2.4368  1.2764 -1.8974
 1453SOL    HW215996   0.435   0.398   6.245 -0.5941  1.0055  0.3312
 1454SOL     OW15997   0.083   3.835   4.187  0.2474 -0.5659  0.6052
 1454SOL    HW115998   0.104   3.781   4.111  0.3012 -1.1715  1.0538
 1454SOL    HW215999   0.133   3.791   4.256  1.6252  2.3704  1.4721
 1455SOL     OW16000   0.309   1.095  12.615  0.2028  0.1825  0.1448
 1455SOL    HW116001   0.234   1.036  12.617 -1.0904  1.7402 -1.5417
 1455SOL    HW216002   0.267   1.168  12.568  0.1132  1.3630  2.0781
 1456SOL     OW16003   3.541   4.544  13.633 -0.0755 -0.7241  0.2239
 1456SOL    HW116004   3.635   4.555  13.641 -0.4562 -0.0616  3.6860
 1456SOL    HW216005   3.514   4.619  13.687 -0.2177  0.1870 -1.1004
 1457SOL     OW16006   4.683   2.129   2.268  0.7163  0.3437 -0.2194
 1457SOL    HW116007   0.000   2.051   2.281 -0.9694 -0.7218  0.3731
 1457SOL    HW216008   0.011   2.196   2.247  1.8373 -0.2965  1.1996
 1458SOL     OW16009   2.776   2.722  16.819 -0.2781 -0.7523 -0.3054
 1458SOL    HW116010   2.812   2.743  16.732 -2.0483  1.9991 -0.3661
 1458SOL    HW216011   2.707   2.658  16.804  0.0105 -1.4073  1.1180
 1459SOL     OW16012   3.066   2.751  16.090  0.6991  0.9710  0.4341
 1459SOL    HW116013   2.991   2.703  16.124  1.2205 -0.8543 -1.0451
 1459SOL    HW216014   3.037   2.839  16.116 -1.8198  0.4609 -0.6863
 1460SOL     OW16015   1.536   1.467   1.528 -0.1324 -0.1893  0.5115
 1460SOL    HW116016   1.558   1.550   1.486 -0.2266 -0.2005  0.4404
 1460SOL    HW216017   1.622   1.430   1.547 -0.5238 -3.1353 -3.5522
 1461SOL     OW16018   4.265   3.439   4.541 -0.3616 -0.2776  0.0915
 1461SOL    HW116019   4.262   3.387   4.622 -2.1395 -0.4001 -0.0489
 1461SOL    HW216020   4.313   3.518   4.564  0.4742 -0.7330 -0.0906
 1462SOL     OW16021   2.349   0.718  12.664  0.3827 -0.3620 -0.5709
 1462SOL    HW116022   2.443   0.731  12.649  0.7272  1.0203  2.7876
 1462SOL    HW216023   2.328   0.652  12.599 -1.1352  0.0471 -0.5002
 1463SOL     OW16024   2.019   0.978   7.242  0.0568 -0.6228  0.1612
 1463SOL    HW116025   2.005   1.044   7.174  0.7294  0.6984  1.3091
 1463SOL    HW216026   2.114   0.971   7.238 -0.2195 -2.6573 -2.9462
 1464SOL     OW16027   1.499   3.727   8.299  0.4287 -0.5635 -0.2741
 1464SOL    HW116028   1.568   3.678   8.346 -0.0120 -1.7481 -0.8546
 1464SOL    HW216029   1.465   3.651   8.253 -1.3106  0.5140 -0.7315
 1465SOL     OW16030   0.120   0.843   3.528 -0.0221 -0.2110 -0.8963
 1465SOL    HW116031   0.185   0.773   3.535 -0.8024 -0.6568  1.8927
 1465SOL    HW216032   0.037   0.801   3.551 -0.4444  0.7082 -0.7105
 1466SOL     OW16033   0.001   4.078   1.696  0.3177 -0.1269  0.1995
 1466SOL    HW116034   0.072   4.014   1.701  0.2691  0.0183  2.4526
 1466SOL    HW216035   0.041   4.131   1.765  4.0270 -1.7887 -0.6703
 1467SOL     OW16036   3.444   3.048   6.068 -0.1154  0.4289 -0.4862
 1467SOL    HW116037   3.497   3.010   6.138  1.4461  0.6824 -1.5360
 1467SOL    HW216038   3.489   2.995   6.003  1.2169  1.1160 -0.1159
 1468SOL     OW16039   0.519   0.243   6.549 -0.1331  0.2150  0.1515
 1468SOL    HW116040   0.468   0.299   6.491 -0.1333  1.7438  1.6567
 1468SOL    HW216041   0.549   0.305   6.615 -1.7829  0.7968  0.3427
 1469SOL     OW16042   0.591   2.519   2.959  0.5046  0.4012  0.0944
 1469SOL    HW116043   0.644   2.524   3.039 -0.7409 -2.1192  1.0864
 1469SOL    HW216044   0.576   2.613   2.953  1.6370  0.4676 -1.6008
 1470SOL     OW16045   1.621   3.861   2.430 -0.0265  0.5681 -0.0446
 1470SOL    HW116046   1.534   3.824   2.416 -0.0336  0.8108 -0.6239
 1470SOL    HW216047   1.603   3.921   2.502  0.5921  0.1898  0.4265
 1471SOL     OW16048   0.421   2.264   5.723  0.2478  0.1256 -0.6511
 1471SOL    HW116049   0.507   2.276   5.763  0.4396  1.7740 -1.5665
 1471SOL    HW216050   0.369   2.221   5.791 -1.5434  1.1998 -1.3332
 1472SOL     OW16051   4.414   4.644  11.549 -0.6211  0.0878 -0.5956
 1472SOL    HW116052   4.453   4.557  11.536 -0.1966 -0.0927  1.7811
 1472SOL    HW216053   4.458   4.698  11.484 -3.1536  0.3324 -2.0880
 1473SOL     OW16054   1.512   3.457  12.418  0.8868 -0.3478  0.2073
 1473SOL    HW116055   1.419   3.458  12.443  1.2169  0.5516  1.3728
 1473SOL    HW216056   1.511   3.545  12.381  0.9005 -0.6067 -0.4201
 1474SOL     OW16057   4.311   3.513  16.182  0.1915  0.1545  0.3024
 1474SOL    HW116058   4.292   3.484  16.271  1.4598  0.7816  0.7704
 1474SOL    HW216059   4.230   3.561  16.165  0.3260  0.2812  0.0183
 1475SOL     OW16060   1.142   0.832   6.676 -0.1882 -0.7450 -0.0981
 1475SOL    HW116061   1.108   0.867   6.594  2.4034  2.2999  0.1350
 1475SOL    HW216062   1.060   0.831   6.725 -0.7422  1.0612 -1.0008
 1476SOL     OW16063   0.550   0.527   4.332 -0.4672 -0.1107  0.2585
 1476SOL    HW116064   0.528   0.442   4.295  2.0941  0.0766 -1.6801
 1476SOL    HW216065   0.642   0.535   4.309 -0.7938 -1.3211 -1.4721
 1477SOL     OW16066   0.364   0.464   4.786 -0.3982  0.6975  0.3604
 1477SOL    HW116067   0.431   0.511   4.738 -0.0702 -0.5804 -0.4290
 1477SOL    HW216068   0.305   0.535   4.811 -1.8513 -0.4001  0.0229
 1478SOL     OW16069   2.746   4.513   2.637  0.4220 -0.1199 -0.1125
 1478SOL    HW116070   2.792   4.511   2.552  1.5096  0.0834  0.4634
 1478SOL    HW216071   2.656   4.504   2.606  0.8065 -1.4949 -0.8178
 1479SOL     OW16072   2.127   3.641   9.071  0.4652  0.3689 -0.0419
 1479SOL    HW116073   2.045   3.592   9.067  1.3390 -1.0746 -0.1458
 1479SOL    HW216074   2.137   3.658   8.977  1.6892 -2.0169 -0.3271
 1480SOL     OW16075   1.788   1.951   5.982 -0.7224 -0.0278  0.4500
 1480SOL    HW116076   1.850   1.988   5.919 -0.0010 -0.9691  0.5979
 1480SOL    HW216077   1.819   1.969   6.071  1.5644 -2.7805  0.2414
 1481SOL     OW16078   2.995   0.362  13.805  0.5835  0.1343  0.2984
 1481SOL    HW116079   2.977   0.279  13.761  1.3216  0.1610 -0.0521
 1481SOL    HW216080   2.915   0.372  13.857 -0.4009 -0.7245 -1.0578
 1482SOL     OW16081   3.594   3.837  17.404 -0.4045  0.2172  0.4258
 1482SOL    HW116082   3.628   3.915  17.360 -1.7335  0.2429 -0.5517
 1482SOL    HW216083   3.524   3.881  17.454 -0.2485 -0.3771  1.1756
 1483SOL     OW16084   2.243   0.949   6.599  0.1136 -0.2348  0.3292
 1483SOL    HW116085   2.252   1.028   6.545  0.4384 -1.7877 -1.9207
 1483SOL    HW216086   2.256   0.880   6.534  0.3534 -0.5592  0.7223
 1484SOL     OW16087   1.305   1.347   8.858 -0.1792 -0.1975 -0.1129
 1484SOL    HW116088   1.283   1.262   8.896  0.4424 -1.1600 -1.9154
 1484SOL    HW216089   1.333   1.332   8.768 -1.8939 -1.2663 -0.4784
 1485SOL     OW16090   0.364   3.067   8.929  0.6152 -0.2766  0.1775
 1485SOL    HW116091   0.406   2.981   8.929  0.9271 -0.1130 -0.7324
 1485SOL    HW216092   0.272   3.040   8.927  1.1573 -2.2995  2.5579
 1486SOL     OW16093   0.111   2.849   9.343  0.2016  1.0062 -0.5207
 1486SOL    HW116094   0.069   2.803   9.415  0.2297  2.2371  0.2819
 1486SOL    HW216095   0.139   2.771   9.295  0.2528  0.0168  1.0977
 1487SOL     OW16096   0.693   3.999  16.977 -0.6090  0.0379  0.2042
 1487SOL    HW116097   0.665   3.996  16.885 -0.4954  2.0518  0.0925
 1487SOL    HW216098   0.737   4.084  16.971 -0.0159 -0.4209 -1.9028
 1488SOL     OW16099   1.942   2.257  12.611  0.0562 -0.3327  0.6146
 1488SOL    HW116100   1.856   2.220  12.631 -0.5891  0.3188 -0.9604
 1488SOL    HW216101   1.966   2.310  12.687  1.1053  1.0315 -0.6554
 1489SOL     OW16102   4.185   3.974   5.561 -0.1728  0.7718 -0.0859
 1489SOL    HW116103   4.224   4.054   5.525  0.0590  1.1774  1.0521
 1489SOL    HW216104   4.227   3.961   5.646  1.4072 -1.5991 -1.2381
 1490SOL     OW16105   1.266   3.209   8.332 -0.2031  0.2340  0.5744
 1490SOL    HW116106   1.177   3.232   8.304  0.2841  1.2120 -0.1760
 1490SOL    HW216107   1.246   3.140   8.395  2.7661 -0.1800  1.0679
 1491SOL     OW16108   2.723   2.339   8.247 -0.1979 -0.2333 -0.1028
 1491SOL    HW116109   2.633   2.369   8.260 -0.2999 -0.4514 -0.3076
 1491SOL    HW216110   2.721   2.245   8.263  0.7185  0.2931  3.0496
 1492SOL     OW16111   1.833   2.526   4.198 -0.0584 -0.4100  0.0392
 1492SOL    HW116112   1.899   2.593   4.216 -0.4074 -0.2898  0.8716
 1492SOL    HW216113   1.794   2.555   4.116  1.1880 -1.7441 -1.0230
 1493SOL     OW16114   3.389   2.544   8.430  0.1843 -0.5120 -1.0608
 1493SOL    HW116115   3.447   2.467   8.429  0.7216 -0.1188  0.7815
 1493SOL    HW216116   3.411   2.584   8.345 -0.9211  1.9413 -0.1727
 1494SOL     OW16117   1.054   2.355   2.035  0.3004  0.3926 -0.3830
 1494SOL    HW116118   1.125   2.397   1.987  0.4808  0.0982 -0.3693
 1494SOL    HW216119   1.073   2.262   2.022 -1.0985 -0.1208  1.1780
 1495SOL     OW16120   0.693   3.625  13.144 -0.3209 -0.1057 -0.2894
 1495SOL    HW116121   0.653   3.693  13.090  0.7116  0.2903 -0.5621
 1495SOL    HW216122   0.787   3.641  13.137 -0.3142  0.8158  1.7168
 1496SOL     OW16123   0.968   1.049   2.147  0.5025 -0.2229  0.1385
 1496SOL    HW116124   0.936   1.120   2.203  1.3699 -0.5545  1.0467
 1496SOL    HW216125   0.942   0.976   2.203  0.2356  0.2826  0.6763
 1497SOL     OW16126   4.253   0.161   5.886 -0.0158 -0.6193  0.5246
 1497SOL    HW116127   4.345   0.157   5.911  0.2582  0.8331 -0.2432
 1497SOL    HW216128   4.226   0.075   5.919 -0.4150 -0.7008 -0.0050
 1498SOL     OW16129   3.047   1.973   4.684  0.7616  0.1055  0.4953
 1498SOL    HW116130   3.140   1.992   4.669  0.9707 -0.0435  1.5606
 1498SOL    HW216131   3.050   1.923   4.766 -2.1432  0.4417  0.7908
 1499SOL     OW16132   4.072   2.351  16.713 -0.1745 -0.2925 -0.3502
 1499SOL    HW116133   4.016   2.294  16.765 -1.0971  0.5395 -0.4361
 1499SOL    HW216134   4.023   2.433  16.716  1.6016  0.7390  0.1459
 1500SOL     OW16135   2.613   0.198   5.130 -0.1756  0.7971 -0.2241
 1500SOL    HW116136   2.646   0.148   5.205 -2.0361 -0.7742 -0.4402
 1500SOL    HW216137   2.537   0.144   5.109 -0.7074  0.7921  1.7336
 1501SOL     OW16138   3.275   1.786   5.979 -0.2592 -0.1994  0.1329
 1501SOL    HW116139   3.242   1.873   5.957 -1.1538 -0.5656  0.0433
 1501SOL    HW216140   3.357   1.800   6.028 -0.8729  0.4856  0.9795
 1502SOL     OW16141   0.636   3.368   8.916  0.3127  0.5840  0.2704
 1502SOL    HW116142   0.644   3.460   8.941  2.7365  0.8069 -1.3159
 1502SOL    HW216143   0.578   3.369   8.841  0.2773  0.8534  0.3038
 1503SOL     OW16144   4.101   2.418  17.713  0.2477  0.0524  0.1739
 1503SOL    HW116145   4.023   2.474  17.703  0.8725  1.2226  2.0086
 1503SOL    HW216146   4.118   2.430   0.059  0.7154  1.4107 -0.0818
 1504SOL     OW16147   0.064   0.688   8.787  0.6593 -0.3788 -0.3354
 1504SOL    HW116148   4.706   0.701   8.787  0.5408 -1.2332 -0.7490
 1504SOL    HW216149   0.069   0.659   8.878 -0.2462 -1.8024 -0.7352
 1505SOL     OW16150   0.386   1.188   6.097 -0.0620 -0.7062 -0.2151
 1505SOL    HW116151   0.451   1.184   6.027  2.1515  1.4359  1.7097
 1505SOL    HW216152   0.447   1.170   6.169 -0.8486 -0.1793  0.5804
 1506SOL     OW16153   1.341   3.480   5.810 -0.0933 -0.4766  0.1546
 1506SOL    HW116154   1.394   3.479   5.730 -0.2056  0.2620  0.0684
 1506SOL    HW216155   1.415   3.499   5.867  0.3175  2.4769 -1.3600
 1507SOL     OW16156   0.904   0.691   2.084 -0.1351 -0.0087 -0.3385
 1507SOL    HW116157   0.809   0.693   2.076  0.0359 -3.9285 -3.1796
 1507SOL    HW216158   0.931   0.601   2.104  0.8901  0.2679 -0.4474
 1508SOL     OW16159   2.513   3.431   0.418 -0.1813  0.1588  0.6173
 1508SOL    HW116160   2.508   3.343   0.456  3.2271 -1.1728 -2.0075
 1508SOL    HW216161   2.604   3.447   0.444 -0.3973  1.8256  0.3390
 1509SOL     OW16162   2.651   3.389  14.323 -0.0878 -0.1132 -0.6695
 1509SOL    HW116163   2.675   3.482  14.320 -1.6396  0.3007 -0.4091
 1509SOL    HW216164   2.632   3.394  14.416 -0.8029  0.4800 -0.8499
 1510SOL     OW16165   1.077   2.236  10.702 -0.2298 -0.4956  0.1835
 1510SOL    HW116166   1.028   2.297  10.647  0.3916 -0.5661 -0.4482
 1510SOL    HW216167   1.062   2.158  10.648 -3.5290  0.2187  0.0686
 1511SOL     OW16168   0.218   0.085   8.503  0.0560  0.6129 -0.3231
 1511SOL    HW116169   0.272   0.163   8.495 -0.2932  1.0810  2.0439
 1511SOL    HW216170   0.212   0.060   8.411 -0.3378  1.9341 -0.6570
 1512SOL     OW16171   4.302   1.357   4.331 -0.5287 -0.4263  0.5293
 1512SOL    HW116172   4.388   1.321   4.352 -0.1986  0.5461  0.8303
 1512SOL    HW216173   4.272   1.383   4.418  0.3189  0.2936  0.6079
 1513SOL     OW16174   0.359   0.502  16.865 -0.3647  0.4100  0.1994
 1513SOL    HW116175   0.333   0.588  16.898 -1.7413  0.3863 -0.8234
 1513SOL    HW216176   0.398   0.518  16.779  1.6027 -1.2998  0.7917
 1514SOL     OW16177   0.331   3.529   1.148  0.0983 -0.2075 -0.0846
 1514SOL    HW116178   0.386   3.491   1.216  0.6759 -0.0873 -0.4899
 1514SOL    HW216179   0.267   3.459   1.133  0.5256 -0.1622 -2.0658
 1515SOL     OW16180   0.944   4.302   2.793  0.1270 -0.2688  0.0057
 1515SOL    HW116181   1.029   4.257   2.788 -0.5951 -2.0298  3.2749
 1515SOL    HW216182   0.944   4.376   2.733 -1.5687  0.0362  0.3911
 1516SOL     OW16183   0.654   3.376   4.958  0.2018  0.2786  0.7939
 1516SOL    HW116184   0.660   3.325   4.877 -0.7600  2.8085 -0.8562
 1516SOL    HW216185   0.748   3.392   4.963  0.0253  1.3090  0.6420
 1517SOL     OW16186   0.393   0.799  15.558  0.0123  0.1004  0.5158
 1517SOL    HW116187   0.350   0.877  15.525  1.0954 -0.4373 -2.2033
 1517SOL    HW216188   0.364   0.731  15.496 -0.3598  1.8266 -1.2090
 1518SOL     OW16189   1.210   0.939   2.300  0.7417  0.6950  0.1806
 1518SOL    HW116190   1.120   0.905   2.304  1.0192 -0.0001  0.4307
 1518SOL    HW216191   1.259   0.857   2.298 -2.1720 -1.0625 -0.0805
 1519SOL     OW16192   2.582   3.790   4.086  0.5141 -0.1390 -0.3284
 1519SOL    HW116193   2.642   3.730   4.041 -0.6657  0.1323 -2.2208
 1519SOL    HW216194   2.505   3.734   4.085  0.9773 -0.7986  0.8522
 1520SOL     OW16195   4.265   3.260   2.954 -0.3984  0.2814  0.5441
 1520SOL    HW116196   4.320   3.196   2.998  1.1142 -0.7617 -2.9055
 1520SOL    HW216197   4.293   3.339   3.001 -0.4973  0.3715  0.4518
 1521SOL     OW16198   0.420   2.739  16.046 -0.0615 -0.0227 -0.0672
 1521SOL    HW116199   0.489   2.707  15.988 -0.1090 -1.3535  0.6168
 1521SOL    HW216200   0.366   2.661  16.060  2.6852 -1.2059  4.0945
 1522SOL     OW16201   3.990   1.341   7.089  0.2557 -0.4110 -0.3513
 1522SOL    HW116202   4.007   1.259   7.042  0.4633 -0.5587 -0.0222
 1522SOL    HW216203   4.012   1.328   7.181  0.6555  3.2409  0.0504
 1523SOL     OW16204   1.785   1.186  12.873  0.1751 -0.3333  0.0289
 1523SOL    HW116205   1.777   1.208  12.780  1.6217  0.3754  0.0815
 1523SOL    HW216206   1.762   1.093  12.870  0.5911 -0.4042 -1.1055
 1524SOL     OW16207   4.175   3.746   5.975  0.5899 -0.0884 -0.0085
 1524SOL    HW116208   4.087   3.766   5.946  0.8368  1.0684  0.0423
 1524SOL    HW216209   4.173   3.772   6.068  0.5795 -1.0486  0.2608
 1525SOL     OW16210   0.627   3.495  12.888 -0.2495 -0.0335  0.1114
 1525SOL    HW116211   0.644   3.411  12.846 -1.1959 -0.0288 -0.2844
 1525SOL    HW216212   0.562   3.466  12.952  0.4500 -1.2016  0.2973
 1526SOL     OW16213   2.355   1.346  16.142 -0.5276  0.2213  0.4065
 1526SOL    HW116214   2.436   1.383  16.178 -0.6201 -0.6178  1.4888
 1526SOL    HW216215   2.287   1.411  16.160 -1.7494 -0.8035 -0.5843
 1527SOL     OW16216   0.304   0.646   2.574 -0.7756  0.2831  0.1531
 1527SOL    HW116217   0.317   0.715   2.508 -2.8107  1.1623  0.6770
 1527SOL    HW216218   0.387   0.642   2.622 -1.4157  1.8044  1.3554
 1528SOL     OW16219   2.301   4.679   3.705 -0.4911  0.6156  0.1982
 1528SOL    HW116220   2.246   4.682   3.627 -0.0488 -0.2195 -0.1449
 1528SOL    HW216221   2.250   4.616   3.757  1.5890 -0.1803  1.3027
 1529SOL     OW16222   1.987   1.557   2.630 -0.8161  0.2750  0.0153
 1529SOL    HW116223   1.942   1.510   2.559 -2.1512  0.4309  0.7666
 1529SOL    HW216224   1.943   1.641   2.638  0.5257  1.2224 -2.5310
 1530SOL     OW16225   1.594   0.013   8.156  0.6701 -0.4881  0.0683
 1530SOL    HW116226   1.571   4.724   8.067 -0.7954  3.2440 -0.6496
 1530SOL    HW216227   1.557   0.101   8.148  0.3760 -0.6996 -0.8147
 1531SOL     OW16228   1.347   2.343  14.967  0.0128  0.0638  0.1779
 1531SOL    HW116229   1.273   2.293  14.935  0.4946 -0.7792  0.3978
 1531SOL    HW216230   1.392   2.346  14.883  0.0642  1.4522  0.2403
 1532SOL     OW16231   4.532   2.393  15.379 -0.1159 -0.8072 -0.0645
 1532SOL    HW116232   4.509   2.309  15.338  0.1829  0.9827 -3.8628
 1532SOL    HW216233   4.461   2.444  15.341  1.3485  1.1982 -0.1027
 1533SOL     OW16234   0.829   2.990   8.663  0.3535  0.1444  0.0650
 1533SOL    HW116235   0.912   2.963   8.624 -0.0489  0.1966 -0.8372
 1533SOL    HW216236   0.866   3.042   8.734 -1.9784  1.9258 -0.0130
 1534SOL     OW16237   0.094   3.833   2.944  0.0464  0.2074  0.3855
 1534SOL    HW116238   0.154   3.808   3.015 -1.7361 -2.0702  1.1195
 1534SOL    HW216239   0.139   3.804   2.865  2.2120  1.7599  1.0784
 1535SOL     OW16240   0.709   0.345   4.633 -0.5172  0.3501 -0.0160
 1535SOL    HW116241   0.663   0.409   4.687 -0.6598  0.9776 -0.8789
 1535SOL    HW216242   0.792   0.393   4.631 -2.1186  3.1356  0.7569
 1536SOL     OW16243   4.138   4.101   9.042  0.0439 -0.0022 -0.2307
 1536SOL    HW116244   4.125   4.031   9.106 -1.7625  1.4517  1.0289
 1536SOL    HW216245   4.189   4.065   8.970  0.2222  0.1525 -0.1824
 1537SOL     OW16246   3.073   3.984   1.634 -0.1031  0.9545  0.0509
 1537SOL    HW116247   3.072   3.895   1.668  1.3431  0.9011 -0.0565
 1537SOL    HW216248   3.149   4.011   1.686  0.8152 -1.4273 -0.1008
 1538SOL     OW16249   0.683   2.849   5.251  0.0898 -0.0720 -0.2599
 1538SOL    HW116250   0.729   2.926   5.217 -1.7189  0.1667 -2.1773
 1538SOL    HW216251   0.590   2.873   5.246  0.4256  1.1726 -0.6351
 1539SOL     OW16252   0.191   1.904   6.913 -0.5126 -0.2652  0.3873
 1539SOL    HW116253   0.236   1.886   6.831  0.0707  1.7469  0.2717
 1539SOL    HW216254   0.192   1.818   6.954  0.3939 -0.3926  0.0871
 1540SOL     OW16255   4.217   2.424  12.674 -0.2302  0.5828 -0.1107
 1540SOL    HW116256   4.278   2.386  12.611  1.1847 -0.4924  1.9181
 1540SOL    HW216257   4.139   2.376  12.645 -0.2760  0.2730  0.5223
 1541SOL     OW16258   2.997   3.709   1.064 -0.7990  0.3723  0.5401
 1541SOL    HW116259   2.908   3.675   1.056 -0.2053 -0.3011 -2.9656
 1541SOL    HW216260   2.975   3.802   1.067 -2.4229  0.0559 -1.4307
 1542SOL     OW16261   4.311   3.748   3.287 -0.8102  0.6186  0.5351
 1542SOL    HW116262   4.216   3.759   3.282 -0.6851  2.5664  2.0785
 1542SOL    HW216263   4.347   3.831   3.256  2.2871 -1.5683 -1.6527
 1543SOL     OW16264   4.446   3.589  15.938  0.0955 -0.5492  0.2073
 1543SOL    HW116265   4.398   3.573  16.019 -0.9399  1.9919  0.1118
 1543SOL    HW216266   4.374   3.598  15.876 -0.8101 -0.0034  1.3402
 1544SOL     OW16267   2.837   1.876   6.932 -0.3744 -0.8021 -0.3391
 1544SOL    HW116268   2.883   1.919   7.005 -0.5524 -0.3747 -0.4773
 1544SOL    HW216269   2.747   1.904   6.950 -0.8221 -1.3483 -1.7096
 1545SOL     OW16270   2.908   0.476   3.966 -0.8647  0.2533  0.5710
 1545SOL    HW116271   2.872   0.543   4.023  0.5286  0.1485  1.5723
 1545SOL    HW216272   2.993   0.479   4.009  1.1158 -2.6514 -3.0840
 1546SOL     OW16273   4.578   1.359   8.453  0.1067  1.2341  0.3018
 1546SOL    HW116274   4.513   1.307   8.501 -1.8370  2.3983 -1.0364
 1546SOL    HW216275   4.661   1.331   8.491 -1.0180  1.4464  2.9340
 1547SOL     OW16276   3.261   4.072   0.316  0.7711 -0.1201 -0.2560
 1547SOL    HW116277   3.296   3.993   0.357  2.3405  2.3653  3.1672
 1547SOL    HW216278   3.280   4.053   0.224  0.7938 -2.4018  0.2232
 1548SOL     OW16279   0.143   3.383  12.396 -0.5024 -0.3871  0.2309
 1548SOL    HW116280   0.164   3.389  12.489  0.5711  0.7175 -0.0867
 1548SOL    HW216281   0.121   3.474  12.375 -0.6774 -0.4463  0.1628
 1549SOL     OW16282   3.441   3.343  13.539 -0.3679  0.0347 -0.5300
 1549SOL    HW116283   3.478   3.409  13.598 -0.0082 -0.4767 -0.1808
 1549SOL    HW216284   3.351   3.366  13.562 -0.0051  1.7796 -0.9002
 1550SOL     OW16285   2.214   4.477   2.409  0.0873  0.8411  0.5979
 1550SOL    HW116286   2.275   4.548   2.390  0.4546  0.7440  1.3997
 1550SOL    HW216287   2.210   4.432   2.325 -1.5412 -1.0109  1.6529
 1551SOL     OW16288   1.956   3.981   5.321  0.1946  0.4635  0.4262
 1551SOL    HW116289   2.029   3.987   5.384  2.3208 -1.5569 -1.8378
 1551SOL    HW216290   1.966   3.893   5.284 -0.4696  0.6891 -0.2659
 1552SOL     OW16291   0.052   4.491   1.485  0.0738 -0.3989  0.1042
 1552SOL    HW116292   0.041   4.583   1.508  1.6967 -0.9038  2.9059
 1552SOL    HW216293   0.146   4.484   1.470 -0.3155 -0.8634 -2.2142
 1553SOL     OW16294   3.832   3.749  12.393  0.0862 -0.6996 -0.2305
 1553SOL    HW116295   3.806   3.705  12.474 -0.9774  0.2956 -0.0212
 1553SOL    HW216296   3.755   3.806  12.384  0.3471 -0.4775 -1.0440
 1554SOL     OW16297   1.274   0.229  16.007 -0.5900 -0.7921  0.1061
 1554SOL    HW116298   1.290   0.318  16.038  1.9808 -1.5816  1.0265
 1554SOL    HW216299   1.216   0.191  16.074 -0.3892 -1.2576  0.0169
 1555SOL     OW16300   1.083   1.124   4.800 -0.0841 -0.4850  0.3527
 1555SOL    HW116301   1.095   1.133   4.705  1.8505 -0.7433  0.5741
 1555SOL    HW216302   1.096   1.030   4.806 -2.1580 -0.7133  1.3026
 1556SOL     OW16303   3.143   1.728   0.522  0.0959 -0.1867 -0.6999
 1556SOL    HW116304   3.140   1.798   0.587 -1.3176 -1.4917  0.6611
 1556SOL    HW216305   3.231   1.695   0.539  0.3486 -0.3824 -2.4167
 1557SOL     OW16306   0.609   0.465  11.678 -0.1416  0.5107  0.7207
 1557SOL    HW116307   0.560   0.471  11.596  3.0930  1.6760 -1.1050
 1557SOL    HW216308   0.615   0.555  11.709 -1.2920  0.1039  2.1230
 1558SOL     OW16309   3.796   4.112   4.521 -0.2221  0.4783 -0.0239
 1558SOL    HW116310   3.777   4.203   4.497 -1.6018  0.7359  2.0803
 1558SOL    HW216311   3.830   4.145   4.604 -3.0442 -0.8643  1.6864
 1559SOL     OW16312   1.551   2.454   5.591  0.1261  0.3124 -0.0830
 1559SOL    HW116313   1.472   2.450   5.645 -0.5295 -2.4950 -1.2271
 1559SOL    HW216314   1.619   2.418   5.648  1.0549 -0.3870 -1.6190
 1560SOL     OW16315   3.455   0.655   1.641 -0.4367 -0.1112 -0.4473
 1560SOL    HW116316   3.537   0.695   1.670  0.1816 -0.2153 -2.0237
 1560SOL    HW216317   3.394   0.689   1.706  2.4472  0.7546  1.7714
 1561SOL     OW16318   3.016   1.901   8.371  0.3699  0.2166  0.3063
 1561SOL    HW116319   3.103   1.935   8.347  0.5407 -0.3832  0.0812
 1561SOL    HW216320   3.010   1.835   8.302 -2.6598  0.7572  0.0660
 1562SOL     OW16321   1.648   2.719   7.233 -0.0895 -0.1535 -0.3949
 1562SOL    HW116322   1.695   2.770   7.298  1.0746 -0.4596 -0.9812
 1562SOL    HW216323   1.654   2.765   7.149 -1.8214  0.8521  0.0479
 1563SOL     OW16324   0.461   4.723   6.450 -0.6064  0.1865 -0.5475
 1563SOL    HW116325   0.416   4.695   6.530  1.5885 -0.0972  0.5736
 1563SOL    HW216326   0.496   0.072   6.474  1.2087 -0.5355 -0.5949
 1564SOL     OW16327   2.747   3.018  14.641  0.3479 -0.2833  0.0470
 1564SOL    HW116328   2.770   2.948  14.702 -1.3048  0.5548  1.6427
 1564SOL    HW216329   2.727   2.975  14.558 -1.8070 -0.5107  0.6880
 1565SOL     OW16330   3.347   2.386   1.256  0.1077  0.3072  0.1694
 1565SOL    HW116331   3.365   2.455   1.192 -0.1833 -0.3153 -0.5868
 1565SOL    HW216332   3.331   2.442   1.332  0.8009 -0.2847  0.7531
 1566SOL     OW16333   0.490   2.002   6.983 -0.5244 -0.2172 -0.1657
 1566SOL    HW116334   0.430   1.954   6.927 -0.8250  0.8938 -0.8036
 1566SOL    HW216335   0.451   2.088   7.003  0.3546  0.1591 -0.0565
 1567SOL     OW16336   4.660   3.497   4.428 -0.0403  0.3008  0.0379
 1567SOL    HW116337   4.576   3.527   4.395 -0.8784 -1.2276  0.7769
 1567SOL    HW216338   4.692   3.581   4.460 -0.0237  0.3665 -0.1492
 1568SOL     OW16339   3.722   0.564  14.105 -0.1663 -0.6314 -0.7958
 1568SOL    HW116340   3.740   0.631  14.039  0.7323 -1.5613 -1.4848
 1568SOL    HW216341   3.742   0.614  14.183 -2.7897 -3.5200  1.7375
 1569SOL     OW16342   3.595   1.938   3.629 -0.1963 -0.1969  0.1284
 1569SOL    HW116343   3.583   1.925   3.723  0.3519  0.2868  0.2648
 1569SOL    HW216344   3.526   2.004   3.618  0.7772  0.6278 -0.9602
 1570SOL     OW16345   3.276   4.266   3.302 -0.4727  0.3231  0.2714
 1570SOL    HW116346   3.196   4.222   3.272  0.3401 -1.5876  0.8928
 1570SOL    HW216347   3.251   4.311   3.383 -2.8124 -2.8497  1.2903
 1571SOL     OW16348   2.258   1.492   8.441 -0.9389  0.1970  0.0112
 1571SOL    HW116349   2.187   1.515   8.502 -2.4405  0.0783 -1.6948
 1571SOL    HW216350   2.257   1.397   8.438 -1.2843  0.1458  1.4619
 1572SOL     OW16351   3.266   0.933   9.351  0.1602  0.0891  0.7564
 1572SOL    HW116352   3.284   0.864   9.415  5.0228 -2.2303 -3.1597
 1572SOL    HW216353   3.188   0.979   9.383 -0.4545 -2.3285  2.7508
 1573SOL     OW16354   3.049   4.728  10.627 -0.1751  0.5068  0.5249
 1573SOL    HW116355   3.073   0.061  10.567 -0.5965  1.8501  1.9507
 1573SOL    HW216356   3.134   4.701  10.661 -1.2027 -1.4203  1.5298
 1574SOL     OW16357   1.403   0.452  17.511  0.1637  0.0139 -0.2162
 1574SOL    HW116358   1.467   0.427  17.577  0.3976  2.3830  0.4207
 1574SOL    HW216359   1.370   0.531  17.554 -0.1373 -0.8956  1.2093
 1575SOL     OW16360   2.888   2.897   2.960  0.3769 -0.0549  0.6645
 1575SOL    HW116361   2.974   2.858   2.941 -1.0935 -2.0175 -2.0607
 1575SOL    HW216362   2.916   2.976   3.006  0.8642  0.6357 -0.8288
 1576SOL     OW16363   3.914   3.793  10.295 -0.1970  0.3604 -0.2967
 1576SOL    HW116364   3.935   3.875  10.340  1.9243 -1.1696  1.4680
 1576SOL    HW216365   3.844   3.753  10.346  2.2094 -0.8876  2.0104
 1577SOL     OW16366   1.644   1.888   2.050  0.0707 -0.2312 -0.1704
 1577SOL    HW116367   1.637   1.792   2.046  0.8057 -0.3136  0.3089
 1577SOL    HW216368   1.733   1.914   2.075 -0.5640  2.8601 -1.1484
 1578SOL     OW16369   0.124   4.018   9.353 -0.8001 -0.0987 -0.5607
 1578SOL    HW116370   0.067   4.039   9.427 -3.0406 -1.6933 -1.8315
 1578SOL    HW216371   0.192   4.086   9.354  0.9576 -1.8583 -0.9810
 1579SOL     OW16372   4.435   3.276   5.246 -0.4101 -0.3146  0.0147
 1579SOL    HW116373   4.442   3.196   5.297  0.4845 -0.7693 -0.8256
 1579SOL    HW216374   4.499   3.339   5.278 -0.7321  0.4202 -0.7709
 1580SOL     OW16375   2.073   2.463   4.939 -0.1849 -0.1572  0.3205
 1580SOL    HW116376   2.062   2.415   4.857  1.7229 -1.5066  0.8550
 1580SOL    HW216377   2.114   2.545   4.912 -0.9703 -0.9676 -3.3028
 1581SOL     OW16378   4.080   1.104   6.979 -0.0150 -0.3950  0.0807
 1581SOL    HW116379   4.157   1.112   6.922  0.7777  1.7984  1.4423
 1581SOL    HW216380   4.096   1.027   7.033  0.4706 -0.8682 -0.7313
 1582SOL     OW16381   3.654   4.141   5.073  0.4265  0.1383  0.0638
 1582SOL    HW116382   3.657   4.093   4.990  0.1730 -3.3687  2.1043
 1582SOL    HW216383   3.743   4.122   5.104 -0.5296  1.1267  3.3826
 1583SOL     OW16384   0.716   3.441   9.199 -0.1888 -0.1265 -0.4360
 1583SOL    HW116385   0.785   3.396   9.248  0.1820 -1.5279 -2.2218
 1583SOL    HW216386   0.642   3.387   9.227  1.1233 -1.6539  0.1017
 1584SOL     OW16387   4.121   1.461  12.121  0.0037 -0.3163  0.1067
 1584SOL    HW116388   4.139   1.460  12.215 -1.3772 -0.0053  0.3751
 1584SOL    HW216389   4.034   1.421  12.118  0.3191 -1.0994  1.3412
 1585SOL     OW16390   1.351   0.472   1.556  0.1366  0.1758  0.9483
 1585SOL    HW116391   1.258   0.476   1.532  0.1038  0.6957  1.1609
 1585SOL    HW216392   1.365   0.565   1.542 -0.4818  0.2184  0.5992
 1586SOL     OW16393   4.235   3.545   9.790 -0.9730 -0.7640  0.3617
 1586SOL    HW116394   4.197   3.466   9.751  3.4848 -1.8444 -1.7552
 1586SOL    HW216395   4.268   3.582   9.708  0.6845  0.2300  1.4893
 1587SOL     OW16396   1.899   1.667  10.755  0.2978 -0.2812 -0.1453
 1587SOL    HW116397   1.903   1.587  10.809  0.3970 -0.6464 -0.6885
 1587SOL    HW216398   1.989   1.699  10.756  0.1933  0.0407 -1.0919
 1588SOL     OW16399   1.968   2.750   7.462  0.9249  0.5194  0.1512
 1588SOL    HW116400   2.034   2.782   7.524  0.7283  3.2662 -1.0894
 1588SOL    HW216401   1.965   2.656   7.482 -0.8791  0.3184 -1.1064
 1589SOL     OW16402   2.380   2.339   5.362 -0.1071  0.5632  0.1730
 1589SOL    HW116403   2.289   2.361   5.342 -0.6957 -0.7961  1.3244
 1589SOL    HW216404   2.412   2.330   5.272  0.4149  1.7668  0.2452
 1590SOL     OW16405   4.374   3.240   9.184 -0.4604 -0.7181 -0.0165
 1590SOL    HW116406   4.307   3.295   9.143 -1.4311 -0.3201  2.1007
 1590SOL    HW216407   4.442   3.304   9.164 -1.4525  0.8832  1.7093
 1591SOL     OW16408   2.113   0.522   9.279  0.1909  0.3947 -0.0840
 1591SOL    HW116409   2.187   0.504   9.221 -2.0400 -4.2234 -1.4541
 1591SOL    HW216410   2.042   0.480   9.231 -0.7054  0.9933  0.7316
 1592SOL     OW16411   1.529   3.459   4.077  0.1441 -0.2468  0.0670
 1592SOL    HW116412   1.456   3.412   4.116 -0.8229 -0.1581 -1.6497
 1592SOL    HW216413   1.590   3.446   4.150  1.6902 -0.6900 -1.3057
 1593SOL     OW16414   2.569   1.196   0.995  0.1400 -0.0902  0.7834
 1593SOL    HW116415   2.640   1.237   0.946 -0.9106  0.7183 -0.0700
 1593SOL    HW216416   2.489   1.240   0.967 -0.4775 -2.7742 -1.6697
 1594SOL     OW16417   0.700   1.388  11.703 -0.3269 -0.1725 -0.3003
 1594SOL    HW116418   0.687   1.293  11.711 -0.0503 -0.2206 -0.4188
 1594SOL    HW216419   0.737   1.394  11.615 -0.5432 -0.8919 -0.4473
 1595SOL     OW16420   1.379   3.227   1.062  0.2247 -0.3576  0.4401
 1595SOL    HW116421   1.431   3.302   1.033  0.7836 -0.5071  1.0387
 1595SOL    HW216422   1.447   3.191   1.120  0.5064 -2.0692 -0.9605
 1596SOL     OW16423   1.746   1.166   2.409  0.8792  0.5909  0.2597
 1596SOL    HW116424   1.695   1.102   2.359 -0.3120  0.6876  1.3510
 1596SOL    HW216425   1.705   1.154   2.495 -0.9741 -0.2503 -0.7512
 1597SOL     OW16426   3.975   3.721   8.228  0.5704  0.2290 -0.3181
 1597SOL    HW116427   3.911   3.766   8.283  0.7234  1.2767 -0.9954
 1597SOL    HW216428   4.003   3.785   8.163  1.1175  2.1044  1.7585
 1598SOL     OW16429   1.805   2.359  13.723  0.0970 -0.0083  0.4798
 1598SOL    HW116430   1.809   2.454  13.723 -0.5670  0.0364 -1.8273
 1598SOL    HW216431   1.856   2.336  13.800 -0.5827 -2.1815  0.2895
 1599SOL     OW16432   0.357   3.370   9.161  0.6012  0.6796 -0.3947
 1599SOL    HW116433   0.390   3.458   9.175  1.1827  0.1187  1.8321
 1599SOL    HW216434   0.304   3.343   9.236  1.2593  1.0948  0.2273
 1600SOL     OW16435   3.328   3.898   6.083 -0.5849  1.1644  0.3069
 1600SOL    HW116436   3.265   3.857   6.023 -1.1491  1.9106  0.3827
 1600SOL    HW216437   3.288   3.977   6.119 -2.2600  1.5128 -2.3191
 1601SOL     OW16438   3.707   1.799   5.020  0.0657  0.1594  0.7359
 1601SOL    HW116439   3.724   1.859   4.948 -0.3628 -0.2637  0.2790
 1601SOL    HW216440   3.684   1.714   4.981  2.8824 -1.0472  1.6745
 1602SOL     OW16441   3.485   1.232   2.676  0.2926  0.3170  0.3710
 1602SOL    HW116442   3.537   1.213   2.598  0.3737 -0.6574  0.6721
 1602SOL    HW216443   3.552   1.266   2.736  2.3858 -1.3370 -1.0113
 1603SOL     OW16444   0.464   4.010   2.943  0.2729 -0.2287 -0.2166
 1603SOL    HW116445   0.399   4.040   2.880 -0.4549 -2.4188 -0.5004
 1603SOL    HW216446   0.541   4.064   2.924  0.7871 -1.1364 -0.7574
 1604SOL     OW16447   4.606   0.283  15.253 -0.4015  0.0196 -0.3227
 1604SOL    HW116448   4.529   0.329  15.287 -1.0848 -0.8511 -0.7028
 1604SOL    HW216449   4.576   0.280  15.162 -1.1569  1.9117 -0.1396
 1605SOL     OW16450   0.602   4.049   4.533  0.2190  0.2077  0.0624
 1605SOL    HW116451   0.654   3.983   4.579  1.6535  0.9836 -0.4508
 1605SOL    HW216452   0.646   4.130   4.559  0.2071  0.3624 -0.4096
 1606SOL     OW16453   4.267   0.297  12.896  0.2817 -0.2659 -0.3270
 1606SOL    HW116454   4.280   0.360  12.825  0.4059  2.1516  1.8411
 1606SOL    HW216455   4.222   0.224  12.852  1.5533 -2.1813  1.5470
 1607SOL     OW16456   3.113   1.539   8.698  0.1212  0.9913  0.0191
 1607SOL    HW116457   3.139   1.501   8.614 -4.5530  1.2126 -1.5760
 1607SOL    HW216458   3.201   1.545   8.734 -0.0326  1.6239  0.2807
 1608SOL     OW16459   2.331   3.151   3.791  0.5095 -0.1287 -0.2578
 1608SOL    HW116460   2.307   3.087   3.723 -2.4340  0.2587  0.4277
 1608SOL    HW216461   2.294   3.109   3.868 -1.9413 -0.6019 -1.7049
 1609SOL     OW16462   3.891   4.408   9.112 -0.3394  0.2697  0.1731
 1609SOL    HW116463   3.883   4.314   9.096 -0.4413  0.1635  0.8394
 1609SOL    HW216464   3.979   4.421   9.075  0.1826 -0.0621  1.2808
 1610SOL     OW16465   2.678   0.850   3.389  0.7307  0.1288 -0.3385
 1610SOL    HW116466   2.746   0.854   3.322  1.0874  0.4230  0.0395
 1610SOL    HW216467   2.685   0.758   3.415  1.1185 -0.3188 -2.0424
 1611SOL     OW16468   4.720   1.411   2.721  0.1977  0.2120  0.3359
 1611SOL    HW116469   4.673   1.329   2.706  0.3628 -0.1182  1.6158
 1611SOL    HW216470   4.648   1.461   2.760 -2.2723 -0.9276 -2.7621
 1612SOL     OW16471   1.042   0.408   5.213  0.5495 -0.0667  0.5954
 1612SOL    HW116472   1.017   0.482   5.268  1.1165  0.7156 -0.2116
 1612SOL    HW216473   0.964   0.354   5.227  0.5892 -0.3509 -0.2980
 1613SOL     OW16474   4.101   3.667   2.143  0.0849  0.2627  0.2470
 1613SOL    HW116475   4.080   3.720   2.220 -0.7149  1.6765 -0.9441
 1613SOL    HW216476   4.172   3.713   2.098  1.5906 -0.5582  1.7983
 1614SOL     OW16477   3.547   2.777  17.049  0.2443  0.3624 -0.8238
 1614SOL    HW116478   3.611   2.846  17.066 -1.1016  1.3792  0.1112
 1614SOL    HW216479   3.485   2.814  16.986  1.9335  1.6655 -1.7433
 1615SOL     OW16480   3.873   2.626   8.488  0.1518  0.2274 -0.3606
 1615SOL    HW116481   3.918   2.666   8.413  1.5416 -1.3059 -0.3514
 1615SOL    HW216482   3.788   2.669   8.484 -0.8079 -1.5101  1.2551
 1616SOL     OW16483   2.730   0.802   2.949  0.3956  0.5382 -0.3677
 1616SOL    HW116484   2.772   0.849   3.021  1.8319  0.8598 -1.4209
 1616SOL    HW216485   2.640   0.785   2.979  0.3682  1.6748  0.1938
 1617SOL     OW16486   1.076   2.716   7.553  0.1499  0.2545 -0.0548
 1617SOL    HW116487   1.133   2.767   7.496  0.9208 -1.0152 -0.4321
 1617SOL    HW216488   1.099   2.732   7.644 -1.5375 -0.1355  0.4516
 1618SOL     OW16489   0.367   3.615   2.311 -0.1018 -0.6407  0.3726
 1618SOL    HW116490   0.274   3.616   2.331 -0.3647  1.8227 -0.9094
 1618SOL    HW216491   0.398   3.662   2.388  0.7533 -0.3043 -0.1669
 1619SOL     OW16492   0.141   3.292  11.603 -0.1482  0.1576 -0.3263
 1619SOL    HW116493   0.131   3.366  11.542  2.8963  0.7218 -0.1778
 1619SOL    HW216494   0.215   3.250  11.559  0.1429  1.4778 -1.1022
 1620SOL     OW16495   2.610   3.270   3.293 -0.1986  0.3949  0.0565
 1620SOL    HW116496   2.597   3.256   3.199  2.2308 -1.8418  0.0442
 1620SOL    HW216497   2.545   3.336   3.317  0.0284  0.9521 -0.8732
 1621SOL     OW16498   2.487   4.477   1.949  0.3608  0.2668  0.7200
 1621SOL    HW116499   2.459   4.518   1.868  0.4412 -0.9504  0.0845
 1621SOL    HW216500   2.583   4.470   1.943  0.2707  1.2469 -1.8457
 1622SOL     OW16501   2.425   1.528   5.496 -0.3706  0.3171  0.3310
 1622SOL    HW116502   2.366   1.482   5.436 -0.2167 -0.3489  0.6925
 1622SOL    HW216503   2.383   1.501   5.578  0.6164  0.8510  1.0122
 1623SOL     OW16504   0.155   1.882  10.842  0.7033 -0.1337  0.0108
 1623SOL    HW116505   0.189   1.962  10.802 -1.2619  0.5452 -0.3207
 1623SOL    HW216506   0.062   1.905  10.839  0.9526  0.6646 -1.6223
 1624SOL     OW16507   4.533   1.931   1.584  0.1892 -0.0139  0.4757
 1624SOL    HW116508   4.450   1.974   1.607 -0.1764 -0.6492  0.3506
 1624SOL    HW216509   4.598   1.979   1.636  0.6757 -0.7334  0.5236
 1625SOL     OW16510   4.348   4.038   0.101  0.3920 -0.0778 -0.2077
 1625SOL    HW116511   4.385   4.017   0.187 -2.5399  1.0922  1.3395
 1625SOL    HW216512   4.256   4.060   0.116  1.2057  1.1636  3.0163
 1626SOL     OW16513   1.698   0.081   6.356 -0.2423 -0.1155 -0.2902
 1626SOL    HW116514   1.781   0.044   6.326  0.0725  1.2569 -1.1408
 1626SOL    HW216515   1.714   0.117   6.443 -1.8159  0.1456 -0.1100
 1627SOL     OW16516   0.410   2.452   3.587 -0.1923  0.2450  0.7844
 1627SOL    HW116517   0.427   2.484   3.676  1.6363  0.1326  0.4789
 1627SOL    HW216518   0.329   2.403   3.596 -0.1619 -0.0074 -0.3043
 1628SOL     OW16519   3.341   2.169   8.149 -0.6977  0.1896  0.5174
 1628SOL    HW116520   3.277   2.121   8.097 -0.9933 -0.1562  1.1890
 1628SOL    HW216521   3.332   2.132   8.238 -0.2024 -0.9427  0.0952
 1629SOL     OW16522   1.085   3.258   2.322  0.0225 -0.9479  0.0921
 1629SOL    HW116523   1.048   3.331   2.371  0.9179  0.7380 -1.7320
 1629SOL    HW216524   1.129   3.209   2.391 -0.4171  0.4064  1.3285
 1630SOL     OW16525   2.436   1.349   3.243  0.1550  0.2351 -0.3586
 1630SOL    HW116526   2.467   1.363   3.153  1.3242  0.1445  0.0221
 1630SOL    HW216527   2.498   1.278   3.260 -0.2534 -0.1838 -0.6201
 1631SOL     OW16528   1.723   2.412   9.380  0.0068  0.3919 -0.2401
 1631SOL    HW116529   1.649   2.434   9.436 -0.0696 -0.7361  0.0967
 1631SOL    HW216530   1.790   2.387   9.444  1.2435  1.5829 -1.0531
 1632SOL     OW16531   0.224   4.408   2.138 -0.3039  0.0385  0.2109
 1632SOL    HW116532   0.141   4.446   2.167 -0.8597 -1.6328  0.8458
 1632SOL    HW216533   0.194   4.349   2.068  1.0489  1.1449 -1.2952
 1633SOL     OW16534   0.540   2.732   3.535 -0.4713  0.3064  0.0316
 1633SOL    HW116535   0.553   2.641   3.508  0.0384  0.6999 -1.0539
 1633SOL    HW216536   0.550   2.785   3.456  0.0237 -0.3468 -0.3510
 1634SOL     OW16537   1.808   0.416   9.577 -0.1222 -0.0642  0.3997
 1634SOL    HW116538   1.896   0.441   9.552 -0.8533  0.5686 -1.5299
 1634SOL    HW216539   1.817   0.352   9.647  1.1869 -0.1069  0.1739
 1635SOL     OW16540   3.867   2.683   7.451  0.4050  0.0794  0.7484
 1635SOL    HW116541   3.851   2.751   7.516  1.7605  1.2878 -0.1718
 1635SOL    HW216542   3.961   2.672   7.469  1.2335  2.4372 -2.1172
 1636SOL     OW16543   2.633   0.309  10.643 -0.1190 -0.0918  0.3202
 1636SOL    HW116544   2.598   0.333  10.728 -1.4288 -1.2371  0.1175
 1636SOL    HW216545   2.617   0.214  10.646  1.2634 -0.3608 -0.5450
 1637SOL     OW16546   3.244   4.227   5.025  0.3547  0.1289  0.3771
 1637SOL    HW116547   3.300   4.249   5.099 -1.2393  2.7013  0.8002
 1637SOL    HW216548   3.176   4.180   5.073  0.4365 -1.5846 -1.1591
 1638SOL     OW16549   3.116   2.767   2.813 -0.3642  0.2640 -0.1624
 1638SOL    HW116550   3.185   2.827   2.787 -1.7919  1.3407 -1.4746
 1638SOL    HW216551   3.141   2.690   2.763 -1.1441  0.8812 -1.4920
 1639SOL     OW16552   1.660   0.880  13.847  0.6133 -0.7770  1.1317
 1639SOL    HW116553   1.585   0.940  13.837  0.7140 -0.6254  1.2828
 1639SOL    HW216554   1.694   0.896  13.758 -0.9497 -1.1627  0.4601
 1640SOL     OW16555   1.426   4.233  16.839 -0.4611 -0.0120  0.1442
 1640SOL    HW116556   1.470   4.159  16.880 -1.0220  0.1873  1.1096
 1640SOL    HW216557   1.341   4.192  16.821 -0.6599  0.2969  0.3658
 1641SOL     OW16558   1.045   0.687  11.142  0.1132  0.6862  0.7309
 1641SOL    HW116559   0.959   0.724  11.123 -0.4582 -1.2831 -0.5773
 1641SOL    HW216560   1.032   0.604  11.187 -0.7402  1.0912  1.2339
 1642SOL     OW16561   0.083   1.807   4.963 -0.0041  0.2182 -0.0346
 1642SOL    HW116562   0.141   1.827   5.036 -0.5266  2.0282 -0.1090
 1642SOL    HW216563   0.041   1.893   4.949 -1.1962 -0.1391  1.4376
 1643SOL     OW16564   2.228   0.645  15.327 -0.8258 -0.1790 -0.3255
 1643SOL    HW116565   2.254   0.701  15.253  1.1805  0.4901  0.9055
 1643SOL    HW216566   2.311   0.635  15.373 -1.3533  1.8641  1.0517
 1644SOL     OW16567   0.519   3.687   3.557  0.0783 -0.0357  0.0659
 1644SOL    HW116568   0.609   3.708   3.533  0.2112  0.2337  0.7988
 1644SOL    HW216569   0.506   3.593   3.547 -1.2973  0.1048  0.5255
 1645SOL     OW16570   2.494   2.652  16.906 -0.2625 -0.5294 -0.3894
 1645SOL    HW116571   2.459   2.636  16.818  1.8307  0.7378 -1.4480
 1645SOL    HW216572   2.420   2.647  16.967 -0.9117  2.4208 -0.9333
 1646SOL     OW16573   4.482   0.955  14.329  0.1281 -0.7865 -0.6932
 1646SOL    HW116574   4.450   0.992  14.411 -0.9891 -1.3580 -0.8743
 1646SOL    HW216575   4.553   0.896  14.356  0.2330 -0.4297 -0.1932
 1647SOL     OW16576   0.977   3.517   2.116  0.0956 -0.3887 -0.0458
 1647SOL    HW116577   1.040   3.486   2.181 -0.8419 -1.9528  0.1188
 1647SOL    HW216578   0.899   3.479   2.158 -0.6749  2.8257  1.4126
 1648SOL     OW16579   1.411   0.141   6.554 -0.3544  0.0062 -0.4370
 1648SOL    HW116580   1.477   0.074   6.571 -0.6855 -0.0253  0.7447
 1648SOL    HW216581   1.463   0.216   6.585  0.2581 -0.3745 -0.5597
 1649SOL     OW16582   1.017   2.250   8.095  0.4059  0.0863 -0.6402
 1649SOL    HW116583   0.994   2.304   8.020 -0.3875  1.0771  0.3267
 1649SOL    HW216584   1.106   2.225   8.070 -0.2273 -2.1891 -0.6344
 1650SOL     OW16585   4.136   1.939   2.286 -0.2900  0.4644  0.0056
 1650SOL    HW116586   4.160   1.876   2.217 -0.8431 -0.1105  0.3299
 1650SOL    HW216587   4.211   1.926   2.343  0.2476  0.6479 -0.6590
 1651SOL     OW16588   0.267   2.547  11.816 -0.4484 -0.0140 -0.8731
 1651SOL    HW116589   0.302   2.484  11.753  1.6486  2.6412 -2.3360
 1651SOL    HW216590   0.207   2.490  11.864 -0.0359 -2.3742 -3.1495
 1652SOL     OW16591   4.243   0.779   2.055 -0.1961 -0.1837  0.2880
 1652SOL    HW116592   4.187   0.856   2.043  0.6469  0.5193  0.9281
 1652SOL    HW216593   4.327   0.806   2.019 -0.2577 -1.5381 -0.8864
 1653SOL     OW16594   0.805   2.472   3.529  0.4490 -0.7612 -0.1780
 1653SOL    HW116595   0.760   2.465   3.445 -0.2110  0.8199  0.0532
 1653SOL    HW216596   0.895   2.458   3.502  0.1453  0.9901 -2.0124
 1654SOL     OW16597   2.058   2.128   7.952  0.2665 -0.2416 -0.2750
 1654SOL    HW116598   2.124   2.171   8.007 -1.1648  0.0233  1.2352
 1654SOL    HW216599   2.098   2.042   7.940 -2.2400 -1.1105 -2.3554
 1655SOL     OW16600   3.878   4.146   0.217  0.5245 -0.1383  0.1337
 1655SOL    HW116601   3.843   4.115   0.300  1.2347  0.3531  0.6135
 1655SOL    HW216602   3.820   4.112   0.148 -0.1844 -0.0798  0.7067
 1656SOL     OW16603   1.111   1.413   9.663  0.4267  0.6627  0.1256
 1656SOL    HW116604   1.156   1.332   9.688  0.2866  0.6708  0.4105
 1656SOL    HW216605   1.026   1.410   9.708  2.2040  1.2563  3.4621
 1657SOL     OW16606   3.528   0.308  13.693 -0.7448 -0.1338 -0.5267
 1657SOL    HW116607   3.536   0.360  13.772 -0.4414 -1.7944  0.5523
 1657SOL    HW216608   3.483   0.370  13.636  0.4362  1.7018  0.5369
 1658SOL     OW16609   0.387   0.435   9.086 -0.7129  0.6911 -0.2868
 1658SOL    HW116610   0.322   0.384   9.134  1.7140  0.2607  2.5105
 1658SOL    HW216611   0.455   0.436   9.154 -0.8766 -1.1804 -0.1048
 1659SOL     OW16612   1.371   3.753   2.439  0.4695  0.0081  0.1722
 1659SOL    HW116613   1.340   3.764   2.529 -1.5879 -1.8951 -0.3091
 1659SOL    HW216614   1.292   3.772   2.389  2.2629  0.2727 -2.5424
 1660SOL     OW16615   2.450   4.678   0.276  0.5503 -0.3948 -0.2666
 1660SOL    HW116616   2.418   4.602   0.227  0.4015  1.8400 -3.6225
 1660SOL    HW216617   2.506   4.644   0.345 -2.8531 -2.1018  1.6581
 1661SOL     OW16618   3.746   4.469   6.473  0.1671  0.1472  0.2550
 1661SOL    HW116619   3.807   4.417   6.525  0.5733 -0.1059 -0.4637
 1661SOL    HW216620   3.729   4.543   6.531 -0.3994  1.7653 -1.9349
 1662SOL     OW16621   4.594   3.770   7.704  0.2215  0.0544 -0.2920
 1662SOL    HW116622   4.507   3.806   7.688  0.6286  1.8738  1.5554
 1662SOL    HW216623   4.638   3.829   7.766 -0.0952  0.9817 -0.9515
 1663SOL     OW16624   0.819   0.805   4.851  0.5353  0.7239 -0.3323
 1663SOL    HW116625   0.808   0.900   4.856  1.7405  0.7792  1.5532
 1663SOL    HW216626   0.914   0.793   4.845  0.6134  0.7391  0.7472
 1664SOL     OW16627   3.799   3.298   6.828 -0.0249 -0.2692  0.3225
 1664SOL    HW116628   3.706   3.314   6.816  0.4707  2.3012 -0.1529
 1664SOL    HW216629   3.804   3.244   6.749  1.6579 -3.7701  2.8398
 1665SOL     OW16630   2.844   0.726  13.295 -0.0243 -0.1733 -0.2042
 1665SOL    HW116631   2.812   0.636  13.308 -2.6339  1.1149  2.1725
 1665SOL    HW216632   2.770   0.775  13.259 -0.2851 -0.5450 -0.1831
 1666SOL     OW16633   2.121   3.621   4.608 -0.0405  0.5471  0.1118
 1666SOL    HW116634   2.147   3.685   4.543 -1.4051  0.8121 -0.1609
 1666SOL    HW216635   2.194   3.628   4.670 -1.1908 -0.7433  1.6375
 1667SOL     OW16636   1.325   3.641   5.196  0.2467  0.1767  0.1846
 1667SOL    HW116637   1.270   3.699   5.144 -0.9226 -1.2024 -0.1313
 1667SOL    HW216638   1.267   3.594   5.255 -0.0981 -1.7597 -1.6556
 1668SOL     OW16639   0.826   0.583   6.243 -0.5832 -0.1787  0.0192
 1668SOL    HW116640   0.791   0.670   6.222 -1.9341 -0.7278  0.0592
 1668SOL    HW216641   0.762   0.557   6.309  0.8048 -1.2205  0.9648
 1669SOL     OW16642   2.507   1.329   9.651 -0.0921 -0.1025  0.1963
 1669SOL    HW116643   2.508   1.271   9.727 -2.6041  1.3561  1.3422
 1669SOL    HW216644   2.446   1.279   9.597 -1.0092 -1.6882  2.7395
 1670SOL     OW16645   4.473   0.063   3.621  0.5778 -0.2452  0.1380
 1670SOL    HW116646   4.435   0.122   3.557  0.3608  0.1933  0.6701
 1670SOL    HW216647   4.550   0.112   3.648 -1.3000  3.0806 -0.5456
 1671SOL     OW16648   0.618   3.187   5.430  0.5877  0.5305 -0.1276
 1671SOL    HW116649   0.713   3.191   5.421  0.3769  3.0773 -1.1425
 1671SOL    HW216650   0.589   3.199   5.340 -0.2776 -0.7912 -0.0261
 1672SOL     OW16651   4.724   4.713  12.201 -0.2251  0.2850 -0.1481
 1672SOL    HW116652   0.016   0.038  12.134  0.9566  1.5767  1.5581
 1672SOL    HW216653   0.045   0.012  12.268  0.7268  0.2389 -0.9374
 1673SOL     OW16654   0.570   0.961   9.834 -0.0202 -0.2516 -0.0347
 1673SOL    HW116655   0.492   0.968   9.890 -0.1710  0.6327 -0.3496
 1673SOL    HW216656   0.612   0.880   9.863 -0.9235 -1.3646 -1.8788
 1674SOL     OW16657   0.924   3.962   4.209  0.5501 -0.5421 -0.0120
 1674SOL    HW116658   0.957   3.956   4.120 -0.4850  0.4230 -0.4646
 1674SOL    HW216659   0.832   3.936   4.201  0.4024  0.5723 -2.0199
 1675SOL     OW16660   1.863   0.993   3.361  0.2332  0.4100 -0.2008
 1675SOL    HW116661   1.924   1.062   3.386 -0.8228  0.2311  2.9014
 1675SOL    HW216662   1.856   1.012   3.267 -0.9024 -1.6938 -0.5374
 1676SOL     OW16663   4.529   2.781   2.795 -0.4908  0.0252 -0.2354
 1676SOL    HW116664   4.486   2.712   2.744  3.8058 -0.2446 -3.4689
 1676SOL    HW216665   4.461   2.796   2.860  1.2179 -0.1202  1.5578
 1677SOL     OW16666   1.778   3.560   4.219 -0.3895 -0.0907 -0.0190
 1677SOL    HW116667   1.848   3.625   4.217  1.4769 -2.1127  0.1295
 1677SOL    HW216668   1.788   3.530   4.129  0.5326 -0.1177  0.0986
 1678SOL     OW16669   1.842   3.591   4.551 -0.5564 -0.2952  0.1854
 1678SOL    HW116670   1.814   3.522   4.611 -2.8957 -0.6089 -1.2560
 1678SOL    HW216671   1.933   3.604   4.577 -0.8640  1.5964  0.3519
 1679SOL     OW16672   4.018   1.979  11.529 -0.6954 -0.4215  0.1785
 1679SOL    HW116673   4.100   2.027  11.513  0.4320 -2.4059 -0.1328
 1679SOL    HW216674   4.019   1.965  11.623 -0.6850 -2.2548 -0.0877
 1680SOL     OW16675   0.548   0.478   5.381 -0.5818 -0.0877  0.1695
 1680SOL    HW116676   0.506   0.392   5.388  0.3805 -0.6605 -1.1429
 1680SOL    HW216677   0.556   0.490   5.286 -1.9044 -0.1212  0.0539
 1681SOL     OW16678   3.037   2.098   9.199 -0.6730 -0.1725  0.1141
 1681SOL    HW116679   2.971   2.111   9.131  1.2285  0.9647 -1.5360
 1681SOL    HW216680   2.990   2.127   9.277 -1.5434  0.4215 -0.6354
 1682SOL     OW16681   3.338   1.446  10.611 -0.0886  0.4328 -0.0344
 1682SOL    HW116682   3.273   1.405  10.553  0.4286 -1.2688  0.5869
 1682SOL    HW216683   3.420   1.397  10.609  0.1654  0.9223 -2.2526
 1683SOL     OW16684   2.712   2.310   1.628 -0.2101  0.0615 -0.7172
 1683SOL    HW116685   2.660   2.245   1.676 -2.1589  0.4448 -2.3216
 1683SOL    HW216686   2.639   2.339   1.574  0.9258 -2.8218 -3.7783
 1684SOL     OW16687   2.954   3.063  17.605 -0.2829  0.2001  0.2304
 1684SOL    HW116688   2.961   3.008  17.683  1.5622 -0.3454 -0.3205
 1684SOL    HW216689   2.893   3.132  17.632  0.1520  0.0774  1.5525
 1685SOL     OW16690   1.730   0.503  16.594 -0.0574  1.3365  0.3842
 1685SOL    HW116691   1.768   0.541  16.673  0.9391  0.1805  0.4584
 1685SOL    HW216692   1.778   0.548  16.525  0.7940  0.8303  0.6438
 1686SOL     OW16693   1.439   1.106   7.236  0.1137  0.0722 -0.5513
 1686SOL    HW116694   1.501   1.091   7.307 -2.0687  0.2709  1.3692
 1686SOL    HW216695   1.361   1.072   7.279 -0.2024  0.8669 -0.5056
 1687SOL     OW16696   2.699   4.496  14.784  0.0632 -0.5436  0.2620
 1687SOL    HW116697   2.707   4.445  14.864  3.7691  0.8589  0.7675
 1687SOL    HW216698   2.774   4.555  14.782  0.3849 -0.9296  1.1512
 1688SOL     OW16699   4.548   2.212   5.758 -0.3119 -0.5363  0.2418
 1688SOL    HW116700   4.588   2.298   5.747  1.3654 -1.4169 -0.6880
 1688SOL    HW216701   4.540   2.186   5.666  1.4118  0.9377 -0.3167
 1689SOL     OW16702   3.605   2.734   5.488  0.1866 -0.0804 -0.6611
 1689SOL    HW116703   3.538   2.676   5.452  0.6711 -0.7951 -0.4039
 1689SOL    HW216704   3.672   2.672   5.515  0.6625  0.9078  0.4278
 1690SOL     OW16705   4.304   2.567   3.560 -0.8992  0.6193  0.6534
 1690SOL    HW116706   4.289   2.655   3.524  1.7136  1.1821  0.9370
 1690SOL    HW216707   4.399   2.561   3.572 -0.8377  1.0198  0.3641
 1691SOL     OW16708   1.871   3.735   3.970  0.1575  0.1749 -0.2513
 1691SOL    HW116709   1.834   3.647   3.965 -0.5843  0.4836 -0.1536
 1691SOL    HW216710   1.846   3.772   3.885  1.9503  1.6845 -0.1252
 1692SOL     OW16711   4.632   2.011  10.816 -0.3383  0.3286  0.0634
 1692SOL    HW116712   4.632   2.090  10.871 -0.6432 -0.9471  1.9090
 1692SOL    HW216713   4.647   2.041  10.727  4.0261 -0.1172  0.6197
 1693SOL     OW16714   2.060   0.710   7.780 -0.8276 -0.0246  0.1358
 1693SOL    HW116715   1.972   0.673   7.778 -0.9433  0.3347 -1.0794
 1693SOL    HW216716   2.068   0.725   7.874  0.2330 -0.4132  0.0972
 1694SOL     OW16717   3.123   0.516   8.946 -0.2510 -0.0579 -0.0549
 1694SOL    HW116718   3.096   0.592   8.997  1.2421  0.5591 -0.1757
 1694SOL    HW216719   3.125   0.546   8.855  3.5504 -0.5376 -0.1272
 1695SOL     OW16720   0.398   1.959  16.423  0.3852  0.7056  0.0047
 1695SOL    HW116721   0.325   1.909  16.459  1.1553 -1.2037 -1.0631
 1695SOL    HW216722   0.355   2.008  16.353  1.2254  0.2024 -0.8798
 1696SOL     OW16723   1.694   0.675   5.848  0.2583 -0.7353  0.1667
 1696SOL    HW116724   1.651   0.604   5.895  1.6286 -1.0666  0.9113
 1696SOL    HW216725   1.646   0.679   5.764 -0.8770 -0.2838  0.8346
 1697SOL     OW16726   4.561   0.994  10.922  0.1618 -0.3308  0.1537
 1697SOL    HW116727   4.497   0.925  10.941  1.2251 -1.4433 -0.3003
 1697SOL    HW216728   4.578   0.988  10.828 -1.3102  0.9422 -0.1968
 1698SOL     OW16729   3.468   1.351   2.013  0.5112  0.0284  0.0976
 1698SOL    HW116730   3.392   1.408   2.025  0.9279  0.5214  0.3952
 1698SOL    HW216731   3.453   1.325   1.922  2.2748 -3.1453  0.7189
 1699SOL     OW16732   0.383   3.280   2.723  0.3814 -0.0154 -0.3223
 1699SOL    HW116733   0.299   3.235   2.713 -1.2780  3.0060  0.0882
 1699SOL    HW216734   0.357   3.369   2.701  0.2465  0.4380  1.6704
 1700SOL     OW16735   1.502   3.854   7.089 -0.0190 -0.8061 -0.5680
 1700SOL    HW116736   1.414   3.846   7.126 -0.5292  1.4843 -1.2689
 1700SOL    HW216737   1.488   3.878   6.998 -0.9064  3.6647  0.7058
 1701SOL     OW16738   3.262   2.575  17.624 -0.3005  0.0191 -0.3552
 1701SOL    HW116739   3.184   2.611  17.580 -1.0848 -0.7318  0.4139
 1701SOL    HW216740   3.223   2.501  17.670  2.2161 -0.8325  0.3739
 1702SOL     OW16741   1.752   1.177   2.674 -0.4271 -0.2831 -0.3884
 1702SOL    HW116742   1.690   1.210   2.739  0.5971  2.1806 -0.6734
 1702SOL    HW216743   1.834   1.213   2.706  0.0467 -1.4145 -0.3274
 1703SOL     OW16744   1.164   1.965   5.467  0.5378  0.1518 -0.5206
 1703SOL    HW116745   1.250   1.929   5.489  0.3249 -0.8653 -1.3819
 1703SOL    HW216746   1.138   1.914   5.391  1.2483  1.1214 -1.4138
 1704SOL     OW16747   4.126   3.960   3.970  0.2272 -0.0733  0.5511
 1704SOL    HW116748   4.118   3.877   4.017 -1.2021 -0.0897  0.2695
 1704SOL    HW216749   4.194   3.999   4.025  0.4811 -1.3822  1.1633
 1705SOL     OW16750   1.498   4.255   5.426 -0.3379 -0.2421 -0.0919
 1705SOL    HW116751   1.414   4.246   5.471 -0.5625  1.9181 -0.0846
 1705SOL    HW216752   1.462   4.310   5.356  0.8282  0.9056  0.2192
 1706SOL     OW16753   3.259   3.158   7.631 -0.3937  0.1967  0.1089
 1706SOL    HW116754   3.276   3.243   7.671  2.6717 -0.1073 -0.5590
 1706SOL    HW216755   3.174   3.188   7.598 -1.4433 -1.9251  0.9354
 1707SOL     OW16756   3.851   2.158   6.992 -0.0607 -0.2543  0.0215
 1707SOL    HW116757   3.928   2.156   6.935 -0.0092 -1.5699  0.1273
 1707SOL    HW216758   3.823   2.249   6.985  0.1712 -0.2751 -1.1220
 1708SOL     OW16759   4.500   3.938   8.836  0.3023  0.5993  0.4636
 1708SOL    HW116760   4.569   3.916   8.898 -0.0705  1.7415  1.2991
 1708SOL    HW216761   4.483   4.029   8.859  0.5077  1.2751 -2.0548
 1709SOL     OW16762   0.298   2.987   9.469  0.0893  0.2200  0.2982
 1709SOL    HW116763   0.217   2.940   9.489  0.4749 -0.7498 -0.3997
 1709SOL    HW216764   0.336   2.997   9.556 -0.5696  2.8120  0.2695
 1710SOL     OW16765   3.073   4.027   8.664 -0.4541 -0.0390  0.4045
 1710SOL    HW116766   3.024   3.972   8.603  0.6061 -1.9058  1.2617
 1710SOL    HW216767   3.004   4.086   8.694  0.6193  0.5244  1.7461
 1711SOL     OW16768   0.224   2.412   8.542  0.9735 -0.0639  0.0432
 1711SOL    HW116769   0.241   2.358   8.619 -0.0068 -0.3339  0.0771
 1711SOL    HW216770   0.267   2.361   8.474  0.2531  0.7187 -1.0127
 1712SOL     OW16771   2.906   3.179   0.979 -0.0048 -0.0700  0.2569
 1712SOL    HW116772   2.866   3.260   1.010 -2.7050 -0.5317 -1.9689
 1712SOL    HW216773   2.838   3.111   0.984 -0.3792  0.2185 -0.8325
 1713SOL     OW16774   0.280   0.801  12.341  0.1634 -0.3003 -0.8345
 1713SOL    HW116775   0.204   0.759  12.299 -2.4026  3.3401  0.1753
 1713SOL    HW216776   0.311   0.732  12.401  2.0777 -0.2532 -1.7821
 1714SOL     OW16777   0.301   0.674   3.588 -0.3682  0.1946 -0.0400
 1714SOL    HW116778   0.386   0.641   3.557 -0.4510  0.6061 -0.7027
 1714SOL    HW216779   0.276   0.629   3.669 -1.9095  0.6216 -0.2865
 1715SOL     OW16780   2.906   4.271  16.806  0.8689 -0.0564 -0.0494
 1715SOL    HW116781   2.884   4.239  16.894  0.3686 -0.4439 -0.3183
 1715SOL    HW216782   2.860   4.209  16.750  0.8544  1.3682 -1.6116
 1716SOL     OW16783   2.098   0.773  11.282 -0.0562 -0.0152  0.2692
 1716SOL    HW116784   2.188   0.742  11.280 -0.9670 -2.7148  0.2268
 1716SOL    HW216785   2.043   0.698  11.258  0.9689 -0.1735 -1.5746
 1717SOL     OW16786   3.987   2.433   9.196 -0.3916 -0.1763  0.2175
 1717SOL    HW116787   3.898   2.424   9.230 -0.1972  0.0578  0.7869
 1717SOL    HW216788   4.022   2.354   9.236  0.4109 -1.1397 -2.3911
 1718SOL     OW16789   2.151   4.486   5.981  0.1306 -0.0921 -0.6287
 1718SOL    HW116790   2.179   4.516   6.068 -2.9921  1.7197 -0.2251
 1718SOL    HW216791   2.151   4.391   5.991 -2.4030  0.1857  2.0632
 1719SOL     OW16792   0.516   4.533   8.649  0.4983  0.3558 -0.3674
 1719SOL    HW116793   0.441   4.548   8.590  0.2923 -0.9690 -0.4319
 1719SOL    HW216794   0.482   4.452   8.686 -0.0470  1.8316  2.3239
 1720SOL     OW16795   4.373   2.924   1.908  0.1421 -0.4367  0.3121
 1720SOL    HW116796   4.344   2.873   1.832 -1.7129  2.5329 -0.9813
 1720SOL    HW216797   4.289   2.938   1.951 -0.8038 -1.3682 -1.2222
 1721SOL     OW16798   4.154   2.380   5.155  0.6594 -0.0157  0.1029
 1721SOL    HW116799   4.170   2.351   5.065  0.0178 -1.6139  0.4955
 1721SOL    HW216800   4.103   2.457   5.130  1.1766 -0.1906 -1.4757
 1722SOL     OW16801   1.833   0.064  13.600  0.6293 -0.1815 -0.1588
 1722SOL    HW116802   1.790   4.729  13.554  2.5383 -1.7865  0.6173
 1722SOL    HW216803   1.790   0.143  13.566  2.2356  0.0139 -1.7219
 1723SOL     OW16804   3.219   1.637   7.918 -0.4565  0.0122 -0.4138
 1723SOL    HW116805   3.184   1.548   7.919  1.7824 -0.8334  2.1318
 1723SOL    HW216806   3.313   1.618   7.919 -0.6075 -0.6776  0.3806
 1724SOL     OW16807   4.564   3.096   9.618  0.3935  0.0050  0.2538
 1724SOL    HW116808   4.554   3.112   9.712 -1.5568 -0.5896  0.1430
 1724SOL    HW216809   4.570   3.001   9.612  1.1098  0.0364  0.3555
 1725SOL     OW16810   1.398   2.952   6.169  0.0211  0.3077 -0.6245
 1725SOL    HW116811   1.322   2.998   6.134 -0.7892  0.3629  1.2137
 1725SOL    HW216812   1.453   3.025   6.197  0.0804 -0.1974  0.5391
 1726SOL     OW16813   0.670   0.737  13.268 -0.0545 -0.8452  0.4893
 1726SOL    HW116814   0.619   0.736  13.187 -2.1100  0.7489  1.7853
 1726SOL    HW216815   0.673   0.827  13.301  0.1851  0.1302 -2.1273
 1727SOL     OW16816   1.650   3.575   7.661  0.0813  0.1800  0.1539
 1727SOL    HW116817   1.659   3.533   7.747  1.5100 -0.5157 -0.3483
 1727SOL    HW216818   1.740   3.586   7.631  0.6925  1.5014  2.4800
 1728SOL     OW16819   1.926   3.527   0.945 -0.0744  0.2294 -0.2559
 1728SOL    HW116820   2.001   3.471   0.926  1.9872  2.4031  1.4398
 1728SOL    HW216821   1.932   3.518   1.040  1.1074  0.0837 -0.3460
 1729SOL     OW16822   1.943   1.575   6.052 -0.9579  0.6556 -0.8175
 1729SOL    HW116823   1.883   1.637   6.094 -0.6497 -0.1064  0.7477
 1729SOL    HW216824   2.022   1.622   6.027 -1.6999  2.8301  0.9057
 1730SOL     OW16825   4.451   4.558   1.893  0.4641 -0.1666 -0.1020
 1730SOL    HW116826   4.432   4.623   1.825  1.2255 -0.6821 -0.8019
 1730SOL    HW216827   4.388   4.580   1.962  0.2996 -0.9123 -0.0137
 1731SOL     OW16828   2.351   0.626   2.807  0.3641  0.1111 -0.1577
 1731SOL    HW116829   2.295   0.671   2.871  1.8675  0.5303  0.8609
 1731SOL    HW216830   2.300   0.547   2.790  0.6616  0.1394 -1.1796
 1732SOL     OW16831   3.496   2.537   9.481  0.0846  0.1728 -0.1371
 1732SOL    HW116832   3.448   2.617   9.503  0.3683  0.1828  0.4680
 1732SOL    HW216833   3.472   2.526   9.390 -0.5260  3.1927 -0.3281
 1733SOL     OW16834   2.627   3.338  11.281  0.3038 -0.5422  0.1873
 1733SOL    HW116835   2.661   3.338  11.371 -1.9198 -0.3917  1.0156
 1733SOL    HW216836   2.538   3.305  11.292 -0.3944  1.3063  0.0604
 1734SOL     OW16837   4.531   3.457   6.636  0.2001 -0.3024 -0.2445
 1734SOL    HW116838   4.569   3.370   6.623  1.8646 -0.2630  4.3937
 1734SOL    HW216839   4.596   3.505   6.584 -1.6106  1.8524 -0.5268
 1735SOL     OW16840   3.991   2.193   2.308  0.6431  0.3234  0.5409
 1735SOL    HW116841   3.948   2.186   2.223  1.1189  2.1481  0.1636
 1735SOL    HW216842   4.051   2.118   2.311  0.7069  0.3506 -0.0589
 1736SOL     OW16843   2.709   4.503   3.981  0.6486 -0.7237  0.1726
 1736SOL    HW116844   2.799   4.497   4.011  0.5671 -1.2997  0.3037
 1736SOL    HW216845   2.717   4.572   3.915  3.4179  1.1485  2.4698
 1737SOL     OW16846   2.337   4.123   3.524 -0.0681 -0.0353  0.2475
 1737SOL    HW116847   2.391   4.142   3.601  0.3165  1.1306 -0.3045
 1737SOL    HW216848   2.289   4.045   3.551 -3.7661  1.7155 -1.2663
 1738SOL     OW16849   3.424   2.085   4.118  0.2545  0.0559 -0.5589
 1738SOL    HW116850   3.342   2.074   4.069  0.3755 -0.5676 -0.6251
 1738SOL    HW216851   3.396   2.033   4.193 -1.2740  0.6622 -0.6940
 1739SOL     OW16852   1.611   4.214  12.068 -0.2266 -0.5493 -0.0689
 1739SOL    HW116853   1.670   4.164  12.011  0.6982  0.8720 -0.3766
 1739SOL    HW216854   1.641   4.180  12.153  1.9148  1.3577 -0.0536
 1740SOL     OW16855   4.685   3.584  10.931  0.1100  0.0976  0.0051
 1740SOL    HW116856   4.648   3.510  10.884  1.5494  0.3686 -1.5434
 1740SOL    HW216857   4.622   3.652  10.907  1.7010  1.7842  0.6150
 1741SOL     OW16858   2.221   4.499   9.447 -0.6177 -0.0517  0.3593
 1741SOL    HW116859   2.272   4.542   9.515 -0.4840  0.6508 -0.1837
 1741SOL    HW216860   2.231   4.404   9.457 -1.9287  0.1675  3.9394
 1742SOL     OW16861   3.750   3.377   5.884  0.2123  0.1075  0.0371
 1742SOL    HW116862   3.692   3.375   5.961  1.1709 -0.1293  0.7546
 1742SOL    HW216863   3.718   3.312   5.822  0.7023  0.0975 -0.2012
 1743SOL     OW16864   4.329   4.606   2.136  0.0399  0.2016  0.0044
 1743SOL    HW116865   4.384   4.599   2.213  2.8080  0.3531 -1.9702
 1743SOL    HW216866   4.257   4.548   2.162  0.0385  1.3492  2.5662
 1744SOL     OW16867   1.460   0.015   2.924  0.3709 -0.2762  0.0131
 1744SOL    HW116868   1.432   0.106   2.928  0.7164 -0.0934 -1.5934
 1744SOL    HW216869   1.546   0.013   2.882  0.0110 -1.9684 -0.6396
 1745SOL     OW16870   3.910   3.701  13.342  0.0801 -0.0767 -0.1489
 1745SOL    HW116871   3.955   3.709  13.426 -0.4388 -2.3453  0.3370
 1745SOL    HW216872   3.882   3.790  13.321 -2.9563 -0.8288  0.7455
 1746SOL     OW16873   4.698   4.497   9.034 -0.1027  0.0358  0.3826
 1746SOL    HW116874   0.033   4.458   9.083 -2.9459 -0.9524  3.8071
 1746SOL    HW216875   0.008   4.555   8.973  0.0317  0.5327  0.9581
 1747SOL     OW16876   3.461   3.233   1.204  0.3833  0.2093 -0.3654
 1747SOL    HW116877   3.388   3.294   1.188  0.7489  1.1101  1.3615
 1747SOL    HW216878   3.507   3.238   1.121  1.0654 -0.4172 -0.0228
 1748SOL     OW16879   2.765   1.227  16.114  0.2386  0.1679  0.6080
 1748SOL    HW116880   2.765   1.165  16.188 -0.5711 -0.4355  0.1133
 1748SOL    HW216881   2.708   1.194  16.044  2.3385 -0.3187 -0.8521
 1749SOL     OW16882   3.820   0.084   3.854  0.1683  0.0627  0.1514
 1749SOL    HW116883   3.860   0.016   3.799 -1.3544 -1.0283  0.4162
 1749SOL    HW216884   3.880   0.076   3.928  0.0894 -0.2350  0.1820
 1750SOL     OW16885   0.603   2.393   6.926  0.0437  0.0033  0.3370
 1750SOL    HW116886   0.563   2.466   6.879  0.5561 -1.0340 -1.7127
 1750SOL    HW216887   0.532   2.356   6.979 -1.2374  0.0406 -1.3302
 1751SOL     OW16888   2.975   3.337   7.948  0.0632 -0.0873  0.4794
 1751SOL    HW116889   3.008   3.291   8.025  2.3938  0.4826 -0.1617
 1751SOL    HW216890   2.931   3.268   7.898  1.0940  0.8135 -1.6961
 1752SOL     OW16891   0.414   3.428   3.223  0.0282 -0.0916 -0.3144
 1752SOL    HW116892   0.336   3.476   3.252 -1.0775 -1.1388 -1.5383
 1752SOL    HW216893   0.460   3.428   3.307  1.0795 -0.2500 -0.8947
 1753SOL     OW16894   1.439   2.553  11.328 -0.0483  0.5185 -0.3267
 1753SOL    HW116895   1.434   2.500  11.248 -0.6602  0.1348 -0.0296
 1753SOL    HW216896   1.415   2.486  11.392  1.4341 -0.4199 -0.7431
 1754SOL     OW16897   4.588   1.043   5.891 -0.0942  0.2286 -0.4197
 1754SOL    HW116898   4.602   1.009   5.803  1.8729  2.3734 -0.9190
 1754SOL    HW216899   4.674   1.038   5.932 -1.3550  0.8848  2.2985
 1755SOL     OW16900   3.980   2.668   5.263 -0.4185 -0.2246 -0.1415
 1755SOL    HW116901   3.991   2.761   5.279  1.3047 -0.0077 -2.5359
 1755SOL    HW216902   3.987   2.639   5.353 -0.7150  0.4245  0.0904
 1756SOL     OW16903   1.068   2.721   1.888  0.3349 -0.6872 -0.1935
 1756SOL    HW116904   1.037   2.680   1.807  0.0738 -0.3755 -0.2514
 1756SOL    HW216905   1.122   2.658   1.936  1.2251  0.5085  0.3481
 1757SOL     OW16906   0.501   0.737   8.039  0.2860  0.1798  0.2895
 1757SOL    HW116907   0.544   0.668   7.989  1.3582  1.0367  0.0436
 1757SOL    HW216908   0.422   0.686   8.060 -0.2180  1.7760  2.3061
 1758SOL     OW16909   1.249   3.403  13.804 -0.0224  0.1420  0.2222
 1758SOL    HW116910   1.172   3.357  13.837 -2.4743  1.9122 -3.0561
 1758SOL    HW216911   1.244   3.493  13.836 -0.3212  0.3506 -0.3930
 1759SOL     OW16912   0.171   0.338   3.548  0.2169 -0.1627 -0.2544
 1759SOL    HW116913   0.114   0.325   3.472 -1.6268 -1.3870  1.3543
 1759SOL    HW216914   0.184   0.250   3.581 -2.1877 -0.8917 -1.2435
 1760SOL     OW16915   3.406   4.219  14.393  0.0770 -0.1159  0.2319
 1760SOL    HW116916   3.358   4.174  14.324 -0.4002 -0.5055  0.8198
 1760SOL    HW216917   3.493   4.179  14.386 -0.1266 -0.2183 -1.6840
 1761SOL     OW16918   4.645   3.852   8.576 -0.0582  0.2682 -0.1103
 1761SOL    HW116919   4.582   3.810   8.519  2.2993 -0.8164 -1.9333
 1761SOL    HW216920   4.607   3.869   8.663 -0.7027  0.5776 -0.4548
 1762SOL     OW16921   0.394   2.395   6.038  0.1336 -0.0761 -0.4167
 1762SOL    HW116922   0.303   2.381   6.015  0.0361  0.1068 -0.1409
 1762SOL    HW216923   0.434   2.308   6.042 -0.2550 -0.2262  0.1457
 1763SOL     OW16924   2.965   4.098  17.146  0.1230 -0.3865 -0.3784
 1763SOL    HW116925   2.922   4.049  17.075  0.9878 -0.7630 -0.6451
 1763SOL    HW216926   2.918   4.180  17.131 -0.1924 -0.4199  0.4308
 1764SOL     OW16927   0.545   4.328   6.708  0.5335 -0.7503 -0.2324
 1764SOL    HW116928   0.488   4.259   6.676  0.0813 -1.2354  1.5831
 1764SOL    HW216929   0.631   4.286   6.712  0.6712 -0.2794  1.8517
 1765SOL     OW16930   0.376   1.660   5.412  0.5564  0.3983 -0.0774
 1765SOL    HW116931   0.470   1.647   5.424  0.6851  0.3717 -1.0847
 1765SOL    HW216932   0.382   1.753   5.391 -1.1540  0.2377 -1.2352
 1766SOL     OW16933   0.529   0.115   6.085  0.0229  0.1580  0.0794
 1766SOL    HW116934   0.514   0.051   6.016  0.4784  1.8488 -1.6045
 1766SOL    HW216935   0.440   0.150   6.093 -0.2198 -0.4487 -0.0333
 1767SOL     OW16936   0.706   1.595  14.822  0.0733 -0.2905 -0.1577
 1767SOL    HW116937   0.660   1.628  14.899  0.6198 -0.0957  0.0859
 1767SOL    HW216938   0.766   1.532  14.861 -0.2654 -0.1095  0.6557
 1768SOL     OW16939   1.062   2.865   7.953 -0.4290 -0.1592 -0.0430
 1768SOL    HW116940   0.969   2.852   7.972 -0.6137  1.0572 -0.1489
 1768SOL    HW216941   1.059   2.925   7.879 -1.4796  0.0416  0.1591
 1769SOL     OW16942   4.294   0.908  14.815  0.1979 -0.3713  0.3397
 1769SOL    HW116943   4.260   0.819  14.805 -2.2281  0.5039  0.9107
 1769SOL    HW216944   4.264   0.921  14.905  1.6935  2.0601  0.4782
 1770SOL     OW16945   4.382   0.667  15.170  0.2965 -0.1700  0.0597
 1770SOL    HW116946   4.434   0.639  15.095  1.8314  0.0571  1.0517
 1770SOL    HW216947   4.340   0.586  15.198  2.0562 -0.8692  0.6346
 1771SOL     OW16948   2.941   0.636   5.640  0.3876  0.4863  0.6407
 1771SOL    HW116949   2.881   0.709   5.626  0.2320  0.4361  1.0473
 1771SOL    HW216950   3.027   0.679   5.636  1.2533 -1.3392 -0.4143
 1772SOL     OW16951   3.058   2.849   1.501 -0.6014 -0.3540 -0.2716
 1772SOL    HW116952   3.143   2.878   1.470  0.5079 -0.4482  2.6550
 1772SOL    HW216953   3.087   2.818   1.587 -1.2395  2.5316  1.0005
 1773SOL     OW16954   2.566   2.113   1.720 -0.2036  0.4436 -0.5725
 1773SOL    HW116955   2.567   2.040   1.659  1.4299 -0.0104 -0.0150
 1773SOL    HW216956   2.494   2.093   1.779 -0.5568  0.2465 -1.0696
 1774SOL     OW16957   4.372   0.842   7.603 -0.3381  0.0204 -0.4938
 1774SOL    HW116958   4.321   0.812   7.678 -1.7803  0.4781 -1.2921
 1774SOL    HW216959   4.442   0.896   7.639 -1.7258  1.4206  0.1232
 1775SOL     OW16960   1.180   4.309  12.170 -0.1137 -0.4787 -0.2114
 1775SOL    HW116961   1.155   4.219  12.193  0.3623 -0.9185 -1.3679
 1775SOL    HW216962   1.161   4.343  12.257  0.5437 -0.1749 -0.1811
 1776SOL     OW16963   1.970   1.865  12.154  0.3238  0.0211 -0.3615
 1776SOL    HW116964   1.925   1.937  12.197  0.5375  0.1812 -0.4056
 1776SOL    HW216965   1.917   1.790  12.181  1.1349 -0.3142  0.3221
 1777SOL     OW16966   2.473   0.894   3.043 -0.4821  0.4373 -0.1015
 1777SOL    HW116967   2.523   0.972   3.021 -0.0294  0.6757  1.7205
 1777SOL    HW216968   2.407   0.887   2.975  0.0568  1.4677 -0.7124
 1778SOL     OW16969   2.708   1.054   4.805 -0.4557  0.5098  0.0558
 1778SOL    HW116970   2.646   1.003   4.752 -0.4440  2.3002 -1.6791
 1778SOL    HW216971   2.664   1.046   4.889 -1.2199 -1.4803 -0.5385
 1779SOL     OW16972   0.055   1.436   5.005  0.1395  0.2041  0.0470
 1779SOL    HW116973   0.063   1.355   5.054 -0.3231 -0.7956 -1.5298
 1779SOL    HW216974   0.110   1.491   5.061  0.6070 -0.4776  0.2582
 1780SOL     OW16975   2.332   2.172   4.028  0.1905 -0.3149 -0.0907
 1780SOL    HW116976   2.302   2.156   3.938 -1.1901  0.7467  0.1905
 1780SOL    HW216977   2.402   2.108   4.036  0.7288  0.1500 -1.0170
 1781SOL     OW16978   1.862   2.364   9.911  0.2326 -0.1201  0.1996
 1781SOL    HW116979   1.794   2.316   9.958 -0.6435  0.3868 -0.5451
 1781SOL    HW216980   1.891   2.423   9.981 -0.4414  0.9458 -0.4042
 1782SOL     OW16981   1.750   4.359  11.688 -0.0461  0.0176  0.1772
 1782SOL    HW116982   1.690   4.365  11.762 -0.9094  1.1977 -0.6115
 1782SOL    HW216983   1.827   4.408  11.717  0.7263  0.8060 -3.2097
 1783SOL     OW16984   2.040   2.982   8.517  0.5116 -0.1037 -0.0867
 1783SOL    HW116985   1.984   3.054   8.488 -1.4624 -1.0881  1.2710
 1783SOL    HW216986   2.035   2.919   8.445 -0.0608 -0.7453  0.5188
 1784SOL     OW16987   0.397   2.928   0.627  0.2447 -0.4329 -0.3389
 1784SOL    HW116988   0.332   2.933   0.558  0.4657 -0.6539 -0.5626
 1784SOL    HW216989   0.482   2.929   0.584 -0.5429 -0.0076 -1.8784
 1785SOL     OW16990   0.298   3.230   5.040  0.2817 -0.1307 -0.1772
 1785SOL    HW116991   0.328   3.319   5.024  0.8172  0.0121  1.6480
 1785SOL    HW216992   0.203   3.237   5.029  0.3577  1.9374  0.5471
 1786SOL     OW16993   4.171   1.947  10.048  0.4120  0.2122  0.2392
 1786SOL    HW116994   4.089   1.989  10.076  0.4989  0.9681 -0.6209
 1786SOL    HW216995   4.240   1.990  10.099  1.1972  0.3554 -0.9544
 1787SOL     OW16996   1.566   3.124   9.320 -0.0073 -0.0992  0.4250
 1787SOL    HW116997   1.635   3.176   9.360  0.0172 -0.3226  0.6711
 1787SOL    HW216998   1.567   3.046   9.375  1.2141 -0.1843  0.2622
 1788SOL     OW16999   3.477   1.236   9.517 -0.1214 -0.0890  0.4415
 1788SOL    HW117000   3.556   1.284   9.492 -0.4946  0.8232  0.9998
 1788SOL    HW217001   3.417   1.309   9.498 -0.3862 -1.0231 -2.3100
 1789SOL     OW17002   3.626   4.272  17.159  0.2496 -0.1658 -0.9982
 1789SOL    HW117003   3.634   4.301  17.068 -1.2528  0.4794 -0.9166
 1789SOL    HW217004   3.648   4.178  17.156 -0.5098 -0.4495  2.1845
 1790SOL     OW17005   1.201   3.402   3.186  0.1791  0.1325  0.2074
 1790SOL    HW117006   1.256   3.433   3.258 -0.2926  2.7094 -0.5649
 1790SOL    HW217007   1.113   3.435   3.198 -0.4671 -1.2605 -0.6991
 1791SOL     OW17008   0.989   2.673   4.409  0.0148 -0.2712  0.7283
 1791SOL    HW117009   0.969   2.766   4.395 -1.7530 -0.7067  0.4468
 1791SOL    HW217010   0.919   2.629   4.361  1.0749 -1.5791  0.3749
 1792SOL     OW17011   0.713   1.926   8.437 -0.6132  0.4491  0.0246
 1792SOL    HW117012   0.729   1.963   8.524 -2.3096  0.5077  0.3058
 1792SOL    HW217013   0.773   1.961   8.372  0.0177 -4.4127 -2.0095
 1793SOL     OW17014   1.129   2.557   2.234 -1.0344  0.1514 -0.6454
 1793SOL    HW117015   1.168   2.471   2.219  0.8629  0.7706  0.7396
 1793SOL    HW217016   1.193   2.594   2.294 -1.6402 -1.1807  0.8285
 1794SOL     OW17017   3.301   4.468  12.133  0.5737 -0.0234  0.5624
 1794SOL    HW117018   3.285   4.394  12.192  2.1202 -0.1466  0.8356
 1794SOL    HW217019   3.218   4.515  12.129 -0.1711 -1.2848  1.1558
 1795SOL     OW17020   4.680   3.983  12.883  0.3505  0.1432 -0.1378
 1795SOL    HW117021   4.623   4.037  12.938 -0.2682  0.4784 -1.1171
 1795SOL    HW217022   4.649   3.995  12.794 -1.5035 -0.2491  0.4500
 1796SOL     OW17023   3.559   3.024   6.454  0.2818  0.1277 -0.0125
 1796SOL    HW117024   3.474   2.992   6.485 -0.7152  1.9296 -0.8796
 1796SOL    HW217025   3.590   2.937   6.427 -0.1397  0.3036 -1.0306
 1797SOL     OW17026   0.457   3.029   1.704  0.0447 -0.4835 -0.8563
 1797SOL    HW117027   0.550   3.006   1.714  0.1667 -0.1913 -1.3795
 1797SOL    HW217028   0.464   3.092   1.633 -0.7296 -1.0275 -1.4188
 1798SOL     OW17029   1.916   4.482   2.320 -0.1041  0.1723 -0.4479
 1798SOL    HW117030   1.992   4.432   2.290  2.2327  2.1994  2.0544
 1798SOL    HW217031   1.854   4.418   2.354 -0.6220  1.4431  1.0137
 1799SOL     OW17032   4.518   0.852   4.839 -0.1255 -0.0056 -0.0541
 1799SOL    HW117033   4.581   0.803   4.891  3.4116  2.4338 -2.0285
 1799SOL    HW217034   4.445   0.860   4.901 -0.7988 -3.3913 -0.4243
 1800SOL     OW17035   1.786   4.180   8.469 -0.1003  0.1514 -0.0819
 1800SOL    HW117036   1.856   4.125   8.502 -0.2248 -0.2092 -0.4252
 1800SOL    HW217037   1.832   4.197   8.387 -1.6701 -0.5513 -1.1058
 1801SOL     OW17038   0.336   4.650   8.018 -0.3547 -0.1098  0.3360
 1801SOL    HW117039   0.414   4.612   8.059 -0.4567  1.4576  1.9511
 1801SOL    HW217040   0.272   4.579   8.016 -1.0137  0.5244 -0.8266
 1802SOL     OW17041   3.701   1.999   1.242  0.1309 -0.2572 -0.0367
 1802SOL    HW117042   3.612   2.029   1.225 -0.3196 -2.5664 -1.8272
 1802SOL    HW217043   3.733   2.061   1.308 -0.6258 -1.6344  1.6201
 1803SOL     OW17044   2.524   1.686   2.543  0.3067  0.0146 -0.0091
 1803SOL    HW117045   2.467   1.697   2.619  0.4349 -1.4520  0.3105
 1803SOL    HW217046   2.466   1.736   2.486 -2.4389 -2.6489  0.4343
 1804SOL     OW17047   3.931   2.108  16.419 -0.2078  0.1492  0.2943
 1804SOL    HW117048   3.839   2.116  16.444 -0.2754  0.6306 -0.1059
 1804SOL    HW217049   3.934   2.123  16.324  0.3722  0.1920  0.3236
 1805SOL     OW17050   0.178   0.371   6.817  0.4697 -0.3730  0.3356
 1805SOL    HW117051   0.171   0.465   6.836  0.6438 -0.5840  1.4329
 1805SOL    HW217052   0.259   0.347   6.861  0.9564  0.5910 -0.0167
 1806SOL     OW17053   1.093   4.604   5.366 -0.3026 -0.1752 -0.0291
 1806SOL    HW117054   1.080   4.696   5.387 -1.2138 -0.6680  1.6092
 1806SOL    HW217055   1.075   4.574   5.455  2.0203 -2.3703 -0.2873
 1807SOL     OW17056   0.249   1.311   8.822 -0.0004 -0.7215  0.4009
 1807SOL    HW117057   0.285   1.347   8.903 -0.8089  1.7503 -0.3472
 1807SOL    HW217058   0.326   1.293   8.768 -0.3086 -1.4018  0.1868
 1808SOL     OW17059   3.835   4.051   2.260  0.7198  0.2974 -0.4202
 1808SOL    HW117060   3.764   4.004   2.304  1.2637 -0.3353 -0.2291
 1808SOL    HW217061   3.797   4.138   2.243  1.3014  0.9310  1.5623
 1809SOL     OW17062   3.596   0.515   4.249  0.6478 -0.0023  0.0220
 1809SOL    HW117063   3.661   0.565   4.298 -0.1088 -0.1114  1.1338
 1809SOL    HW217064   3.644   0.452   4.196  0.9550  0.0379  0.2507
 1810SOL     OW17065   1.766   0.426   7.969  0.7686 -0.1752 -0.2824
 1810SOL    HW117066   1.790   0.462   7.884 -0.9867  1.3011 -0.1461
 1810SOL    HW217067   1.851   0.423   8.014  1.0374 -0.8008 -0.8236
 1811SOL     OW17068   2.743   0.583   6.682 -0.0616 -0.0805 -0.3587
 1811SOL    HW117069   2.661   0.632   6.691  0.0214  0.3214 -1.7235
 1811SOL    HW217070   2.741   0.567   6.587 -1.0751 -1.3225 -0.1315
 1812SOL     OW17071   4.145   1.038   2.380 -0.5722 -0.0719 -0.2262
 1812SOL    HW117072   4.121   1.128   2.361 -0.0130  0.4869  1.7078
 1812SOL    HW217073   4.058   1.000   2.377 -0.5209 -0.4013  2.2665
 1813SOL     OW17074   1.653   0.377   3.429 -0.0318  0.4634  0.7351
 1813SOL    HW117075   1.710   0.300   3.423  1.8603  1.7900  1.5680
 1813SOL    HW217076   1.711   0.447   3.400 -0.1551 -0.5048 -1.8121
 1814SOL     OW17077   2.399   4.623  12.872 -0.0062 -0.0681 -0.0890
 1814SOL    HW117078   2.343   4.621  12.949  1.0547 -1.1323  0.6639
 1814SOL    HW217079   2.403   4.718  12.858 -1.4633 -0.0583 -0.4098
 1815SOL     OW17080   2.094   4.311   2.205  0.4133 -0.1303 -0.2734
 1815SOL    HW117081   2.054   4.334   2.121 -0.7782  0.5235  0.4734
 1815SOL    HW217082   2.185   4.283   2.194  0.5523  0.3551 -0.3748
 1816SOL     OW17083   3.081   0.026  12.247 -0.3883 -0.0957 -0.1868
 1816SOL    HW117084   3.004   0.082  12.242  0.4617  1.2679  2.3505
 1816SOL    HW217085   3.091   4.728  12.158 -1.1361 -2.5352  0.7152
 1817SOL     OW17086   1.661   4.045   7.189  0.4608 -0.6108 -0.0319
 1817SOL    HW117087   1.593   3.992   7.147 -0.0683 -1.2090  1.5812
 1817SOL    HW217088   1.613   4.123   7.215 -0.7186 -1.2326 -0.3238
 1818SOL     OW17089   2.400   1.869   4.095  0.3395  0.3252 -0.6644
 1818SOL    HW117090   2.448   1.786   4.091  1.3403  0.8863 -0.2071
 1818SOL    HW217091   2.409   1.888   4.189 -3.4917  0.2772 -0.2806
 1819SOL     OW17092   3.364   1.366  15.264  0.2030  0.3974  0.0223
 1819SOL    HW117093   3.297   1.407  15.210  0.1362  1.3570  0.8401
 1819SOL    HW217094   3.444   1.372  15.211 -0.6498  1.7090 -1.1465
 1820SOL     OW17095   2.140   1.104   8.729 -0.4809 -0.4114 -0.1719
 1820SOL    HW117096   2.156   1.100   8.824 -0.3235 -1.5208 -0.2360
 1820SOL    HW217097   2.143   1.008   8.724  0.3591 -0.3871 -0.1143
 1821SOL     OW17098   3.238   1.139   7.795  0.1377  0.2719  0.0438
 1821SOL    HW117099   3.282   1.057   7.773  1.1219  0.1433  2.4571
 1821SOL    HW217100   3.174   1.147   7.725  0.0385  0.8361  0.1996
 1822SOL     OW17101   2.956   0.351   7.157 -0.3449 -0.1328 -0.1194
 1822SOL    HW117102   3.046   0.364   7.127  0.0177 -1.4754  0.4031
 1822SOL    HW217103   2.919   0.295   7.089 -0.5971  1.8075 -1.5840
 1823SOL     OW17104   1.662   1.850   3.691  0.1517 -0.6400  0.2922
 1823SOL    HW117105   1.690   1.758   3.689  0.1876 -0.6081 -0.6932
 1823SOL    HW217106   1.585   1.853   3.748 -0.1171  0.7757 -0.1609
 1824SOL     OW17107   4.226   3.432  16.440  0.1324 -0.3095 -0.3709
 1824SOL    HW117108   4.279   3.448  16.518 -0.4823  2.5039 -0.5600
 1824SOL    HW217109   4.245   3.338  16.438 -2.1274 -0.7487 -1.4675
 1825SOL     OW17110   2.965   1.019   2.206 -0.2695 -0.5245 -0.5998
 1825SOL    HW117111   2.874   1.049   2.200 -0.3292 -0.6987 -0.5844
 1825SOL    HW217112   3.005   1.094   2.250 -1.3918  1.2544 -2.6273
 1826SOL     OW17113   1.111   2.034  10.514 -0.1932  0.1993  0.0047
 1826SOL    HW117114   1.111   1.980  10.593 -0.0412 -0.3106 -0.3436
 1826SOL    HW217115   1.203   2.024  10.489  0.1703 -0.4826  1.6175
 1827SOL     OW17116   0.458   0.737   3.114  0.0342 -0.1297 -0.1630
 1827SOL    HW117117   0.444   0.777   3.028 -1.8767  0.2569  0.3273
 1827SOL    HW217118   0.420   0.810   3.163  1.8964 -0.2040  1.3757
 1828SOL     OW17119   4.554   4.357   4.768  0.2858  0.0963  0.6448
 1828SOL    HW117120   4.529   4.447   4.751 -0.1538  0.2352  2.0565
 1828SOL    HW217121   4.625   4.371   4.831 -0.0358 -4.8250  2.1359
 1829SOL     OW17122   0.543   0.209  17.128 -0.2778 -0.3766  0.2866
 1829SOL    HW117123   0.633   0.238  17.112 -0.6231  1.2729  1.3027
 1829SOL    HW217124   0.543   0.125  17.083 -1.0458  0.2857 -0.9342
 1830SOL     OW17125   1.900   1.434   4.527  0.2175 -0.0978 -0.3210
 1830SOL    HW117126   1.871   1.447   4.617 -0.0670  3.1784 -0.8611
 1830SOL    HW217127   1.978   1.488   4.509  0.6215 -0.1387  1.3431
 1831SOL     OW17128   1.549   1.726  12.455  0.1436  0.8184 -0.1947
 1831SOL    HW117129   1.465   1.722  12.502  0.0652  2.2059 -0.2260
 1831SOL    HW217130   1.580   1.816  12.462 -1.3333  1.4929 -2.7200
 1832SOL     OW17131   2.135   3.534   6.902  0.1533  0.5884  0.0057
 1832SOL    HW117132   2.197   3.475   6.860  0.6686  0.4269  1.0015
 1832SOL    HW217133   2.077   3.551   6.828  2.0100 -2.1961 -2.0518
 1833SOL     OW17134   0.123   0.351  14.917 -0.2422  0.6933  0.5957
 1833SOL    HW117135   0.169   0.276  14.878 -1.1278  1.3182 -1.6721
 1833SOL    HW217136   0.037   0.345  14.876 -0.9926  2.1957  1.9539
 1834SOL     OW17137   3.154   2.316   5.803 -0.5767 -0.1888 -0.0376
 1834SOL    HW117138   3.092   2.374   5.846  2.8271  1.5946  2.4877
 1834SOL    HW217139   3.177   2.370   5.727  0.8722 -1.6670 -0.6400
 1835SOL     OW17140   2.249   2.555   7.663  0.0369 -0.1486  0.2192
 1835SOL    HW117141   2.301   2.592   7.591 -0.2726 -2.5531 -1.2507
 1835SOL    HW217142   2.162   2.557   7.624  0.1166  0.0484  0.0492
 1836SOL     OW17143   2.060   0.454   3.168  0.2165  0.2966 -0.0124
 1836SOL    HW117144   2.068   0.539   3.211  2.4676 -1.2443  2.5541
 1836SOL    HW217145   2.125   0.406   3.219  0.7253 -0.6703 -1.5756
 1837SOL     OW17146   3.394   2.562   1.462  0.9847  0.3950  0.1684
 1837SOL    HW117147   3.468   2.597   1.512  1.5540  0.2351 -0.5661
 1837SOL    HW217148   3.342   2.519   1.529  1.0823  1.3246  0.8408
 1838SOL     OW17149   1.304   3.425   9.012 -0.0914  0.0199  0.2394
 1838SOL    HW117150   1.365   3.365   9.056 -0.6794 -0.9013 -0.2104
 1838SOL    HW217151   1.267   3.385   8.934  2.0642  0.0399 -0.7979
 1839SOL     OW17152   3.807   1.256   3.994  0.0363  0.1729  0.1087
 1839SOL    HW117153   3.714   1.266   4.016  0.0062  0.8798 -0.3446
 1839SOL    HW217154   3.847   1.320   4.053  1.1713 -0.8218  0.4152
 1840SOL     OW17155   1.508   1.647   4.891 -0.9632  0.4890  0.4994
 1840SOL    HW117156   1.451   1.644   4.814 -0.7291  0.7087  0.3151
 1840SOL    HW217157   1.588   1.629   4.842 -0.7266 -2.2919  1.9550
 1841SOL     OW17158   3.092   3.601   4.844  0.3295 -0.1722  0.0356
 1841SOL    HW117159   3.147   3.669   4.805  0.9145  0.8025  2.5077
 1841SOL    HW217160   3.052   3.653   4.914  0.7723 -0.0251  0.1818
 1842SOL     OW17161   1.555   0.631   8.418  0.7367 -0.3136  0.4798
 1842SOL    HW117162   1.645   0.635   8.385  0.5255 -0.4609 -0.1099
 1842SOL    HW217163   1.512   0.579   8.350  0.3410  0.4481  0.1589
 1843SOL     OW17164   4.153   0.742   7.757 -0.0049 -0.1416  0.0333
 1843SOL    HW117165   4.108   0.694   7.687  2.8267 -1.3516 -0.9666
 1843SOL    HW217166   4.180   0.667   7.810  0.2045  0.5653  0.9125
 1844SOL     OW17167   4.312   1.685   9.804 -0.1663  0.2954  0.0278
 1844SOL    HW117168   4.306   1.729   9.719  3.2777  1.1929  0.2355
 1844SOL    HW217169   4.286   1.596   9.780 -0.2076  0.3558 -0.1563
 1845SOL     OW17170   3.854   2.416   3.823 -0.3967 -0.0627 -0.2559
 1845SOL    HW117171   3.893   2.494   3.785 -1.0005  2.1135  3.6278
 1845SOL    HW217172   3.822   2.363   3.750 -3.1540  2.4468 -0.8692
 1846SOL     OW17173   1.664   3.216   0.880  0.1413  0.4213  0.2878
 1846SOL    HW117174   1.735   3.254   0.828  0.0309  1.4168  0.8681
 1846SOL    HW217175   1.670   3.260   0.965 -2.7411 -1.3328  1.3924
 1847SOL     OW17176   2.316   0.611   5.128 -0.2619  0.8041 -0.1577
 1847SOL    HW117177   2.248   0.546   5.144 -0.2708  0.9637  0.4347
 1847SOL    HW217178   2.396   0.560   5.113 -0.4149  0.8171 -1.0652
 1848SOL     OW17179   4.484   4.457  11.914  0.4109  0.5626  0.5507
 1848SOL    HW117180   4.508   4.426  11.827  2.1889  2.6225  0.3165
 1848SOL    HW217181   4.395   4.491  11.903  0.2556  0.4520  1.3996
 1849SOL     OW17182   1.316   1.042   2.827 -0.2149 -0.1424 -0.0629
 1849SOL    HW117183   1.284   0.968   2.776  0.0798 -1.0223  1.0331
 1849SOL    HW217184   1.294   1.115   2.769 -1.5209  0.1522  0.8107
 1850SOL     OW17185   3.170   1.622   1.214 -0.2588 -0.0967 -0.1375
 1850SOL    HW117186   3.086   1.664   1.230 -2.8029 -4.9930 -0.8652
 1850SOL    HW217187   3.231   1.671   1.270 -1.6965  0.1517  1.1891
 1851SOL     OW17188   0.276   1.174   2.951 -0.1328 -0.7334 -0.1863
 1851SOL    HW117189   0.290   1.238   3.021 -1.2432 -1.7037  0.9371
 1851SOL    HW217190   0.264   1.231   2.875 -2.7946 -0.1553  0.6454
 1852SOL     OW17191   3.851   3.864   3.848 -0.7652 -0.3421 -0.1589
 1852SOL    HW117192   3.845   3.780   3.801 -1.1021 -0.7226  0.5606
 1852SOL    HW217193   3.759   3.890   3.843  0.2328  2.9504 -0.8886
 1853SOL     OW17194   4.476   2.297  11.107  0.3323  0.1731  0.7296
 1853SOL    HW117195   4.469   2.256  11.021  0.5473 -1.6209  1.5736
 1853SOL    HW217196   4.571   2.304  11.106  0.2377  1.0574 -2.6029
 1854SOL     OW17197   0.667   0.847  12.542 -0.4375  0.3537 -0.4636
 1854SOL    HW117198   0.706   0.931  12.566  0.4000 -0.2546  0.3233
 1854SOL    HW217199   0.591   0.833  12.600 -1.1116  2.5578 -0.8224
 1855SOL     OW17200   4.159   4.420   2.249 -0.4088  0.3914  0.6305
 1855SOL    HW117201   4.218   4.346   2.236 -1.2287  0.3925 -3.1409
 1855SOL    HW217202   4.092   4.387   2.309  0.8112  0.9288  2.2636
 1856SOL     OW17203   1.490   3.760  16.771 -0.4007  0.2575 -0.2927
 1856SOL    HW117204   1.403   3.797  16.761  0.8527  3.1013 -0.7696
 1856SOL    HW217205   1.478   3.683  16.716 -1.7789 -0.7279  1.3932
 1857SOL     OW17206   3.150   0.568   5.157  0.1744  0.0628 -0.0808
 1857SOL    HW117207   3.152   0.519   5.075  0.0824  0.7771 -0.5077
 1857SOL    HW217208   3.184   0.507   5.223  0.8811  0.2659 -0.2636
 1858SOL     OW17209   2.319   1.500   9.801 -0.7407 -0.1163 -0.4950
 1858SOL    HW117210   2.375   1.430   9.767  0.2393  1.0616 -1.3184
 1858SOL    HW217211   2.383   1.552   9.849  1.1313 -3.0984  0.2427
 1859SOL     OW17212   2.249   1.594   2.353 -0.4683  0.2089  0.0601
 1859SOL    HW117213   2.323   1.550   2.393 -0.2458  0.8180  0.3197
 1859SOL    HW217214   2.185   1.524   2.345  0.6002 -0.6316 -1.1583
 1860SOL     OW17215   1.423   1.498   9.350 -0.3696  0.2797  0.5799
 1860SOL    HW117216   1.330   1.521   9.351 -0.3953  0.1317  1.4529
 1860SOL    HW217217   1.435   1.462   9.438  4.5024 -0.6519 -0.4566
 1861SOL     OW17218   0.547   4.696  12.028 -0.5122  0.2260 -0.4466
 1861SOL    HW117219   0.454   4.673  12.025 -0.8242  1.5597 -1.1122
 1861SOL    HW217220   0.577   4.664  12.113 -0.9879  1.0202  0.0254
 1862SOL     OW17221   0.848   0.917   6.279 -0.1585 -0.2349 -0.3912
 1862SOL    HW117222   0.877   0.926   6.188 -0.6821 -1.4446 -0.6832
 1862SOL    HW217223   0.756   0.891   6.272  0.0823 -0.5724 -2.3743
 1863SOL     OW17224   3.327   0.155   6.935 -0.0356  0.0350  0.0869
 1863SOL    HW117225   3.261   0.217   6.965 -0.2356  0.1640 -0.6189
 1863SOL    HW217226   3.356   0.129   7.022  1.1649  0.9512 -0.0482
 1864SOL     OW17227   4.732   4.563   5.530  0.3765 -0.1417  0.2156
 1864SOL    HW117228   4.670   4.590   5.598 -0.2637  0.1015 -0.4598
 1864SOL    HW217229   4.677   4.513   5.470 -0.8189  0.2873  0.9580
 1865SOL     OW17230   0.342   4.626   2.212 -0.3141 -0.5051  0.0133
 1865SOL    HW117231   0.314   4.549   2.163  0.9680 -0.1288 -1.3193
 1865SOL    HW217232   0.420   4.662   2.168 -1.1947  0.0320 -1.1312
 1866SOL     OW17233   3.436   2.400   4.439  0.3020 -0.2151 -0.2089
 1866SOL    HW117234   3.388   2.410   4.357  0.2097 -0.0995 -0.1406
 1866SOL    HW217235   3.522   2.378   4.404  0.8139  0.6532  0.4953
 1867SOL     OW17236   2.225   2.480   7.283 -0.2514  0.0614 -0.3204
 1867SOL    HW117237   2.280   2.402   7.276  0.3873  0.2355  2.5498
 1867SOL    HW217238   2.263   2.527   7.358 -0.5021  1.3587 -1.0080
 1868SOL     OW17239   3.421   2.072   5.229  0.0617  0.1530 -0.2727
 1868SOL    HW117240   3.379   2.136   5.287  1.7996 -0.7466  2.0035
 1868SOL    HW217241   3.365   2.063   5.152  2.1907 -2.2416 -1.5758
 1869SOL     OW17242   1.288   1.604   4.149  0.9631 -0.1903 -0.3593
 1869SOL    HW117243   1.273   1.668   4.081  0.9741  1.0968  0.8510
 1869SOL    HW217244   1.383   1.595   4.161  0.5269 -1.1963  2.4220
 1870SOL     OW17245   1.337   2.132   4.975 -1.0410 -0.0422 -0.3270
 1870SOL    HW117246   1.405   2.130   4.908 -0.2422 -0.1337  0.4962
 1870SOL    HW217247   1.381   2.071   5.034  1.7348  1.3242 -1.0105
 1871SOL     OW17248   0.241   1.989  14.549  0.4321  0.4546  0.1079
 1871SOL    HW117249   0.171   1.932  14.518  2.1043 -0.7625 -1.4471
 1871SOL    HW217250   0.205   2.077  14.541 -2.5447 -1.0384 -2.6301
 1872SOL     OW17251   0.450   1.277   8.571 -0.0807  0.3359  0.0810
 1872SOL    HW117252   0.524   1.282   8.510  1.2511  0.6254  1.6996
 1872SOL    HW217253   0.414   1.192   8.548  0.6579 -0.7559  3.0232
 1873SOL     OW17254   3.277   0.015  14.354  0.1018 -0.4902 -0.2273
 1873SOL    HW117255   3.287   0.105  14.386 -0.1295  0.0199 -1.5844
 1873SOL    HW217256   3.325   0.028  14.271 -1.2662 -2.1872 -1.2800
 1874SOL     OW17257   0.548   3.915   8.222 -0.1068  0.2264 -0.1255
 1874SOL    HW117258   0.628   3.950   8.261  0.9422  0.3571 -2.3761
 1874SOL    HW217259   0.588   3.877   8.144 -0.8017 -1.4484  0.3271
 1875SOL     OW17260   3.488   1.970   8.723  0.0549 -0.0455 -0.6024
 1875SOL    HW117261   3.467   2.045   8.780 -1.1618 -0.1514 -0.9087
 1875SOL    HW217262   3.548   2.014   8.663  0.3148  0.5556  0.1041
 1876SOL     OW17263   4.130   0.491   8.803 -0.0485  0.1995  0.1817
 1876SOL    HW117264   4.114   0.432   8.729 -0.7724 -0.8135  1.1410
 1876SOL    HW217265   4.049   0.481   8.852 -0.3256 -0.5347 -0.4246
 1877SOL     OW17266   2.443   4.388   5.746  0.1009  0.3587  0.1002
 1877SOL    HW117267   2.451   4.406   5.653  0.3498  0.9549  0.2374
 1877SOL    HW217268   2.461   4.474   5.785  2.4950  0.0603 -0.3663
 1878SOL     OW17269   3.392   2.532   5.355 -0.1851  0.5373  0.2741
 1878SOL    HW117270   3.458   2.475   5.317 -1.3102 -2.0186  2.1203
 1878SOL    HW217271   3.382   2.594   5.284 -1.0010  0.0425 -0.0441
 1879SOL     OW17272   3.829   3.503   8.067  0.0589 -0.2778 -0.2481
 1879SOL    HW117273   3.892   3.563   8.107 -0.5807  1.7321 -2.3297
 1879SOL    HW217274   3.849   3.522   7.975 -0.1100 -1.0145 -0.4356
 1880SOL     OW17275   2.599   1.017   6.173 -0.0954  0.2834 -0.1544
 1880SOL    HW117276   2.532   0.977   6.118  1.1681  0.2561 -1.6770
 1880SOL    HW217277   2.584   1.110   6.157 -0.2871  0.2587 -0.1152
 1881SOL     OW17278   2.821   3.424   9.353  0.0655  0.6596 -0.7807
 1881SOL    HW117279   2.776   3.489   9.407 -1.0397 -0.2982 -0.5615
 1881SOL    HW217280   2.903   3.411   9.400 -0.3372 -2.1637 -0.8536
 1882SOL     OW17281   3.260   4.426   5.685 -0.2702  0.0638  0.4197
 1882SOL    HW117282   3.278   4.378   5.766 -0.4188 -0.2552  0.2653
 1882SOL    HW217283   3.288   4.514   5.708 -1.5670 -0.1753  2.9237
 1883SOL     OW17284   4.017   1.775   2.963  0.1227 -0.5062 -0.0392
 1883SOL    HW117285   4.076   1.814   2.899 -0.9212  0.1545 -0.6079
 1883SOL    HW217286   3.948   1.842   2.965 -1.6457 -2.3287  0.3414
 1884SOL     OW17287   2.566   2.870   5.501  0.7627  0.3720  0.1059
 1884SOL    HW117288   2.572   2.896   5.593 -0.6144  0.9671  0.0199
 1884SOL    HW217289   2.490   2.913   5.462 -1.7228 -1.8972  2.4066
 1885SOL     OW17290   4.528   2.771   7.347  0.2042 -0.5767 -0.9973
 1885SOL    HW117291   4.595   2.740   7.285  0.9913  0.2662 -0.5674
 1885SOL    HW217292   4.577   2.749   7.426  0.1593  0.4167 -0.6942
 1886SOL     OW17293   2.069   0.301   6.063  0.4770  0.0644 -0.4267
 1886SOL    HW117294   1.978   0.287   6.037 -0.0372  0.4222  1.2267
 1886SOL    HW217295   2.073   0.265   6.152  1.8974  1.9789  0.2906
 1887SOL     OW17296   2.445   0.161   3.810  0.0004  0.1946  0.1909
 1887SOL    HW117297   2.468   0.109   3.887  1.3667  2.9448  1.6053
 1887SOL    HW217298   2.388   0.092   3.776 -0.1258  0.8015 -0.8279
 1888SOL     OW17299   0.350   0.600   5.538 -0.0438  0.3759  0.4785
 1888SOL    HW117300   0.347   0.686   5.496 -0.9477 -0.8684 -2.0028
 1888SOL    HW217301   0.416   0.563   5.480 -0.5792 -0.6209  0.5050
 1889SOL     OW17302   3.863   1.829  15.054  0.5713  0.4752  0.6695
 1889SOL    HW117303   3.809   1.840  15.132  0.4037 -0.7674  0.7390
 1889SOL    HW217304   3.918   1.906  15.066  0.9828 -0.0373  2.0957
 1890SOL     OW17305   4.736   1.829   4.309 -0.4592  0.1578 -0.3619
 1890SOL    HW117306   4.672   1.760   4.296 -0.9030  0.9011 -2.1456
 1890SOL    HW217307   4.681   1.901   4.278 -0.1334  0.6632  0.2325
 1891SOL     OW17308   3.059   0.863   7.072  0.1598 -0.1109  0.5544
 1891SOL    HW117309   3.026   0.795   7.014 -1.2970  1.1786 -0.1322
 1891SOL    HW217310   3.076   0.817   7.154 -2.1101 -2.7658 -0.4408
 1892SOL     OW17311   0.184   2.997   0.461 -0.1037  0.2217  1.0242
 1892SOL    HW117312   0.122   2.991   0.534 -0.4090  1.5128  0.8751
 1892SOL    HW217313   0.141   3.064   0.408 -0.3542 -0.3766  0.4686
 1893SOL     OW17314   2.150   0.099   8.218  0.2319 -0.1636 -0.2303
 1893SOL    HW117315   2.159   0.132   8.308  0.5686 -1.1600  0.0957
 1893SOL    HW217316   2.134   0.006   8.232  0.6846 -0.2354 -0.1893
 1894SOL     OW17317   4.565   0.168   3.178  0.2610 -0.0616  0.0020
 1894SOL    HW117318   4.627   0.200   3.243 -1.0397 -0.4612  1.4449
 1894SOL    HW217319   4.616   0.108   3.124  0.7756 -1.0011  1.5542
 1895SOL     OW17320   1.950   0.335   6.400 -0.8161 -0.7141 -0.1297
 1895SOL    HW117321   2.042   0.312   6.386 -0.6486 -0.0333 -0.1463
 1895SOL    HW217322   1.955   0.430   6.389 -3.6106 -0.8212 -2.1380
 1896SOL     OW17323   1.351   4.175   8.340  0.2200 -0.3549  1.2992
 1896SOL    HW117324   1.262   4.159   8.372 -0.2971  1.6164  0.8343
 1896SOL    HW217325   1.360   4.266   8.369  0.1244 -0.1446  0.6614
 1897SOL     OW17326   1.671   1.842  10.802 -0.4668 -0.0407 -0.8543
 1897SOL    HW117327   1.757   1.799  10.796 -1.4130 -2.2192  1.4588
 1897SOL    HW217328   1.620   1.771  10.840 -2.1247  1.1525 -0.8290
 1898SOL     OW17329   0.405   0.959   3.276 -0.1247 -0.3056 -0.0883
 1898SOL    HW117330   0.473   1.021   3.249  0.7418 -1.3329 -0.2982
 1898SOL    HW217331   0.424   0.954   3.370 -0.2379 -0.3289 -0.0664
 1899SOL     OW17332   0.602   3.333   3.949 -0.0302  0.1697  0.1979
 1899SOL    HW117333   0.618   3.239   3.962 -0.5151  0.2094  1.1016
 1899SOL    HW217334   0.686   3.376   3.966  0.3385 -0.8466  0.9451
 1900SOL     OW17335   4.375   0.295   7.559 -0.3367 -0.0928  0.1990
 1900SOL    HW117336   4.369   0.280   7.653  1.4029 -0.8106  0.1939
 1900SOL    HW217337   4.407   0.386   7.566 -0.4758  0.2451 -3.8730
 1901SOL     OW17338   1.198   4.192   1.809 -0.3176 -0.4395  0.0559
 1901SOL    HW117339   1.225   4.269   1.759 -2.6460  0.0407 -0.4606
 1901SOL    HW217340   1.130   4.149   1.758  0.6110  2.3651 -3.5126
 1902SOL     OW17341   0.607   2.822   6.899 -0.7362 -0.4139  0.1577
 1902SOL    HW117342   0.578   2.776   6.821 -0.8047 -0.9471  0.4954
 1902SOL    HW217343   0.677   2.875   6.860  0.6076 -1.3742  1.2418
 1903SOL     OW17344   4.385   0.496   4.777  0.2090 -0.2403 -0.8060
 1903SOL    HW117345   4.319   0.516   4.843  1.4032  1.1634 -0.0225
 1903SOL    HW217346   4.451   0.438   4.816  0.3433 -0.0225 -0.7111
 1904SOL     OW17347   0.230   2.890   7.956  0.2770 -0.2824 -0.4617
 1904SOL    HW117348   0.255   2.900   7.864  0.9691 -2.7291 -0.5503
 1904SOL    HW217349   0.205   2.798   7.954 -1.2519  0.1051  0.6717
 1905SOL     OW17350   2.996   3.396   8.349 -0.3182  0.0443  0.0803
 1905SOL    HW117351   3.078   3.407   8.398 -0.5085  2.2048 -0.1122
 1905SOL    HW217352   2.998   3.305   8.319  0.7961  0.1970 -0.3236
 1906SOL     OW17353   2.695   2.272   4.461  0.5918  0.1698 -0.6179
 1906SOL    HW117354   2.627   2.279   4.394  0.3027 -2.1064 -0.5496
 1906SOL    HW217355   2.674   2.184   4.490 -0.3350  1.3295  2.2747
 1907SOL     OW17356   2.686   4.124  16.703  0.2845  0.4492 -0.0201
 1907SOL    HW117357   2.661   4.143  16.613  0.3832  1.8478  0.2554
 1907SOL    HW217358   2.690   4.028  16.695 -0.6463  0.3514  0.7310
 1908SOL     OW17359   4.303   0.841   4.024  0.0822 -1.0549 -0.4779
 1908SOL    HW117360   4.208   0.848   4.038  0.1821 -3.0415  1.1150
 1908SOL    HW217361   4.318   0.931   3.995  1.3117 -1.4130 -0.9389
 1909SOL     OW17362   0.432   0.251  12.423  0.1326  0.1254  0.7133
 1909SOL    HW117363   0.502   0.195  12.389 -0.4277  0.5139 -1.1222
 1909SOL    HW217364   0.464   0.333  12.386 -0.1209  0.0888  0.4047
 1910SOL     OW17365   1.147   4.369   4.296 -0.2795 -0.1509  0.2063
 1910SOL    HW117366   1.055   4.364   4.319 -0.5865  0.5986 -0.8916
 1910SOL    HW217367   1.175   4.415   4.375 -0.0480  1.0821 -0.5926
 1911SOL     OW17368   2.196   2.802   4.070  0.4136  0.3618 -0.5783
 1911SOL    HW117369   2.290   2.792   4.085 -0.1563 -1.5803  1.7438
 1911SOL    HW217370   2.182   2.894   4.090  0.3799  0.4197 -0.8793
 1912SOL     OW17371   1.921   3.306   2.395  0.4534  0.1508  0.3556
 1912SOL    HW117372   1.897   3.354   2.475  1.3937 -0.1295  0.8072
 1912SOL    HW217373   2.003   3.264   2.419  0.5614  0.6166  0.7977
 1913SOL     OW17374   4.441   1.407   7.298 -0.1066  0.3768 -0.0550
 1913SOL    HW117375   4.529   1.376   7.275  0.2525  0.3648  1.3197
 1913SOL    HW217376   4.392   1.348   7.242 -0.6485  2.3852 -1.6827
 1914SOL     OW17377   0.424   2.528   5.388  0.2400 -0.4352  0.1726
 1914SOL    HW117378   0.337   2.568   5.393  0.9153  0.8196  2.2300
 1914SOL    HW217379   0.476   2.593   5.436 -0.2085 -0.7409  1.0852
 1915SOL     OW17380   1.484   3.401  10.692 -0.3370 -0.3716  0.0302
 1915SOL    HW117381   1.449   3.490  10.700 -2.6065 -1.2202 -0.4399
 1915SOL    HW217382   1.463   3.374  10.603 -2.4192 -0.4043  0.5451
 1916SOL     OW17383   2.549   3.832   1.738 -0.1237 -0.6033  0.1389
 1916SOL    HW117384   2.589   3.895   1.678 -0.5354  1.0386  1.5997
 1916SOL    HW217385   2.459   3.812   1.711 -0.7250  1.8729  0.2853
 1917SOL     OW17386   4.551   2.414   8.778  0.8452 -0.4540  0.3782
 1917SOL    HW117387   4.502   2.334   8.798 -1.5569  1.2608  1.2729
 1917SOL    HW217388   4.561   2.461   8.860  2.0297  1.0523 -0.6301
 1918SOL     OW17389   0.637   0.060   3.764 -0.0810  0.4381 -0.4464
 1918SOL    HW117390   0.696   0.028   3.833  1.5607  1.4592 -1.3950
 1918SOL    HW217391   0.623   4.714   3.718  0.5452  0.8912 -1.4453
 1919SOL     OW17392   1.807   2.122  16.903 -0.4648 -0.2811  0.1278
 1919SOL    HW117393   1.830   2.170  16.983 -0.7083  0.3996 -0.2191
 1919SOL    HW217394   1.714   2.108  16.923 -1.4017  0.0965 -4.0294
 1920SOL     OW17395   0.674   0.711   7.030  0.0867  0.0495  0.8017
 1920SOL    HW117396   0.650   0.802   7.046  0.3277  0.4509 -1.1274
 1920SOL    HW217397   0.641   0.668   7.109  0.1204  0.7063  1.1714
 1921SOL     OW17398   4.057   4.026   9.834 -0.2326 -0.0426  0.0360
 1921SOL    HW117399   4.020   4.070   9.910 -0.7853  1.8996 -1.3587
 1921SOL    HW217400   4.074   3.937   9.865 -0.7329  0.3668  1.4631
 1922SOL     OW17401   1.656   2.860   1.640  0.4276  0.4942  0.1300
 1922SOL    HW117402   1.563   2.849   1.662 -0.5084  0.0076 -3.9840
 1922SOL    HW217403   1.676   2.768   1.619  0.2735  0.3131  0.7838
 1923SOL     OW17404   3.174   0.145   0.579  0.3833 -0.4545  0.1013
 1923SOL    HW117405   3.215   0.224   0.615  0.7515 -0.0237 -1.2650
 1923SOL    HW217406   3.199   0.162   0.488 -2.2602 -1.6433 -0.8434
 1924SOL     OW17407   0.898   0.294   3.180 -0.1430  0.6015 -0.2238
 1924SOL    HW117408   0.903   0.225   3.246 -1.7660  0.0661 -0.6561
 1924SOL    HW217409   0.988   0.324   3.167  0.4083 -0.3345  1.4525
 1925SOL     OW17410   1.645   1.050   1.777  0.2262 -0.4208  0.0200
 1925SOL    HW117411   1.569   1.108   1.775  1.2502  0.9254  0.5325
 1925SOL    HW217412   1.619   0.979   1.718  1.7719 -1.4698  0.5963
 1926SOL     OW17413   4.527   4.176   3.887  0.2790 -0.0056 -0.1243
 1926SOL    HW117414   4.590   4.134   3.829 -0.9695 -2.2419  0.1646
 1926SOL    HW217415   4.581   4.223   3.950  0.4536  1.0846 -1.0687
 1927SOL     OW17416   2.323   2.085   1.837 -0.4104 -0.4709  0.6308
 1927SOL    HW117417   2.274   2.038   1.904  1.3920 -1.6158  1.1477
 1927SOL    HW217418   2.246   2.099   1.782  0.4880 -0.9265 -0.7298
 1928SOL     OW17419   2.351   1.336   6.247  0.1939  0.3279  0.4124
 1928SOL    HW117420   2.270   1.351   6.296 -0.7257  2.8018 -1.9241
 1928SOL    HW217421   2.413   1.377   6.308 -0.4576  0.7701  0.7735
 1929SOL     OW17422   2.752   0.950   8.703  0.1296 -0.2968  0.1232
 1929SOL    HW117423   2.794   0.943   8.789  0.1965 -2.1327 -0.0605
 1929SOL    HW217424   2.791   0.876   8.658 -0.2606  0.5061 -1.5248
 1930SOL     OW17425   3.770   2.035   7.526 -0.1702 -0.3990  0.0373
 1930SOL    HW117426   3.767   1.951   7.481 -0.7053 -0.4844  0.2389
 1930SOL    HW217427   3.853   2.025   7.574  1.4858 -0.6186 -2.8846
 1931SOL     OW17428   2.567   4.259  11.129 -0.7282  0.2317 -0.0217
 1931SOL    HW117429   2.559   4.175  11.174  0.7262 -0.0450 -0.2636
 1931SOL    HW217430   2.644   4.294  11.174 -0.4867 -0.8558  0.4134
 1932SOL     OW17431   4.049   2.558   3.163  0.7932  0.3814 -0.3146
 1932SOL    HW117432   4.020   2.468   3.177  0.7517  0.5699  0.7868
 1932SOL    HW217433   3.977   2.581   3.105  0.7861 -1.2258 -0.9417
 1933SOL     OW17434   0.365   3.745  13.987  0.2648  0.0549 -0.4910
 1933SOL    HW117435   0.459   3.735  14.005  0.3845  1.7636 -0.1198
 1933SOL    HW217436   0.372   3.815  13.922 -0.7510  1.9800  1.4823
 1934SOL     OW17437   4.090   3.464  12.747  0.3518  0.6939 -0.0351
 1934SOL    HW117438   4.048   3.549  12.761  0.2201  0.7154 -0.5511
 1934SOL    HW217439   4.118   3.480  12.656  1.2170 -0.7210 -0.0184
 1935SOL     OW17440   1.537   2.092  16.665 -0.2996  0.0041 -0.9893
 1935SOL    HW117441   1.463   2.147  16.691  1.7275  2.0180  0.4348
 1935SOL    HW217442   1.611   2.151  16.669 -0.6013  0.4232 -1.5223
 1936SOL     OW17443   2.997   1.332   6.080 -0.0011  0.0697 -0.0566
 1936SOL    HW117444   2.928   1.340   6.146  1.1729  1.8124  0.9889
 1936SOL    HW217445   3.006   1.419   6.042  2.7479  0.3997  1.3319
 1937SOL     OW17446   1.367   0.862  10.876  0.6455 -0.1386 -0.3643
 1937SOL    HW117447   1.293   0.829  10.928  0.9159 -1.7607 -0.9990
 1937SOL    HW217448   1.394   0.781  10.833  2.0221  0.3584 -0.4256
 1938SOL     OW17449   1.036   2.830   2.367  0.0050 -0.4636  0.0064
 1938SOL    HW117450   1.129   2.827   2.346 -0.0347  1.4567 -0.4766
 1938SOL    HW217451   0.996   2.879   2.294 -0.1247  0.8194  0.9472
 1939SOL     OW17452   0.254   3.413   8.921 -0.2327 -0.4096 -0.7955
 1939SOL    HW117453   0.296   3.336   8.884 -0.4310 -0.3370 -1.1737
 1939SOL    HW217454   0.291   3.415   9.009  0.5891  1.5565 -1.1740
 1940SOL     OW17455   2.630   2.108   2.977  0.1794  0.1016 -0.0715
 1940SOL    HW117456   2.668   2.028   3.013 -0.0139  0.0739  0.0741
 1940SOL    HW217457   2.705   2.164   2.957  0.2080  0.3402  0.7026
 1941SOL     OW17458   4.524   1.786  15.205  0.2803 -0.0910  0.0080
 1941SOL    HW117459   4.477   1.710  15.239  0.9811 -0.2619  0.5985
 1941SOL    HW217460   4.525   1.765  15.112 -0.1888 -0.0606 -0.0010
 1942SOL     OW17461   2.043   4.531  13.576 -0.1812  0.1025  0.6525
 1942SOL    HW117462   1.979   4.567  13.637 -0.9533  1.8868 -1.2159
 1942SOL    HW217463   2.115   4.595  13.567 -1.3005  1.0320 -1.7990
 1943SOL     OW17464   1.272   3.989   5.325  0.3663 -0.1999 -0.0731
 1943SOL    HW117465   1.246   4.065   5.377 -0.9587 -1.6835  1.3993
 1943SOL    HW217466   1.259   3.913   5.380  0.6045 -0.7600 -0.7875
 1944SOL     OW17467   0.159   0.344   4.424  0.2025  0.4822 -0.3562
 1944SOL    HW117468   0.134   0.436   4.429  1.1749  0.7073  0.1490
 1944SOL    HW217469   0.168   0.318   4.515  0.2100 -0.9542 -0.7621
 1945SOL     OW17470   1.915   2.504   3.254 -0.0959  0.0581  0.1982
 1945SOL    HW117471   1.901   2.588   3.298 -1.7743 -0.1189 -0.0247
 1945SOL    HW217472   1.931   2.537   3.166 -0.7959  0.2809  0.1586
 1946SOL     OW17473   1.245   3.999   5.060 -0.1175  0.3254 -0.0676
 1946SOL    HW117474   1.218   4.091   5.055  1.8701  0.8769 -0.7055
 1946SOL    HW217475   1.275   3.998   5.151  1.0447  1.7869 -0.4259
 1947SOL     OW17476   1.482   1.098   4.701  0.4224  0.3606  0.2800
 1947SOL    HW117477   1.511   1.145   4.623  0.2838  0.3304  0.2094
 1947SOL    HW217478   1.433   1.032   4.652 -1.9821  1.2475  1.4788
 1948SOL     OW17479   3.490   0.815   2.736 -0.2348 -0.2598  0.0366
 1948SOL    HW117480   3.398   0.828   2.759 -0.1581 -0.9406  0.6962
 1948SOL    HW217481   3.510   0.722   2.730 -0.3353 -0.3627  1.3332
 1949SOL     OW17482   2.911   3.889   9.004 -0.1920  0.3274 -0.3532
 1949SOL    HW117483   2.891   3.850   9.090 -0.4140 -2.8707 -1.8339
 1949SOL    HW217484   2.821   3.909   8.977  0.4314  1.9825 -1.1881
 1950SOL     OW17485   2.251   1.880  12.268 -0.1525  0.0717 -0.0380
 1950SOL    HW117486   2.203   1.853  12.347  0.5579 -0.1390  0.3249
 1950SOL    HW217487   2.176   1.876  12.209 -1.5090  0.3610  1.6780
 1951SOL     OW17488   3.952   3.714  14.345  0.3284  0.3787  0.0679
 1951SOL    HW117489   3.891   3.654  14.389  1.0201  0.4475  1.1151
 1951SOL    HW217490   4.019   3.727  14.412 -0.5215 -1.0682  1.2203
 1952SOL     OW17491   2.870   3.375   4.718  0.1488  0.1092  0.1234
 1952SOL    HW117492   2.941   3.439   4.714  0.3495 -0.0979  0.3495
 1952SOL    HW217493   2.826   3.411   4.796  1.0061 -0.1757  0.7407
 1953SOL     OW17494   0.160   4.324   5.308 -0.1947  0.0027  0.0081
 1953SOL    HW117495   0.250   4.295   5.325 -0.7432 -0.8317  1.5301
 1953SOL    HW217496   0.172   4.418   5.299  1.3253 -0.1064  0.9051
 1954SOL     OW17497   0.254   1.573  16.589 -0.2250  0.0748  0.0122
 1954SOL    HW117498   0.310   1.497  16.605 -0.9106 -0.8657 -2.0325
 1954SOL    HW217499   0.188   1.572  16.658 -0.4041  1.3263 -0.1441
 1955SOL     OW17500   4.359   3.296   4.986  0.7104  0.2887 -0.4815
 1955SOL    HW117501   4.427   3.355   4.952  1.5504 -0.2409  0.2713
 1955SOL    HW217502   4.385   3.273   5.075  0.0815  1.4482  0.0136
 1956SOL     OW17503   4.173   3.890  12.360 -0.2678  0.4710  0.1412
 1956SOL    HW117504   4.229   3.909  12.284  0.9989 -0.5264  0.8333
 1956SOL    HW217505   4.196   3.800  12.382  0.9509  0.5804 -0.6900
 1957SOL     OW17506   1.182   1.412   4.723  0.3304 -0.5337 -0.5039
 1957SOL    HW117507   1.211   1.397   4.813 -3.4353 -1.2701  0.5582
 1957SOL    HW217508   1.090   1.437   4.723  1.0479  2.1064  1.3353
 1958SOL     OW17509   1.894   4.542   4.021  0.4011 -0.0290 -0.1179
 1958SOL    HW117510   1.968   4.526   4.080 -0.9036  2.9073  2.3749
 1958SOL    HW217511   1.937   4.510   3.942  0.6342 -0.8177  0.3249
 1959SOL     OW17512   1.982   2.664  13.293  0.3009 -0.2964 -0.7631
 1959SOL    HW117513   2.053   2.721  13.324  0.7927 -0.4787 -1.5688
 1959SOL    HW217514   1.916   2.725  13.261  1.6903  0.2676 -2.5176
 1960SOL     OW17515   4.536   3.380   0.675  0.6397 -0.1050  0.0658
 1960SOL    HW117516   4.509   3.304   0.726 -1.1615  0.6368  0.2103
 1960SOL    HW217517   4.479   3.439   0.725  1.6943  0.0427  1.0988
 1961SOL     OW17518   4.187   1.643   9.145 -0.1437  0.6830  0.5531
 1961SOL    HW117519   4.142   1.683   9.219 -0.3153 -0.4254  1.0435
 1961SOL    HW217520   4.273   1.682   9.153 -0.1284  0.9399 -0.7911
 1962SOL     OW17521   3.643   4.173   3.849  0.4441 -0.1148  0.2322
 1962SOL    HW117522   3.559   4.210   3.818  0.7933 -0.3682 -1.0425
 1962SOL    HW217523   3.638   4.082   3.819  1.2211 -0.4096  1.0140
 1963SOL     OW17524   3.210   3.444   6.344 -0.8067  0.0290  0.2782
 1963SOL    HW117525   3.159   3.376   6.389 -2.0286  0.5823 -0.2977
 1963SOL    HW217526   3.148   3.515   6.334  0.0230  0.4442 -1.8156
 1964SOL     OW17527   1.046   2.924   0.923 -0.2967  0.0968  0.7851
 1964SOL    HW117528   0.968   2.968   0.889  1.7103  2.6731 -0.4188
 1964SOL    HW217529   1.075   2.872   0.848 -1.6241 -0.5427  0.6954
 1965SOL     OW17530   3.937   2.583   3.630  0.4624  1.0817 -0.5747
 1965SOL    HW117531   3.895   2.582   3.544 -0.2635 -0.6019 -0.2052
 1965SOL    HW217532   4.022   2.621   3.610  0.9403  1.2175  1.6490
 1966SOL     OW17533   2.508   0.069  13.613 -0.5305  0.5739 -0.1333
 1966SOL    HW117534   2.566   0.142  13.637  1.2676 -1.4317  1.5942
 1966SOL    HW217535   2.535   0.003  13.676 -0.4222  0.3142 -0.4505
 1967SOL     OW17536   1.231   0.025   1.966 -0.3895 -0.3992 -0.6645
 1967SOL    HW117537   1.191   0.109   1.943 -0.5268 -0.5224 -0.8701
 1967SOL    HW217538   1.208   4.707   1.891 -1.8289 -0.2412 -0.3415
 1968SOL     OW17539   1.059   4.630  16.716  0.4927 -0.0249  0.3162
 1968SOL    HW117540   1.109   4.613  16.636  1.5113 -0.5104  1.0549
 1968SOL    HW217541   1.072   4.724  16.729  1.5643 -0.2001  0.4911
 1969SOL     OW17542   3.637   1.478   6.366  0.0007  0.5145 -0.2552
 1969SOL    HW117543   3.644   1.434   6.450 -4.1103 -0.3394 -0.3780
 1969SOL    HW217544   3.568   1.425   6.327  0.7729 -1.0275  0.4862
 1970SOL     OW17545   4.010   3.848   5.407 -0.3825  0.5157  0.0536
 1970SOL    HW117546   4.048   3.894   5.481 -0.3405  0.7877 -0.1365
 1970SOL    HW217547   4.091   3.833   5.359  1.2110  3.1113  1.9882
 1971SOL     OW17548   1.436   4.301  15.346 -0.7776  0.1810  0.0629
 1971SOL    HW117549   1.421   4.395  15.342  2.6441  0.7061 -0.4509
 1971SOL    HW217550   1.464   4.267  15.261 -1.8477  1.0449 -0.6186
 1972SOL     OW17551   4.430   0.964  13.779  0.1465  0.0468 -0.2519
 1972SOL    HW117552   4.374   1.016  13.721 -0.9293 -1.0586 -0.2255
 1972SOL    HW217553   4.372   0.954  13.855  0.9901 -1.7587  0.1392
 1973SOL     OW17554   3.876   2.994  15.091 -0.2850  0.0296  0.0194
 1973SOL    HW117555   3.902   3.047  15.016 -1.0106 -0.3442 -0.4914
 1973SOL    HW217556   3.887   3.051  15.167 -1.0570  0.7640 -0.4170
 1974SOL     OW17557   0.124   2.841   1.515  0.1828 -0.3691  0.5528
 1974SOL    HW117558   0.037   2.807   1.540 -0.4805 -0.9043 -2.4299
 1974SOL    HW217559   0.163   2.806   1.595 -2.0671 -3.2227  0.4037
 1975SOL     OW17560   2.668   3.945   2.976 -0.1911  0.3109  0.4454
 1975SOL    HW117561   2.689   4.038   2.982 -1.4382  0.4899  2.3221
 1975SOL    HW217562   2.635   3.928   2.888  1.2278 -0.1120  0.0029
 1976SOL     OW17563   0.456   3.163   3.557 -0.0138 -0.1278 -0.2016
 1976SOL    HW117564   0.390   3.151   3.625  0.0784 -2.8559 -0.6009
 1976SOL    HW217565   0.404   3.139   3.480 -1.9411  3.3021  0.0502
 1977SOL     OW17566   2.613   3.596   1.615  0.9336  0.1185 -0.2200
 1977SOL    HW117567   2.521   3.608   1.594  1.4391  2.9604 -0.7308
 1977SOL    HW217568   2.653   3.674   1.653 -0.0670  0.5626 -0.0908
 1978SOL     OW17569   2.589   1.290   8.817 -0.1312  0.3524 -0.5595
 1978SOL    HW117570   2.649   1.309   8.889  1.4170  0.0394 -1.7769
 1978SOL    HW217571   2.507   1.271   8.864  0.3493 -0.0493  0.1199
 1979SOL     OW17572   0.829   0.365   6.105 -0.5502 -0.3186  0.3464
 1979SOL    HW117573   0.808   0.313   6.183 -2.1053  0.0122  0.1314
 1979SOL    HW217574   0.834   0.452   6.144  4.8885 -0.4485 -0.0461
 1980SOL     OW17575   1.973   3.111   4.001 -0.1334  0.4957 -0.3787
 1980SOL    HW117576   2.017   3.032   3.969  0.7335  0.8991 -0.1628
 1980SOL    HW217577   1.885   3.099   3.963  0.6541 -0.3004 -1.9601
 1981SOL     OW17578   4.417   1.325  17.378  0.3234 -0.2063  0.0805
 1981SOL    HW117579   4.412   1.378  17.298 -1.2092  0.0541  0.3405
 1981SOL    HW217580   4.510   1.320  17.397  0.6483  2.2101 -0.8051
 1982SOL     OW17581   1.983   3.643   3.058 -0.0466 -0.1078 -0.0397
 1982SOL    HW117582   2.009   3.593   2.980 -2.0533 -0.1723 -0.6679
 1982SOL    HW217583   1.889   3.624   3.066 -0.1773 -0.0152 -1.4104
 1983SOL     OW17584   2.840   1.931   5.868 -0.1887 -0.6809 -0.4462
 1983SOL    HW117585   2.815   1.839   5.857 -1.2146 -0.4188 -0.3069
 1983SOL    HW217586   2.789   1.974   5.800  1.0698  2.7822  0.7990
 1984SOL     OW17587   1.468   2.990   2.485  0.1597 -0.2152 -0.2139
 1984SOL    HW117588   1.558   2.978   2.454  1.2590  1.0568  2.4564
 1984SOL    HW217589   1.468   3.073   2.533  2.2458  0.2759 -1.0422
 1985SOL     OW17590   3.667   1.422  14.138  0.2166 -0.1864 -0.2296
 1985SOL    HW117591   3.748   1.469  14.160 -0.8217  2.4671 -2.0320
 1985SOL    HW217592   3.600   1.463  14.192 -0.7826 -1.5840 -0.4151
 1986SOL     OW17593   0.803   0.510   2.869 -0.4205  0.0582 -0.1203
 1986SOL    HW117594   0.889   0.472   2.848 -0.9558 -0.3379 -1.6511
 1986SOL    HW217595   0.821   0.552   2.953 -0.0294 -2.2649  0.9662
 1987SOL     OW17596   2.140   1.225   7.850  0.0458  0.2208 -0.3076
 1987SOL    HW117597   2.220   1.270   7.822  1.1465 -0.5721  1.5899
 1987SOL    HW217598   2.166   1.146   7.897  0.9813  0.5579 -0.2503
 1988SOL     OW17599   3.618   3.689   5.411  0.1133  0.1590  0.2968
 1988SOL    HW117600   3.600   3.703   5.318  0.8460 -0.2521  0.0952
 1988SOL    HW217601   3.713   3.687   5.410  0.1358  1.7067 -1.7239
 1989SOL     OW17602   2.888   4.432   0.731  0.4027  0.3405 -0.1145
 1989SOL    HW117603   2.805   4.415   0.686  0.2733  2.7692 -0.8002
 1989SOL    HW217604   2.865   4.493   0.801 -1.5081 -0.2465 -0.2152
 1990SOL     OW17605   3.777   3.754   1.341 -0.2360  0.5840 -0.8332
 1990SOL    HW117606   3.846   3.757   1.408 -0.3088 -0.3762 -0.7138
 1990SOL    HW217607   3.731   3.674   1.366 -0.1022  0.8707  0.3441
 1991SOL     OW17608   3.401   3.431   1.837 -0.0795  0.4797  0.5700
 1991SOL    HW117609   3.479   3.454   1.786 -0.1402 -2.0474 -0.6599
 1991SOL    HW217610   3.427   3.356   1.890 -0.8120 -0.2782 -0.1604
 1992SOL     OW17611   4.082   2.052   0.943  0.0524  0.4810 -0.0645
 1992SOL    HW117612   4.027   2.076   0.869 -1.7621 -1.7499  0.5528
 1992SOL    HW217613   4.043   1.970   0.974 -0.3194  1.1938  1.3493
 1993SOL     OW17614   1.901   2.440  13.052 -0.3742  0.0763 -0.1663
 1993SOL    HW117615   1.880   2.529  13.082 -1.5905  0.3181 -1.7200
 1993SOL    HW217616   1.840   2.388  13.105  0.6962 -0.3823  0.6168
 1994SOL     OW17617   0.108   0.852   6.316 -0.4281  0.1337 -0.3073
 1994SOL    HW117618   0.120   0.937   6.274  1.4136  1.2011  2.3993
 1994SOL    HW217619   0.061   0.896   6.387  3.4394  3.9519 -0.1425
 1995SOL     OW17620   2.234   3.801  11.942  0.5359  0.0670 -0.5969
 1995SOL    HW117621   2.287   3.848  12.006  1.4285 -0.7904 -0.7207
 1995SOL    HW217622   2.186   3.739  11.996  1.7794  1.2909  1.9324
 1996SOL     OW17623   3.530   4.690   5.658  0.1375 -0.4303 -0.3164
 1996SOL    HW117624   3.581   4.650   5.588 -0.0205 -1.9752  0.4569
 1996SOL    HW217625   3.568   4.665   5.743 -0.3856 -0.2043 -0.0135
 1997SOL     OW17626   3.713   4.426   7.255  0.4074  0.0149  0.3558
 1997SOL    HW117627   3.765   4.366   7.203  1.3995  1.4002 -0.2343
 1997SOL    HW217628   3.675   4.475   7.183 -0.9544 -2.4023 -0.5681
 1998SOL     OW17629   1.911   3.941  15.027  0.3402  0.2377  0.3640
 1998SOL    HW117630   1.920   3.846  15.022  1.8194  0.3265  1.3596
 1998SOL    HW217631   1.932   3.958  14.935  1.5918  1.1944  0.8291
 1999SOL     OW17632   2.318   3.335   0.180  0.4484  0.1656 -0.1463
 1999SOL    HW117633   2.223   3.346   0.168  0.8646  2.3836 -1.4842
 1999SOL    HW217634   2.324   3.385   0.261  0.0065  0.1377 -0.0949
 2000SOL     OW17635   3.846   0.274   9.699 -0.2107 -0.2651  0.1999
 2000SOL    HW117636   3.861   0.231   9.783  1.5879 -0.9712 -0.4718
 2000SOL    HW217637   3.934   0.270   9.660 -0.1676  2.4489 -0.0023
 2001SOL     OW17638   2.030   3.249   7.606 -0.0845  0.0492 -0.1200
 2001SOL    HW117639   1.945   3.291   7.598 -1.1878 -1.9752  0.9039
 2001SOL    HW217640   2.035   3.239   7.511  1.2198  1.5620 -0.2112
 2002SOL     OW17641   0.371   4.006  16.872  0.3946 -0.0041  0.4133
 2002SOL    HW117642   0.399   4.097  16.886  1.9711 -0.7006  1.7152
 2002SOL    HW217643   0.394   3.991  16.780  1.0974 -0.0690  0.5985
 2003SOL     OW17644   3.566   1.458  15.099 -0.0105  0.2031 -0.0573
 2003SOL    HW117645   3.620   1.379  15.100 -0.6664 -0.2318  1.6488
 2003SOL    HW217646   3.618   1.491  15.026  2.5292 -0.0983  1.6388
 2004SOL     OW17647   0.292   1.419   3.097  0.6509  0.0707  0.0517
 2004SOL    HW117648   0.286   1.448   3.188  0.3535 -0.8618  0.3366
 2004SOL    HW217649   0.382   1.444   3.074  1.1549 -0.5325  1.3331
 2005SOL     OW17650   4.387   0.207   4.896 -0.4560 -0.3047  0.1455
 2005SOL    HW117651   4.355   0.210   4.806 -0.7073  0.5196  0.2586
 2005SOL    HW217652   4.427   0.120   4.897  0.0770 -0.0593  0.8181
 2006SOL     OW17653   1.569   4.439  15.687 -0.2467 -0.1351 -0.1219
 2006SOL    HW117654   1.648   4.483  15.656  0.7155 -1.9672 -0.2623
 2006SOL    HW217655   1.602   4.349  15.686  0.2264  0.0400 -0.3465
 2007SOL     OW17656   3.819   4.298  13.663  0.2289 -0.1012  0.3264
 2007SOL    HW117657   3.812   4.329  13.573  0.5799 -1.2698 -0.1030
 2007SOL    HW217658   3.832   4.386  13.698  1.4501  0.3546 -1.2629
 2008SOL     OW17659   2.418   0.222  10.112  0.7510  0.0490 -0.1499
 2008SOL    HW117660   2.426   0.143  10.166  0.6518  0.1420 -0.0001
 2008SOL    HW217661   2.335   0.208  10.065 -0.0550  0.1677  1.2576
 2009SOL     OW17662   4.355   4.067  11.295 -0.8280 -0.2156 -0.0555
 2009SOL    HW117663   4.264   4.040  11.293 -1.0552  0.4415  1.2807
 2009SOL    HW217664   4.368   4.103  11.383  1.6039  0.1053 -0.5353
 2010SOL     OW17665   4.372   2.552   4.521 -0.0375  0.0221 -0.2305
 2010SOL    HW117666   4.385   2.643   4.496 -0.3212  0.5002  1.3523
 2010SOL    HW217667   4.382   2.548   4.616  0.1605  0.2222 -0.2436
 2011SOL     OW17668   1.526   3.126   5.742 -0.1873  0.2122  0.4404
 2011SOL    HW117669   1.534   3.038   5.780  2.1073  0.0871 -0.3792
 2011SOL    HW217670   1.583   3.126   5.665  0.2355 -0.0262  0.7575
 2012SOL     OW17671   2.716   4.400   5.890 -0.0909 -0.5136 -0.2426
 2012SOL    HW117672   2.672   4.394   5.975  2.7589  1.5736  1.3903
 2012SOL    HW217673   2.793   4.451   5.914  0.6107 -1.2196 -0.9984
 2013SOL     OW17674   4.439   3.506  16.652  0.0860  0.3620  0.3084
 2013SOL    HW117675   4.510   3.462  16.604  1.0148  1.2488  0.8594
 2013SOL    HW217676   4.470   3.596  16.657 -0.8912  0.7405 -0.6603
 2014SOL     OW17677   3.799   1.319   8.355  0.2162 -0.2657  0.1179
 2014SOL    HW117678   3.790   1.396   8.299 -1.6934 -0.6025 -0.0242
 2014SOL    HW217679   3.777   1.348   8.444  0.7991  0.8762 -0.1009
 2015SOL     OW17680   4.277   4.363   3.331 -0.2528  0.8068  0.3312
 2015SOL    HW117681   4.356   4.340   3.380 -0.7689  0.6971  1.1077
 2015SOL    HW217682   4.312   4.391   3.247 -0.5502 -0.1437 -0.1045
 2016SOL     OW17683   4.396   4.105   2.503  0.2584  0.6048  0.1596
 2016SOL    HW117684   4.451   4.039   2.462  1.1767  0.6353  1.3471
 2016SOL    HW217685   4.392   4.072   2.593  2.3176 -3.1322 -1.1278
 2017SOL     OW17686   1.877   0.757   7.275 -0.1738  0.0094  0.4922
 2017SOL    HW117687   1.926   0.837   7.294 -1.1773  1.0220 -1.2822
 2017SOL    HW217688   1.943   0.692   7.299 -1.8322 -2.0317 -0.4984
 2018SOL     OW17689   0.235   3.753   9.367  0.1722  0.1614 -0.1423
 2018SOL    HW117690   0.192   3.839   9.374  1.4162  0.8296 -0.7882
 2018SOL    HW217691   0.169   3.699   9.412 -0.2748  0.5886 -0.2770
 2019SOL     OW17692   0.788   2.852   9.354 -0.4007  0.0477 -0.0169
 2019SOL    HW117693   0.801   2.945   9.369  0.6512 -0.3685  1.6808
 2019SOL    HW217694   0.763   2.813   9.437 -0.4334 -0.5641 -0.3122
 2020SOL     OW17695   1.476   2.445  13.261  0.5768 -0.6353 -0.3163
 2020SOL    HW117696   1.522   2.456  13.345 -1.0409  0.2704  0.4672
 2020SOL    HW217697   1.414   2.374  13.276  0.5579 -0.6241 -0.3412
 2021SOL     OW17698   2.695   4.215  13.949 -0.1324 -0.1237  0.8330
 2021SOL    HW117699   2.655   4.181  13.870  0.9767 -1.6099  0.9171
 2021SOL    HW217700   2.783   4.177  13.951 -0.3280 -0.6031  0.0787
 2022SOL     OW17701   1.060   0.662  13.264  0.7221 -0.0413 -0.3865
 2022SOL    HW117702   1.014   0.727  13.317  0.6380 -1.1716  0.9175
 2022SOL    HW217703   0.996   0.642  13.196  2.3335 -2.3509 -1.2453
 2023SOL     OW17704   2.945   0.219   5.716  0.1153  0.3030  0.2043
 2023SOL    HW117705   2.974   0.128   5.726  0.2846  0.3399  0.0420
 2023SOL    HW217706   2.955   0.247   5.808  0.5057  1.7626 -0.2801
 2024SOL     OW17707   0.021   1.855  14.484 -0.3555 -0.3621  0.1650
 2024SOL    HW117708   4.721   1.767  14.481 -0.5091 -0.1947 -3.3200
 2024SOL    HW217709   4.719   1.893  14.405  1.4969  0.6809 -0.2382
 2025SOL     OW17710   3.146   3.566   6.993  1.3453 -0.2765 -0.2243
 2025SOL    HW117711   3.174   3.601   6.908 -2.3071  1.1106 -0.8208
 2025SOL    HW217712   3.185   3.617   7.064  4.6636 -1.2959 -1.2894
 2026SOL     OW17713   0.034   3.102   1.433 -0.1154  0.7801 -0.4090
 2026SOL    HW117714   0.045   3.016   1.473  1.9104  1.7978  1.2025
 2026SOL    HW217715   0.116   3.116   1.385  0.2007  1.5869  0.3845
 2027SOL     OW17716   3.367   4.208   1.285 -0.3691 -0.3748 -0.2602
 2027SOL    HW117717   3.446   4.238   1.330  0.2248 -0.1120 -1.4762
 2027SOL    HW217718   3.321   4.198   1.369  0.7980 -3.3485  0.0454
 2028SOL     OW17719   1.485   0.983   8.991  0.3348 -0.4377  0.5025
 2028SOL    HW117720   1.424   1.006   8.921 -0.0774  2.0725  1.6616
 2028SOL    HW217721   1.490   0.890   8.969  1.7204 -0.7085  2.0205
 2029SOL     OW17722   1.495   3.556   3.197  0.4283 -0.1217 -0.1585
 2029SOL    HW117723   1.437   3.632   3.191  1.2498  0.4528 -0.7177
 2029SOL    HW217724   1.572   3.590   3.153 -0.1343  2.1965  0.6494
 2030SOL     OW17725   1.321   1.458   5.408  0.8241  0.2768  0.8582
 2030SOL    HW117726   1.409   1.451   5.444  0.6019 -1.2330  1.0987
 2030SOL    HW217727   1.324   1.520   5.335  0.8287  0.6756  1.1905
 2031SOL     OW17728   4.251   1.157   4.111  0.6132 -0.2045  0.5769
 2031SOL    HW117729   4.280   1.248   4.117 -2.1993  0.6092  1.8841
 2031SOL    HW217730   4.293   1.119   4.033  0.1018  1.6728 -0.5943
 2032SOL     OW17731   4.147   0.631   6.590 -0.4616 -0.5178  0.2057
 2032SOL    HW117732   4.228   0.582   6.605 -0.3032 -0.2949  0.0792
 2032SOL    HW217733   4.139   0.644   6.496 -0.8399 -0.9751  0.1745
 2033SOL     OW17734   1.465   0.661   3.337 -0.3558 -0.8265 -0.1820
 2033SOL    HW117735   1.414   0.616   3.270  0.4973 -1.8526 -0.1322
 2033SOL    HW217736   1.535   0.688   3.278 -0.3800 -0.3124  0.0234
 2034SOL     OW17737   1.063   1.324   6.839 -0.1285 -0.0630 -0.2265
 2034SOL    HW117738   1.086   1.414   6.816 -2.0310  0.8836  1.4821
 2034SOL    HW217739   0.968   1.315   6.827  0.1663 -1.5056 -1.3653
 2035SOL     OW17740   1.151   1.344   0.587 -0.1961 -0.0845  0.3279
 2035SOL    HW117741   1.182   1.285   0.517 -1.5219  1.8360 -1.8722
 2035SOL    HW217742   1.134   1.418   0.529 -4.7647 -0.9636  0.5907
 2036SOL     OW17743   4.028   1.978   9.487  1.0248  0.2348 -0.0866
 2036SOL    HW117744   3.979   1.999   9.566 -0.6113 -1.7022 -0.5762
 2036SOL    HW217745   4.119   1.974   9.517  1.5888  1.2562 -1.6343
 2037SOL     OW17746   3.986   4.064   2.036 -0.1400  0.1464 -0.0321
 2037SOL    HW117747   3.970   3.986   1.983 -0.1645  0.8112 -0.9924
 2037SOL    HW217748   3.931   4.050   2.114 -0.1428  0.5839  0.0428
 2038SOL     OW17749   4.162   1.757  14.362 -0.1566  0.1267 -0.6885
 2038SOL    HW117750   4.239   1.795  14.320  2.1228 -2.2928  1.3129
 2038SOL    HW217751   4.201   1.696  14.424  1.2204  0.4079 -1.2855
 2039SOL     OW17752   2.511   2.757   6.850 -0.6997  0.3529  0.4792
 2039SOL    HW117753   2.442   2.779   6.789 -1.3680 -0.9636  0.7699
 2039SOL    HW217754   2.501   2.836   6.903 -0.9225  1.0060 -0.5491
 2040SOL     OW17755   4.008   1.840   4.828  0.1872  0.0839  0.4950
 2040SOL    HW117756   3.969   1.761   4.865 -3.4700  0.6139 -2.1989
 2040SOL    HW217757   3.936   1.878   4.777  1.3388 -0.9897 -1.9199
 2041SOL     OW17758   1.347   3.928   8.175  0.1222 -0.5239 -0.1285
 2041SOL    HW117759   1.403   3.855   8.203  3.0869  1.8135 -0.0151
 2041SOL    HW217760   1.375   4.003   8.228  1.3861 -0.0550 -1.4575
 2042SOL     OW17761   0.202   1.212  15.970 -0.1388 -0.1076  0.0434
 2042SOL    HW117762   0.191   1.270  15.895  2.1421  1.3900  0.8577
 2042SOL    HW217763   0.227   1.280  16.033 -0.0445 -1.5579  1.5750
 2043SOL     OW17764   0.225   1.358   7.792 -0.1458  0.5226  0.4261
 2043SOL    HW117765   0.153   1.415   7.766 -0.7684  0.0668  1.1477
 2043SOL    HW217766   0.224   1.292   7.723  0.0104  0.4450  0.4980
 2044SOL     OW17767   3.610   0.330   3.884 -0.0397  0.0767 -0.5393
 2044SOL    HW117768   3.660   0.273   3.826  0.2845  0.2735 -0.4535
 2044SOL    HW217769   3.650   0.305   3.967 -0.4176 -1.4122 -0.8072
 2045SOL     OW17770   2.515   0.086   8.163 -0.1437 -0.5471 -0.6870
 2045SOL    HW117771   2.559   0.147   8.104 -0.5542  0.6320  0.1981
 2045SOL    HW217772   2.546   0.123   8.246 -0.9554  0.1625 -0.6957
 2046SOL     OW17773   2.792   0.132   7.449 -0.1546  0.2489  0.7643
 2046SOL    HW117774   2.858   0.081   7.401  0.0616  1.0355  0.2272
 2046SOL    HW217775   2.802   0.091   7.535 -0.8607 -1.0219  0.2451
 2047SOL     OW17776   0.649   1.998  14.281  0.6803 -0.5847  0.8150
 2047SOL    HW117777   0.687   2.079  14.315 -1.4688  0.2736  1.1780
 2047SOL    HW217778   0.728   1.955  14.248  1.3536  0.1791  1.4443
 2048SOL     OW17779   0.093   3.044   2.688 -1.0025  0.2352 -0.1482
 2048SOL    HW117780   4.737   3.035   2.666 -1.5530  2.9308  1.0463
 2048SOL    HW217781   0.126   3.122   2.644  0.1443  0.1578  0.5682
 2049SOL     OW17782   3.406   2.420   8.056  0.6691  0.2765 -0.5725
 2049SOL    HW117783   3.402   2.336   8.102 -1.6834 -1.3542 -3.7863
 2049SOL    HW217784   3.403   2.387   7.966  2.0470 -0.5570 -0.3189
 2050SOL     OW17785   2.465   1.956   4.412  0.0648  0.2752  0.0866
 2050SOL    HW117786   2.407   1.927   4.482 -1.0024  1.6455 -0.2099
 2050SOL    HW217787   2.508   1.873   4.394 -0.7870  0.2312 -1.7970
 2051SOL     OW17788   3.265   3.165  11.141  0.2795 -0.4585  0.2814
 2051SOL    HW117789   3.223   3.224  11.203 -0.1577  0.8330 -1.2296
 2051SOL    HW217790   3.311   3.107  11.202  0.3832  1.1069  1.6691
 2052SOL     OW17791   0.284   4.021   6.926  0.1745  0.0288 -0.4673
 2052SOL    HW117792   0.376   4.021   6.903  0.1918  2.3751 -0.4709
 2052SOL    HW217793   0.280   4.109   6.964 -1.8938 -1.1820  2.1454
 2053SOL     OW17794   4.464   1.399  11.225  0.4147 -0.1419 -0.5151
 2053SOL    HW117795   4.376   1.364  11.212 -0.4165  2.5842 -2.2161
 2053SOL    HW217796   4.515   1.323  11.198  0.7783  0.2472 -0.9441
 2054SOL     OW17797   2.071   1.331  14.458 -0.0800 -0.7425  0.1356
 2054SOL    HW117798   2.127   1.322  14.381  0.8949 -0.0799  0.7605
 2054SOL    HW217799   1.996   1.280  14.428 -0.0127  0.1157 -1.4749
 2055SOL     OW17800   1.009   0.741   1.329 -0.1251  0.0129 -0.1112
 2055SOL    HW117801   0.937   0.789   1.371 -1.3604 -1.4199 -0.5595
 2055SOL    HW217802   1.041   0.797   1.259  1.7116  0.2914  0.9380
 2056SOL     OW17803   3.322   3.968   6.778  0.6251  0.2940 -0.4977
 2056SOL    HW117804   3.265   3.898   6.810 -0.2702  0.8543 -0.8584
 2056SOL    HW217805   3.272   3.987   6.698  1.6892  0.6077 -1.0895
 2057SOL     OW17806   3.792   3.437  11.736 -0.0694  0.6218  0.2377
 2057SOL    HW117807   3.746   3.415  11.817  2.0585 -1.4295  0.9004
 2057SOL    HW217808   3.864   3.374  11.736 -0.5737  0.0516 -0.2487
 2058SOL     OW17809   1.333   1.247   2.297 -1.1296 -0.0798  0.3219
 2058SOL    HW117810   1.416   1.253   2.344 -0.7474 -4.4512  0.2092
 2058SOL    HW217811   1.310   1.156   2.314 -0.2948 -0.3533 -0.0041
 2059SOL     OW17812   3.569   4.534   5.329 -0.4697 -0.8834  0.1979
 2059SOL    HW117813   3.638   4.535   5.262  1.3615  2.4865  2.1568
 2059SOL    HW217814   3.509   4.608   5.325  1.3714  0.6033  0.4360
 2060SOL     OW17815   0.079   2.514   6.297  0.1752 -0.7108  0.0485
 2060SOL    HW117816   0.110   2.544   6.383 -1.5766  0.2762  0.3472
 2060SOL    HW217817   0.144   2.541   6.233 -0.4368 -0.9794 -0.6814
 2061SOL     OW17818   2.288   4.015   4.983  0.2017 -0.0865 -1.3602
 2061SOL    HW117819   2.367   4.034   4.932 -0.2633 -1.0366 -2.4165
 2061SOL    HW217820   2.256   4.105   4.993  3.7695  1.0229  0.3578
 2062SOL     OW17821   1.774   4.403  13.191  0.3723 -0.0823 -0.6266
 2062SOL    HW117822   1.735   4.395  13.104  0.6814 -0.8828 -0.6907
 2062SOL    HW217823   1.855   4.448  13.165 -1.1467  3.0145  0.0187
 2063SOL     OW17824   1.460   0.221  10.798  0.5674  0.3164  0.3433
 2063SOL    HW117825   1.460   0.311  10.831  1.6147 -0.5248  2.7152
 2063SOL    HW217826   1.549   0.197  10.771 -0.1186 -3.3431  1.4404
 2064SOL     OW17827   2.345   0.045   1.388 -0.0424  0.1236 -0.6274
 2064SOL    HW117828   2.427   0.057   1.340 -0.6236  1.8548 -1.1668
 2064SOL    HW217829   2.383   0.036   1.475 -0.3137 -1.2011 -0.6376
 2065SOL     OW17830   2.117   1.322   8.973 -0.3374 -0.4698 -0.5614
 2065SOL    HW117831   2.046   1.375   8.935  0.8015  1.0724 -0.5467
 2065SOL    HW217832   2.076   1.282   9.050 -3.0104  2.1257 -0.6300
 2066SOL     OW17833   1.999   0.508   3.660  0.1716  0.1629  0.1201
 2066SOL    HW117834   2.082   0.542   3.694  0.4703  1.1633 -1.5750
 2066SOL    HW217835   1.932   0.558   3.705  1.5345  0.4877  1.7871
 2067SOL     OW17836   0.362   1.696   2.102 -0.2347  0.5381  0.0888
 2067SOL    HW117837   0.407   1.738   2.175  2.0796  0.3899 -1.2829
 2067SOL    HW217838   0.430   1.672   2.039  0.2516 -1.3238  1.3520
 2068SOL     OW17839   4.476   3.438  12.470  0.2562  0.3361 -0.1091
 2068SOL    HW117840   4.514   3.429  12.558 -3.8637 -0.4248  1.6264
 2068SOL    HW217841   4.383   3.439  12.495  0.6729 -1.8723  1.6312
 2069SOL     OW17842   2.114   3.407  14.929 -0.0118 -0.4937 -0.0204
 2069SOL    HW117843   2.137   3.315  14.915 -0.9391 -0.6849 -0.2469
 2069SOL    HW217844   2.198   3.452  14.917 -0.4353 -0.3170 -2.2584
 2070SOL     OW17845   1.954   1.612   0.373 -0.2818  0.3739 -0.2233
 2070SOL    HW117846   1.904   1.612   0.292  2.4247 -0.7099 -1.8892
 2070SOL    HW217847   1.899   1.678   0.415  0.6179  0.4817  0.7850
 2071SOL     OW17848   1.715   0.632  13.247  0.6440  0.0239 -0.4767
 2071SOL    HW117849   1.688   0.703  13.306  0.9524 -1.0609  0.9935
 2071SOL    HW217850   1.626   0.596  13.244 -0.2265  1.9959  2.2664
 2072SOL     OW17851   0.329   3.774   2.844 -0.3704  0.0926  0.1647
 2072SOL    HW117852   0.368   3.841   2.901  1.6627 -0.8959 -0.0571
 2072SOL    HW217853   0.393   3.704   2.854 -1.2735 -1.2653 -3.5358
 2073SOL     OW17854   2.943   0.821   9.454 -0.0886 -0.2618 -0.0188
 2073SOL    HW117855   2.927   0.731   9.425 -0.6300  0.3779 -1.7325
 2073SOL    HW217856   3.038   0.813   9.461  0.1582  1.2470 -1.6834
 2074SOL     OW17857   1.152   2.529   8.474  0.1508  0.4827 -0.4456
 2074SOL    HW117858   1.147   2.531   8.378 -0.7300  2.0368 -0.3771
 2074SOL    HW217859   1.062   2.540   8.505 -0.9805 -0.2031 -3.5094
 2075SOL     OW17860   2.504   4.399  12.767  0.0804  0.6215  0.1158
 2075SOL    HW117861   2.586   4.420  12.723  0.1927  0.7629  0.3908
 2075SOL    HW217862   2.464   4.481  12.797 -0.5903 -0.2995  1.7623
 2076SOL     OW17863   0.741   1.858   3.813 -0.0335  0.0194 -0.0402
 2076SOL    HW117864   0.716   1.821   3.897 -2.7167  2.3385  0.2047
 2076SOL    HW217865   0.654   1.855   3.773 -1.5557 -1.0414  3.3394
 2077SOL     OW17866   3.081   2.165   1.874  0.4471 -0.2836  0.6132
 2077SOL    HW117867   3.034   2.225   1.932 -1.9752 -0.3190 -1.3167
 2077SOL    HW217868   3.173   2.190   1.886 -0.6482  2.8380  2.5980
 2078SOL     OW17869   0.368   0.238  16.862 -0.2654 -0.8912 -0.0383
 2078SOL    HW117870   0.342   0.329  16.878 -0.5031 -1.0304  0.3724
 2078SOL    HW217871   0.449   0.230  16.912 -0.5243 -1.2457  0.3270
 2079SOL     OW17872   1.767   3.326   7.509 -0.0117 -0.3070  0.0391
 2079SOL    HW117873   1.747   3.417   7.532  1.8417 -0.1898  1.2199
 2079SOL    HW217874   1.686   3.277   7.514 -0.6077  0.5090 -1.8788
 2080SOL     OW17875   0.954   2.102   6.191 -0.2655 -0.2126  0.4411
 2080SOL    HW117876   0.978   2.194   6.175 -0.3207 -0.2457  0.1631
 2080SOL    HW217877   0.930   2.071   6.103  0.9065  2.1939 -0.7546
 2081SOL     OW17878   0.879   0.239   9.993 -0.4045  0.3859  0.1392
 2081SOL    HW117879   0.922   0.216   9.910 -0.0774 -0.0718  0.4401
 2081SOL    HW217880   0.814   0.171  10.012  0.7247 -0.6259  0.3648
 2082SOL     OW17881   0.123   3.821   0.155 -0.0858 -0.0430  0.1657
 2082SOL    HW117882   0.099   3.897   0.209  0.0041 -1.1856  1.8055
 2082SOL    HW217883   0.074   3.838   0.074  1.8246  1.3641 -0.7056
 2083SOL     OW17884   0.765   3.105  16.626 -0.3845  0.6809 -0.3613
 2083SOL    HW117885   0.729   3.184  16.667  0.8863  0.7181  0.6863
 2083SOL    HW217886   0.691   3.074  16.575 -1.1926  1.3975  0.3679
 2084SOL     OW17887   3.339   1.794   9.417  0.0346 -0.0981 -0.2448
 2084SOL    HW117888   3.302   1.788   9.328 -2.7703  0.9804  0.8474
 2084SOL    HW217889   3.284   1.866   9.449 -2.2284 -2.5844  1.3928
 2085SOL     OW17890   3.007   1.368   4.360 -0.1858 -0.4112  0.3802
 2085SOL    HW117891   3.039   1.348   4.273  2.0502  1.7878  0.6840
 2085SOL    HW217892   3.086   1.360   4.414  1.4847  0.6660 -1.9353
 2086SOL     OW17893   3.118   3.707   6.215  0.6437 -0.3660 -0.2043
 2086SOL    HW117894   3.204   3.736   6.246  0.9426 -1.3467 -0.1024
 2086SOL    HW217895   3.087   3.789   6.178  0.7200 -0.6686 -0.9351
 2087SOL     OW17896   0.776   3.612   2.436 -0.1988 -0.6520  0.6934
 2087SOL    HW117897   0.805   3.686   2.383  1.1800 -0.0066  2.3551
 2087SOL    HW217898   0.696   3.590   2.387 -0.0019 -0.7277  0.4086
 2088SOL     OW17899   2.118   2.894   9.181 -0.6098  0.4395 -0.5522
 2088SOL    HW117900   2.161   2.947   9.248  0.9097  0.8684 -1.8661
 2088SOL    HW217901   2.107   2.958   9.111  2.1751 -0.5579 -1.9127
 2089SOL     OW17902   3.667   1.164   4.685 -0.0010 -0.4644  0.3742
 2089SOL    HW117903   3.737   1.172   4.750 -0.9531 -2.5072  1.6235
 2089SOL    HW217904   3.609   1.232   4.718  2.3944  1.4128  0.7927
 2090SOL     OW17905   3.958   1.512  15.223  0.2365 -0.0894  0.1244
 2090SOL    HW117906   3.970   1.439  15.283  1.5919 -0.2656 -0.3498
 2090SOL    HW217907   3.898   1.479  15.157 -0.7126 -2.2513  2.0992
 2091SOL     OW17908   4.004   1.690   3.793  0.3449 -0.4810 -0.1916
 2091SOL    HW117909   4.049   1.774   3.803 -0.0143 -0.5702  2.1394
 2091SOL    HW217910   4.071   1.637   3.750  0.3514 -0.2790 -0.4280
 2092SOL     OW17911   1.790   1.121  11.158  0.1789  0.3250 -0.3072
 2092SOL    HW117912   1.722   1.066  11.120 -1.3086  2.7012 -1.0354
 2092SOL    HW217913   1.740   1.162  11.228  1.0271  1.6577 -0.4734
 2093SOL     OW17914   4.730   0.674   8.248  0.9359 -0.0029 -0.3425
 2093SOL    HW117915   0.019   0.607   8.311  0.3951  1.2972  1.2457
 2093SOL    HW217916   4.704   0.742   8.310 -1.2445 -1.5711  0.4661
 2094SOL     OW17917   3.075   2.221   7.593 -0.7842 -0.3123 -0.4358
 2094SOL    HW117918   3.122   2.150   7.637 -2.5076 -2.2053 -1.6881
 2094SOL    HW217919   3.139   2.292   7.582 -1.8668  0.9691  1.4392
 2095SOL     OW17920   3.883   1.563   6.441 -0.0045  0.1684 -0.2176
 2095SOL    HW117921   3.804   1.614   6.457  0.9077  0.9999  1.6011
 2095SOL    HW217922   3.841   1.492   6.392  0.5204 -0.8036  0.7234
 2096SOL     OW17923   3.658   4.135  14.984 -0.4721 -0.0957  0.4763
 2096SOL    HW117924   3.599   4.074  14.939 -1.8266  1.5082  0.0856
 2096SOL    HW217925   3.624   4.223  14.972 -1.2861 -0.2712  1.4909
 2097SOL     OW17926   4.167   3.994   1.717 -0.1975  0.4748 -0.5319
 2097SOL    HW117927   4.204   4.069   1.763  1.3220 -0.0191 -0.9449
 2097SOL    HW217928   4.237   3.980   1.653 -0.4011 -2.0324 -0.2052
 2098SOL     OW17929   4.342   3.485   7.508  0.0831 -0.2878  0.6889
 2098SOL    HW117930   4.299   3.562   7.471  0.3334  0.8578  2.7480
 2098SOL    HW217931   4.398   3.520   7.577  1.2166 -0.8065  0.0258
 2099SOL     OW17932   3.948   4.618   6.740 -0.1356 -0.0014  0.3014
 2099SOL    HW117933   3.857   4.647   6.727  0.0699  0.2704 -0.5585
 2099SOL    HW217934   3.995   4.682   6.793 -1.5845  0.7924  0.6477
 2100SOL     OW17935   4.051   2.971   6.601 -0.3024 -0.1193  0.1239
 2100SOL    HW117936   4.022   2.982   6.511 -0.3897 -0.1651  0.1464
 2100SOL    HW217937   4.116   3.041   6.610 -1.0450  0.6567 -0.5185
 2101SOL     OW17938   4.598   1.715   6.923 -0.2631 -0.2431  0.1471
 2101SOL    HW117939   4.505   1.701   6.906 -0.4177  0.1968  0.6120
 2101SOL    HW217940   4.585   1.763   7.005 -0.7503 -0.3520  0.1299
 2102SOL     OW17941   2.015   3.992   6.653  0.1137 -0.0984 -0.4453
 2102SOL    HW117942   1.998   4.061   6.717 -0.1358  0.0972 -0.7283
 2102SOL    HW217943   2.034   4.055   6.585  3.1993  0.0395  0.5465
 2103SOL     OW17944   2.794   2.133   6.546  1.1876  0.1072  0.5288
 2103SOL    HW117945   2.874   2.157   6.592  1.5892 -1.7177  0.7771
 2103SOL    HW217946   2.820   2.157   6.458  0.4892  0.5161  0.4338
 2104SOL     OW17947   0.389   3.344  16.859  0.2617  0.3537 -0.5881
 2104SOL    HW117948   0.309   3.397  16.865  0.2167  0.1995  0.0628
 2104SOL    HW217949   0.402   3.347  16.953  3.0775  0.1133 -0.9851
 2105SOL     OW17950   3.496   1.921  13.785  0.6899 -0.8282  0.2459
 2105SOL    HW117951   3.463   1.834  13.765 -0.9982 -0.0671 -0.3131
 2105SOL    HW217952   3.495   1.913  13.880  1.0612 -1.7329  0.1741
 2106SOL     OW17953   2.836   3.926  16.958  0.2065 -0.1910 -0.7244
 2106SOL    HW117954   2.906   3.921  16.893 -0.6314 -1.7034 -1.5095
 2106SOL    HW217955   2.824   3.831  16.965 -1.7674  0.2353  1.3608
 2107SOL     OW17956   3.259   3.424   9.550  0.2805 -0.0155  0.2022
 2107SOL    HW117957   3.272   3.445   9.458  1.2437 -1.3900  0.0243
 2107SOL    HW217958   3.172   3.386   9.545  0.0664  0.9163 -2.9040
 2108SOL     OW17959   1.665   2.687  17.602  0.9794  0.1489 -0.6165
 2108SOL    HW117960   1.734   2.688  17.668  0.0047  0.7055  0.3923
 2108SOL    HW217961   1.605   2.749  17.643 -0.0020 -0.3191 -1.3251
 2109SOL     OW17962   2.181   0.081  13.315 -0.3297 -0.8724 -0.1754
 2109SOL    HW117963   2.114   0.019  13.287 -0.3769 -0.5391 -0.8100
 2109SOL    HW217964   2.157   0.160  13.266  0.9239 -0.4730 -0.1639
 2110SOL     OW17965   3.563   0.616   6.675  0.2321 -0.2873  0.5706
 2110SOL    HW117966   3.524   0.664   6.748 -1.1321 -0.1159 -0.2651
 2110SOL    HW217967   3.560   0.525   6.704  0.8090  0.0117  1.5622
 2111SOL     OW17968   4.493   1.724  14.925 -0.3486  0.2244 -0.2577
 2111SOL    HW117969   4.422   1.749  14.866 -0.3430 -1.7380 -1.1050
 2111SOL    HW217970   4.571   1.736  14.872  1.3301 -1.4598  1.8085
 2112SOL     OW17971   1.655   4.318   6.970 -0.3722 -0.2407  0.0265
 2112SOL    HW117972   1.688   4.392   6.919 -1.8385 -0.3220 -1.0354
 2112SOL    HW217973   1.563   4.330   6.948 -0.7566  1.1400  2.4812
 2113SOL     OW17974   4.700   2.068   3.400  0.1637  0.0294 -0.8942
 2113SOL    HW117975   0.007   2.031   3.324  0.1816 -1.0901 -0.3371
 2113SOL    HW217976   4.623   2.012   3.409 -2.0274  3.0133 -0.8814
 2114SOL     OW17977   3.997   0.811   5.171  0.0530 -0.2696  0.4890
 2114SOL    HW117978   3.916   0.852   5.203  0.6665  0.4374  1.1473
 2114SOL    HW217979   3.970   0.816   5.079  1.7773 -2.1364 -0.1023
 2115SOL     OW17980   1.740   0.773   7.542 -0.0480  0.1796 -0.3223
 2115SOL    HW117981   1.819   0.781   7.488 -0.0436 -1.2722 -0.5369
 2115SOL    HW217982   1.710   0.862   7.559 -1.5782 -0.6859  1.4321
 2116SOL     OW17983   4.525   1.559  11.439 -0.2161  0.3098  0.8526
 2116SOL    HW117984   4.483   1.484  11.397  0.1067  2.0366 -2.6186
 2116SOL    HW217985   4.479   1.557  11.523 -2.5501 -3.4339 -0.5295
 2117SOL     OW17986   0.723   2.193   7.867  0.0826 -0.3031  0.2670
 2117SOL    HW117987   0.797   2.142   7.897  1.4811  1.5960  0.0449
 2117SOL    HW217988   0.732   2.276   7.913 -0.0068  0.1577 -0.5395
 2118SOL     OW17989   3.489   2.632   8.199  0.2548 -0.4026 -0.6118
 2118SOL    HW117990   3.564   2.664   8.149  0.4733  1.0861  0.6796
 2118SOL    HW217991   3.441   2.583   8.132 -1.6717 -1.8451  1.8636
 2119SOL     OW17992   1.979   4.336   8.649 -0.6078  0.4305 -0.1600
 2119SOL    HW117993   2.062   4.293   8.666 -1.5901 -1.1428  0.6135
 2119SOL    HW217994   1.957   4.362   8.738 -1.2819  0.7572 -0.4175
 2120SOL     OW17995   1.176   0.280   2.144 -0.0083 -0.0166  0.5334
 2120SOL    HW117996   1.243   0.332   2.100 -1.3289  1.5873  0.3927
 2120SOL    HW217997   1.226   0.254   2.221  0.0987 -0.1507  0.4194
 2121SOL     OW17998   0.409   2.272   0.271 -0.3395 -0.3995  0.1150
 2121SOL    HW117999   0.385   2.203   0.210  0.4445 -0.5009 -0.0860
 2121SOL    HW218000   0.348   2.340   0.245  1.7574  0.6330 -2.1334
 2122SOL     OW18001   2.991   0.817   7.599 -0.2700 -0.6595  0.2675
 2122SOL    HW118002   2.979   0.910   7.621  0.2377 -0.5103 -0.1003
 2122SOL    HW218003   2.902   0.790   7.577 -1.1654  0.5861  2.3510
 2123SOL     OW18004   4.255   2.159   6.305  0.4543  0.2030 -0.4532
 2123SOL    HW118005   4.305   2.237   6.281  2.0633 -0.1095  1.8530
 2123SOL    HW218006   4.188   2.206   6.354 -0.2457  1.0558 -2.2104
 2124SOL     OW18007   3.202   0.530  17.037 -0.3856  0.2908 -0.5059
 2124SOL    HW118008   3.281   0.534  17.092  0.2705 -2.1161 -1.2755
 2124SOL    HW218009   3.135   0.558  17.099  0.6736  0.1377  0.7198
 2125SOL     OW18010   2.878   1.812  13.101  0.1037  0.2661  0.4087
 2125SOL    HW118011   2.851   1.723  13.124 -2.4819  1.3422  1.5038
 2125SOL    HW218012   2.929   1.791  13.022  1.3669  1.3884  0.9279
 2126SOL     OW18013   1.892   1.073  13.763  0.2084 -0.6002  0.3761
 2126SOL    HW118014   1.957   1.105  13.700 -1.9971  0.1331 -1.5051
 2126SOL    HW218015   1.834   1.027  13.702  1.6993 -1.2003 -0.6128
 2127SOL     OW18016   0.818   1.122   1.877  0.1461  0.1600  0.2693
 2127SOL    HW118017   0.754   1.097   1.943  1.4387 -0.1975  1.3864
 2127SOL    HW218018   0.893   1.066   1.900 -0.7569 -2.8541 -4.0315
 2128SOL     OW18019   2.401   4.288   5.402 -0.5588  0.4218 -0.2075
 2128SOL    HW118020   2.307   4.306   5.393 -0.4692  0.3952 -1.1965
 2128SOL    HW218021   2.426   4.242   5.322 -0.1521  2.5282 -1.3168
 2129SOL     OW18022   2.136   3.197   1.999  0.6662  0.2658  0.2102
 2129SOL    HW118023   2.124   3.157   1.913 -0.5412  1.0261  0.0399
 2129SOL    HW218024   2.097   3.282   1.981  0.2095  0.4512  2.0225
 2130SOL     OW18025   0.213   0.096  13.883 -0.5176  0.3519 -0.2192
 2130SOL    HW118026   0.293   0.096  13.831  0.6205  1.0514  1.5560
 2130SOL    HW218027   0.213   0.002  13.900  0.5506  0.6165  1.2203
 2131SOL     OW18028   2.984   2.577   3.024  0.0047  0.1953  0.3605
 2131SOL    HW118029   2.946   2.510   2.968 -1.0011 -0.3218  1.6472
 2131SOL    HW218030   3.035   2.633   2.965  0.4200  0.4343  0.9454
 2132SOL     OW18031   0.244   1.342   2.749 -0.4671  0.5241  0.3339
 2132SOL    HW118032   0.151   1.361   2.742 -0.7000 -0.6876  0.1135
 2132SOL    HW218033   0.283   1.425   2.774  3.0423 -1.0290  0.0347
 2133SOL     OW18034   0.387   0.883   5.126 -0.2694 -0.3359  0.1240
 2133SOL    HW118035   0.360   0.958   5.074 -1.7297 -0.3108  0.9262
 2133SOL    HW218036   0.482   0.887   5.114  0.0209  0.9193  2.7782
 2134SOL     OW18037   4.346   1.657  14.047  0.0888  0.4234  0.0625
 2134SOL    HW118038   4.253   1.653  14.026  0.0482 -1.1181  0.5586
 2134SOL    HW218039   4.358   1.742  14.088 -1.4843  0.9903 -0.6732
 2135SOL     OW18040   1.417   4.323  10.221  0.1234 -0.2406 -0.1011
 2135SOL    HW118041   1.453   4.412  10.221  0.5149 -0.4034  2.6063
 2135SOL    HW218042   1.500   4.276  10.219 -0.0991 -0.5945 -1.0377
 2136SOL     OW18043   2.830   2.691  16.212 -0.1972 -0.4829 -0.0957
 2136SOL    HW118044   2.757   2.742  16.177 -0.6459 -0.5801  0.7013
 2136SOL    HW218045   2.779   2.631  16.266  1.9721  0.3553  2.9591
 2137SOL     OW18046   4.623   2.827   1.896 -0.4010  0.3278 -0.0374
 2137SOL    HW118047   4.675   2.907   1.890 -0.8628  0.5567 -1.0720
 2137SOL    HW218048   4.543   2.876   1.913 -1.2698 -0.6004 -1.4517
 2138SOL     OW18049   3.624   1.911   1.641 -0.0708 -1.0117  0.5155
 2138SOL    HW118050   3.561   1.848   1.675 -0.5264 -0.6344  0.3737
 2138SOL    HW218051   3.674   1.842   1.598  0.3182 -0.0654 -0.5354
 2139SOL     OW18052   4.511   2.890   6.017 -0.5539  0.5390 -0.6078
 2139SOL    HW118053   4.437   2.829   6.013  0.7651 -1.0884 -0.3436
 2139SOL    HW218054   4.553   2.895   5.931  0.5961 -0.2522 -0.1054
 2140SOL     OW18055   1.585   3.782  11.561 -0.2007  0.8630 -0.2041
 2140SOL    HW118056   1.651   3.811  11.498 -0.0777  0.5858 -0.2050
 2140SOL    HW218057   1.547   3.717  11.501  0.2269  0.6739 -0.2712
 2141SOL     OW18058   1.527   1.485   1.174  0.3037  0.0561 -0.1533
 2141SOL    HW118059   1.452   1.483   1.115 -1.2579 -1.5660  1.8859
 2141SOL    HW218060   1.492   1.410   1.223  1.6617 -2.7581 -3.4662
 2142SOL     OW18061   2.207   1.160   2.069 -0.0374 -0.0154 -0.5587
 2142SOL    HW118062   2.221   1.225   2.001  1.8158  0.1018 -0.0805
 2142SOL    HW218063   2.258   1.201   2.139  0.5822 -0.8252 -0.5278
 2143SOL     OW18064   0.462   4.016   1.762 -0.5052 -0.2582 -0.2223
 2143SOL    HW118065   0.514   4.007   1.842 -1.6352  1.9403  0.7597
 2143SOL    HW218066   0.468   3.931   1.718 -0.9638 -0.7943  0.7575
 2144SOL     OW18067   2.755   2.404   7.554  0.4276  0.0366 -0.4055
 2144SOL    HW118068   2.806   2.407   7.473  3.0449  0.5620  1.2600
 2144SOL    HW218069   2.822   2.432   7.616 -0.6137  3.5841 -0.8791
 2145SOL     OW18070   3.341   4.135   2.710 -0.2154  0.1237 -0.4043
 2145SOL    HW118071   3.369   4.067   2.649  0.5190 -0.2054  0.2872
 2145SOL    HW218072   3.428   4.159   2.742  0.6155 -3.1277 -0.1759
 2146SOL     OW18073   3.415   0.126   2.476  0.6577 -0.4999  0.3963
 2146SOL    HW118074   3.409   0.112   2.571 -0.0627  2.3813  0.7706
 2146SOL    HW218075   3.510   0.129   2.471  0.6672 -2.9695 -1.0339
 2147SOL     OW18076   1.864   3.595  11.878  0.6204  0.1523  0.2289
 2147SOL    HW118077   1.822   3.681  11.873  0.2185 -0.0629 -0.1312
 2147SOL    HW218078   1.935   3.604  11.940  1.1165  1.2619 -0.4980
 2148SOL     OW18079   1.175   2.478   5.901  0.1963  0.0721 -0.3985
 2148SOL    HW118080   1.103   2.429   5.860  0.4906  0.5298 -1.4607
 2148SOL    HW218081   1.240   2.410   5.884  1.2111  1.2094 -1.0763
 2149SOL     OW18082   0.150   0.643   6.861 -0.4652  0.6613 -0.6469
 2149SOL    HW118083   0.081   0.656   6.927 -0.0703  0.5252 -0.2124
 2149SOL    HW218084   0.124   0.714   6.802  0.8684  1.4594 -0.2740
 2150SOL     OW18085   1.265   3.187   2.123  0.0468  0.8252 -0.5882
 2150SOL    HW118086   1.208   3.239   2.179 -1.3590  0.3038 -1.5322
 2150SOL    HW218087   1.276   3.106   2.172 -1.5090  0.4021 -0.9316
 2151SOL     OW18088   1.388   3.064   8.087  0.1745  0.3839 -0.1810
 2151SOL    HW118089   1.361   3.089   8.175  0.5748 -1.0003  0.3406
 2151SOL    HW218090   1.347   2.977   8.083  1.4074 -0.2016  0.0370
 2152SOL     OW18091   0.559   1.428   6.926 -0.1414  0.1979  0.3180
 2152SOL    HW118092   0.478   1.377   6.937 -0.7537  0.9891 -0.5317
 2152SOL    HW218093   0.596   1.439   7.014 -2.0734  2.2182  0.8592
 2153SOL     OW18094   1.000   3.685   7.497  0.3773 -0.1712 -0.2851
 2153SOL    HW118095   1.065   3.751   7.473  0.7916 -0.8147 -0.9411
 2153SOL    HW218096   0.966   3.721   7.579  0.8884  1.1795 -0.6663
 2154SOL     OW18097   2.629   3.755   6.304 -0.2103 -0.1492 -0.7567
 2154SOL    HW118098   2.642   3.790   6.392 -0.5399 -1.6341 -0.1055
 2154SOL    HW218099   2.675   3.672   6.316 -0.3297  0.2952  2.6343
 2155SOL     OW18100   2.313   3.600   2.829 -0.2958  0.3001  0.1203
 2155SOL    HW118101   2.344   3.647   2.752 -0.3591 -0.6274 -0.4622
 2155SOL    HW218102   2.383   3.620   2.892 -0.3592  1.7467 -0.2559
 2156SOL     OW18103   4.473   4.063  15.946  0.7136  0.3139  0.5001
 2156SOL    HW118104   4.478   4.159  15.938 -0.4888  0.4758  1.5799
 2156SOL    HW218105   4.392   4.059  15.998 -1.1952  1.8463 -2.3503
 2157SOL     OW18106   1.424   2.820   8.842 -0.2750  0.1374  0.1519
 2157SOL    HW118107   1.487   2.826   8.769  1.2396  0.4469  1.4733
 2157SOL    HW218108   1.365   2.751   8.811 -1.7455  0.5778  2.0262
 2158SOL     OW18109   0.934   1.736   4.985 -0.4376 -0.1301  0.2600
 2158SOL    HW118110   0.988   1.803   4.942  3.5341 -2.3827  1.7120
 2158SOL    HW218111   0.845   1.768   4.968  0.4647  1.9699 -0.5751
 2159SOL     OW18112   0.867   3.005   7.006  0.0423 -0.0840 -0.7182
 2159SOL    HW118113   0.891   3.067   7.074 -0.2295  1.4580 -2.0442
 2159SOL    HW218114   0.862   2.932   7.068 -0.2320  1.5610  1.1919
 2160SOL     OW18115   1.256   0.108   8.133  0.2768  0.7509 -0.6308
 2160SOL    HW118116   1.238   0.081   8.223  0.8307  1.2392 -0.3753
 2160SOL    HW218117   1.250   0.021   8.094  2.4539  0.2182  0.2233
 2161SOL     OW18118   3.034   0.593  15.288 -0.1989 -0.0834 -0.5972
 2161SOL    HW118119   3.103   0.562  15.229  0.9468  1.2539  0.0476
 2161SOL    HW218120   3.048   0.687  15.289 -2.6500  0.2879  0.8623
 2162SOL     OW18121   1.959   2.851   1.655  0.4339  0.2770 -0.1678
 2162SOL    HW118122   1.992   2.761   1.655  0.8240  0.4198 -0.0596
 2162SOL    HW218123   1.868   2.836   1.679  0.1407  1.3967 -0.5685
 2163SOL     OW18124   2.981   1.482   3.240  0.4840  0.5300 -0.5584
 2163SOL    HW118125   3.069   1.463   3.208 -0.1349 -1.1140 -1.2846
 2163SOL    HW218126   2.980   1.443   3.328 -1.4314  2.6050  0.3389
 2164SOL     OW18127   2.468   1.223   7.570  0.3066  0.1817 -0.0668
 2164SOL    HW118128   2.417   1.297   7.537  2.2348  2.4247  1.9836
 2164SOL    HW218129   2.453   1.228   7.664  1.3846 -2.3366  0.2483
 2165SOL     OW18130   2.566   3.199   2.693  0.4295  0.1628  0.0573
 2165SOL    HW118131   2.568   3.110   2.727 -0.0624  1.0589  2.4277
 2165SOL    HW218132   2.621   3.188   2.615 -0.2567 -1.7313 -0.1557
 2166SOL     OW18133   0.492   3.677   4.147  0.1591 -0.0627  0.5541
 2166SOL    HW118134   0.482   3.628   4.065 -0.2879  1.5089 -0.3484
 2166SOL    HW218135   0.406   3.689   4.186  0.5726 -0.3918  1.5529
 2167SOL     OW18136   2.802   0.433  11.816 -0.2019 -0.1709 -0.4977
 2167SOL    HW118137   2.810   0.472  11.903 -0.2128  1.0885 -1.0527
 2167SOL    HW218138   2.805   0.341  11.842  2.6273  0.5595  1.8002
 2168SOL     OW18139   2.444   2.839   9.945  0.2938 -0.3886 -0.8133
 2168SOL    HW118140   2.401   2.760   9.976  0.6282  0.4434  1.7693
 2168SOL    HW218141   2.483   2.872  10.026  1.5563 -2.7898 -0.4467
 2169SOL     OW18142   4.695   2.001   8.444  1.1771 -0.8682 -0.1092
 2169SOL    HW118143   0.045   2.027   8.413  0.5228 -0.5642 -1.6367
 2169SOL    HW218144   4.657   1.972   8.362  1.8548 -2.2439  0.0567
 2170SOL     OW18145   3.678   3.248   4.358 -0.1724 -0.1380 -0.4875
 2170SOL    HW118146   3.748   3.306   4.328  0.2151 -0.0917  0.5188
 2170SOL    HW218147   3.652   3.288   4.441  1.0245 -2.8021  1.1558
 2171SOL     OW18148   2.265   4.070   2.073 -0.0287  0.2187 -0.0164
 2171SOL    HW118149   2.186   4.102   2.030 -1.3763 -1.6176  1.0685
 2171SOL    HW218150   2.261   3.975   2.074 -0.1163  0.2238  1.0511
 2172SOL     OW18151   3.356   2.788   1.013  0.2624 -0.0597  0.4164
 2172SOL    HW118152   3.264   2.792   1.040  0.4772  0.4375  1.0750
 2172SOL    HW218153   3.360   2.872   0.968  0.7189  0.1593  0.8721
 2173SOL     OW18154   4.298   0.321   2.680 -0.0042 -0.2265  0.6538
 2173SOL    HW118155   4.379   0.340   2.632  0.7910  1.1364  2.5007
 2173SOL    HW218156   4.269   0.411   2.695  2.0614  1.1336 -3.4605
 2174SOL     OW18157   1.369   0.276   1.734 -0.7144  0.0716  0.5125
 2174SOL    HW118158   1.363   0.332   1.656  0.0157 -1.8053 -0.8848
 2174SOL    HW218159   1.310   0.203   1.717 -1.3154  0.4413  0.9866
 2175SOL     OW18160   1.402   1.794  13.882  0.0892 -0.5890 -0.5258
 2175SOL    HW118161   1.340   1.839  13.824 -0.2382  1.1077  1.1427
 2175SOL    HW218162   1.351   1.802  13.963 -2.3337  1.3943 -2.2572
 2176SOL     OW18163   3.029   4.702   5.719 -0.1948  0.2586  0.0993
 2176SOL    HW118164   2.996   4.627   5.769  1.1227  0.0354  0.6365
 2176SOL    HW218165   3.123   4.700   5.739  0.2443 -0.4106 -2.0207
 2177SOL     OW18166   1.335   4.154  10.432  0.0271  0.0441 -0.5181
 2177SOL    HW118167   1.354   4.225  10.371  0.9183  0.9466  0.8044
 2177SOL    HW218168   1.240   4.141  10.434  0.3125 -2.0823 -0.9306
 2178SOL     OW18169   4.238   3.560  15.744  0.1812  0.5414 -0.0939
 2178SOL    HW118170   4.153   3.576  15.785  1.6634  2.0500  2.4088
 2178SOL    HW218171   4.223   3.612  15.665 -0.5728 -0.3896 -0.5639
 2179SOL     OW18172   0.113   1.398   8.031  0.5498 -0.1212 -0.4334
 2179SOL    HW118173   0.159   1.398   7.948  0.8973 -1.6448 -0.2449
 2179SOL    HW218174   0.046   1.331   8.017  1.2197 -1.3032  1.9829
 2180SOL     OW18175   2.538   0.316   9.902  0.4869 -0.1177  0.6478
 2180SOL    HW118176   2.452   0.348   9.874  2.0558  1.0750 -2.7969
 2180SOL    HW218177   2.515   0.265   9.980  1.8993  0.6079  1.5569
 2181SOL     OW18178   2.067   0.475   9.532 -0.0209  0.4375  0.1828
 2181SOL    HW118179   2.104   0.496   9.446  2.8134  0.1450  1.3280
 2181SOL    HW218180   2.100   0.545   9.589  0.2821 -1.2856  2.0759
 2182SOL     OW18181   4.578   0.358   1.543 -0.5296  0.0303 -0.2144
 2182SOL    HW118182   4.526   0.283   1.515  0.3966  0.3516 -2.7320
 2182SOL    HW218183   4.562   0.360   1.638  2.0295 -0.5641  0.2357
 2183SOL     OW18184   3.241   3.677   6.701 -0.6354  0.1311 -0.5985
 2183SOL    HW118185   3.234   3.728   6.620 -0.1950  0.3287 -0.5156
 2183SOL    HW218186   3.335   3.666   6.714 -0.9541 -0.0030  1.5691
 2184SOL     OW18187   3.707   3.107  12.530 -0.1953 -0.0240 -0.8427
 2184SOL    HW118188   3.648   3.047  12.576 -0.3517  0.7266 -0.0618
 2184SOL    HW218189   3.744   3.048  12.464 -2.3970 -1.1647 -1.0554
 2185SOL     OW18190   1.446   1.918  15.624 -0.2507 -0.3233  0.5688
 2185SOL    HW118191   1.488   1.932  15.539 -2.6682  0.4006 -0.4867
 2185SOL    HW218192   1.500   1.978  15.675  0.0120 -1.1980  1.3343
 2186SOL     OW18193   2.679   4.617   4.841 -0.1150  0.2776 -0.3300
 2186SOL    HW118194   2.685   4.664   4.758 -2.1962 -0.2390 -0.7829
 2186SOL    HW218195   2.584   4.622   4.852 -0.1385 -2.1325  0.6029
 2187SOL     OW18196   1.798   2.062   7.934  0.1868 -0.1656 -0.0249
 2187SOL    HW118197   1.893   2.062   7.932  0.1563  1.2133 -1.7226
 2187SOL    HW218198   1.782   2.086   8.026  1.2755  1.2326 -0.2052
 2188SOL     OW18199   4.254   0.476  12.641  0.5726  0.2356  0.0937
 2188SOL    HW118200   4.282   0.560  12.603  1.2845 -0.0830 -0.0983
 2188SOL    HW218201   4.200   0.432  12.575 -0.5530  1.2616  0.3269
 2189SOL     OW18202   2.841   4.509   3.078  0.3125  0.1796  0.0694
 2189SOL    HW118203   2.784   4.483   3.006 -2.2637  3.4211  0.9244
 2189SOL    HW218204   2.906   4.556   3.025  1.3041 -0.2473  0.9117
 2190SOL     OW18205   2.127   4.233  11.570  0.0896  0.3790  0.1544
 2190SOL    HW118206   2.094   4.322  11.587 -0.7893  0.0925 -0.0564
 2190SOL    HW218207   2.061   4.203  11.508 -0.8959 -1.9168  2.3494
 2191SOL     OW18208   1.878   2.659   0.029  0.1252  0.5218 -0.2085
 2191SOL    HW118209   1.840   2.644   0.116 -2.2870  2.9389 -0.8427
 2191SOL    HW218210   1.936   2.583   0.021  2.5057  2.2567  0.5809
 2192SOL     OW18211   4.582   2.762   1.549  0.4473 -0.2028  0.4722
 2192SOL    HW118212   4.565   2.715   1.467  2.5906 -1.5215  0.7708
 2192SOL    HW218213   4.572   2.683   1.602  0.3048  1.7434  3.3645
 2193SOL     OW18214   4.064   2.554  10.609 -0.1144  0.3511  0.1659
 2193SOL    HW118215   4.038   2.495  10.680 -1.2372 -1.4669 -1.7516
 2193SOL    HW218216   4.157   2.539  10.590 -0.2519 -0.7850  0.3733
 2194SOL     OW18217   4.229   4.151   6.675 -0.2569 -0.0436  0.0284
 2194SOL    HW118218   4.268   4.146   6.587 -0.0545  0.7633  0.0723
 2194SOL    HW218219   4.215   4.245   6.687  2.8352  0.2748  1.1803
 2195SOL     OW18220   1.827   1.816  13.060 -0.0230 -0.0904  0.0550
 2195SOL    HW118221   1.794   1.905  13.069 -1.4630 -0.7432  1.2329
 2195SOL    HW218222   1.900   1.816  13.122 -1.4107 -0.9550  1.7031
 2196SOL     OW18223   2.063   1.386   2.271  0.1837 -0.5165  0.5129
 2196SOL    HW118224   2.066   1.293   2.292 -0.3542 -1.5344 -4.1212
 2196SOL    HW218225   2.009   1.421   2.343  1.6948 -0.9943  1.8831
 2197SOL     OW18226   2.187   2.491   8.035  0.0860  0.0667  0.9053
 2197SOL    HW118227   2.139   2.555   7.983 -0.3598 -0.6659  0.4136
 2197SOL    HW218228   2.135   2.484   8.115  1.4367 -1.2135  1.6864
 2198SOL     OW18229   1.885   1.429   7.256 -0.7823  0.0215  0.6221
 2198SOL    HW118230   1.863   1.410   7.347 -0.8481  1.1343  0.8395
 2198SOL    HW218231   1.810   1.401   7.204  1.3950  2.1145 -3.6382
 2199SOL     OW18232   1.338   1.897   1.438  0.5399  0.0494 -0.0052
 2199SOL    HW118233   1.321   1.992   1.438 -2.0528 -0.3988 -1.3533
 2199SOL    HW218234   1.319   1.880   1.530 -1.7030  1.6805 -0.1609
 2200SOL     OW18235   0.751   4.480  13.363 -0.4297  0.2372 -0.1077
 2200SOL    HW118236   0.737   4.569  13.394 -0.5700  0.9014 -2.0497
 2200SOL    HW218237   0.666   4.465  13.322  0.9333 -2.1834 -2.0896
 2201SOL     OW18238   4.280   0.845   2.551  0.1945 -0.0049  0.0921
 2201SOL    HW118239   4.321   0.784   2.489  3.0342  1.2992  0.6871
 2201SOL    HW218240   4.253   0.912   2.487 -3.3620 -0.2049  1.3983
 2202SOL     OW18241   4.387   0.897   6.979  0.4873  0.3410  0.5167
 2202SOL    HW118242   4.386   0.856   6.892  0.4138 -1.0052  1.1569
 2202SOL    HW218243   4.463   0.955   6.969 -0.7083  1.4797 -2.0075
 2203SOL     OW18244   0.967   3.438   2.479  0.2388  0.4038 -0.4025
 2203SOL    HW118245   0.924   3.375   2.537  0.0833 -0.0407 -1.0014
 2203SOL    HW218246   0.919   3.518   2.500  0.5241 -0.4443  3.4630
 2204SOL     OW18247   0.283   1.520  11.790  0.2574  0.0717 -0.8906
 2204SOL    HW118248   0.223   1.535  11.717  1.8992 -2.2131 -2.7249
 2204SOL    HW218249   0.275   1.429  11.820  0.6472 -0.2852 -1.8653
 2205SOL     OW18250   4.101   0.081  13.505  0.5519  0.7996 -0.2176
 2205SOL    HW118251   4.155   0.125  13.571 -0.6986  3.3617 -0.9163
 2205SOL    HW218252   4.142   0.101  13.421  2.4124  0.6895  0.6605
 2206SOL     OW18253   0.388   3.458   0.848  0.4661  0.0461  0.0324
 2206SOL    HW118254   0.356   3.467   0.937 -2.1363  3.7155 -1.2744
 2206SOL    HW218255   0.428   3.371   0.851  1.6235  0.5677 -0.1151
 2207SOL     OW18256   1.508   3.048   6.522 -0.0883  0.4543  0.1536
 2207SOL    HW118257   1.432   3.103   6.503  2.3570  3.0010 -2.3804
 2207SOL    HW218258   1.568   3.089   6.459 -1.6315 -1.0499 -2.2817
 2208SOL     OW18259   3.977   4.304  15.699  0.7249 -0.2473 -0.0491
 2208SOL    HW118260   3.966   4.211  15.683  0.2015  0.1417 -1.8634
 2208SOL    HW218261   3.962   4.305  15.794 -0.3370  0.9974 -0.2277
 2209SOL     OW18262   1.385   3.509   6.639  0.2412 -0.0178  0.2245
 2209SOL    HW118263   1.472   3.515   6.678  0.0952  1.1975  0.3673
 2209SOL    HW218264   1.375   3.418   6.611 -0.3139  0.9737 -2.7644
 2210SOL     OW18265   4.265   2.046   9.581  0.2384  0.0601 -0.3769
 2210SOL    HW118266   4.313   2.129   9.580 -1.0565  0.7770 -1.9051
 2210SOL    HW218267   4.283   2.008   9.668 -1.8748 -0.0220  0.0209
 2211SOL     OW18268   2.912   2.124   2.475 -0.1702 -0.6254 -0.3666
 2211SOL    HW118269   2.884   2.042   2.516  0.3877 -0.2387  0.7692
 2211SOL    HW218270   3.003   2.117   2.503 -0.9053  0.0854  2.0982
 2212SOL     OW18271   2.750   1.512  14.555  0.3023  0.0564  0.2054
 2212SOL    HW118272   2.697   1.486  14.480  0.6046 -0.7252  0.2663
 2212SOL    HW218273   2.825   1.559  14.519 -0.2194  0.6584 -0.0820
 2213SOL     OW18274   1.522   2.303   2.060 -0.0089  0.6174 -0.7207
 2213SOL    HW118275   1.481   2.228   2.102  1.7525 -1.1516 -2.1753
 2213SOL    HW218276   1.604   2.266   2.027 -0.0761  0.2795 -0.5086
 2214SOL     OW18277   2.859   4.480   2.375 -0.2403  0.2697 -0.3231
 2214SOL    HW118278   2.834   4.560   2.329  0.0233 -0.1914 -1.2520
 2214SOL    HW218279   2.953   4.496   2.379  0.1981 -2.3540 -0.0855
 2215SOL     OW18280   4.709   0.407   8.589 -0.1602 -0.3079  0.1280
 2215SOL    HW118281   0.043   0.450   8.542 -0.4542  0.2429  0.1935
 2215SOL    HW218282   4.676   0.333   8.538 -2.6651  1.0241 -0.1615
 2216SOL     OW18283   1.409   4.655   2.659 -0.4138 -0.2165 -0.0948
 2216SOL    HW118284   1.458   4.574   2.671  0.5789  0.2206 -1.2573
 2216SOL    HW218285   1.421   4.701   2.742 -2.8008 -0.1647  0.2071
 2217SOL     OW18286   1.599   1.784   4.452 -0.1853  0.2095  0.0740
 2217SOL    HW118287   1.601   1.852   4.385 -3.2858  1.6419  1.4431
 2217SOL    HW218288   1.624   1.710   4.397  0.7139  0.0997  0.6172
 2218SOL     OW18289   3.727   3.422   3.758  0.2822 -0.0240  0.1661
 2218SOL    HW118290   3.798   3.388   3.813 -1.2492  0.2198  2.3298
 2218SOL    HW218291   3.689   3.339   3.729 -1.2064  0.1537  1.5804
 2219SOL     OW18292   2.831   2.034   7.636  0.4428 -0.2504  0.4201
 2219SOL    HW118293   2.809   2.050   7.728  0.7889  1.9182  0.1132
 2219SOL    HW218294   2.906   2.092   7.624 -1.4613  1.8952 -1.2150
 2220SOL     OW18295   2.128   1.483  16.893  0.8341 -0.1158  0.4659
 2220SOL    HW118296   2.114   1.527  16.809  0.1536  1.0149  1.1655
 2220SOL    HW218297   2.074   1.406  16.877 -0.3320  0.6121  0.8469
 2221SOL     OW18298   4.006   2.939   5.262  0.2193 -0.6966  0.5201
 2221SOL    HW118299   4.093   2.972   5.285 -0.2696  0.6043  0.5107
 2221SOL    HW218300   3.996   2.974   5.173 -0.9810 -2.2750  0.0342
 2222SOL     OW18301   2.133   2.484   6.030 -0.9229  0.0513 -0.2145
 2222SOL    HW118302   2.215   2.517   5.993 -0.7386 -0.5241 -0.3145
 2222SOL    HW218303   2.077   2.562   6.031 -0.7910  0.1250  1.1325
 2223SOL     OW18304   0.289   2.852  12.022  0.2256  0.0116 -0.4646
 2223SOL    HW118305   0.328   2.764  12.025 -0.9439 -0.5202 -0.8448
 2223SOL    HW218306   0.258   2.858  11.932 -0.9296 -0.2965 -0.0814
 2224SOL     OW18307   1.294   1.418   2.834  0.2565 -0.0538  0.5149
 2224SOL    HW118308   1.298   1.507   2.799 -1.1756  0.2570  1.1441
 2224SOL    HW218309   1.316   1.436   2.926 -1.1742 -1.6812  1.1691
 2225SOL     OW18310   2.672   3.852   8.313  0.0870  0.0012 -0.5686
 2225SOL    HW118311   2.714   3.852   8.227 -0.3865 -0.5935 -0.8032
 2225SOL    HW218312   2.612   3.925   8.307 -0.7907 -0.7936 -1.3391
 2226SOL     OW18313   3.427   4.415   6.492  0.1812 -0.3126  0.5955
 2226SOL    HW118314   3.475   4.338   6.461  3.8198  2.9608 -1.8156
 2226SOL    HW218315   3.451   4.409   6.584 -0.7900  1.7450  0.9631
 2227SOL     OW18316   2.418   3.051   4.487 -0.4882  0.3494 -0.8377
 2227SOL    HW118317   2.453   3.103   4.559  1.4573  0.3052 -1.7354
 2227SOL    HW218318   2.487   3.056   4.421  0.7736 -1.1081  0.3584
 2228SOL     OW18319   3.850   4.700  13.444  0.4838  0.3645  0.0794
 2228SOL    HW118320   3.788   4.731  13.509  1.9756  2.7312  0.3668
 2228SOL    HW218321   3.930   0.005  13.476 -0.9860  2.8770  0.4221
 2229SOL     OW18322   2.853   0.610   8.784 -0.1077 -0.1817  0.7394
 2229SOL    HW118323   2.834   0.516   8.778 -2.0943  0.3471 -0.9055
 2229SOL    HW218324   2.810   0.640   8.864  1.3705  2.0498  0.6856
 2230SOL     OW18325   0.621   0.832   1.866 -0.0802 -0.4884  0.2730
 2230SOL    HW118326   0.559   0.898   1.899 -1.5638 -0.9878 -1.4879
 2230SOL    HW218327   0.609   0.766   1.934 -1.3289  0.7204  1.2240
 2231SOL     OW18328   3.654   1.060   6.691  0.1067 -0.2288  0.6042
 2231SOL    HW118329   3.597   0.989   6.661 -0.9945  0.6162  0.6764
 2231SOL    HW218330   3.734   1.018   6.721  0.4056  0.2413  0.4703
 2232SOL     OW18331   3.685   0.122   4.305 -0.1290  0.3939  0.2595
 2232SOL    HW118332   3.780   0.126   4.318  0.0767  0.1115 -1.1704
 2232SOL    HW218333   3.662   0.036   4.342 -1.2802 -0.2971 -2.0552
 2233SOL     OW18334   3.492   3.573   6.722 -0.2406  0.3723  0.2924
 2233SOL    HW118335   3.503   3.479   6.734  1.0094  0.3044 -1.3005
 2233SOL    HW218336   3.498   3.607   6.811 -0.1376 -0.9281  0.7725
 2234SOL     OW18337   4.581   0.100  16.482  0.5258 -0.4752 -0.8002
 2234SOL    HW118338   4.643   0.089  16.410  1.0934  0.2823 -0.4202
 2234SOL    HW218339   4.507   0.145  16.442 -0.3439 -1.6256 -0.4952
 2235SOL     OW18340   1.747   4.456   8.555  0.4471  0.4143  0.2079
 2235SOL    HW118341   1.820   4.417   8.603 -0.3860 -0.0743  1.0738
 2235SOL    HW218342   1.728   4.391   8.488 -0.4060 -1.8693  2.7053
 2236SOL     OW18343   2.970   3.683  13.131  0.0354  0.1075  0.8259
 2236SOL    HW118344   3.002   3.643  13.050 -0.4495  1.2928  0.0533
 2236SOL    HW218345   3.035   3.653  13.195  2.6911 -1.4256 -2.6547
 2237SOL     OW18346   1.026   3.106  16.643 -0.0034 -0.1766 -0.4117
 2237SOL    HW118347   0.933   3.111  16.665  0.4732  1.1853  1.2945
 2237SOL    HW218348   1.064   3.067  16.721 -0.6988 -2.1356 -1.0594
 2238SOL     OW18349   0.739   3.809   4.590 -0.1799  0.0447 -0.0364
 2238SOL    HW118350   0.777   3.750   4.655  0.8802  1.3630  0.5491
 2238SOL    HW218351   0.803   3.810   4.519 -1.3441  1.6746 -1.0643
 2239SOL     OW18352   2.968   4.149   4.119  0.6022  0.0979 -0.0089
 2239SOL    HW118353   3.020   4.111   4.049 -0.3168  1.9516 -1.7139
 2239SOL    HW218354   2.885   4.102   4.109  1.3742 -1.6392  1.6319
 2240SOL     OW18355   3.213   0.829   2.808 -0.3336 -0.9703  0.0767
 2240SOL    HW118356   3.175   0.748   2.775  3.1734 -2.2282 -0.9129
 2240SOL    HW218357   3.132   0.878   2.820 -0.0611  0.2688 -3.2820
 2241SOL     OW18358   2.041   4.380   3.180 -0.1414  0.4644  0.0017
 2241SOL    HW118359   2.083   4.296   3.161 -1.4833 -0.2012 -0.0303
 2241SOL    HW218360   2.112   4.416   3.233  1.9566 -1.8941 -1.2181
 2242SOL     OW18361   3.029   0.361  15.949 -0.3445 -0.5788  0.2355
 2242SOL    HW118362   3.114   0.319  15.959 -0.2929 -0.3723  0.6903
 2242SOL    HW218363   3.051   0.448  15.913  3.9619 -1.4545  0.7166
 2243SOL     OW18364   0.251   0.388   9.519  0.3451 -0.4017  0.1246
 2243SOL    HW118365   0.175   0.407   9.573 -0.1418 -0.8259 -0.4123
 2243SOL    HW218366   0.320   0.392   9.586  0.3280  1.4978  0.0250
 2244SOL     OW18367   1.595   0.555  11.080 -0.0992  0.2498  0.5733
 2244SOL    HW118368   1.616   0.480  11.135  0.2755  0.3786  0.6048
 2244SOL    HW218369   1.669   0.611  11.103 -2.8329  3.5475  1.1809
 2245SOL     OW18370   0.228   0.256  12.589  0.0757  0.2795  0.0275
 2245SOL    HW118371   0.285   0.306  12.647  0.1947 -1.3383  1.3193
 2245SOL    HW218372   0.297   0.248  12.524  1.8611 -0.4951  2.0168
 2246SOL     OW18373   3.796   2.291   3.414 -0.9242 -0.3434 -0.0317
 2246SOL    HW118374   3.711   2.305   3.456 -2.3248  0.0136 -2.9927
 2246SOL    HW218375   3.831   2.233   3.482 -0.5704  2.1768  1.9161
 2247SOL     OW18376   3.746   2.802   7.694 -0.2920  0.1812 -0.3322
 2247SOL    HW118377   3.788   2.871   7.746 -0.5574  0.2476 -0.2071
 2247SOL    HW218378   3.741   2.720   7.743  0.4962 -0.2059 -0.8933
 2248SOL     OW18379   1.944   3.736   4.325  0.2938  1.1424  0.0649
 2248SOL    HW118380   1.886   3.681   4.378  2.0546  1.3702  2.2586
 2248SOL    HW218381   1.968   3.813   4.376  1.1542 -0.0926  1.5379
 2249SOL     OW18382   0.757   3.504   0.142  0.4891 -0.2086  0.2299
 2249SOL    HW118383   0.817   3.573   0.114 -0.3072 -0.2817 -1.6534
 2249SOL    HW218384   0.730   3.478   0.054  0.4162  2.2460 -0.4591
 2250SOL     OW18385   1.772   4.449   0.144  0.0471 -0.0704 -0.2093
 2250SOL    HW118386   1.776   4.543   0.163  1.9267  0.1849 -1.7928
 2250SOL    HW218387   1.681   4.429   0.163 -0.0692  0.7045  0.0591
 2251SOL     OW18388   2.753   2.869   1.764 -0.7420  0.0610 -0.0591
 2251SOL    HW118389   2.825   2.841   1.708 -1.3187 -0.7203 -0.4141
 2251SOL    HW218390   2.738   2.962   1.749 -3.0384  0.0652  2.3690
 2252SOL     OW18391   1.293   0.531   8.610 -0.0519  0.5943  0.5581
 2252SOL    HW118392   1.345   0.555   8.533 -1.8782 -1.0845 -1.2106
 2252SOL    HW218393   1.290   0.617   8.652  1.9647 -0.0243  1.9840
 2253SOL     OW18394   1.591   2.544  10.001  0.2847  0.1102 -0.2010
 2253SOL    HW118395   1.654   2.576   9.937  1.1999 -1.5768 -0.1274
 2253SOL    HW218396   1.596   2.607  10.073 -1.1348 -0.1799  0.1496
 2254SOL     OW18397   2.561   2.784   3.291 -0.0260  0.1618  0.4059
 2254SOL    HW118398   2.546   2.852   3.356  0.9101 -0.8593  1.6853
 2254SOL    HW218399   2.570   2.835   3.210  0.4536 -0.6507 -0.0621
 2255SOL     OW18400   1.211   0.392   7.266  0.4902 -0.2956  0.1607
 2255SOL    HW118401   1.178   0.480   7.281  0.0172 -0.6438  1.2100
 2255SOL    HW218402   1.138   0.342   7.231  1.4035  1.6681 -4.5038
 2256SOL     OW18403   0.774   1.110   4.888 -0.8892 -0.3063 -0.0033
 2256SOL    HW118404   0.851   1.147   4.931 -0.5961  0.7194 -1.4098
 2256SOL    HW218405   0.792   1.133   4.797  2.0120 -0.2110  0.5996
 2257SOL     OW18406   0.106   3.888   1.898  0.2446  0.4541 -0.4006
 2257SOL    HW118407   0.128   3.820   1.835 -0.0541 -0.8144  0.8551
 2257SOL    HW218408   0.180   3.884   1.958  0.0301  1.1618 -0.0821
 2258SOL     OW18409   3.914   1.852   6.022  0.0740  0.0823  0.2796
 2258SOL    HW118410   3.836   1.804   5.993  0.5603  0.5463 -1.7858
 2258SOL    HW218411   3.930   1.804   6.103  0.4706 -1.7072 -0.8426
 2259SOL     OW18412   3.577   1.248  13.729 -0.1194  0.0558 -0.1322
 2259SOL    HW118413   3.524   1.168  13.730 -0.0835  0.0514  1.7941
 2259SOL    HW218414   3.655   1.232  13.782  1.2540 -0.0818 -2.2158
 2260SOL     OW18415   0.199   2.181  10.165  0.4700 -0.1775  0.5356
 2260SOL    HW118416   0.229   2.234  10.239  0.9970 -0.2891  0.4007
 2260SOL    HW218417   0.255   2.103  10.171 -0.2286 -0.6493  0.9971
 2261SOL     OW18418   2.014   2.418   0.000 -0.2222 -0.2417 -0.5196
 2261SOL    HW118419   2.094   2.438  17.700  0.8868  2.4958  2.4996
 2261SOL    HW218420   2.033   2.332   0.037  2.5103  1.5714  2.2896
 2262SOL     OW18421   2.254   0.768   4.041  0.0400  0.2912 -0.3703
 2262SOL    HW118422   2.346   0.761   4.014  0.0281 -0.6611 -0.1728
 2262SOL    HW218423   2.247   0.852   4.087  0.8466  0.4323 -0.5031
 2263SOL     OW18424   4.158   1.364   2.030  0.2250  0.7710  0.7127
 2263SOL    HW118425   4.136   1.353   1.938  4.0591  1.3560 -0.2519
 2263SOL    HW218426   4.141   1.457   2.044  0.0731  0.7783  0.4768
 2264SOL     OW18427   2.187   1.734  17.007 -0.0843 -0.4883  0.0697
 2264SOL    HW118428   2.173   1.648  16.968  0.2595 -0.0376 -1.0336
 2264SOL    HW218429   2.166   1.781  16.927  1.7651  1.5542  0.7605
 2265SOL     OW18430   4.698   2.333   4.718 -0.1273 -0.3099  0.2780
 2265SOL    HW118431   0.028   2.305   4.656  0.9215 -0.5914  1.5482
 2265SOL    HW218432   4.646   2.382   4.655  1.7049 -0.6798 -1.5181
 2266SOL     OW18433   1.575   0.494  10.551 -0.3778  0.0380 -0.2232
 2266SOL    HW118434   1.600   0.491  10.459  0.9819 -1.6416  0.1997
 2266SOL    HW218435   1.648   0.533  10.599  0.2335 -1.8904  0.4185
 2267SOL     OW18436   2.667   4.459   7.306 -0.0514 -0.4392 -0.0711
 2267SOL    HW118437   2.737   4.502   7.354 -1.9834  1.1034  1.3809
 2267SOL    HW218438   2.598   4.524   7.319 -1.4351 -1.7784 -0.7233
 2268SOL     OW18439   2.540   4.376   0.904 -0.6296  0.0701 -0.0123
 2268SOL    HW118440   2.466   4.402   0.959 -0.2416 -0.6115  0.8362
 2268SOL    HW218441   2.610   4.400   0.966  0.0211 -0.9913 -0.3385
 2269SOL     OW18442   4.446   3.734   4.445  0.1870 -0.1267  0.7966
 2269SOL    HW118443   4.513   3.801   4.432 -0.7853  0.6269 -0.3314
 2269SOL    HW218444   4.434   3.701   4.356 -0.4634  0.3703  0.7038
 2270SOL     OW18445   3.632   0.511   3.100  0.3077 -1.2527 -0.1439
 2270SOL    HW118446   3.591   0.593   3.072 -2.9387 -2.9971 -0.5642
 2270SOL    HW218447   3.632   0.518   3.195  2.0260 -0.8492 -0.1814
 2271SOL     OW18448   0.073   3.381   0.759 -0.2340  0.2110 -0.0683
 2271SOL    HW118449   0.125   3.422   0.690  0.7158 -0.3398  0.3198
 2271SOL    HW218450   4.722   3.372   0.722 -0.2486 -0.7083  0.1921
 2272SOL     OW18451   3.112   1.365   4.097  0.5591 -0.3753  0.1411
 2272SOL    HW118452   3.113   1.444   4.043 -1.1627  1.5245  2.9268
 2272SOL    HW218453   3.198   1.333   4.068  0.5515  0.7273 -1.0723
 2273SOL     OW18454   1.118   3.082  15.885  0.3137  0.1489  0.0344
 2273SOL    HW118455   1.185   3.125  15.938  0.1031  1.8211 -1.0427
 2273SOL    HW218456   1.097   3.162  15.837  2.4318  1.1632  0.7957
 2274SOL     OW18457   1.108   3.188   3.010  0.2288  0.1595 -0.0442
 2274SOL    HW118458   1.164   3.153   3.080 -0.1676 -2.2494 -0.9056
 2274SOL    HW218459   1.109   3.277   3.043  1.5830  0.4911 -0.9820
 2275SOL     OW18460   0.345   3.151  11.518 -0.4418 -0.4021  0.1130
 2275SOL    HW118461   0.365   3.095  11.593 -1.1724 -0.6874  0.0878
 2275SOL    HW218462   0.313   3.089  11.453  0.5917 -0.4827 -0.3123
 2276SOL     OW18463   1.849   1.167   9.420  0.6879  0.6283 -0.7733
 2276SOL    HW118464   1.859   1.244   9.477  2.7083 -0.3567  0.1990
 2276SOL    HW218465   1.771   1.190   9.370 -0.4819 -0.7720  0.3822
 2277SOL     OW18466   1.790   0.760  11.023 -0.2242  0.0337  0.6538
 2277SOL    HW118467   1.809   0.782  10.932  0.3643  1.7329  1.1938
 2277SOL    HW218468   1.753   0.844  11.049  1.1679  0.9098 -0.1703
 2278SOL     OW18469   2.605   1.839   1.501 -0.5390  0.3802  0.2716
 2278SOL    HW118470   2.578   1.903   1.435 -1.2151 -1.0764 -0.8751
 2278SOL    HW218471   2.700   1.837   1.489 -0.4636  0.8187  0.8247
 2279SOL     OW18472   2.662   0.368  10.379  0.4371 -0.2857 -0.3603
 2279SOL    HW118473   2.690   0.344  10.467  2.1585  1.8009 -0.3242
 2279SOL    HW218474   2.599   0.297  10.366 -0.1279  0.2096 -0.3058
 2280SOL     OW18475   1.090   3.516   7.123  0.3254  0.0006 -0.1943
 2280SOL    HW118476   1.108   3.430   7.085 -2.0549 -0.4736 -0.2267
 2280SOL    HW218477   1.032   3.489   7.194  0.0756 -0.6410 -0.6421
 2281SOL     OW18478   3.516   1.474   7.014 -0.0209  0.9792  0.7025
 2281SOL    HW118479   3.545   1.389   6.981 -2.4749 -0.0724  1.2888
 2281SOL    HW218480   3.480   1.515   6.935  0.7614 -2.1597 -1.2732
 2282SOL     OW18481   1.243   4.479   4.517 -0.3856 -0.3037  0.4927
 2282SOL    HW118482   1.299   4.545   4.557 -1.1182  1.9234 -2.1487
 2282SOL    HW218483   1.315   4.417   4.511  1.4703  2.1386 -2.4138
 2283SOL     OW18484   0.425   3.714   8.362 -0.0861 -0.2615 -0.6188
 2283SOL    HW118485   0.342   3.760   8.350  0.7020  0.9524 -1.5205
 2283SOL    HW218486   0.490   3.780   8.337 -1.7397  1.5152 -0.1725
 2284SOL     OW18487   3.476   4.396   0.807  0.2495  0.3339 -0.4781
 2284SOL    HW118488   3.461   4.326   0.871  0.3961  0.5976 -0.1551
 2284SOL    HW218489   3.511   4.344   0.735 -0.3292  0.6310 -0.9643
 2285SOL     OW18490   1.619   1.572   3.579 -0.6439 -0.0135  0.2671
 2285SOL    HW118491   1.673   1.520   3.520  1.9540  2.9558  0.0340
 2285SOL    HW218492   1.577   1.630   3.517  0.9994 -0.5696 -1.3640
 2286SOL     OW18493   0.141   4.221   6.559  0.5618  0.5342  0.5038
 2286SOL    HW118494   0.217   4.214   6.502  0.8409  0.0230  0.9381
 2286SOL    HW218495   0.137   4.133   6.598  2.7414  0.1117 -0.1802
 2287SOL     OW18496   1.617   1.491   4.471  0.4371  0.0834  0.3909
 2287SOL    HW118497   1.625   1.512   4.564 -0.5159  1.9421  0.0595
 2287SOL    HW218498   1.625   1.396   4.477  0.4338  0.0479 -0.1267
 2288SOL     OW18499   3.210   0.049   8.059 -0.1782 -0.5724 -0.2561
 2288SOL    HW118500   3.273   0.111   8.096 -0.4000  0.1143 -1.0377
 2288SOL    HW218501   3.160   0.113   8.008 -0.7944 -2.2282 -1.7629
 2289SOL     OW18502   1.557   4.732   6.756 -0.8076  0.1690 -0.1946
 2289SOL    HW118503   1.521   0.028   6.838  0.2907  1.0213 -0.0574
 2289SOL    HW218504   1.641   4.691   6.778 -0.2490 -0.2676 -3.1310
 2290SOL     OW18505   0.710   1.524   7.647  0.5194 -0.2641  0.2084
 2290SOL    HW118506   0.789   1.541   7.595  0.9277  0.3584  1.0410
 2290SOL    HW218507   0.640   1.522   7.581  0.8812  0.9810 -0.2136
 2291SOL     OW18508   2.289   3.077   4.114  0.6869  0.6173  0.3248
 2291SOL    HW118509   2.230   3.112   4.181 -0.3898 -1.0433  0.2262
 2291SOL    HW218510   2.369   3.081   4.166  0.5827  0.8964  0.4653
 2292SOL     OW18511   0.826   3.975   3.069 -0.3685  0.1189 -0.9112
 2292SOL    HW118512   0.782   3.961   3.153  1.9289 -0.3845  0.1915
 2292SOL    HW218513   0.771   4.045   3.033 -0.0218  0.8145 -0.0652
 2293SOL     OW18514   2.836   1.631   6.842 -0.6602 -0.1136  0.4499
 2293SOL    HW118515   2.819   1.722   6.870  0.4343 -0.6121  2.7798
 2293SOL    HW218516   2.801   1.582   6.917 -2.2965  1.1732  0.5428
 2294SOL     OW18517   1.708   4.680   5.388  0.4110  0.1264  0.1784
 2294SOL    HW118518   1.613   4.688   5.387  0.2569 -1.6919  0.0428
 2294SOL    HW218519   1.723   4.608   5.449 -1.9922  0.5203  1.2391
 2295SOL     OW18520   2.694   0.296   7.796  0.6766  0.9260  0.1203
 2295SOL    HW118521   2.756   0.369   7.799  0.2777  1.2274  1.0630
 2295SOL    HW218522   2.727   0.232   7.859 -1.3605 -0.7157 -0.4898
 2296SOL     OW18523   0.595   2.242  14.981  0.1131  0.1810 -0.8326
 2296SOL    HW118524   0.618   2.325  15.023 -2.7150  1.4292 -1.7750
 2296SOL    HW218525   0.661   2.181  15.014  0.5753 -0.7662 -3.5402
 2297SOL     OW18526   3.933   0.805   1.859 -0.9941 -0.4883  0.7523
 2297SOL    HW118527   3.997   0.859   1.906  0.2287  0.1621 -1.6704
 2297SOL    HW218528   3.894   0.767   1.938  2.3753  0.6850  3.0081
 2298SOL     OW18529   1.770   0.014   8.592 -0.8789  0.4585  0.1361
 2298SOL    HW118530   1.753   4.659   8.575  0.3451 -0.1325  2.0688
 2298SOL    HW218531   1.856   4.737   8.630  0.0118  0.9953 -1.7178
 2299SOL     OW18532   0.587   1.658  11.104 -0.4402  0.2960 -0.5825
 2299SOL    HW118533   0.634   1.639  11.185 -0.2688  1.9303 -0.2990
 2299SOL    HW218534   0.499   1.635  11.136 -0.0894  0.3184  0.4116
 2300SOL     OW18535   2.330   4.516  15.493 -0.3405 -0.2418  0.2167
 2300SOL    HW118536   2.376   4.465  15.427 -0.9591 -0.4255 -0.0730
 2300SOL    HW218537   2.289   4.585  15.442  0.6176 -0.6331 -1.0745
 2301SOL     OW18538   4.003   0.497   4.525  0.5719  0.3989  0.6570
 2301SOL    HW118539   3.982   0.412   4.565 -0.4275  0.4801  0.3100
 2301SOL    HW218540   4.091   0.504   4.562 -0.7603 -2.0537  4.3483
 2302SOL     OW18541   0.547   2.746  10.196 -0.2576 -0.2139  0.0531
 2302SOL    HW118542   0.472   2.725  10.141  1.6040  0.9374 -2.9406
 2302SOL    HW218543   0.533   2.677  10.261  1.5658  1.1171  1.8806
 2303SOL     OW18544   1.730   1.207  12.299  0.8221  0.2107  0.6219
 2303SOL    HW118545   1.658   1.256  12.260  0.2782 -1.4496 -0.4737
 2303SOL    HW218546   1.801   1.267  12.276  0.1329  1.3073  1.3842
 2304SOL     OW18547   0.775   1.097   9.999  0.0764  0.2292  0.4471
 2304SOL    HW118548   0.725   1.016  10.013 -0.1143  0.2181 -0.2867
 2304SOL    HW218549   0.743   1.155  10.069 -1.4999  0.5845 -0.5788
 2305SOL     OW18550   2.212   0.545   1.078  0.1068 -0.5395 -0.1238
 2305SOL    HW118551   2.147   0.615   1.076 -0.1716 -0.7768  0.6174
 2305SOL    HW218552   2.166   0.469   1.042  0.8157 -0.0096 -2.0984
 2306SOL     OW18553   3.296   1.726  17.004 -0.2577 -0.3824 -0.0317
 2306SOL    HW118554   3.300   1.818  17.030 -0.2385  0.6894 -3.9581
 2306SOL    HW218555   3.334   1.739  16.917 -0.2850  1.3472  0.2252
 2307SOL     OW18556   3.536   2.018  12.235 -0.4406  0.3685 -0.0026
 2307SOL    HW118557   3.455   2.054  12.200 -0.7856  0.1200  0.5334
 2307SOL    HW218558   3.495   1.943  12.279  0.4185 -0.0053  0.1670
 2308SOL     OW18559   2.247   0.082  11.964  0.1154 -0.0945  0.0889
 2308SOL    HW118560   2.318   0.026  11.932  0.6034  0.4142  0.2682
 2308SOL    HW218561   2.222   0.029  12.040 -1.1415  2.1970  1.2659
 2309SOL     OW18562   2.442   4.429  10.960  0.3610  0.1258  0.4587
 2309SOL    HW118563   2.473   4.367  11.026 -0.1677  1.4084  1.9141
 2309SOL    HW218564   2.349   4.407  10.950  0.5029 -0.9891  1.5894
 2310SOL     OW18565   1.797   4.497   0.965  0.2522  0.7062  0.1894
 2310SOL    HW118566   1.819   4.547   0.886  1.9005 -1.3843 -0.6860
 2310SOL    HW218567   1.849   4.418   0.951  0.0370  0.4475  0.8592
 2311SOL     OW18568   1.813   2.272   1.323 -0.2603 -0.3610  0.3401
 2311SOL    HW118569   1.833   2.240   1.235 -0.0883 -1.4134  0.7656
 2311SOL    HW218570   1.733   2.229   1.352 -1.9538  1.7765 -1.1140
 2312SOL     OW18571   0.527   1.433  14.337  0.3168 -0.3374  0.5526
 2312SOL    HW118572   0.463   1.488  14.383  0.0307 -0.3412  0.1510
 2312SOL    HW218573   0.600   1.443  14.398 -1.2853 -1.2207  2.6099
 2313SOL     OW18574   2.704   0.144   8.378 -0.3156  0.2372 -0.0300
 2313SOL    HW118575   2.761   0.068   8.378  0.9234  1.1701  3.3215
 2313SOL    HW218576   2.709   0.173   8.469 -0.7050 -1.7032  0.5980
 2314SOL     OW18577   2.721   0.678   7.947  0.5955  0.1136 -0.0572
 2314SOL    HW118578   2.768   0.733   8.010 -0.2682  0.1811  0.5261
 2314SOL    HW218579   2.791   0.620   7.917  0.7725  0.9891 -1.3739
 2315SOL     OW18580   2.148   4.429   5.357  0.3148 -0.4986 -0.5693
 2315SOL    HW118581   2.084   4.469   5.297  0.3287 -1.0235 -0.9344
 2315SOL    HW218582   2.128   4.471   5.441 -1.3084 -3.0179  0.3046
 2316SOL     OW18583   2.106   4.197   4.249 -0.5494  0.7039 -0.0283
 2316SOL    HW118584   2.107   4.169   4.157 -0.8287  1.6720 -0.3188
 2316SOL    HW218585   2.141   4.286   4.245 -1.1389  0.9939  1.6084
 2317SOL     OW18586   1.226   0.419   4.792 -0.6675 -0.5790  0.2195
 2317SOL    HW118587   1.225   0.323   4.789  1.3089 -0.6445  1.5039
 2317SOL    HW218588   1.139   0.436   4.756  0.3189 -1.1050 -2.4242
 2318SOL     OW18589   1.943   0.675   2.911  0.1262 -0.3699  0.1246
 2318SOL    HW118590   2.033   0.705   2.917 -0.3685  1.1570  0.0353
 2318SOL    HW218591   1.910   0.743   2.852 -0.2567 -0.7748 -0.1378
 2319SOL     OW18592   2.108   1.555   6.324  0.0668  0.9495  0.5022
 2319SOL    HW118593   2.086   1.501   6.248  0.3507  1.6605 -0.0787
 2319SOL    HW218594   2.116   1.640   6.281  3.7287  0.9378  1.2275
 2320SOL     OW18595   0.475   3.691   4.508 -0.8008  0.3483  0.1746
 2320SOL    HW118596   0.492   3.602   4.477 -1.1434  1.0257 -1.9149
 2320SOL    HW218597   0.559   3.726   4.540 -1.7028  2.4144  0.2994
 2321SOL     OW18598   2.828   0.515   4.878  0.6117 -0.3023 -0.1158
 2321SOL    HW118599   2.916   0.489   4.850  0.7431  1.0191 -0.8865
 2321SOL    HW218600   2.807   0.559   4.796 -1.2484 -0.2880  0.3624
 2322SOL     OW18601   0.199   0.039   4.857 -0.3320  0.5068 -0.5344
 2322SOL    HW118602   0.289   0.071   4.858  0.0710 -0.6162 -1.0713
 2322SOL    HW218603   0.173   0.050   4.949  3.0225  2.4291  0.1657
 2323SOL     OW18604   3.257   2.196   4.531  0.1770  0.1936 -0.1588
 2323SOL    HW118605   3.329   2.152   4.576 -0.0025  0.4549  0.3844
 2323SOL    HW218606   3.313   2.264   4.496  0.3207  0.8286  1.3277
 2324SOL     OW18607   2.397   3.780   0.470 -0.2741 -0.5044 -0.1491
 2324SOL    HW118608   2.388   3.834   0.391  0.2244  1.2193  0.9876
 2324SOL    HW218609   2.489   3.803   0.480 -0.6800  0.8774  0.3834
 2325SOL     OW18610   3.671   0.826   1.761 -0.2767 -0.1205  0.0986
 2325SOL    HW118611   3.750   0.834   1.814  0.1385 -2.8251 -0.0890
 2325SOL    HW218612   3.683   0.882   1.685  0.4489  1.7974  1.6393
 2326SOL     OW18613   1.580   4.123   7.799 -0.5302 -0.3546  0.2535
 2326SOL    HW118614   1.601   4.033   7.776  1.4629  0.5214 -1.3349
 2326SOL    HW218615   1.511   4.112   7.865 -2.2320  1.8428 -1.1435
 2327SOL     OW18616   1.530   4.243   0.994 -0.0864  0.1209  0.0624
 2327SOL    HW118617   1.515   4.335   0.974 -0.1963 -0.3999 -2.2939
 2327SOL    HW218618   1.464   4.226   1.062  0.0854 -0.4593  0.0902
 2328SOL     OW18619   4.389   1.286   7.572 -0.2288  0.6016  0.0871
 2328SOL    HW118620   4.426   1.316   7.489 -2.7861 -0.4830 -1.4674
 2328SOL    HW218621   4.455   1.319   7.632  0.4592  0.0321 -0.3597
 2329SOL     OW18622   0.833   4.441  13.101  0.0978  0.4884 -0.5778
 2329SOL    HW118623   0.840   4.442  13.196 -1.0174  1.0169 -0.4947
 2329SOL    HW218624   0.740   4.459  13.086 -0.2211 -0.4965  0.3238
 2330SOL     OW18625   0.609   2.909   5.739 -0.2420  0.4019 -0.1867
 2330SOL    HW118626   0.691   2.943   5.772 -0.9466 -0.5961  2.5420
 2330SOL    HW218627   0.545   2.980   5.750 -1.4925 -0.5556 -1.2152
 2331SOL     OW18628   3.063   0.102   6.593 -0.4903 -0.1195 -0.0784
 2331SOL    HW118629   2.995   0.035   6.588  0.4914 -1.1210 -0.0539
 2331SOL    HW218630   3.110   0.084   6.511 -2.2076 -2.6277 -0.4929
 2332SOL     OW18631   3.304   2.723   5.920  0.8157 -0.2528 -0.0349
 2332SOL    HW118632   3.300   2.635   5.883 -1.3368  0.1582 -0.7558
 2332SOL    HW218633   3.241   2.709   5.991 -0.6897 -1.7792 -1.6929
 2333SOL     OW18634   1.321   0.161   4.333 -0.1088 -0.1336  0.0680
 2333SOL    HW118635   1.263   0.163   4.409 -0.2510  0.4506 -0.0556
 2333SOL    HW218636   1.270   0.117   4.265 -2.6840 -0.3613  2.1834
 2334SOL     OW18637   2.690   1.705   6.107  0.0180 -0.0533 -0.5974
 2334SOL    HW118638   2.784   1.713   6.126 -0.2595  2.5998 -0.4174
 2334SOL    HW218639   2.700   1.624   6.056 -0.5768 -0.9052  0.6284
 2335SOL     OW18640   1.086   2.965   5.374  0.3334 -0.1863 -0.7504
 2335SOL    HW118641   1.141   3.001   5.305 -0.8872  1.4280 -0.8765
 2335SOL    HW218642   1.141   2.897   5.414 -0.4867  0.1575  0.9797
 2336SOL     OW18643   2.389   3.569   2.067  0.2512 -0.5857 -0.8566
 2336SOL    HW118644   2.331   3.646   2.060 -0.3075 -0.9089  0.2525
 2336SOL    HW218645   2.375   3.519   1.987 -0.2156  0.9540 -1.7399
 2337SOL     OW18646   3.579   2.017  14.585  0.0680 -0.0371  0.1700
 2337SOL    HW118647   3.643   1.981  14.646  1.5170  1.2712 -0.5896
 2337SOL    HW218648   3.619   2.103  14.573  0.6282 -0.4583 -0.9819
 2338SOL     OW18649   0.740   3.178   7.472  0.7366 -0.3738 -0.2485
 2338SOL    HW118650   0.692   3.220   7.401 -1.2714 -0.9687  0.7273
 2338SOL    HW218651   0.717   3.085   7.465  0.5780 -0.0844 -3.4445
 2339SOL     OW18652   4.273   2.701   8.228  0.1622  0.3186  0.1426
 2339SOL    HW118653   4.257   2.795   8.220  0.9543  0.3560 -1.1081
 2339SOL    HW218654   4.365   2.704   8.252  0.6330  0.4212 -1.6810
 2340SOL     OW18655   4.392   2.758   0.529 -0.4300  0.3429  0.3285
 2340SOL    HW118656   4.469   2.754   0.473 -1.1757 -0.4277 -0.6623
 2340SOL    HW218657   4.384   2.853   0.538 -2.6616  0.1566  0.4373
 2341SOL     OW18658   3.045   1.509  13.369 -0.2440  0.4735 -0.2902
 2341SOL    HW118659   3.041   1.440  13.435 -3.1964 -0.1395 -1.1317
 2341SOL    HW218660   3.087   1.467  13.293  0.3414 -0.2215  0.4086
 2342SOL     OW18661   1.505   0.620   5.613  0.0745  0.4926 -0.2395
 2342SOL    HW118662   1.439   0.579   5.670  1.3756  0.0438  0.9384
 2342SOL    HW218663   1.467   0.598   5.527  3.1173 -1.3124 -1.1113
 2343SOL     OW18664   3.319   2.056  14.698 -0.4258  0.0074  0.8298
 2343SOL    HW118665   3.401   2.036  14.653 -2.5235 -1.3263 -2.4449
 2343SOL    HW218666   3.269   2.049  14.616 -1.1137  0.6801  1.1946
 2344SOL     OW18667   1.309   2.253  16.679 -0.2908  0.4583 -0.6780
 2344SOL    HW118668   1.279   2.309  16.750  0.2543 -0.4272  0.2489
 2344SOL    HW218669   1.235   2.270  16.621 -0.8133  0.2701 -0.0632
 2345SOL     OW18670   2.836   0.224   9.272 -0.3161  0.0686 -0.2524
 2345SOL    HW118671   2.917   0.248   9.227  0.4254  0.6404  1.3668
 2345SOL    HW218672   2.810   0.313   9.297  1.2819  0.8868 -1.4383
 2346SOL     OW18673   2.184   3.296  10.123  0.5537  0.1982 -0.3549
 2346SOL    HW118674   2.134   3.234  10.176 -1.8188  1.5874 -1.0069
 2346SOL    HW218675   2.225   3.242  10.056  0.0019 -0.8015  0.1099
 2347SOL     OW18676   3.514   0.391  17.158  0.0531  0.2332  0.0792
 2347SOL    HW118677   3.604   0.382  17.189  0.0563 -0.6352 -0.1811
 2347SOL    HW218678   3.471   0.307  17.172  1.2653 -0.3764  0.1357
 2348SOL     OW18679   3.785   3.531   8.521  0.2812 -0.3563 -1.0038
 2348SOL    HW118680   3.856   3.594   8.526  2.1820 -2.6154  0.9221
 2348SOL    HW218681   3.758   3.539   8.613 -1.1959  0.8429 -1.5506
 2349SOL     OW18682   0.458   0.121   5.351  0.4926  0.7371 -0.5146
 2349SOL    HW118683   0.549   0.132   5.380  0.6301  1.7456 -1.3246
 2349SOL    HW218684   0.476   0.080   5.266 -0.2251  0.2045 -0.4086
 2350SOL     OW18685   3.313   0.022   7.684 -0.1729  0.3133  0.3391
 2350SOL    HW118686   3.285   0.036   7.594 -0.2604 -1.4206  0.0973
 2350SOL    HW218687   3.407   0.007   7.675  0.0205  1.9890 -0.3401
 2351SOL     OW18688   1.879   4.526   1.662  0.8674 -0.2788  0.3830
 2351SOL    HW118689   1.943   4.595   1.644  0.7662  0.0417  1.2569
 2351SOL    HW218690   1.817   4.569   1.721 -0.8397 -0.9757 -0.8976
 2352SOL     OW18691   1.944   3.711   5.188  0.4428  0.2524  0.3721
 2352SOL    HW118692   2.000   3.718   5.110 -0.1995 -0.8821 -0.1913
 2352SOL    HW218693   1.856   3.712   5.151  1.1839 -1.3118 -1.4833
 2353SOL     OW18694   1.327   1.951   4.671  0.1033  0.3547  0.3263
 2353SOL    HW118695   1.389   2.014   4.636  0.4032 -1.2978 -2.1416
 2353SOL    HW218696   1.384   1.887   4.713  0.3473 -0.6858 -1.6204
 2354SOL     OW18697   1.266   2.986   2.294  0.5256 -0.1386 -0.1033
 2354SOL    HW118698   1.312   2.982   2.378  0.2708  0.9003  0.0854
 2354SOL    HW218699   1.319   2.941   2.229  1.6188  0.4275  0.3980
 2355SOL     OW18700   2.827   1.271   6.613  0.2792  0.0348 -0.0081
 2355SOL    HW118701   2.873   1.208   6.669  0.6222  1.2338  1.0312
 2355SOL    HW218702   2.755   1.298   6.670  0.9544  0.7611  0.4862
 2356SOL     OW18703   3.333   3.835   5.382 -0.2597 -0.6091 -0.2556
 2356SOL    HW118704   3.388   3.850   5.306 -0.9452  0.1214 -0.6090
 2356SOL    HW218705   3.375   3.888   5.450 -0.5383  0.3443 -0.8317
 2357SOL     OW18706   0.311   2.828  16.902 -0.5123 -0.2686  0.5376
 2357SOL    HW118707   0.301   2.923  16.902 -0.7515 -0.3023  2.1414
 2357SOL    HW218708   0.231   2.804  16.948 -1.3535 -0.4268 -0.9756
 2358SOL     OW18709   4.320   4.588   0.002 -0.8958 -0.0667 -0.1894
 2358SOL    HW118710   4.290   4.669   0.043  1.7706  1.2154 -0.8366
 2358SOL    HW218711   4.398   4.571   0.054  0.6496  0.5840 -2.2892
 2359SOL     OW18712   3.578   2.362   3.597 -0.2955  0.1102  0.3150
 2359SOL    HW118713   3.525   2.284   3.611  2.9181 -1.8269  1.5009
 2359SOL    HW218714   3.535   2.425   3.654  0.2084 -1.3420  2.2944
 2360SOL     OW18715   0.301   1.647   3.988  0.3576 -0.0189 -0.6368
 2360SOL    HW118716   0.311   1.579   4.055  1.3420 -0.0391 -0.8017
 2360SOL    HW218717   0.314   1.720   4.049  2.6781  0.6248 -1.8870
 2361SOL     OW18718   2.006   4.375   8.943  0.5727 -0.2512  0.0295
 2361SOL    HW118719   1.973   4.409   9.027 -1.2906 -2.0563  0.0311
 2361SOL    HW218720   2.080   4.433   8.925 -0.7811  1.1378 -1.1105
 2362SOL     OW18721   2.033   3.425   1.868  0.0328  0.7197  0.4913
 2362SOL    HW118722   1.978   3.502   1.884 -0.0576  0.6240  0.6403
 2362SOL    HW218723   2.009   3.399   1.779  2.0262  0.9504 -0.1074
 2363SOL     OW18724   0.955   2.056   7.057 -0.3837  0.1438 -0.2992
 2363SOL    HW118725   0.996   2.116   6.995  0.1771  1.8999  1.7556
 2363SOL    HW218726   0.968   2.106   7.138 -1.1050  0.7045 -0.5390
 2364SOL     OW18727   3.824   1.157  16.502 -0.0415  0.0848 -0.1025
 2364SOL    HW118728   3.913   1.154  16.467 -0.1007 -1.0444 -0.1607
 2364SOL    HW218729   3.839   1.131  16.593  0.5956 -1.0875 -0.5374
 2365SOL     OW18730   3.872   3.691   6.257  0.3440 -0.2471  0.3817
 2365SOL    HW118731   3.839   3.673   6.169  2.5128  1.3134 -0.7373
 2365SOL    HW218732   3.958   3.729   6.240  0.3773 -0.5807 -0.2212
 2366SOL     OW18733   1.602   2.009  17.316 -0.1562  0.0379  0.4371
 2366SOL    HW118734   1.510   2.038  17.321 -0.5189 -1.1264  0.5649
 2366SOL    HW218735   1.613   2.014  17.222  2.4322  2.8113  0.8898
 2367SOL     OW18736   1.303   3.784  16.429 -0.8702 -0.4515  0.4885
 2367SOL    HW118737   1.332   3.870  16.399 -3.0375 -0.5313 -1.8595
 2367SOL    HW218738   1.218   3.804  16.469 -1.3999  0.5275 -1.1072
 2368SOL     OW18739   4.042   0.648   1.159  0.6082  0.3227 -0.1059
 2368SOL    HW118740   4.122   0.635   1.211 -0.3471 -1.2384  0.9592
 2368SOL    HW218741   4.077   0.715   1.100  0.4911  0.7883  0.3534
 2369SOL     OW18742   3.712   3.239  17.271 -0.5070  0.3108 -0.2165
 2369SOL    HW118743   3.677   3.312  17.322 -1.4873 -0.5200  0.2886
 2369SOL    HW218744   3.738   3.181  17.343 -0.0488  4.6856  3.1160
 2370SOL     OW18745   0.724   4.659   7.583 -0.2802  0.3728 -0.0660
 2370SOL    HW118746   0.752   0.008   7.613 -0.2088 -0.3270  1.8963
 2370SOL    HW218747   0.632   4.648   7.608  0.6730 -2.8414  2.0446
 2371SOL     OW18748   1.441   0.596   9.162 -0.5017  0.0825  0.5036
 2371SOL    HW118749   1.474   0.656   9.095 -0.7422  0.0358  0.3389
 2371SOL    HW218750   1.477   0.629   9.244 -0.2279  2.3010 -0.5056
 2372SOL     OW18751   4.303   0.913   5.042  0.1460 -0.1830  0.0826
 2372SOL    HW118752   4.243   0.842   5.019  2.6311 -2.6400  1.0566
 2372SOL    HW218753   4.240   0.980   5.069  1.8579  1.8007 -0.8490
 2373SOL     OW18754   2.245   2.237   1.456  0.0523 -0.1038 -0.2844
 2373SOL    HW118755   2.211   2.326   1.460  1.0307  0.2038  1.1118
 2373SOL    HW218756   2.197   2.198   1.530 -1.3955 -0.7266 -1.5434
 2374SOL     OW18757   2.858   2.773   9.807  0.0043  0.4402 -0.0004
 2374SOL    HW118758   2.873   2.679   9.819  0.8682  0.7110  1.0111
 2374SOL    HW218759   2.854   2.806   9.896 -3.6586  0.4474 -0.1911
 2375SOL     OW18760   4.685   4.425   1.878 -0.0098  0.5387 -0.0074
 2375SOL    HW118761   4.722   4.508   1.847  2.6306  0.4844  2.9440
 2375SOL    HW218762   4.593   4.452   1.881  0.6753  2.8020  1.4222
 2376SOL     OW18763   1.004   2.417   9.682  0.3855 -0.1172 -0.0437
 2376SOL    HW118764   0.967   2.428   9.770  1.3911  1.7850  0.1294
 2376SOL    HW218765   0.962   2.484   9.628  2.1761  1.4847  0.5892
 2377SOL     OW18766   3.071   1.917  11.920 -0.0471  0.5747  0.2849
 2377SOL    HW118767   2.979   1.907  11.899 -0.2667  4.5427 -0.7221
 2377SOL    HW218768   3.101   1.994  11.871 -1.3707  1.2177  0.4965
 2378SOL     OW18769   1.962   2.385  13.366 -1.0243  0.3630  0.6342
 2378SOL    HW118770   1.938   2.476  13.347 -0.3010  0.6598  1.1151
 2378SOL    HW218771   2.051   2.405  13.395 -0.2702 -0.1926 -1.3112
 2379SOL     OW18772   0.118   3.654   8.896 -0.4424 -0.1376  0.1750
 2379SOL    HW118773   0.165   3.574   8.919 -0.5997  0.4621  2.5248
 2379SOL    HW218774   0.095   3.624   8.807  0.7482  0.6917 -0.4071
 2380SOL     OW18775   0.537   2.604  13.737 -0.5858 -0.2504  0.4161
 2380SOL    HW118776   0.573   2.585  13.824  2.7318 -1.3279 -1.2224
 2380SOL    HW218777   0.579   2.541  13.679 -0.5349 -1.2525  1.5639
 2381SOL     OW18778   0.416   4.440   9.561  0.0482  0.0887  0.2998
 2381SOL    HW118779   0.413   4.527   9.522 -1.3091  0.1392  0.5347
 2381SOL    HW218780   0.354   4.457   9.632 -0.5060 -0.5837 -0.0261
 2382SOL     OW18781   0.549   2.943   7.443  0.3151  0.1736  0.1038
 2382SOL    HW118782   0.480   3.004   7.418  2.3315  2.7886  0.8757
 2382SOL    HW218783   0.553   2.907   7.354  0.9773  2.0238 -0.6267
 2383SOL     OW18784   2.895   4.134   9.995  0.2698  0.2115 -0.6783
 2383SOL    HW118785   2.858   4.100  10.076  0.9572 -0.8122 -0.7950
 2383SOL    HW218786   2.826   4.198   9.976 -0.7394  0.1241  2.5967
 2384SOL     OW18787   3.463   3.802   4.538 -1.0280  0.1408  0.3578
 2384SOL    HW118788   3.507   3.791   4.454  2.0615 -1.4906  2.2032
 2384SOL    HW218789   3.526   3.772   4.604 -1.1512 -0.5515  0.1609
 2385SOL     OW18790   1.293   2.778   4.210  0.1921 -0.2625  0.4002
 2385SOL    HW118791   1.350   2.853   4.192 -3.8331  2.8839  0.6269
 2385SOL    HW218792   1.357   2.708   4.208 -0.6748 -1.0330 -1.0383
 2386SOL     OW18793   2.428   1.768  13.981 -0.0535  0.1266  0.1390
 2386SOL    HW118794   2.428   1.781  14.075 -1.3468 -0.8160  0.2708
 2386SOL    HW218795   2.344   1.801  13.950 -0.4800 -0.8351  0.2452
 2387SOL     OW18796   0.013   2.332   3.804 -0.8080  0.1970  0.9713
 2387SOL    HW118797   4.659   2.316   3.778 -0.2666 -1.6802  0.1955
 2387SOL    HW218798   0.057   2.323   3.720  1.2208 -0.4065  2.0856
 2388SOL     OW18799   3.481   0.551   7.064  0.7725 -0.2831 -0.0691
 2388SOL    HW118800   3.511   0.493   6.994  0.8470 -1.5553  1.0180
 2388SOL    HW218801   3.435   0.619   7.014  1.0957 -0.3558 -0.4749
 2389SOL     OW18802   1.350   1.543   2.432 -0.3989  0.5715 -0.1562
 2389SOL    HW118803   1.423   1.531   2.493 -0.2380  0.0792 -0.4493
 2389SOL    HW218804   1.318   1.456   2.412  1.9393 -0.5919  1.1353
 2390SOL     OW18805   2.828   1.076   8.935  0.0805  0.0941  0.4299
 2390SOL    HW118806   2.885   1.135   8.884  0.6878  0.8419  1.9926
 2390SOL    HW218807   2.777   1.143   8.980  0.0974 -0.0267  0.6285
 2391SOL     OW18808   3.189   3.741   7.201  0.7663 -0.4209 -0.1097
 2391SOL    HW118809   3.218   3.728   7.291 -1.8249  0.3968  0.8622
 2391SOL    HW218810   3.094   3.731   7.210  0.5428  0.5816 -1.3255
 2392SOL     OW18811   4.407   1.847  17.197  0.2891 -0.5059 -0.0480
 2392SOL    HW118812   4.455   1.844  17.114 -0.8155 -3.1823 -0.5848
 2392SOL    HW218813   4.320   1.820  17.168 -0.3126  1.2209  0.1526
 2393SOL     OW18814   1.968   2.785   5.153  0.3680 -0.0103  0.5335
 2393SOL    HW118815   1.894   2.725   5.148  0.7359 -0.2731 -1.8347
 2393SOL    HW218816   2.029   2.719   5.187  1.3340  0.8475  0.4784
 2394SOL     OW18817   0.905   1.240   2.342  0.3000  0.1939 -0.3310
 2394SOL    HW118818   0.921   1.322   2.389  0.2037 -0.4058  0.7732
 2394SOL    HW218819   0.877   1.191   2.420 -2.0874 -0.9894 -1.9501
 2395SOL     OW18820   0.348   1.916   8.724  0.3090  0.6767 -0.6958
 2395SOL    HW118821   0.356   1.998   8.675 -1.9046  2.3690  1.7845
 2395SOL    HW218822   0.264   1.889   8.686 -1.4511  0.4022  3.3985
 2396SOL     OW18823   0.704   0.418  12.855 -0.2227 -0.2179  0.3668
 2396SOL    HW118824   0.720   0.329  12.825  1.6209 -0.3050  1.6121
 2396SOL    HW218825   0.791   0.457  12.868  0.0593 -0.5164 -0.5980
 2397SOL     OW18826   1.542   1.060   5.818  0.2559 -0.9099 -0.1029
 2397SOL    HW118827   1.636   1.066   5.833  0.2737  1.0915 -1.0722
 2397SOL    HW218828   1.552   1.027   5.729  3.2518 -1.1599  0.3537
 2398SOL     OW18829   2.590   2.164   7.491 -0.4681 -0.6601  0.4015
 2398SOL    HW118830   2.646   2.240   7.509 -0.3683 -0.6557  0.0580
 2398SOL    HW218831   2.652   2.094   7.513  0.2936  0.4269  1.7934
 2399SOL     OW18832   2.698   4.580   5.145  0.4187  0.6290  0.2888
 2399SOL    HW118833   2.723   4.624   5.064  0.1026 -0.4426 -0.3983
 2399SOL    HW218834   2.685   4.654   5.205  1.1771  0.9255  0.0806
 2400SOL     OW18835   3.027   1.100   5.918 -0.5554  0.5548  0.2485
 2400SOL    HW118836   2.959   1.042   5.955  0.2319 -0.2184  0.4835
 2400SOL    HW218837   3.018   1.173   5.978 -0.6167 -0.2617  1.2286
 2401SOL     OW18838   0.361   4.392   3.210  0.7377 -0.8274  0.6468
 2401SOL    HW118839   0.268   4.375   3.223  0.5310  0.4944  0.8047
 2401SOL    HW218840   0.356   4.456   3.139 -0.8392 -0.7834  0.8042
 2402SOL     OW18841   3.896   2.061  14.298 -0.5577 -0.1915  0.2212
 2402SOL    HW118842   3.806   2.031  14.305 -0.6832 -0.0447 -0.7826
 2402SOL    HW218843   3.927   2.031  14.384 -0.8790 -1.1284  0.0040
 2403SOL     OW18844   3.163   0.534   4.065  0.3657 -0.8790  0.0509
 2403SOL    HW118845   3.232   0.485   4.021  0.3643 -0.0076 -0.9152
 2403SOL    HW218846   3.211   0.553   4.145  0.5359  0.5715 -0.4037
 2404SOL     OW18847   0.492   4.519   4.898  0.3260  0.1416  0.2446
 2404SOL    HW118848   0.444   4.489   4.821  2.6201 -0.5603 -0.9170
 2404SOL    HW218849   0.564   4.457   4.902 -0.7713 -1.0208  1.8817
 2405SOL     OW18850   1.265   2.847   7.721 -0.1182 -0.0967 -0.0050
 2405SOL    HW118851   1.208   2.924   7.720 -0.4603 -0.3556 -0.5892
 2405SOL    HW218852   1.330   2.880   7.659  1.2983 -0.5149  1.2781
 2406SOL     OW18853   2.521   1.873   9.225 -0.2337  0.0656 -0.3135
 2406SOL    HW118854   2.433   1.847   9.253 -0.1715  2.9962  2.5863
 2406SOL    HW218855   2.487   1.916   9.146 -2.3515 -1.6046 -0.3373
 2407SOL     OW18856   2.809   0.568   7.124  0.1389  0.0122  0.2419
 2407SOL    HW118857   2.845   0.485   7.155  1.0586  0.8970  1.5556
 2407SOL    HW218858   2.792   0.616   7.205  0.3382  2.8968 -1.4496
 2408SOL     OW18859   4.333   4.211   6.401 -0.2613 -0.0117  0.2914
 2408SOL    HW118860   4.384   4.135   6.428 -0.1123  0.1284  0.4052
 2408SOL    HW218861   4.388   4.247   6.331 -0.2228 -0.1277  0.2626
 2409SOL     OW18862   2.206   3.361   4.977 -0.5403 -0.3261  0.5593
 2409SOL    HW118863   2.117   3.394   4.986 -0.8947 -1.5902  1.7094
 2409SOL    HW218864   2.170   3.294   4.919 -2.2834  0.4638  0.7190
 2410SOL     OW18865   2.204   0.076   3.462 -0.2462 -0.2851  0.6650
 2410SOL    HW118866   2.288   0.087   3.508 -0.2557  0.3403  0.5322
 2410SOL    HW218867   2.137   0.121   3.514  0.7495  0.6390  1.1447
 2411SOL     OW18868   2.883   3.280  10.200  0.0639  0.2973 -0.2347
 2411SOL    HW118869   2.899   3.342  10.271 -0.5156  3.8123 -3.1097
 2411SOL    HW218870   2.968   3.237  10.190 -1.1082 -2.1249  0.2732
 2412SOL     OW18871   2.749   4.455  16.495  0.1528 -0.7450 -0.3623
 2412SOL    HW118872   2.695   4.534  16.492 -0.6580 -1.2917 -0.4575
 2412SOL    HW218873   2.808   4.473  16.568 -0.0864 -0.0881 -0.3376
 2413SOL     OW18874   2.527   1.211   7.233  0.5457  0.1785  0.2578
 2413SOL    HW118875   2.466   1.155   7.186  1.8922 -0.4854 -0.7047
 2413SOL    HW218876   2.514   1.173   7.320 -0.2433  0.2086  0.1552
 2414SOL     OW18877   2.346   4.259   1.815 -0.3519 -0.0318  0.0991
 2414SOL    HW118878   2.320   4.212   1.736 -1.4557  1.1005 -0.2067
 2414SOL    HW218879   2.301   4.342   1.799 -0.8193 -0.4314 -0.6654
 2415SOL     OW18880   0.383   2.513   2.371 -0.1981 -0.0886 -0.0059
 2415SOL    HW118881   0.326   2.589   2.375  1.3505  1.1392 -1.3562
 2415SOL    HW218882   0.407   2.501   2.279  0.2807 -1.4960  0.2979
 2416SOL     OW18883   4.728   1.462   4.066  0.0213  0.1501  0.2041
 2416SOL    HW118884   0.056   1.392   4.064  1.1995  1.1999  1.1737
 2416SOL    HW218885   0.036   1.532   4.017  1.2368  0.0171  1.1249
 2417SOL     OW18886   3.900   0.546   9.640 -0.2283 -0.8951 -0.1090
 2417SOL    HW118887   3.884   0.452   9.636  3.4585 -1.5703  0.5368
 2417SOL    HW218888   3.825   0.568   9.585 -0.6844 -0.9226  0.4889
 2418SOL     OW18889   0.803   4.648   3.446 -0.0856  0.3741 -0.3093
 2418SOL    HW118890   0.763   4.642   3.533 -1.7258 -0.4444 -1.0992
 2418SOL    HW218891   0.757   4.574   3.406  0.5785 -0.7239  0.9585
 2419SOL     OW18892   2.761   0.038   2.738 -0.0045  0.0052  0.1557
 2419SOL    HW118893   2.773   0.087   2.656 -0.7560 -2.2791 -1.3152
 2419SOL    HW218894   2.761   4.685   2.706 -2.1335  0.0940 -0.0849
 2420SOL     OW18895   2.997   0.698  16.536  0.0324  0.6241  0.0330
 2420SOL    HW118896   3.075   0.681  16.589 -0.4784 -0.9475  0.2822
 2420SOL    HW218897   2.955   0.733  16.614 -1.0309  0.4230 -0.4477
 2421SOL     OW18898   0.277   2.345   2.540 -0.1188  0.2859 -0.2886
 2421SOL    HW118899   0.309   2.415   2.483  2.8805 -0.7956  0.0881
 2421SOL    HW218900   0.339   2.357   2.612  0.0891  0.1108 -0.4392
 2422SOL     OW18901   1.555   0.169   1.898  0.4494 -0.2123  0.5565
 2422SOL    HW118902   1.483   0.203   1.846  1.3216 -0.6829 -0.9732
 2422SOL    HW218903   1.544   0.231   1.970  0.3071  0.5448 -0.1204
 2423SOL     OW18904   4.440   3.546   5.519 -0.3394 -0.2395 -0.1835
 2423SOL    HW118905   4.481   3.596   5.449  0.9996  0.6509  1.2365
 2423SOL    HW218906   4.517   3.557   5.575  0.6728 -0.5511 -1.5064
 2424SOL     OW18907   0.534   3.282  15.297 -0.2630  0.4529  0.5560
 2424SOL    HW118908   0.450   3.261  15.337  0.5565 -0.9850  1.5094
 2424SOL    HW218909   0.504   3.364  15.256  0.9851  0.8772  0.5016
 2425SOL     OW18910   2.073   4.522  10.431  0.4034  0.1759 -0.0072
 2425SOL    HW118911   2.155   4.475  10.413  0.7471 -0.0512  2.1353
 2425SOL    HW218912   2.060   4.503  10.524  0.2761 -1.3252 -0.3257
 2426SOL     OW18913   1.821   1.608   6.411  0.1800 -0.2295 -0.1780
 2426SOL    HW118914   1.860   1.654   6.485 -1.1788 -2.9514  2.2288
 2426SOL    HW218915   1.901   1.566   6.379 -0.7310 -0.9211 -1.5366
 2427SOL     OW18916   2.847   3.342   2.083 -0.4627 -0.1173  0.0345
 2427SOL    HW118917   2.755   3.318   2.094 -0.3849 -0.8332 -0.8289
 2427SOL    HW218918   2.886   3.294   2.156  1.4165 -2.8698 -2.7610
 2428SOL     OW18919   2.566   3.876  10.431  0.1912  0.1124 -0.0164
 2428SOL    HW118920   2.475   3.877  10.400 -0.3141  2.0870  1.5055
 2428SOL    HW218921   2.596   3.792  10.397 -0.0435 -0.0265  0.1141
 2429SOL     OW18922   3.300   1.141   3.330  0.1381  0.2800  0.6099
 2429SOL    HW118923   3.298   1.227   3.372 -1.4542  1.0072 -0.9902
 2429SOL    HW218924   3.234   1.088   3.374  1.7569 -1.7419  0.6054
 2430SOL     OW18925   4.064   4.615   7.759  0.1479 -0.0552  0.3023
 2430SOL    HW118926   4.004   4.542   7.748 -1.9036  1.9939 -2.2886
 2430SOL    HW218927   4.003   4.689   7.753 -0.4824 -0.6987 -1.2771
 2431SOL     OW18928   3.275   1.162   9.157  0.2456 -0.2847  0.2119
 2431SOL    HW118929   3.274   1.086   9.215  1.1252 -0.3226  0.1832
 2431SOL    HW218930   3.206   1.215   9.198  0.4576 -1.1905  1.7345
 2432SOL     OW18931   3.982   3.456   2.920  0.1467 -0.1275 -0.0282
 2432SOL    HW118932   3.978   3.547   2.950 -0.2303 -0.1027 -0.1525
 2432SOL    HW218933   4.076   3.444   2.906 -0.0526  1.0748 -2.3715
 2433SOL     OW18934   0.479   3.356   8.688 -0.0128 -0.1516  0.0144
 2433SOL    HW118935   0.430   3.283   8.651 -0.3675 -0.2336  0.6620
 2433SOL    HW218936   0.497   3.415   8.614 -0.5835  2.2200  1.7405
 2434SOL     OW18937   1.098   0.329  10.938  0.1980 -0.4601 -0.0202
 2434SOL    HW118938   1.172   0.379  10.905  0.7168 -2.8281 -2.4429
 2434SOL    HW218939   1.050   0.296  10.862 -1.6973  1.2244  0.4434
 2435SOL     OW18940   4.287   0.964   3.199  0.3157  0.8837 -0.2349
 2435SOL    HW118941   4.225   0.972   3.126 -0.6044 -2.7832  0.1754
 2435SOL    HW218942   4.365   0.983   3.146  0.1439 -0.8360 -1.1037
 2436SOL     OW18943   4.588   3.718   5.400 -0.5947 -0.2979 -0.1311
 2436SOL    HW118944   4.564   3.778   5.329  1.1788  0.0953 -0.3872
 2436SOL    HW218945   4.671   3.759   5.424  0.0300 -0.6711 -1.6303
 2437SOL     OW18946   4.015   0.422   8.177  0.2087  0.4228  0.2886
 2437SOL    HW118947   4.072   0.449   8.249  0.9161 -0.6925  0.1522
 2437SOL    HW218948   4.045   0.332   8.167  1.0429  0.8406 -1.0511
 2438SOL     OW18949   1.881   2.320   7.305 -0.2103  0.1042  0.0941
 2438SOL    HW118950   1.788   2.337   7.315 -0.6326 -0.8301 -2.3187
 2438SOL    HW218951   1.903   2.410   7.282  2.1566 -0.7678 -1.1276
 2439SOL     OW18952   0.276   1.622  15.086 -0.4668 -0.0632  0.1734
 2439SOL    HW118953   0.323   1.563  15.145 -2.8487 -0.4337  1.6688
 2439SOL    HW218954   0.212   1.564  15.046 -0.8626  2.0112 -2.1893
 2440SOL     OW18955   3.091   2.541   1.797 -0.2520 -0.0600 -0.5625
 2440SOL    HW118956   3.074   2.519   1.888  0.1585 -0.2987 -0.5415
 2440SOL    HW218957   3.092   2.636   1.810  0.7356 -0.4342  2.1005
 2441SOL     OW18958   1.163   0.416   3.229  0.4319 -0.1274 -0.1221
 2441SOL    HW118959   1.118   0.501   3.234  0.7930  0.0927 -0.6636
 2441SOL    HW218960   1.252   0.432   3.198 -1.0178  1.9546 -3.1621
 2442SOL     OW18961   0.178   0.195  10.212  0.1385 -0.0114  0.1947
 2442SOL    HW118962   0.194   0.289  10.215  0.9843 -0.0636 -2.7101
 2442SOL    HW218963   0.087   0.198  10.242  0.2066 -1.2056  0.5380
 2443SOL     OW18964   2.014   1.173  15.485  0.0121 -0.6637 -0.1694
 2443SOL    HW118965   2.082   1.175  15.417 -0.5560  0.5709 -0.7065
 2443SOL    HW218966   2.034   1.097  15.539 -0.8861 -1.1175 -0.4889
 2444SOL     OW18967   0.201   0.719  15.838  0.2642  0.0303  0.8313
 2444SOL    HW118968   0.254   0.747  15.764 -2.7750 -0.5164 -1.5507
 2444SOL    HW218969   0.175   0.805  15.871 -2.5873 -0.0452 -1.2070
 2445SOL     OW18970   0.380   4.661   5.590  0.5121 -0.4622  0.0379
 2445SOL    HW118971   0.469   4.694   5.607  0.0814  1.0855 -0.7262
 2445SOL    HW218972   0.338   4.679   5.674  0.5444  1.4596 -0.3641
 2446SOL     OW18973   3.219   3.110   1.955 -0.4468  0.1786 -0.1581
 2446SOL    HW118974   3.148   3.164   1.991 -0.7500 -0.8583  0.7848
 2446SOL    HW218975   3.288   3.169   1.925  0.3006 -0.5946  0.0504
 2447SOL     OW18976   2.822   0.800   4.904 -0.7517 -0.1656 -0.1982
 2447SOL    HW118977   2.784   0.756   4.829  0.2954 -0.1752 -0.7237
 2447SOL    HW218978   2.750   0.793   4.966  0.2908 -1.0770  0.9163
 2448SOL     OW18979   3.512   3.553   7.457  0.7980  0.6978  0.4795
 2448SOL    HW118980   3.585   3.589   7.406 -0.5750  3.2173  0.2992
 2448SOL    HW218981   3.558   3.478   7.495 -1.5693 -0.1074  1.7483
 2449SOL     OW18982   0.339   3.251   4.404 -0.2078 -0.2520  0.9451
 2449SOL    HW118983   0.260   3.303   4.411  0.8595  1.4849  0.0946
 2449SOL    HW218984   0.356   3.259   4.310 -2.1092  0.6843  0.6805
 2450SOL     OW18985   4.606   0.853   7.387  0.6208  0.0036  0.3266
 2450SOL    HW118986   4.573   0.858   7.477 -0.0979  1.1796 -0.0044
 2450SOL    HW218987   4.587   0.761   7.368 -1.0514  0.5641 -0.7801
 2451SOL     OW18988   2.580   0.994   6.634 -0.1120 -0.2080 -0.2247
 2451SOL    HW118989   2.616   1.015   6.720 -0.9657  3.1236 -0.6871
 2451SOL    HW218990   2.577   0.898   6.641 -2.7773 -0.1006  0.2234
 2452SOL     OW18991   0.117   3.348   5.482  0.3096 -0.5767  0.0850
 2452SOL    HW118992   0.067   3.272   5.510  0.8158 -0.1829  2.0343
 2452SOL    HW218993   0.202   3.303   5.479  0.8064  0.4183 -1.0673
 2453SOL     OW18994   3.537   2.876   5.868  0.4108 -0.2303 -0.2324
 2453SOL    HW118995   3.548   2.850   5.776  0.7826 -1.3739  0.1347
 2453SOL    HW218996   3.489   2.805   5.910  2.9873 -1.6422  0.3346
 2454SOL     OW18997   3.493   0.363   6.833  0.2895  0.6743 -0.3678
 2454SOL    HW118998   3.558   0.329   6.772  0.4418  2.7536 -1.3646
 2454SOL    HW218999   3.434   0.288   6.838 -0.6282  1.4682  0.8306
 2455SOL     OW19000   0.904   3.343   8.941 -0.2343 -0.3922  0.2955
 2455SOL    HW119001   0.913   3.261   8.893  1.1590 -1.1298  1.8089
 2455SOL    HW219002   0.822   3.378   8.907  0.2665 -0.7176 -1.2503
 2456SOL     OW19003   2.537   2.054   8.989  0.4488 -0.4747  0.3627
 2456SOL    HW119004   2.470   2.122   8.995  1.2656  0.4676 -1.1741
 2456SOL    HW219005   2.526   2.022   8.899 -1.6188 -0.8500  0.7507
 2457SOL     OW19006   0.222   4.262  17.248  0.2710 -0.2303  0.3327
 2457SOL    HW119007   0.250   4.171  17.244  4.6582  1.1813 -1.0033
 2457SOL    HW219008   0.132   4.252  17.219  1.0905  0.8014 -2.6452
 2458SOL     OW19009   0.940   3.256   7.204 -0.5174  0.1965  0.0659
 2458SOL    HW119010   0.845   3.267   7.210 -0.8354 -2.1227 -0.8943
 2458SOL    HW219011   0.961   3.340   7.246 -0.8318 -0.1948  1.0054
 2459SOL     OW19012   0.794   0.279   5.245 -0.1750 -0.7273 -0.3173
 2459SOL    HW119013   0.770   0.231   5.324  1.0436 -0.9585 -0.0811
 2459SOL    HW219014   0.726   0.268   5.179  0.5746  0.1221 -1.2406
 2460SOL     OW19015   0.840   3.096   8.108  0.1463 -0.2271  0.2184
 2460SOL    HW119016   0.789   3.088   8.028 -1.0511  1.1098  0.8407
 2460SOL    HW219017   0.822   3.009   8.145  0.1616  0.0892  0.9626
 2461SOL     OW19018   2.099   2.146   2.935  0.2357 -0.2950  0.4099
 2461SOL    HW119019   2.090   2.227   2.884 -1.4363  0.4035  1.8275
 2461SOL    HW219020   2.145   2.095   2.868  0.5274  2.1023 -1.2227
 2462SOL     OW19021   0.757   0.622   5.558  0.0410  0.5403  0.4531
 2462SOL    HW119022   0.718   0.585   5.479  1.9988  0.4896 -0.4731
 2462SOL    HW219023   0.715   0.708   5.563 -2.7287 -0.7826  0.3325
 2463SOL     OW19024   0.671   3.445   1.851  0.7301  0.3988 -0.6929
 2463SOL    HW119025   0.678   3.358   1.890 -1.5446  0.3473 -0.4062
 2463SOL    HW219026   0.762   3.476   1.852  0.5352  1.0085 -1.9252
 2464SOL     OW19027   0.129   2.372   6.041  0.5765 -0.9809  0.1692
 2464SOL    HW119028   0.122   2.332   6.128 -1.2358 -2.3872 -0.6262
 2464SOL    HW219029   0.047   2.335   6.007  0.5115 -0.3306 -0.3774
 2465SOL     OW19030   3.645   1.475   8.903 -0.9686  0.1074  0.2980
 2465SOL    HW119031   3.656   1.565   8.874 -0.4555 -0.4417 -1.2014
 2465SOL    HW219032   3.735   1.441   8.908 -0.2351  2.1229  0.7704
 2466SOL     OW19033   2.199   4.652  12.150 -0.0844  0.0493  0.3861
 2466SOL    HW119034   2.225   4.560  12.138  0.9293  0.2616  0.9441
 2466SOL    HW219035   2.182   4.652  12.244 -1.9257  0.5434  0.0397
 2467SOL     OW19036   2.021   2.454  12.804 -0.0194 -0.5099  1.0017
 2467SOL    HW119037   1.992   2.465  12.895  0.5324 -0.5789  1.1817
 2467SOL    HW219038   1.978   2.532  12.769  1.3506  0.4630  1.5387
 2468SOL     OW19039   0.389   3.909   8.605 -0.4258 -0.0832  0.5308
 2468SOL    HW119040   0.407   3.820   8.637  0.0375  0.8179  2.7685
 2468SOL    HW219041   0.370   3.953   8.688 -1.1054  1.2265 -0.3206
 2469SOL     OW19042   3.723   2.388   6.945 -0.2229 -0.2273  0.2520
 2469SOL    HW119043   3.632   2.362   6.960 -0.1204 -0.2040  0.9314
 2469SOL    HW219044   3.735   2.360   6.854 -0.9316  1.6376 -0.4211
 2470SOL     OW19045   1.039   3.137   5.063 -0.0535  0.2937 -0.1588
 2470SOL    HW119046   1.111   3.078   5.041 -0.5243 -0.9736  1.6665
 2470SOL    HW219047   1.065   3.224   5.034  2.4780 -0.3862  0.1041
 2471SOL     OW19048   1.492   4.700   8.418  0.2361 -0.0140 -0.5489
 2471SOL    HW119049   1.540   4.709   8.336  0.0136  2.8824 -0.3667
 2471SOL    HW219050   1.543   0.016   8.480 -1.2046  0.2035  0.4535
 2472SOL     OW19051   3.335   4.253   5.491  0.3183 -0.1951  0.0886
 2472SOL    HW119052   3.377   4.273   5.407 -0.4186  1.6444  0.1434
 2472SOL    HW219053   3.306   4.337   5.526 -0.3235 -2.3391  4.7283
 2473SOL     OW19054   1.476   3.025   5.017 -0.0248 -0.6725  0.2607
 2473SOL    HW119055   1.447   3.116   5.010  0.9172 -0.5275 -1.6792
 2473SOL    HW219056   1.492   2.994   4.928  2.3890 -0.7879  0.7413
 2474SOL     OW19057   4.169   3.340  13.024  0.0999  0.0641  0.0490
 2474SOL    HW119058   4.122   3.409  13.070 -1.1058 -1.6419  1.3780
 2474SOL    HW219059   4.155   3.380  12.938 -0.5685 -3.0193 -1.2594
 2475SOL     OW19060   2.147   1.399   6.733  0.3702 -0.0186  0.1282
 2475SOL    HW119061   2.125   1.321   6.682  2.1970 -0.9496  0.7341
 2475SOL    HW219062   2.072   1.394   6.792 -0.1368 -0.4905 -0.5574
 2476SOL     OW19063   1.897   3.162  15.711  0.9000 -0.2436 -0.2303
 2476SOL    HW119064   1.967   3.117  15.662  0.6519  1.5174 -2.2127
 2476SOL    HW219065   1.933   3.173  15.799 -0.9187  1.6553  0.2643
 2477SOL     OW19066   1.451   1.157   4.207 -0.3635  0.6187 -0.1616
 2477SOL    HW119067   1.471   1.216   4.135 -1.3016  0.1613 -0.7981
 2477SOL    HW219068   1.391   1.207   4.263 -1.5160  1.9656 -2.6223
 2478SOL     OW19069   2.295   1.129   5.156 -0.5933 -0.2867 -0.4501
 2478SOL    HW119070   2.369   1.091   5.107 -1.2070  0.3166 -1.8349
 2478SOL    HW219071   2.255   1.047   5.185  1.2980 -1.1343 -0.1952
 2479SOL     OW19072   3.718   1.737  17.172  0.3411 -0.3505  0.2771
 2479SOL    HW119073   3.759   1.793  17.108 -0.7103 -1.7955 -1.6694
 2479SOL    HW219074   3.772   1.658  17.168 -0.3209 -0.8507  1.0057
 2480SOL     OW19075   0.872   4.293   8.719  0.3579 -0.3833 -0.0330
 2480SOL    HW119076   0.964   4.303   8.743  0.0075  0.8424  0.8209
 2480SOL    HW219077   0.830   4.332   8.796  2.4369 -0.6625  1.2662
 2481SOL     OW19078   2.683   1.772  10.775 -0.1903  0.6731  0.2796
 2481SOL    HW119079   2.742   1.814  10.714 -1.8942  0.6016 -1.4052
 2481SOL    HW219080   2.717   1.792  10.862  0.2714 -0.7048  0.4209
 2482SOL     OW19081   4.413   1.610   7.867  0.0382  0.1417  0.2931
 2482SOL    HW119082   4.373   1.666   7.801  2.7303  1.2903 -0.3478
 2482SOL    HW219083   4.406   1.669   7.943 -0.0715  1.3028 -0.6287
 2483SOL     OW19084   3.967   4.090   5.722 -0.0172  0.2332 -0.0616
 2483SOL    HW119085   4.047   4.087   5.670  1.3466 -0.3661  2.0958
 2483SOL    HW219086   3.966   3.999   5.753  0.0035 -0.0026 -0.7623
 2484SOL     OW19087   1.379   1.492  13.830  0.5503  0.3368  0.4107
 2484SOL    HW119088   1.459   1.467  13.876  0.1372 -0.7392  0.5321
 2484SOL    HW219089   1.377   1.587  13.839 -0.4061  0.2779  0.7443
 2485SOL     OW19090   2.519   0.472   2.486 -0.2337  0.3288 -0.6991
 2485SOL    HW119091   2.572   0.447   2.411  0.1600 -3.3178  0.8102
 2485SOL    HW219092   2.486   0.388   2.518 -0.6150  0.0004 -1.9803
 2486SOL     OW19093   2.452   1.634   6.983  0.5438  0.3203  0.1276
 2486SOL    HW119094   2.439   1.619   7.077 -2.9619  2.5562 -0.0064
 2486SOL    HW219095   2.424   1.553   6.941  0.9769  1.3456 -2.1234
 2487SOL     OW19096   4.610   2.560   1.976 -0.0852 -0.2532 -0.1535
 2487SOL    HW119097   4.616   2.642   1.928 -1.2664 -1.1633 -1.8661
 2487SOL    HW219098   4.522   2.552   2.011  0.5202  3.8300  2.2258
 2488SOL     OW19099   0.884   0.350   7.878 -0.1888  0.1901  0.0663
 2488SOL    HW119100   0.978   0.342   7.863 -0.0860  1.8453 -0.1938
 2488SOL    HW219101   0.857   0.283   7.816 -1.4491  0.4647  0.3116
 2489SOL     OW19102   0.019   3.086   5.535 -0.2602 -0.4597 -0.0669
 2489SOL    HW119103   0.083   3.034   5.583  0.4672  0.6029  0.1136
 2489SOL    HW219104   4.674   3.080   5.584 -0.7947  2.0537 -0.6228
 2490SOL     OW19105   0.323   4.475   1.309 -0.0353 -0.2283  0.0118
 2490SOL    HW119106   0.357   4.466   1.398 -2.3628  1.2251  1.0461
 2490SOL    HW219107   0.290   4.387   1.292 -0.2150 -0.3845  1.1570
 2491SOL     OW19108   3.162   1.111   7.078  0.0464  0.1859 -0.1170
 2491SOL    HW119109   3.133   1.029   7.039 -2.4167  0.8943  0.2590
 2491SOL    HW219110   3.194   1.071   7.159  0.0710  0.8616  0.2026
 2492SOL     OW19111   2.144   2.284  10.445 -0.0514  0.0219  0.5050
 2492SOL    HW119112   2.086   2.281  10.522  0.0527 -0.7939  0.5569
 2492SOL    HW219113   2.208   2.218  10.471 -0.0168  0.4530  1.5205
 2493SOL     OW19114   0.023   3.591   9.249 -0.6877 -0.4766  0.1129
 2493SOL    HW119115   0.040   3.585   9.343 -1.0971 -0.4225  0.1933
 2493SOL    HW219116   0.108   3.620   9.217  0.1024 -1.7738  1.0483
 2494SOL     OW19117   4.679   3.617  17.017  0.4406  0.1668 -0.3334
 2494SOL    HW119118   4.708   3.597  17.106  0.6988 -0.6547 -0.6008
 2494SOL    HW219119   4.708   3.704  16.991  1.1725 -1.0491 -3.5078
 2495SOL     OW19120   0.082   2.765   9.855  0.0022  0.1711  0.7910
 2495SOL    HW119121   0.045   2.721   9.931  0.7985  0.0145  1.0923
 2495SOL    HW219122   0.002   2.791   9.810  1.2381  1.5570 -0.6257
 2496SOL     OW19123   3.680   2.860   9.596  0.7424 -0.5870 -0.0093
 2496SOL    HW119124   3.703   2.870   9.688  0.3865  0.4423 -0.0344
 2496SOL    HW219125   3.758   2.895   9.553 -1.2831  2.4908 -1.1632
 2497SOL     OW19126   2.784   1.233   9.667  0.0371  0.3109  0.1187
 2497SOL    HW119127   2.692   1.256   9.676 -0.1162 -0.6516  1.0179
 2497SOL    HW219128   2.784   1.138   9.679 -1.6232  0.2280 -0.6937
 2498SOL     OW19129   0.446   2.228   4.145 -0.5085  0.0879 -0.3288
 2498SOL    HW119130   0.404   2.187   4.069 -0.8851  1.0312 -0.6286
 2498SOL    HW219131   0.461   2.317   4.114  0.2357 -0.0621 -0.4042
 2499SOL     OW19132   3.632   2.762   8.437  0.0945 -0.5650  0.5979
 2499SOL    HW119133   3.595   2.701   8.373  0.2109  0.7142 -0.6768
 2499SOL    HW219134   3.615   2.842   8.388  1.5091 -2.0287 -2.2634
 2500SOL     OW19135   2.852   0.525  15.661 -0.2197  0.2329 -0.4712
 2500SOL    HW119136   2.849   0.479  15.745 -1.0555  0.9187 -0.1223
 2500SOL    HW219137   2.928   0.484  15.620 -0.6077 -0.4400 -0.5217
 2501SOL     OW19138   3.989   3.611  15.842 -0.2634  0.2401 -0.3830
 2501SOL    HW119139   3.917   3.548  15.833 -0.5993  0.6908 -0.8968
 2501SOL    HW219140   3.960   3.680  15.782 -0.3643 -0.7287 -1.4344
 2502SOL     OW19141   2.270   4.710   6.977 -0.5855 -0.3190 -0.0760
 2502SOL    HW119142   2.268   0.068   6.970 -0.7311 -0.5418 -2.8072
 2502SOL    HW219143   2.182   4.682   7.001 -0.0035 -1.5737  0.6155
 2503SOL     OW19144   4.151   3.970  14.161 -0.2761 -0.2617 -0.5478
 2503SOL    HW119145   4.204   3.931  14.230  0.0501  1.1354 -0.0062
 2503SOL    HW219146   4.077   4.001  14.212 -0.1786 -1.1155  0.1057
 2504SOL     OW19147   2.701   0.047   6.377  0.3389  0.0337  0.0953
 2504SOL    HW119148   2.652   0.045   6.459  0.6574 -1.0704  0.2560
 2504SOL    HW219149   2.675   4.710   6.323  0.7084  1.3583 -1.9248
 2505SOL     OW19150   3.821   0.658  10.992  0.0160 -0.4314  0.1509
 2505SOL    HW119151   3.791   0.599  11.062  1.1602 -1.4268 -0.2054
 2505SOL    HW219152   3.754   0.634  10.929 -0.3406 -1.4116  0.9077
 2506SOL     OW19153   1.236   4.636  12.157 -0.0511 -0.4867  0.0861
 2506SOL    HW119154   1.176   4.696  12.113  0.0149 -0.8535 -0.4988
 2506SOL    HW219155   1.185   4.595  12.226 -1.2072 -0.6802 -0.8909
 2507SOL     OW19156   0.165   1.817   8.558  0.2497  0.0838  0.5566
 2507SOL    HW119157   0.082   1.861   8.541 -0.0516 -0.6190  0.1869
 2507SOL    HW219158   0.190   1.797   8.468 -1.8925 -0.7160  0.1269
 2508SOL     OW19159   4.681   1.641  17.057 -0.0160 -0.2722 -0.1120
 2508SOL    HW119160   4.693   1.672  17.147  3.3996 -2.1686  0.0905
 2508SOL    HW219161   4.640   1.719  17.020  2.9913  1.4388  0.1826
 2509SOL     OW19162   0.486   3.367   7.750 -0.0602 -0.1160 -0.0995
 2509SOL    HW119163   0.551   3.387   7.817  0.0430  1.1777 -0.5984
 2509SOL    HW219164   0.402   3.350   7.792  0.6379 -1.7510  0.6311
 2510SOL     OW19165   1.421   3.680   4.232 -0.3852  0.0564 -0.3555
 2510SOL    HW119166   1.492   3.639   4.182 -0.2587 -0.2842  0.1034
 2510SOL    HW219167   1.392   3.758   4.185 -0.2963 -0.0445 -0.5776
 2511SOL     OW19168   2.942   2.450   4.895 -0.5127 -0.2937  0.2856
 2511SOL    HW119169   3.013   2.388   4.878 -0.3362 -0.0060 -0.0361
 2511SOL    HW219170   2.883   2.437   4.820 -1.3906 -1.4016  1.1790
 2512SOL     OW19171   1.554   3.195   5.283  1.1498  0.5718 -0.2816
 2512SOL    HW119172   1.637   3.195   5.235  1.3930 -2.0881  0.1449
 2512SOL    HW219173   1.500   3.262   5.241  1.7844  0.8091 -0.7092
 2513SOL     OW19174   0.953   1.261  12.474 -0.2793 -0.0701  0.3272
 2513SOL    HW119175   1.010   1.184  12.470  0.9416  0.8568 -0.1078
 2513SOL    HW219176   0.943   1.286  12.383  0.3703 -0.2447  0.2069
 2514SOL     OW19177   0.103   2.734   4.175  0.8309  0.0098 -0.0689
 2514SOL    HW119178   0.141   2.694   4.097  0.4601  0.7834 -0.6515
 2514SOL    HW219179   0.151   2.817   4.170  2.2226 -0.7152  1.1070
 2515SOL     OW19180   0.861   1.156  15.044 -0.0253  0.0275  0.0719
 2515SOL    HW119181   0.875   1.064  15.066  0.2266  0.1680  0.4991
 2515SOL    HW219182   0.908   1.195  15.118 -0.0176 -2.4797  1.3880
 2516SOL     OW19183   1.421   1.286   1.338 -0.3057 -0.4690 -0.1731
 2516SOL    HW119184   1.373   1.205   1.353  1.3684 -1.7181 -1.4119
 2516SOL    HW219185   1.383   1.336   1.410  4.1803  0.2963  1.6870
 2517SOL     OW19186   3.309   0.215   6.152 -0.6077  0.2891 -0.1631
 2517SOL    HW119187   3.394   0.188   6.117 -0.6489 -0.7670  0.5319
 2517SOL    HW219188   3.325   0.308   6.168 -0.4469  0.0850  0.8669
 2518SOL     OW19189   0.568   1.657   7.846  0.3508 -0.2135  0.0500
 2518SOL    HW119190   0.638   1.613   7.798  1.3775  2.4208 -0.8493
 2518SOL    HW219191   0.623   1.690   7.917  1.0166 -0.5016 -0.3330
 2519SOL     OW19192   4.303   0.606   8.589 -0.1677 -0.8486  0.2791
 2519SOL    HW119193   4.393   0.578   8.606 -0.0027 -0.7946 -0.4990
 2519SOL    HW219194   4.267   0.612   8.677  0.2176 -0.1791  0.3914
 2520SOL     OW19195   4.730   0.179   7.212  0.9906  0.2140 -0.3471
 2520SOL    HW119196   4.685   0.222   7.139 -0.2883 -2.0357 -0.8951
 2520SOL    HW219197   0.059   0.131   7.162  1.4380  2.3795 -1.8238
 2521SOL     OW19198   4.284   1.755  12.019  0.1982 -0.6488  0.1069
 2521SOL    HW119199   4.221   1.796  12.079 -0.8032 -1.5135 -0.3531
 2521SOL    HW219200   4.223   1.735  11.948 -0.4337 -3.8229  1.5495
 2522SOL     OW19201   0.577   2.140   8.264 -0.1620  0.0205  0.2471
 2522SOL    HW119202   0.576   2.056   8.309  2.6709  0.2607  0.7643
 2522SOL    HW219203   0.671   2.159   8.257 -0.1914 -0.1776 -0.6236
 2523SOL     OW19204   0.626   2.499   4.025  0.2800  0.1879 -0.0808
 2523SOL    HW119205   0.550   2.458   3.982 -0.3201 -0.7424  1.8526
 2523SOL    HW219206   0.648   2.570   3.965  1.7591 -0.9350 -0.8838
 2524SOL     OW19207   3.837   2.033  16.822  0.2684  0.0567 -0.1177
 2524SOL    HW119208   3.770   2.027  16.890 -0.4955 -0.5538 -0.9144
 2524SOL    HW219209   3.874   2.118  16.845  2.7465 -0.6451 -1.5914
 2525SOL     OW19210   0.387   2.175   2.926 -0.1149 -0.0168 -0.3168
 2525SOL    HW119211   0.438   2.246   2.888  1.7274  0.2113  2.6156
 2525SOL    HW219212   0.333   2.126   2.863 -1.9881  0.4966  0.8851
 2526SOL     OW19213   4.309   3.166   1.717  0.0081 -0.3310  0.0504
 2526SOL    HW119214   4.377   3.109   1.754  1.0713  0.1047 -1.2421
 2526SOL    HW219215   4.248   3.095   1.695  0.6564 -0.1379 -2.3551
 2527SOL     OW19216   0.151   0.131   6.271  0.0809  0.2210 -0.3233
 2527SOL    HW119217   0.197   0.089   6.343 -2.8818  0.0098  1.4439
 2527SOL    HW219218   0.077   0.072   6.261  1.1862 -1.4364  1.2783
 2528SOL     OW19219   0.721   2.003   6.844 -0.3252  0.3192  0.1533
 2528SOL    HW119220   0.755   2.093   6.845  0.6678 -0.0640  0.6371
 2528SOL    HW219221   0.638   2.008   6.891 -0.7945 -0.3859 -0.5874
 2529SOL     OW19222   1.227   0.788  12.503 -0.1526  0.0739  0.6384
 2529SOL    HW119223   1.313   0.830  12.511  0.5722 -1.2781 -0.1231
 2529SOL    HW219224   1.198   0.800  12.594  0.6815  0.0403  0.9085
 2530SOL     OW19225   2.066   3.657  12.098  0.7007 -0.5511 -0.5060
 2530SOL    HW119226   2.048   3.576  12.147 -1.9742 -0.5545 -1.4812
 2530SOL    HW219227   1.996   3.708  12.139 -0.4641 -1.6939 -1.0839
 2531SOL     OW19228   1.858   3.851  10.695  0.0544  0.0234 -0.5296
 2531SOL    HW119229   1.892   3.832  10.782  0.0157 -0.2457 -0.5715
 2531SOL    HW219230   1.765   3.871  10.709  0.5827  2.3454 -0.4297
 2532SOL     OW19231   3.876   3.428  11.274 -0.2269  0.0733 -0.0103
 2532SOL    HW119232   3.818   3.376  11.218 -0.9733  1.0616 -0.1532
 2532SOL    HW219233   3.819   3.473  11.335 -1.1153  0.9744 -1.5024
 2533SOL     OW19234   0.881   0.780   4.548  0.3068  0.0940  0.0465
 2533SOL    HW119235   0.806   0.836   4.572 -0.3320  0.0943 -1.9574
 2533SOL    HW219236   0.931   0.837   4.490 -2.7095  1.7325 -0.9902
 2534SOL     OW19237   2.254   3.028   9.377 -0.1999  0.0330  0.1159
 2534SOL    HW119238   2.340   2.999   9.408 -1.0565  1.3806  3.7284
 2534SOL    HW219239   2.198   3.020   9.454  1.0435 -2.8307  0.7467
 2535SOL     OW19240   0.808   0.330  10.755  0.4169  0.0948  0.3092
 2535SOL    HW119241   0.835   0.238  10.761 -1.3826 -0.3949  0.8960
 2535SOL    HW219242   0.786   0.362  10.843  1.7510 -2.4948  1.6221
 2536SOL     OW19243   1.892   3.392  11.673 -0.1896 -0.3229  0.0172
 2536SOL    HW119244   1.930   3.314  11.713  0.7436 -0.0419 -0.3176
 2536SOL    HW219245   1.879   3.461  11.738  1.5354 -0.1696  0.2062
 2537SOL     OW19246   3.871   3.378  14.038  0.0880  0.4066  0.0918
 2537SOL    HW119247   3.899   3.369  13.947 -0.4233  0.0878 -0.0336
 2537SOL    HW219248   3.939   3.437  14.072  1.4875 -0.8550 -0.4771
 2538SOL     OW19249   2.469   0.197   3.550  0.4838 -0.1316 -0.0674
 2538SOL    HW119250   2.483   0.189   3.644 -0.0248 -0.2464  0.0012
 2538SOL    HW219251   2.470   0.292   3.539 -0.2926 -0.0676  0.4007
 2539SOL     OW19252   2.670   0.066  13.340  0.4652 -0.1845 -0.2738
 2539SOL    HW119253   2.736   0.003  13.315  0.5247 -0.2493  0.0433
 2539SOL    HW219254   2.694   0.086  13.431  0.3997 -1.5288  0.0375
 2540SOL     OW19255   3.447   1.786   5.334 -0.3669  0.0849 -0.6856
 2540SOL    HW119256   3.530   1.832   5.346 -0.4138 -0.3634  1.4062
 2540SOL    HW219257   3.405   1.864   5.296 -0.6267  0.8804  1.2171
 2541SOL     OW19258   2.702   3.445  12.975  0.1837 -0.7797 -0.2757
 2541SOL    HW119259   2.628   3.414  13.028 -0.7926 -1.9557 -2.3428
 2541SOL    HW219260   2.690   3.538  12.954  0.7859 -1.2318 -2.5968
 2542SOL     OW19261   0.868   2.519   9.404 -0.7873  0.3463  0.2925
 2542SOL    HW119262   0.948   2.556   9.364 -0.9774  0.1348 -0.2927
 2542SOL    HW219263   0.817   2.499   9.325  0.9546  1.4751 -1.1230
 2543SOL     OW19264   0.364   4.561  16.383  0.1492  0.1147  0.1866
 2543SOL    HW119265   0.390   4.592  16.296 -0.4214  1.2573  0.4211
 2543SOL    HW219266   0.305   4.634  16.401 -1.5072 -1.2921  0.4631
 2544SOL     OW19267   4.221   2.577   3.963 -0.2485  0.1413  0.0679
 2544SOL    HW119268   4.207   2.645   4.028 -0.8435 -0.0765  0.1643
 2544SOL    HW219269   4.129   2.577   3.935 -0.4676 -0.1700  0.7963
 2545SOL     OW19270   2.110   4.444   3.817 -0.4643 -0.0175  0.2480
 2545SOL    HW119271   2.062   4.394   3.751  0.5074  0.2351 -0.6504
 2545SOL    HW219272   2.198   4.405   3.820  0.0834  1.1352 -0.7875
 2546SOL     OW19273   3.424   2.647   2.430  0.1696 -0.7858  0.3427
 2546SOL    HW119274   3.455   2.738   2.423  1.4752 -1.2990 -0.6003
 2546SOL    HW219275   3.446   2.624   2.521 -0.2667  1.6762  1.0839
 2547SOL     OW19276   1.241   4.708  11.409 -0.2083  0.1137 -0.3051
 2547SOL    HW119277   1.293   4.703  11.489 -0.0710  4.3884 -0.1257
 2547SOL    HW219278   1.162   4.663  11.437 -0.3685 -0.2610 -1.3759
 2548SOL     OW19279   2.592   3.907  14.973  0.2533  0.4295 -0.7226
 2548SOL    HW119280   2.684   3.931  14.981 -0.1277  1.6245  0.1541
 2548SOL    HW219281   2.561   3.993  14.946 -2.0734 -0.0352  0.4112
 2549SOL     OW19282   3.901   2.453  16.448 -0.7188 -0.2028  0.0408
 2549SOL    HW119283   3.977   2.463  16.505  1.9482  0.8663 -3.6928
 2549SOL    HW219284   3.945   2.433  16.365  1.8010  0.3619  1.2170
 2550SOL     OW19285   3.327   2.776   4.637 -0.4416 -0.3811 -0.1011
 2550SOL    HW119286   3.259   2.844   4.634 -2.6600 -2.6232  0.0114
 2550SOL    HW219287   3.395   2.840   4.614 -0.3368 -0.1534  0.8562
 2551SOL     OW19288   2.887   3.814   5.727  0.1243 -0.4628  0.8452
 2551SOL    HW119289   2.900   3.900   5.686 -0.0443 -0.9544 -0.2394
 2551SOL    HW219290   2.803   3.787   5.690  1.2931 -1.9285 -0.7836
 2552SOL     OW19291   2.701   0.029   4.600 -0.2747  0.3750 -0.0888
 2552SOL    HW119292   2.664   0.104   4.553 -0.0988  0.1010 -0.6570
 2552SOL    HW219293   2.777   0.072   4.640 -0.4854  0.2018  0.5024
 2553SOL     OW19294   2.180   1.656   6.897 -0.1066  0.2995 -0.3549
 2553SOL    HW119295   2.172   1.584   6.959 -0.5068  1.6634  1.1875
 2553SOL    HW219296   2.274   1.666   6.881 -0.0988 -0.7415 -0.9584
 2554SOL     OW19297   1.735   2.582   9.147 -0.1270 -0.1839 -0.0113
 2554SOL    HW119298   1.753   2.639   9.222 -1.4120 -0.6106  0.6177
 2554SOL    HW219299   1.719   2.498   9.190 -2.1524 -0.8588 -2.0680
 2555SOL     OW19300   0.455   2.339   4.877  0.1717  0.1879  0.3872
 2555SOL    HW119301   0.368   2.369   4.902 -0.0269 -0.6723  0.7449
 2555SOL    HW219302   0.476   2.270   4.940 -0.6399  1.3886  1.9973
 2556SOL     OW19303   4.564   2.255   3.618  0.4554 -0.6804  0.7360
 2556SOL    HW119304   4.590   2.182   3.563 -0.0420 -1.1745  1.1625
 2556SOL    HW219305   4.475   2.230   3.642 -0.7340  1.4036 -1.4688
 2557SOL     OW19306   3.554   1.215   8.301  0.4837 -0.0629  1.2245
 2557SOL    HW119307   3.505   1.296   8.314  1.3068  0.2046  2.6231
 2557SOL    HW219308   3.639   1.249   8.329  0.1030  1.1016  0.9786
 2558SOL     OW19309   0.299   2.061  13.724  0.0429 -0.5046 -0.1284
 2558SOL    HW119310   0.325   2.146  13.760  2.6342 -1.9159  1.3035
 2558SOL    HW219311   0.311   2.074  13.630 -0.0016 -2.2431 -0.3681
 2559SOL     OW19312   1.644   2.085   0.938 -0.3099 -0.0209  0.4173
 2559SOL    HW119313   1.603   2.022   0.879 -0.8930  0.2565  0.5215
 2559SOL    HW219314   1.658   2.163   0.885 -1.5838  0.1620  0.3431
 2560SOL     OW19315   3.380   3.592   9.718  0.1387  0.0932  0.0517
 2560SOL    HW119316   3.318   3.654   9.678 -0.9796 -2.8461 -2.7081
 2560SOL    HW219317   3.352   3.509   9.680  1.5286  1.2247 -3.4778
 2561SOL     OW19318   4.294   3.598   9.273 -0.3138  0.0307  0.2543
 2561SOL    HW119319   4.258   3.628   9.190  0.2239  0.8427  0.3209
 2561SOL    HW219320   4.228   3.632   9.334  0.2189 -0.0954  0.8943
 2562SOL     OW19321   3.936   0.017   1.810  0.1083 -0.0656  0.1591
 2562SOL    HW119322   3.842   0.038   1.815  0.3785  0.9712  0.8690
 2562SOL    HW219323   3.951   0.026   1.716  1.4732 -0.3096  0.3658
 2563SOL     OW19324   2.104   4.112   3.214 -0.9245  0.1318 -0.3489
 2563SOL    HW119325   2.094   4.039   3.153  1.8869 -0.2137 -0.4202
 2563SOL    HW219326   2.045   4.091   3.285 -1.0207  1.8980  0.0801
 2564SOL     OW19327   0.325   1.120   4.966  0.2418 -0.0951  0.3797
 2564SOL    HW119328   0.271   1.190   5.002 -0.4335 -1.2649  1.6341
 2564SOL    HW219329   0.405   1.160   4.932 -0.2326  0.5599  0.0216
 2565SOL     OW19330   0.815   2.173   2.156 -0.0999 -0.0404  0.0577
 2565SOL    HW119331   0.819   2.255   2.108  1.9511  0.5111  1.1539
 2565SOL    HW219332   0.801   2.105   2.090  0.0661 -0.8279  0.8328
 2566SOL     OW19333   2.209   1.806   8.823  0.0859  0.3628  0.6884
 2566SOL    HW119334   2.130   1.819   8.876 -1.3625  0.1589 -1.4197
 2566SOL    HW219335   2.264   1.748   8.875  0.5944 -0.3335 -0.6181
 2567SOL     OW19336   2.093   0.689   3.271  0.3333 -0.3938  0.5742
 2567SOL    HW119337   2.189   0.692   3.265  0.2234 -0.3932 -1.3105
 2567SOL    HW219338   2.065   0.757   3.209  2.5136 -0.1533 -0.1738
 2568SOL     OW19339   3.475   3.311   6.368  0.3874 -0.1336  0.3973
 2568SOL    HW119340   3.386   3.346   6.366  0.4433 -0.0193  0.0278
 2568SOL    HW219341   3.463   3.234   6.425  0.0240 -0.2334  0.1844
 2569SOL     OW19342   0.643   4.175   8.616  0.1366 -0.5101  0.7556
 2569SOL    HW119343   0.718   4.205   8.668 -0.0852  1.6630 -0.1668
 2569SOL    HW219344   0.564   4.216   8.649  0.1765  1.0581 -1.0691
 2570SOL     OW19345   0.581   3.753   4.916 -0.3231 -0.0715 -0.3692
 2570SOL    HW119346   0.588   3.720   5.005 -0.2794  0.2369 -0.2608
 2570SOL    HW219347   0.669   3.732   4.886  0.3178  1.5215  0.4452
 2571SOL     OW19348   0.517   2.584   6.450  0.5137  0.0256  0.0888
 2571SOL    HW119349   0.533   2.565   6.357  1.7852  1.4008  0.0302
 2571SOL    HW219350   0.588   2.528   6.480 -0.7544 -1.3161  0.6350
 2572SOL     OW19351   1.461   1.155  12.169 -0.3281  0.2971  0.3914
 2572SOL    HW119352   1.400   1.081  12.167  0.0558  0.0091 -0.9429
 2572SOL    HW219353   1.430   1.193  12.250 -0.7229  2.4021 -0.7475
 2573SOL     OW19354   3.396   3.611  14.953  0.5192  0.4756 -0.1656
 2573SOL    HW119355   3.323   3.600  15.014 -0.9412 -1.4361 -2.2275
 2573SOL    HW219356   3.356   3.626  14.868  1.4475  2.9699 -0.1633
 2574SOL     OW19357   0.583   2.964   4.341  0.4342  0.0618 -0.2840
 2574SOL    HW119358   0.540   2.917   4.411  0.5575  2.2648  1.2513
 2574SOL    HW219359   0.516   3.030   4.325  0.6065  0.3969  0.3648
 2575SOL     OW19360   1.743   2.299  15.877 -0.5365  0.2193  0.3800
 2575SOL    HW119361   1.831   2.278  15.848 -0.9981 -2.2284  0.7402
 2575SOL    HW219362   1.745   2.260  15.965  1.4438 -1.1272 -0.2671
 2576SOL     OW19363   3.115   0.750   3.492 -0.4451 -0.4970 -0.6322
 2576SOL    HW119364   3.111   0.714   3.404 -0.8587 -1.8180 -0.0747
 2576SOL    HW219365   3.180   0.690   3.528  0.7775  1.5580  0.6559
 2577SOL     OW19366   4.009   0.435   4.093 -0.2309 -0.2561  0.1600
 2577SOL    HW119367   4.019   0.470   4.004  1.3228  0.2036  0.5165
 2577SOL    HW219368   4.001   0.514   4.146 -1.5526  0.0209 -0.4550
 2578SOL     OW19369   1.984   4.709   2.184  0.3244  0.0118  0.3611
 2578SOL    HW119370   1.992   4.686   2.091  0.4983 -0.7259  0.5577
 2578SOL    HW219371   1.947   4.630   2.223 -1.6694  2.2960  3.0620
 2579SOL     OW19372   4.419   3.568  14.186  0.4664  0.1398 -0.1596
 2579SOL    HW119373   4.429   3.492  14.242  1.2610  0.4194  0.0699
 2579SOL    HW219374   4.470   3.542  14.109 -1.7783  0.1408 -1.6715
 2580SOL     OW19375   3.064   0.488  15.531 -0.3215  0.8324  0.5966
 2580SOL    HW119376   3.062   0.531  15.446  0.1033 -3.4502 -1.5592
 2580SOL    HW219377   3.142   0.432  15.532 -0.8964  0.0128  0.3469
 2581SOL     OW19378   4.075   0.658   5.675 -0.1955  0.0845  0.6386
 2581SOL    HW119379   4.115   0.746   5.681  0.4381 -0.2739  1.7864
 2581SOL    HW219380   4.052   0.650   5.583  0.1919  0.0579  0.5440
 2582SOL     OW19381   0.151   4.058   8.068  0.2150 -0.2356  0.0351
 2582SOL    HW119382   0.229   4.109   8.091 -0.6206  0.6515  0.9378
 2582SOL    HW219383   0.108   4.118   8.007  2.0548  0.9695 -0.0665
 2583SOL     OW19384   2.799   1.815   9.265  0.1111 -0.0370  0.8093
 2583SOL    HW119385   2.776   1.722   9.263 -1.2546  0.3129  0.2417
 2583SOL    HW219386   2.717   1.862   9.281 -0.7812 -0.3609 -2.7420
 2584SOL     OW19387   3.839   0.349  10.809  0.0620  0.1835 -0.1348
 2584SOL    HW119388   3.786   0.428  10.825 -0.0699  0.2680 -0.9786
 2584SOL    HW219389   3.913   0.389  10.764  0.7531 -0.4986  0.4025
 2585SOL     OW19390   3.506   0.542   2.151 -0.2344 -0.1590 -0.5629
 2585SOL    HW119391   3.517   0.590   2.233  1.2319 -0.1645 -0.7708
 2585SOL    HW219392   3.433   0.590   2.112 -1.1451  1.5357  3.2437
 2586SOL     OW19393   2.214   1.135   6.380 -0.2509  0.0989 -0.0928
 2586SOL    HW119394   2.231   1.122   6.286  0.1975  0.5289 -0.0694
 2586SOL    HW219395   2.306   1.145   6.402  0.0070  0.0646 -1.1362
 2587SOL     OW19396   2.922   3.851   9.929  0.3620 -0.8040  0.0344
 2587SOL    HW119397   2.955   3.940   9.937 -0.5234 -0.4476 -0.3618
 2587SOL    HW219398   2.833   3.880   9.911  0.5900  2.0628  3.5600
 2588SOL     OW19399   3.744   0.211   4.584  0.0307  0.1830 -0.4215
 2588SOL    HW119400   3.660   0.166   4.581  0.8452 -1.2200 -1.9629
 2588SOL    HW219401   3.806   0.152   4.542  1.2662  1.1816 -0.0122
 2589SOL     OW19402   3.086   3.650   4.500  0.2726 -0.6391 -0.4450
 2589SOL    HW119403   3.103   3.628   4.592  1.1586  0.1378 -0.4313
 2589SOL    HW219404   3.045   3.735   4.519  0.4587 -0.6144 -0.1508
 2590SOL     OW19405   0.081   0.533   5.247 -0.4302  1.0607 -0.0798
 2590SOL    HW119406   0.173   0.548   5.225 -0.8385  2.0436 -1.0980
 2590SOL    HW219407   0.091   0.504   5.338  2.0931 -1.0728 -1.0196
 2591SOL     OW19408   2.358   2.531   4.543 -0.0547 -0.7521  0.0655
 2591SOL    HW119409   2.340   2.622   4.564 -1.6316 -1.0821  0.1431
 2591SOL    HW219410   2.442   2.505   4.580 -0.1281  0.4112  1.0454
 2592SOL     OW19411   4.012   0.438   1.011 -0.1797  0.7346  0.1794
 2592SOL    HW119412   4.048   0.503   1.072 -2.0248  1.6160  0.3316
 2592SOL    HW219413   3.936   0.412   1.063  1.1284 -1.6703  0.8386
 2593SOL     OW19414   3.731   1.681   4.121 -0.4378 -0.3124  0.0537
 2593SOL    HW119415   3.752   1.601   4.168 -1.2618 -0.7727 -0.3524
 2593SOL    HW219416   3.688   1.644   4.044 -2.0568 -0.6533  1.1106
 2594SOL     OW19417   4.127   1.523   5.392 -0.5676  0.1315 -0.0260
 2594SOL    HW119418   4.188   1.457   5.422 -1.0700  0.7887  2.4341
 2594SOL    HW219419   4.158   1.601   5.438  0.5070  0.0125 -0.5610
 2595SOL     OW19420   3.484   2.720   7.836  0.3980 -0.0093  0.8212
 2595SOL    HW119421   3.428   2.798   7.835  0.8131  0.2588 -1.5343
 2595SOL    HW219422   3.426   2.646   7.857  4.6671 -2.7554  2.8651
 2596SOL     OW19423   0.842   4.050  16.147 -0.5229 -0.6598  0.0442
 2596SOL    HW119424   0.891   4.052  16.064  2.1027 -0.5686  1.5847
 2596SOL    HW219425   0.902   3.992  16.194 -0.7791 -0.1187  1.0280
 2597SOL     OW19426   0.389   0.899   2.905  0.1292  0.2111 -0.0535
 2597SOL    HW119427   0.478   0.917   2.875  1.2916 -1.2617  2.5049
 2597SOL    HW219428   0.366   0.986   2.936  0.3297 -0.3567  1.6666
 2598SOL     OW19429   0.246   4.395   2.710  0.1119  0.3067 -0.6268
 2598SOL    HW119430   0.249   4.396   2.615  0.5162  0.1035 -0.6152
 2598SOL    HW219431   0.173   4.457   2.718 -1.0034 -1.1525  0.6597
 2599SOL     OW19432   4.305   1.634   8.549 -0.2850  0.4257 -0.6244
 2599SOL    HW119433   4.372   1.653   8.614  0.4378 -2.4637 -0.5099
 2599SOL    HW219434   4.327   1.703   8.487  0.9861 -2.2705 -3.1673
 2600SOL     OW19435   2.501   0.742   6.723  0.4273 -0.3002  0.1860
 2600SOL    HW119436   2.437   0.803   6.761  0.0586 -0.6422  0.1091
 2600SOL    HW219437   2.519   0.685   6.798  2.6572 -0.8753 -0.7795
 2601SOL     OW19438   0.145   1.470   7.083  0.0956  0.0299 -0.3548
 2601SOL    HW119439   0.189   1.532   7.025 -0.3646 -0.4350 -1.1934
 2601SOL    HW219440   0.069   1.464   7.025 -0.0067  0.3359 -0.2568
 2602SOL     OW19441   2.728   1.648   7.651  0.3314 -0.4872 -0.3517
 2602SOL    HW119442   2.792   1.718   7.641  1.3100 -1.1754  1.0566
 2602SOL    HW219443   2.680   1.682   7.726  0.4464  1.5554 -1.2088
 2603SOL     OW19444   4.162   3.868   4.461 -0.2512  0.2899  0.1261
 2603SOL    HW119445   4.191   3.779   4.443 -0.3805  0.7486 -2.3011
 2603SOL    HW219446   4.209   3.903   4.538 -2.7604  0.2181  1.6723
 2604SOL     OW19447   4.412   4.451   7.271  0.3681 -0.0939  0.4063
 2604SOL    HW119448   4.491   4.404   7.297  0.6757 -0.0503 -0.4534
 2604SOL    HW219449   4.457   4.521   7.222  3.1941 -1.6383  0.7774
 2605SOL     OW19450   4.031   3.504  13.533 -0.5658  0.0978  0.3909
 2605SOL    HW119451   4.091   3.445  13.579  2.0765  0.7811 -2.2351
 2605SOL    HW219452   4.007   3.440  13.466 -0.5521  2.2042 -1.6267
 2606SOL     OW19453   2.259   3.151  12.721 -0.2772  0.3436 -0.2338
 2606SOL    HW119454   2.343   3.191  12.746 -0.9468  1.7654 -0.2749
 2606SOL    HW219455   2.197   3.223  12.706  0.0293  0.6788  0.1143
 2607SOL     OW19456   0.809   2.482   8.241 -0.2154 -0.0108 -0.3318
 2607SOL    HW119457   0.741   2.524   8.295 -0.3712 -2.2182  1.2189
 2607SOL    HW219458   0.882   2.544   8.242 -0.7641  0.5996  1.9890
 2608SOL     OW19459   0.368   0.740   6.308  0.2524 -0.2282  0.1631
 2608SOL    HW119460   0.279   0.775   6.297  1.4533  2.7795 -0.1478
 2608SOL    HW219461   0.372   0.744   6.403  1.0653  3.7099 -0.0013
 2609SOL     OW19462   0.193   2.094   2.578 -0.4416  0.1031 -0.2361
 2609SOL    HW119463   0.250   2.164   2.548 -0.3023  1.2347  2.6310
 2609SOL    HW219464   0.262   2.042   2.621 -0.1133  1.4931  0.9216
 2610SOL     OW19465   4.548   1.433   4.682 -0.1930 -0.1489  0.3470
 2610SOL    HW119466   4.537   1.356   4.739 -0.9482 -0.4245 -0.1789
 2610SOL    HW219467   4.570   1.504   4.742  0.1698  0.4246 -0.4687
 2611SOL     OW19468   3.381   2.542   5.619 -0.1015  0.2647  0.5404
 2611SOL    HW119469   3.386   2.551   5.523  0.8715 -1.9183  0.3752
 2611SOL    HW219470   3.298   2.494   5.611 -0.1724  0.4974 -0.0975
 2612SOL     OW19471   2.084   1.344   9.919 -0.7135 -0.2574 -0.2144
 2612SOL    HW119472   2.129   1.269   9.958  2.6468  2.1960  0.5792
 2612SOL    HW219473   2.165   1.389   9.895 -0.7086 -0.0052  0.2723
 2613SOL     OW19474   3.637   4.717   2.959 -0.0784 -0.0861 -0.2408
 2613SOL    HW119475   3.545   4.734   2.979 -0.8937 -3.0642 -1.4857
 2613SOL    HW219476   3.660   0.073   2.954 -0.4115  0.0641  1.1330
 2614SOL     OW19477   4.379   3.404  12.213 -0.4072  0.4728  0.2523
 2614SOL    HW119478   4.458   3.367  12.173 -0.9310 -0.6938  0.2922
 2614SOL    HW219479   4.412   3.408  12.303 -2.3381 -0.9386  1.0284
 2615SOL     OW19480   4.650   2.447   5.688  0.1725  0.5019  0.3115
 2615SOL    HW119481   0.007   2.430   5.677 -0.6997 -0.8742 -4.9709
 2615SOL    HW219482   4.638   2.476   5.597  1.9045  0.3909  0.0419
 2616SOL     OW19483   0.052   2.891   3.759  0.2239 -0.1976  0.0686
 2616SOL    HW119484   0.122   2.890   3.694  0.6966  0.6822  0.5769
 2616SOL    HW219485   0.035   2.797   3.771  1.4392 -0.1079  2.4034
 2617SOL     OW19486   3.323   3.149   2.610  0.2544 -0.6464  0.4819
 2617SOL    HW119487   3.375   3.229   2.602 -2.5529  1.3544  2.1892
 2617SOL    HW219488   3.264   3.169   2.683  1.0785 -0.4252  1.0827
 2618SOL     OW19489   0.756   3.433   5.969  0.5697  0.6449 -0.2843
 2618SOL    HW119490   0.793   3.432   5.881  0.7255  0.0146 -0.2095
 2618SOL    HW219491   0.664   3.453   5.950  0.2353 -0.7274 -0.1256
 2619SOL     OW19492   0.339   0.986   9.969  0.0234 -0.0067  0.2231
 2619SOL    HW119493   0.258   1.036   9.958 -0.5037 -2.0227 -4.7629
 2619SOL    HW219494   0.357   0.985  10.063  3.0649  1.3628 -0.3414
 2620SOL     OW19495   2.309   0.636  16.291  0.1165 -0.6479 -0.2634
 2620SOL    HW119496   2.391   0.600  16.325  0.0436 -1.9896 -1.5094
 2620SOL    HW219497   2.311   0.730  16.313  0.6360 -0.7081 -0.0444
 2621SOL     OW19498   0.719   4.591   6.959  0.0477  0.6033  0.0133
 2621SOL    HW119499   0.789   4.627   7.013 -0.7591  1.3848  0.5397
 2621SOL    HW219500   0.734   4.605   6.865 -1.2061  0.1588 -0.2597
 2622SOL     OW19501   3.839   4.034   3.250  0.3861 -0.0293  0.0160
 2622SOL    HW119502   3.887   3.971   3.303  1.7570  2.4286  1.6864
 2622SOL    HW219503   3.887   4.116   3.266  0.8117  0.1775 -2.2981
 2623SOL     OW19504   1.649   1.922   3.242  0.0055  0.1208  0.1766
 2623SOL    HW119505   1.694   1.976   3.177 -0.3145  0.0909 -0.0674
 2623SOL    HW219506   1.691   1.947   3.325  1.6092  0.2562 -0.6667
 2624SOL     OW19507   4.132   2.472   8.402  0.1780  0.1608  0.1380
 2624SOL    HW119508   4.199   2.404   8.403  1.3422  1.3122 -0.4547
 2624SOL    HW219509   4.177   2.555   8.385 -1.0541  1.0246  1.0292
 2625SOL     OW19510   2.898   2.421   3.568 -0.4072  0.1894 -0.1409
 2625SOL    HW119511   2.823   2.364   3.585 -0.4487  0.5497  0.8567
 2625SOL    HW219512   2.903   2.414   3.472  0.9582  1.3414 -0.1500
 2626SOL     OW19513   0.035   2.267   0.964  0.1567  0.1966  0.1310
 2626SOL    HW119514   4.723   2.246   0.885  0.7218 -1.1986  0.1458
 2626SOL    HW219515   0.056   2.352   0.927 -1.3301 -1.0190 -3.4965
 2627SOL     OW19516   4.181   4.080   8.258 -0.7447  0.1127 -0.3624
 2627SOL    HW119517   4.143   4.030   8.187 -0.4433  0.3922 -0.7225
 2627SOL    HW219518   4.146   4.027   8.330  2.3691 -1.8448 -0.3020
 2628SOL     OW19519   1.768   2.295  13.229  0.6047  0.2871  0.1717
 2628SOL    HW119520   1.839   2.305  13.293  1.8606  2.0224 -1.4650
 2628SOL    HW219521   1.707   2.346  13.282 -0.3191  0.5159 -1.1268
 2629SOL     OW19522   4.541   0.349   5.067 -0.0617 -0.4711 -0.2424
 2629SOL    HW119523   4.482   0.291   5.020  0.7922 -2.3415  0.9716
 2629SOL    HW219524   4.492   0.365   5.148 -1.4919  0.3131 -1.2676
 2630SOL     OW19525   3.260   1.020   6.810 -0.2731  0.3844  0.5714
 2630SOL    HW119526   3.267   0.971   6.728 -1.6649  1.2595 -0.0811
 2630SOL    HW219527   3.169   1.051   6.812  0.0486  1.3326  0.5341
 2631SOL     OW19528   1.279   3.742  14.161 -0.5317  0.2883  0.2361
 2631SOL    HW119529   1.373   3.742  14.148 -0.3652  1.6272  1.4079
 2631SOL    HW219530   1.236   3.702  14.086  2.2956 -0.5697 -0.9210
 2632SOL     OW19531   3.481   0.073   8.215 -0.2268  0.1036 -0.1084
 2632SOL    HW119532   3.488   0.004   8.282  3.2117 -1.5185 -2.1180
 2632SOL    HW219533   3.482   0.148   8.274 -0.5669 -0.0916  0.1525
 2633SOL     OW19534   3.449   2.080   9.226 -0.2335  0.2963  0.0292
 2633SOL    HW119535   3.453   2.172   9.250  2.5360  0.8736 -2.5341
 2633SOL    HW219536   3.371   2.051   9.272 -0.6546  0.7703 -0.3862
 2634SOL     OW19537   4.013   4.015  15.891  0.2590 -0.3719 -0.2471
 2634SOL    HW119538   3.924   4.006  15.856 -0.5271  2.2386  1.0581
 2634SOL    HW219539   4.047   3.928  15.871  0.1334 -0.6533  0.7451
 2635SOL     OW19540   1.284   1.869   2.550 -0.6987  0.1622  0.2687
 2635SOL    HW119541   1.341   1.868   2.472  1.0008 -0.0166  1.5185
 2635SOL    HW219542   1.202   1.905   2.517 -0.7225  0.2906  0.4679
 2636SOL     OW19543   3.559   4.007   2.061 -0.2812  0.3991  0.0712
 2636SOL    HW119544   3.638   3.953   2.062 -0.5844 -0.0461 -0.2896
 2636SOL    HW219545   3.490   3.954   2.022  0.9951 -1.2934  0.0936
 2637SOL     OW19546   1.603   2.092  15.771 -0.1225 -0.0159 -0.0813
 2637SOL    HW119547   1.533   2.117  15.831 -0.1282 -2.5929  1.0099
 2637SOL    HW219548   1.654   2.172  15.775 -0.7552  0.2070  3.4699
 2638SOL     OW19549   3.107   3.569   3.081  0.6235 -0.7491  0.9280
 2638SOL    HW119550   3.050   3.644   3.097  0.7591 -0.1234 -1.4461
 2638SOL    HW219551   3.195   3.607   3.090  0.7106 -0.9710  1.0029
 2639SOL     OW19552   3.257   1.931  14.461  0.0541 -0.3947 -0.4484
 2639SOL    HW119553   3.311   1.865  14.417  1.1707 -0.1839  0.6163
 2639SOL    HW219554   3.203   1.869  14.509 -0.6332 -1.0736 -2.1026
 2640SOL     OW19555   3.784   0.392  15.583 -0.0782  0.4016  0.3331
 2640SOL    HW119556   3.720   0.446  15.536  1.1962 -0.1435 -2.0507
 2640SOL    HW219557   3.744   0.309  15.560  1.2232 -0.4556  1.1992
 2641SOL     OW19558   4.647   2.329   2.892  0.3306  0.6043 -0.0215
 2641SOL    HW119559   4.691   2.310   2.809  3.3487 -0.5300  1.8381
 2641SOL    HW219560   4.557   2.317   2.860 -0.4849 -0.3160  2.6638
 2642SOL     OW19561   2.537   0.754   4.379  0.5124 -0.5573 -0.0657
 2642SOL    HW119562   2.522   0.830   4.323  0.8230 -0.1752  0.3679
 2642SOL    HW219563   2.632   0.757   4.372  0.4278  2.3259 -0.0890
 2643SOL     OW19564   3.612   1.757   6.326 -0.6879 -0.1246  0.6004
 2643SOL    HW119565   3.577   1.668   6.318  0.7942 -0.6490  0.0507
 2643SOL    HW219566   3.653   1.755   6.412  2.3076  1.3824 -0.8028
 2644SOL     OW19567   2.493   2.247   7.212 -0.0626  0.0340  0.0354
 2644SOL    HW119568   2.505   2.214   7.301 -2.3134 -0.8406  0.0087
 2644SOL    HW219569   2.415   2.205   7.178  0.3564 -0.0919 -0.7732
 2645SOL     OW19570   1.395   1.749   0.633  0.7364  0.0943  0.1551
 2645SOL    HW119571   1.320   1.803   0.609  2.3624  1.6626 -1.3789
 2645SOL    HW219572   1.359   1.660   0.643  0.3270  0.1384 -0.8272
 2646SOL     OW19573   0.854   3.799   2.247 -0.5632 -0.0216  0.1089
 2646SOL    HW119574   0.931   3.853   2.264  0.6615 -0.8636 -2.7615
 2646SOL    HW219575   0.891   3.727   2.196 -1.8202 -0.2838 -0.4367
 2647SOL     OW19576   1.766   0.189   4.654  0.5586 -0.0624 -0.4244
 2647SOL    HW119577   1.774   0.276   4.692  0.7937 -0.8883  1.4648
 2647SOL    HW219578   1.739   0.213   4.566 -0.4589  0.0830 -0.0822
 2648SOL     OW19579   2.454   1.460   3.888 -0.1981  0.5294 -0.5988
 2648SOL    HW119580   2.439   1.384   3.944 -1.3626 -0.7465 -2.6245
 2648SOL    HW219581   2.362   1.482   3.876 -1.0453 -2.6358 -0.0224
 2649SOL     OW19582   4.262   4.628   3.511 -0.4831 -0.1826 -0.0626
 2649SOL    HW119583   4.241   4.557   3.571 -1.5273 -0.7693 -1.1213
 2649SOL    HW219584   4.320   4.690   3.555 -0.5274  0.4152 -0.8398
 2650SOL     OW19585   2.545   3.674   2.985 -0.7763 -0.7473 -0.0323
 2650SOL    HW119586   2.615   3.637   2.931 -0.9314 -1.7750  0.4719
 2650SOL    HW219587   2.581   3.761   3.004 -0.8669 -0.9305  0.9581
 2651SOL     OW19588   0.931   0.722   3.558 -0.3833  0.5786  0.2137
 2651SOL    HW119589   0.922   0.646   3.616 -1.7144  0.0897 -0.6364
 2651SOL    HW219590   1.024   0.722   3.538 -0.2841 -1.8669  0.5683
 2652SOL     OW19591   2.097   3.758   6.431 -0.1567 -0.4430  0.9975
 2652SOL    HW119592   2.113   3.795   6.344  0.7371 -0.0757  1.3261
 2652SOL    HW219593   2.104   3.839   6.481  1.1423 -0.0751  0.2262
 2653SOL     OW19594   0.534   1.063   9.526 -0.2939  0.3512  0.0795
 2653SOL    HW119595   0.609   1.035   9.578  0.8301  0.5693 -1.4133
 2653SOL    HW219596   0.512   1.151   9.554 -0.5039  0.0937  0.7160
 2654SOL     OW19597   1.383   3.468   0.896 -0.2178  0.1772  0.2449
 2654SOL    HW119598   1.474   3.477   0.867  0.4707  1.7035  2.8484
 2654SOL    HW219599   1.372   3.547   0.949 -3.5128 -0.8929  1.1419
 2655SOL     OW19600   4.397   1.243   8.612  0.3232  0.8047  0.3808
 2655SOL    HW119601   4.347   1.324   8.628  0.8886  1.6182 -1.9980
 2655SOL    HW219602   4.339   1.194   8.554  0.6667 -1.0811  1.6454
 2656SOL     OW19603   1.800   3.477   3.968  0.4838  0.4928  0.1283
 2656SOL    HW119604   1.706   3.489   3.983  0.9640  0.3463  3.2715
 2656SOL    HW219605   1.805   3.386   3.939  0.2528  0.4923  0.0870
 2657SOL     OW19606   3.588   0.721   8.475 -0.4354  0.2870  0.0826
 2657SOL    HW119607   3.671   0.721   8.427 -0.8383 -2.2873 -0.5713
 2657SOL    HW219608   3.608   0.670   8.553  0.1513  2.4070  1.3254
 2658SOL     OW19609   4.366   3.180   9.969  0.0686  0.5522  0.5420
 2658SOL    HW119610   4.390   3.272   9.958 -2.6598  1.5033  2.4058
 2658SOL    HW219611   4.272   3.184   9.952  0.1982  0.6157 -0.1861
 2659SOL     OW19612   0.257   1.739  14.778 -0.0300 -0.0827  0.3397
 2659SOL    HW119613   0.227   1.659  14.736 -0.8593  0.4869 -0.1503
 2659SOL    HW219614   0.336   1.705  14.821  0.6191 -0.6417 -1.3145
 2660SOL     OW19615   0.389   2.207   9.539 -0.2020 -0.3462  0.6183
 2660SOL    HW119616   0.367   2.297   9.563  2.2710  0.8276 -1.5318
 2660SOL    HW219617   0.385   2.214   9.444 -0.7633  0.2278  0.6886
 2661SOL     OW19618   1.417   1.238  16.007 -0.7259 -0.4936 -0.5058
 2661SOL    HW119619   1.443   1.326  15.981 -0.9439  0.1427  1.4176
 2661SOL    HW219620   1.388   1.259  16.096 -0.5830 -2.6927  0.0563
 2662SOL     OW19621   0.966   1.285   1.494  0.3479  0.4356  0.4373
 2662SOL    HW119622   0.934   1.376   1.494 -2.2199 -0.4960 -1.5305
 2662SOL    HW219623   0.889   1.229   1.482 -0.1583  0.8536  1.7300
 2663SOL     OW19624   0.969   0.661   5.358 -0.2003  0.1738  0.1710
 2663SOL    HW119625   1.024   0.740   5.356  1.0992 -0.7012  1.0392
 2663SOL    HW219626   0.944   0.659   5.451 -1.3072 -3.8817 -0.2441
 2664SOL     OW19627   2.113   0.959   5.465 -0.4853  0.1685 -0.0130
 2664SOL    HW119628   2.041   1.019   5.448  1.2916  1.7703 -1.9413
 2664SOL    HW219629   2.152   0.957   5.378  1.0659  2.9897  0.6050
 2665SOL     OW19630   2.520   0.751   3.927 -0.9747 -0.1768  0.2168
 2665SOL    HW119631   2.558   0.839   3.928 -1.7209  0.1272  1.2787
 2665SOL    HW219632   2.587   0.688   3.955  1.1564  0.9593 -2.3281
 2666SOL     OW19633   0.847   2.090   8.254  0.0093  0.0800  0.0814
 2666SOL    HW119634   0.878   2.140   8.178  2.6262 -2.8112 -0.7068
 2666SOL    HW219635   0.923   2.034   8.268  0.7750  0.7900 -1.2043
 2667SOL     OW19636   2.214   3.475  11.748 -0.4439 -0.2052  0.2508
 2667SOL    HW119637   2.195   3.416  11.675 -2.2900 -1.2699  1.5655
 2667SOL    HW219638   2.164   3.553  11.724  0.5106  0.4183  0.2901
 2668SOL     OW19639   1.886   1.180   8.413  0.1220 -0.2660  0.1687
 2668SOL    HW119640   1.957   1.134   8.368  0.5574  0.5587  0.0166
 2668SOL    HW219641   1.938   1.221   8.482  0.3915 -0.7897  0.2750
 2669SOL     OW19642   4.685   3.305  16.759 -0.7701  0.1158  0.1856
 2669SOL    HW119643   4.719   3.221  16.729  1.8426  0.8317  1.0918
 2669SOL    HW219644   4.675   3.355  16.678 -0.6529 -0.0718  0.0566
 2670SOL     OW19645   3.612   2.496   7.566  0.1358 -0.1851  0.1085
 2670SOL    HW119646   3.546   2.474   7.500  0.6760 -0.8502 -0.2092
 2670SOL    HW219647   3.638   2.580   7.528 -0.1355  0.6971  1.8339
 2671SOL     OW19648   2.566   4.386   4.214 -0.5358  0.1153 -0.4076
 2671SOL    HW119649   2.647   4.396   4.265  0.0160 -0.1499 -1.2272
 2671SOL    HW219650   2.577   4.445   4.139 -1.7065  2.0820  0.9754
 2672SOL     OW19651   3.911   2.112   4.995 -0.0775  0.4884 -0.0956
 2672SOL    HW119652   3.832   2.072   4.960  0.5837 -0.5830 -0.3858
 2672SOL    HW219653   3.970   2.036   4.988  0.5416  0.9902 -0.2869
 2673SOL     OW19654   3.963   3.717  15.592  0.7159  0.6163 -0.0878
 2673SOL    HW119655   4.018   3.691  15.518  2.3103 -1.2302  1.7492
 2673SOL    HW219656   3.904   3.779  15.550  2.5360  1.0870 -1.9052
 2674SOL     OW19657   2.037   2.182   5.555 -0.4085 -0.1717 -0.0862
 2674SOL    HW119658   2.026   2.111   5.492  0.4226 -0.7901  0.4772
 2674SOL    HW219659   2.061   2.256   5.498  2.0418  0.2220  1.4776
 2675SOL     OW19660   4.011   1.002  17.371  0.8627  0.3220 -0.0151
 2675SOL    HW119661   4.036   1.050  17.292  0.0349 -0.8798 -0.9970
 2675SOL    HW219662   4.023   0.911  17.346 -1.5236  0.1171 -0.3474
 2676SOL     OW19663   1.282   1.036   7.457 -0.3790 -0.1504 -0.1152
 2676SOL    HW119664   1.304   0.951   7.495  1.5565  0.3162 -0.1677
 2676SOL    HW219665   1.189   1.032   7.477  0.0698 -1.2921  1.7695
 2677SOL     OW19666   3.916   1.793  14.777  0.0104 -0.5603 -0.4853
 2677SOL    HW119667   3.927   1.700  14.799 -0.0338 -0.4703 -0.0690
 2677SOL    HW219668   3.832   1.807  14.821  0.8175 -0.0965  0.9277
 2678SOL     OW19669   1.913   2.019  13.879  0.0066  0.0757 -0.0980
 2678SOL    HW119670   1.831   2.056  13.912  2.0421  2.0147  2.7661
 2678SOL    HW219671   1.919   1.931  13.916  2.8053 -0.9239 -2.9356
 2679SOL     OW19672   4.002   1.214   8.221 -0.0078  0.3158  0.2644
 2679SOL    HW119673   3.947   1.237   8.295  0.5950 -0.6747  1.0215
 2679SOL    HW219674   4.026   1.296   8.179  0.2836  1.5511  2.8639
 2680SOL     OW19675   4.385   3.111   0.281 -0.1856 -0.9307  0.0129
 2680SOL    HW119676   4.301   3.153   0.264  0.6427  1.5301  2.1169
 2680SOL    HW219677   4.449   3.182   0.287 -1.4055  0.2102 -0.6027
 2681SOL     OW19678   0.744   3.117   1.898 -0.4489 -0.2554 -0.5480
 2681SOL    HW119679   0.785   3.113   1.985  0.2519 -1.1097 -0.9164
 2681SOL    HW219680   0.731   3.024   1.882  2.2882 -0.6664 -0.3529
 2682SOL     OW19681   1.816   3.891  10.417  0.5751 -0.1471  0.2319
 2682SOL    HW119682   1.732   3.935  10.400 -0.7501 -2.5460  0.5868
 2682SOL    HW219683   1.812   3.874  10.511  1.7760  0.4397  0.3913
 2683SOL     OW19684   2.412   2.619   7.412 -0.0040 -0.0967 -0.8645
 2683SOL    HW119685   2.414   2.653   7.323 -0.5373  0.9649 -0.4737
 2683SOL    HW219686   2.496   2.643   7.451 -0.8374  0.8270  0.3871
 2684SOL     OW19687   3.999   3.191  15.790 -0.1991 -0.3720  0.2453
 2684SOL    HW119688   4.086   3.151  15.797  0.9289  2.0758  0.2939
 2684SOL    HW219689   3.961   3.196  15.878 -2.9385  0.8278 -0.9957
 2685SOL     OW19690   1.182   1.723   7.813  0.5655  0.0928  0.3515
 2685SOL    HW119691   1.257   1.709   7.870 -1.3324  1.7697  3.2526
 2685SOL    HW219692   1.220   1.709   7.726  0.3681  2.2342 -0.0778
 2686SOL     OW19693   4.270   0.214   4.104  0.0605  0.0093  0.4493
 2686SOL    HW119694   4.291   0.143   4.044  0.2385  0.1586  0.3364
 2686SOL    HW219695   4.184   0.234   4.066  0.5901  0.9554 -0.2357
 2687SOL     OW19696   1.778   0.351   4.174  0.3137 -0.0954  0.1556
 2687SOL    HW119697   1.826   0.419   4.127  1.5661  0.1713  1.8310
 2687SOL    HW219698   1.848   0.286   4.184  0.0796 -0.3565  0.1008
 2688SOL     OW19699   2.944   1.195  12.728  0.0699  0.2293  0.1510
 2688SOL    HW119700   2.909   1.283  12.742 -0.9846 -0.4375  1.6256
 2688SOL    HW219701   3.032   1.222  12.701  0.3076  0.4480  1.1497
 2689SOL     OW19702   3.060   3.550   9.087  0.4337 -0.4612  0.4782
 2689SOL    HW119703   2.975   3.506   9.083 -1.0514  2.4592  0.0158
 2689SOL    HW219704   3.062   3.580   8.996  0.8610  0.8060  0.9024
 2690SOL     OW19705   3.248   4.557   0.853  0.1508  0.0642  0.0232
 2690SOL    HW119706   3.327   4.505   0.837  0.8872  1.4707 -0.8067
 2690SOL    HW219707   3.186   4.484   0.838 -0.0981 -0.1202  1.9869
 2691SOL     OW19708   2.000   2.282  10.671 -0.4050 -0.4698 -0.0693
 2691SOL    HW119709   1.979   2.369  10.705 -1.7461 -1.4964  1.7602
 2691SOL    HW219710   1.946   2.229  10.730 -1.5951  2.3082  1.3390
 2692SOL     OW19711   2.983   0.959  17.626 -0.0398  0.0943 -0.3348
 2692SOL    HW119712   3.055   0.973  17.688 -0.0586  0.2106 -0.3393
 2692SOL    HW219713   2.921   0.921  17.689 -0.4769 -0.7883 -1.3066
 2693SOL     OW19714   3.923   3.901  12.171 -0.4156 -0.2177 -0.6299
 2693SOL    HW119715   3.901   3.857  12.253  1.6312 -2.7514 -1.4335
 2693SOL    HW219716   4.001   3.853  12.141 -0.3067 -0.7187  0.4482
 2694SOL     OW19717   0.503   0.174   7.849  0.1625  0.6554 -0.5100
 2694SOL    HW119718   0.487   0.205   7.938  1.1124  1.2976 -0.5593
 2694SOL    HW219719   0.426   0.128   7.816  1.0793 -1.8145  0.7207
 2695SOL     OW19720   4.676   4.391   7.663  0.4491  0.3794  0.5077
 2695SOL    HW119721   4.584   4.395   7.637  0.7128 -1.7369 -0.7828
 2695SOL    HW219722   4.716   4.441   7.592  2.9475 -0.5250  1.2976
 2696SOL     OW19723   4.397   3.563   9.533 -0.7439 -0.4108 -0.2378
 2696SOL    HW119724   4.379   3.573   9.440  0.1994  1.3966 -0.2257
 2696SOL    HW219725   4.401   3.468   9.542 -0.6035 -0.4302 -0.5290
 2697SOL     OW19726   1.513   2.039   9.964  0.5923 -0.2776 -0.0311
 2697SOL    HW119727   1.527   1.958   9.916  0.1668 -0.3040 -0.1120
 2697SOL    HW219728   1.499   2.102   9.893  1.2329  0.2622  0.3222
 2698SOL     OW19729   0.243   2.733   2.457  0.5063 -0.4247  0.7065
 2698SOL    HW119730   0.208   2.794   2.522 -0.7490  0.7441 -1.0870
 2698SOL    HW219731   0.319   2.710   2.511  1.4100 -0.5503 -0.5944
 2699SOL     OW19732   4.151   4.033   3.098 -0.1368 -0.4874 -0.1959
 2699SOL    HW119733   4.209   4.020   3.173  3.3251  0.0093 -2.7822
 2699SOL    HW219734   4.107   4.113   3.125  2.4858  1.7856 -2.6895
 2700SOL     OW19735   0.747   0.086   6.483  0.1011  0.2758  0.3229
 2700SOL    HW119736   0.697   0.164   6.458  1.9354  0.7728 -1.8382
 2700SOL    HW219737   0.726   0.037   6.403 -0.5981  0.2705  0.5122
 2701SOL     OW19738   4.671   1.395   5.957  0.4108  0.0470 -0.5646
 2701SOL    HW119739   4.580   1.371   5.968  0.2881  1.4023  1.3192
 2701SOL    HW219740   4.695   1.427   6.044 -0.4161  1.0809 -0.7142
 2702SOL     OW19741   4.374   1.517  11.672  0.4238 -0.0824 -0.1999
 2702SOL    HW119742   4.365   1.427  11.638 -0.6369  0.3422 -1.0308
 2702SOL    HW219743   4.336   1.513  11.759 -2.4318  3.2504 -1.2949
 2703SOL     OW19744   1.078   1.560   6.675 -0.3486  0.5159 -0.0999
 2703SOL    HW119745   1.156   1.614   6.666 -0.7160  0.4919 -3.2266
 2703SOL    HW219746   1.005   1.620   6.693 -0.2327  0.4435  0.6177
 2704SOL     OW19747   3.631   4.557   4.363 -0.0573 -0.4497 -0.1736
 2704SOL    HW119748   3.669   4.549   4.275 -0.1434  0.4689 -0.2978
 2704SOL    HW219749   3.558   4.497   4.350  0.2417 -0.2065 -3.0034
 2705SOL     OW19750   0.395   3.638   8.026 -0.5381 -0.5847  0.0847
 2705SOL    HW119751   0.398   3.632   8.121  0.2164  0.4345  0.1135
 2705SOL    HW219752   0.478   3.683   8.010  0.1058 -2.2141 -1.1765
 2706SOL     OW19753   1.844   2.145   4.926 -0.0851  0.1384 -0.2734
 2706SOL    HW119754   1.797   2.172   4.847 -1.7568 -0.5852  0.4746
 2706SOL    HW219755   1.932   2.133   4.888  0.6875 -0.3579  1.6917
 2707SOL     OW19756   1.269   2.595  16.622  0.0326  0.0370  0.0770
 2707SOL    HW119757   1.237   2.564  16.706 -0.3352  0.4760  0.0970
 2707SOL    HW219758   1.279   2.514  16.570 -1.0642 -1.0410  1.5633
 2708SOL     OW19759   3.844   4.649   9.932  0.1924  0.0968 -0.2217
 2708SOL    HW119760   3.897   4.573   9.908  0.7825  0.6247 -0.5958
 2708SOL    HW219761   3.777   4.642   9.864 -0.4247  0.0643  0.3845
 2709SOL     OW19762   3.951   2.665   5.534  0.1041  0.4243 -0.2791
 2709SOL    HW119763   3.908   2.708   5.609  3.5126  0.6317  1.5483
 2709SOL    HW219764   3.967   2.583   5.581 -0.3654  1.1842  1.2128
 2710SOL     OW19765   4.715   1.875   5.432 -0.3451  0.1721 -0.0649
 2710SOL    HW119766   4.645   1.865   5.367 -0.3544  0.9793 -0.1744
 2710SOL    HW219767   0.003   1.787   5.460  0.2189 -0.3796 -2.3248
 2711SOL     OW19768   1.608   2.137   8.670  0.1574 -0.0031  0.1645
 2711SOL    HW119769   1.625   2.230   8.655  1.5519 -0.0215  1.5439
 2711SOL    HW219770   1.649   2.097   8.594  1.9351  0.7279  0.7212
 2712SOL     OW19771   2.688   1.013  13.597 -0.3622 -0.7320  0.7833
 2712SOL    HW119772   2.753   1.083  13.598 -2.0060  0.8752 -3.0003
 2712SOL    HW219773   2.630   1.045  13.527 -0.3334 -1.9599  0.1926
 2713SOL     OW19774   3.279   2.773  13.852 -0.1212 -0.4216  0.6834
 2713SOL    HW119775   3.355   2.725  13.884  0.1463 -0.7781 -0.4817
 2713SOL    HW219776   3.217   2.704  13.829  2.8973 -1.9045 -2.9001
 2714SOL     OW19777   1.474   0.026   7.896 -0.3175  0.1395 -0.9353
 2714SOL    HW119778   1.413   0.037   7.823 -0.7681  1.5107 -0.3377
 2714SOL    HW219779   1.529   0.104   7.886  0.4693 -0.4532 -1.2872
 2715SOL     OW19780   4.369   0.362   7.942  0.0921 -0.6586 -0.2585
 2715SOL    HW119781   4.438   0.417   7.980  0.9940 -1.6421 -0.4669
 2715SOL    HW219782   4.372   0.285   7.999 -1.2399 -0.0834  0.5829
 2716SOL     OW19783   3.476   3.850   4.867  0.8069  0.1629  0.0748
 2716SOL    HW119784   3.531   3.923   4.842 -0.2975  0.8127 -0.4563
 2716SOL    HW219785   3.525   3.787   4.814  1.2535  0.8599 -0.3319
 2717SOL     OW19786   2.222   2.240   1.175  0.1310  0.2866 -0.5715
 2717SOL    HW119787   2.162   2.248   1.101  0.4758 -0.7292 -0.9541
 2717SOL    HW219788   2.197   2.181   1.247 -1.0545  3.6854  1.8012
 2718SOL     OW19789   3.197   2.537  11.518 -0.0897  0.3811  0.4911
 2718SOL    HW119790   3.219   2.528  11.425  0.6059 -2.0165  0.8914
 2718SOL    HW219791   3.196   2.632  11.522 -3.2246  0.4118 -0.9477
 2719SOL     OW19792   0.944   2.677   8.986 -0.1024 -0.0396  0.0984
 2719SOL    HW119793   0.869   2.736   8.981  0.1648  0.4791  2.3740
 2719SOL    HW219794   0.982   2.713   9.066  0.1433  0.3825 -0.2038
 2720SOL     OW19795   1.918   0.011   5.682  0.0645 -0.2267 -0.0519
 2720SOL    HW119796   1.909   4.688   5.756 -0.3561  0.7819  0.7302
 2720SOL    HW219797   1.834   0.058   5.677  0.2838  0.2574  0.7385
 2721SOL     OW19798   2.583   3.381   8.078 -0.1531 -0.0630 -0.5458
 2721SOL    HW119799   2.607   3.417   7.993  0.6429  0.5237 -0.0854
 2721SOL    HW219800   2.653   3.410   8.137 -0.5460 -0.2711  0.0280
 2722SOL     OW19801   1.079   1.466   3.905 -0.2658  0.1607  0.2249
 2722SOL    HW119802   1.050   1.378   3.880  1.4176 -0.5426  0.7265
 2722SOL    HW219803   1.043   1.476   3.993  0.2309  1.6202  0.2639
 2723SOL     OW19804   1.206   1.949  12.473 -0.2911  0.0217 -0.2289
 2723SOL    HW119805   1.239   1.863  12.498 -0.7029 -0.9031 -2.8043
 2723SOL    HW219806   1.249   1.994  12.545 -1.9588  3.1911 -1.2227
 2724SOL     OW19807   0.694   4.280   0.240  0.3128  0.3381  0.3255
 2724SOL    HW119808   0.719   4.371   0.253  1.8333 -0.2361  1.5064
 2724SOL    HW219809   0.619   4.285   0.299 -0.6626 -0.6041 -0.8471
 2725SOL     OW19810   3.081   3.059   4.005  0.0039  0.1936 -0.1837
 2725SOL    HW119811   2.996   3.091   4.034  0.4694  0.2405  1.0988
 2725SOL    HW219812   3.121   3.035   4.088 -0.4262 -1.4484 -0.4509
 2726SOL     OW19813   2.818   1.242   3.135  0.6522 -0.1702 -0.1468
 2726SOL    HW119814   2.893   1.183   3.125  0.0739 -0.6669 -1.6038
 2726SOL    HW219815   2.855   1.328   3.157  0.9496  0.1248 -1.8094
 2727SOL     OW19816   3.622   2.034   0.053  0.7509  0.0143 -0.6329
 2727SOL    HW119817   3.698   2.023  17.743  0.0263  1.7276 -1.9194
 2727SOL    HW219818   3.542   2.000   0.011  1.1000 -2.9152  1.0522
 2728SOL     OW19819   0.715   3.551   4.284  0.3944  0.0283 -0.3572
 2728SOL    HW119820   0.666   3.502   4.350  0.1635  0.7301  0.0004
 2728SOL    HW219821   0.644   3.592   4.235 -0.0124  2.0787  1.9135
 2729SOL     OW19822   2.239   0.808   6.263 -0.0045  1.0495 -0.0971
 2729SOL    HW119823   2.284   0.771   6.188 -2.3795 -1.9783 -0.0099
 2729SOL    HW219824   2.290   0.785   6.341  0.3106  0.2376 -0.5484
 2730SOL     OW19825   4.186   3.130   0.899 -0.3586 -0.3538 -0.0609
 2730SOL    HW119826   4.100   3.153   0.866 -0.3627 -0.2819  0.0009
 2730SOL    HW219827   4.154   3.080   0.974 -0.2636  0.0540  0.2496
 2731SOL     OW19828   4.287   3.240   4.738 -0.1070 -0.5669  0.4774
 2731SOL    HW119829   4.258   3.249   4.829  0.2942 -1.7817  0.7305
 2731SOL    HW219830   4.382   3.249   4.745 -0.4432  1.9963  1.6842
 2732SOL     OW19831   3.403   2.737   6.707  0.3584 -0.5725 -0.3178
 2732SOL    HW119832   3.414   2.651   6.665  1.8413  0.2592 -1.6101
 2732SOL    HW219833   3.469   2.725   6.775  0.0069  0.5019  0.2226
 2733SOL     OW19834   1.265   0.947   5.115  1.0405  0.0272  0.2160
 2733SOL    HW119835   1.209   0.984   5.184 -0.0441 -1.4567  0.1145
 2733SOL    HW219836   1.279   1.023   5.058 -0.2032  1.7101  2.1423
 2734SOL     OW19837   1.624   1.365  11.595  1.0613  0.6916 -0.3038
 2734SOL    HW119838   1.715   1.385  11.617  0.8920 -1.0875  1.9689
 2734SOL    HW219839   1.594   1.408  11.675 -1.5591 -0.8113 -0.5008
 2735SOL     OW19840   2.781   4.208   3.084 -0.2880  0.2058  0.5031
 2735SOL    HW119841   2.772   4.292   3.038  0.0781 -0.1675 -0.2486
 2735SOL    HW219842   2.702   4.213   3.138  1.6260  0.6692  3.2492
 2736SOL     OW19843   3.330   3.608   2.446 -0.5716 -0.1636 -0.4772
 2736SOL    HW119844   3.421   3.582   2.433 -0.0534  0.8296  1.0818
 2736SOL    HW219845   3.309   3.663   2.371 -0.1302 -1.5878 -1.6375
 2737SOL     OW19846   2.568   0.023   5.714  0.2191  0.0962 -0.5332
 2737SOL    HW119847   2.532   0.068   5.638 -1.4268  0.9462  0.7457
 2737SOL    HW219848   2.484   4.718   5.735 -0.6731  0.7986 -2.7146
 2738SOL     OW19849   4.663   3.405   9.689 -0.5060 -0.4792 -0.3299
 2738SOL    HW119850   4.581   3.417   9.737  0.2008 -0.9125  0.9894
 2738SOL    HW219851   4.733   3.436   9.746 -0.8208  0.8948 -0.6901
 2739SOL     OW19852   0.695   0.817   2.326  0.5412 -0.0380  0.6054
 2739SOL    HW119853   0.671   0.785   2.239  0.4682  3.0834 -0.5310
 2739SOL    HW219854   0.637   0.765   2.382  0.2018 -1.4603 -1.0997
 2740SOL     OW19855   3.956   2.556   2.294 -0.4474  0.1134 -0.4651
 2740SOL    HW119856   4.040   2.543   2.338  0.2724  2.4012 -1.1398
 2740SOL    HW219857   3.990   2.576   2.206  0.2215  0.2575 -0.1706
 2741SOL     OW19858   3.296   1.269   5.815 -0.1098 -0.2094  0.1798
 2741SOL    HW119859   3.354   1.343   5.799 -0.4624  0.0094 -0.0895
 2741SOL    HW219860   3.215   1.294   5.770  0.8541 -0.4027 -1.6890
 2742SOL     OW19861   3.569   3.909   3.818 -0.1791 -0.3152  0.0231
 2742SOL    HW119862   3.506   3.945   3.754  0.5293  2.3786  0.8136
 2742SOL    HW219863   3.519   3.862   3.884  0.0834  1.5259  1.5226
 2743SOL     OW19864   2.482   3.109   1.793 -0.0316 -0.2594 -0.0156
 2743SOL    HW119865   2.445   3.197   1.790  0.4029 -0.1582 -1.9739
 2743SOL    HW219866   2.577   3.124   1.792 -0.0757  0.0718  0.4745
 2744SOL     OW19867   2.066   3.378   9.867  0.2698  0.3406 -0.1393
 2744SOL    HW119868   2.118   3.299   9.876  2.2254  1.5582 -0.8199
 2744SOL    HW219869   2.093   3.413   9.782 -0.0061  0.6160 -0.1154
 2745SOL     OW19870   3.775   4.478   5.116 -0.3145  0.4403 -0.1215
 2745SOL    HW119871   3.772   4.437   5.030  0.5210 -2.2525  1.1576
 2745SOL    HW219872   3.815   4.410   5.169 -2.7821 -0.2131  0.8798
 2746SOL     OW19873   1.617   0.237   7.831  0.7633 -0.4183  0.0727
 2746SOL    HW119874   1.589   0.295   7.760  1.1315  1.7779  1.7170
 2746SOL    HW219875   1.670   0.296   7.886  0.9375 -0.5962  0.0948
 2747SOL     OW19876   4.423   3.669   0.755 -0.4664 -0.0127  0.1113
 2747SOL    HW119877   4.347   3.613   0.743 -1.2212  1.3996 -1.7142
 2747SOL    HW219878   4.407   3.741   0.694  1.7482  0.2232 -0.2072
 2748SOL     OW19879   2.167   4.305   4.981  0.3761  0.0450 -0.5715
 2748SOL    HW119880   2.261   4.314   4.997  0.5750 -1.0203 -1.2026
 2748SOL    HW219881   2.138   4.396   4.985  1.1279  0.3351 -2.0486
 2749SOL     OW19882   4.026   2.432   7.161 -0.3801  0.5679  0.4321
 2749SOL    HW119883   4.043   2.365   7.228 -1.8036 -0.1985  0.0234
 2749SOL    HW219884   4.074   2.409   7.082  0.9315  2.9762  0.5494
 2750SOL     OW19885   4.060   3.573  13.062  0.4717 -0.1719  0.8149
 2750SOL    HW119886   4.112   3.639  13.108 -0.3101  0.6522  0.5093
 2750SOL    HW219887   4.013   3.628  12.999 -0.4568 -0.8309  0.9268
 2751SOL     OW19888   3.812   2.520   1.653 -0.2484  0.0473  0.1056
 2751SOL    HW119889   3.755   2.443   1.653  1.2081 -1.0232  0.5306
 2751SOL    HW219890   3.859   2.520   1.736 -0.8137 -1.3847  0.4291
 2752SOL     OW19891   4.001   1.077   7.465 -0.0693  0.0053  0.4063
 2752SOL    HW119892   3.921   1.081   7.517 -1.6094  0.2466 -1.9942
 2752SOL    HW219893   4.062   1.100   7.535 -0.5250 -0.5790  1.0045
 2753SOL     OW19894   3.217   2.600   7.891 -0.1093 -0.2880 -0.1829
 2753SOL    HW119895   3.195   2.510   7.916  1.8692 -1.3741 -2.3065
 2753SOL    HW219896   3.155   2.609   7.819  0.5461 -1.9023 -0.9536
 2754SOL     OW19897   3.516   2.085   5.959 -0.0133 -0.2679  0.3363
 2754SOL    HW119898   3.507   2.035   6.040  1.2077  1.6612  1.6332
 2754SOL    HW219899   3.430   2.075   5.916 -0.4909 -0.3757  1.3226
 2755SOL     OW19900   3.479   3.841  14.502 -0.7279  0.0174 -0.4274
 2755SOL    HW119901   3.502   3.886  14.420  0.8363 -0.3443 -0.1839
 2755SOL    HW219902   3.508   3.752  14.484  2.7021  0.8645  0.7745
 2756SOL     OW19903   1.642   1.281  11.340  0.2187 -0.0585  0.8013
 2756SOL    HW119904   1.642   1.308  11.432  2.7904 -1.6050  1.2596
 2756SOL    HW219905   1.646   1.367  11.298  1.6432 -0.1779  0.7028
 2757SOL     OW19906   0.846   0.708   0.631  0.1404  0.4261  0.2865
 2757SOL    HW119907   0.810   0.790   0.663 -0.0667  1.1763 -1.8692
 2757SOL    HW219908   0.759   0.669   0.621  0.4205  0.2373 -1.4059
 2758SOL     OW19909   0.026   4.092  17.101  0.0288 -0.4406  0.2222
 2758SOL    HW119910   4.683   4.077  17.151  0.9520 -2.4770  1.0569
 2758SOL    HW219911   0.032   4.187  17.086  1.4586 -0.6964 -0.8221
 2759SOL     OW19912   2.437   0.086  13.184 -0.1555  0.2886  0.2925
 2759SOL    HW119913   2.350   0.048  13.182 -0.3122  0.5280  2.8730
 2759SOL    HW219914   2.483   0.064  13.265 -0.8269  0.3940  0.6958
 2760SOL     OW19915   1.874   3.665  14.671  1.0205 -1.0245  0.0172
 2760SOL    HW119916   1.959   3.664  14.627  0.3193 -0.9423 -1.3289
 2760SOL    HW219917   1.904   3.698  14.756  0.2696  1.3545 -0.6668
 2761SOL     OW19918   0.673   1.847   4.948 -0.4698 -0.9007 -0.0257
 2761SOL    HW119919   0.617   1.863   4.872 -2.6284 -1.2918  1.4630
 2761SOL    HW219920   0.685   1.938   4.976  2.5922 -1.0630 -0.8882
 2762SOL     OW19921   1.358   3.754   6.840 -0.5817  0.3433 -0.1626
 2762SOL    HW119922   1.354   3.849   6.839 -0.7391  0.3379  0.5437
 2762SOL    HW219923   1.264   3.738   6.834 -0.6601  0.1180  1.7009
 2763SOL     OW19924   1.272   0.294   9.817  0.1626  0.4724 -0.3158
 2763SOL    HW119925   1.339   0.361   9.803  1.6738 -1.4742 -2.4371
 2763SOL    HW219926   1.234   0.300   9.729  1.1119  0.8991 -0.7074
 2764SOL     OW19927   0.371   1.431  15.265 -0.1108  0.6175 -0.1635
 2764SOL    HW119928   0.356   1.343  15.298  4.3026  0.0187  0.2474
 2764SOL    HW219929   0.449   1.459  15.313 -1.1300  0.6831  1.4579
 2765SOL     OW19930   1.381   0.262   7.464 -0.0559  0.4356  0.2522
 2765SOL    HW119931   1.379   0.179   7.416  1.6853  0.2396  0.5112
 2765SOL    HW219932   1.321   0.316   7.413 -2.4247  1.2293  3.8573
 2766SOL     OW19933   1.784   4.278   5.357 -0.2288  0.2912  0.0659
 2766SOL    HW119934   1.862   4.238   5.396 -1.6204 -1.1442  1.3375
 2766SOL    HW219935   1.763   4.330   5.434 -1.2058  0.4259 -0.2973
 2767SOL     OW19936   3.736   0.462   2.499  0.1610 -0.5531  0.3805
 2767SOL    HW119937   3.793   0.496   2.569  2.7115 -1.2143 -1.3782
 2767SOL    HW219938   3.648   0.494   2.516  0.5719 -0.0935  1.6481
 2768SOL     OW19939   3.638   3.728  10.710 -0.1794  0.2568  0.4529
 2768SOL    HW119940   3.641   3.729  10.614 -2.0475 -2.3188  0.3711
 2768SOL    HW219941   3.585   3.805  10.730 -0.5270  0.8060 -2.5197
 2769SOL     OW19942   3.188   4.640   6.087  0.2139 -0.0779  0.3885
 2769SOL    HW119943   3.206   4.730   6.061 -1.4528  0.2632  0.4026
 2769SOL    HW219944   3.240   4.619   6.165 -0.1474 -0.7954  0.4305
 2770SOL     OW19945   4.033   1.717   7.364 -0.4276 -0.4239 -0.2547
 2770SOL    HW119946   4.008   1.741   7.453  2.0252  1.9096 -0.1825
 2770SOL    HW219947   4.127   1.698   7.371  0.3074  2.5382 -1.9159
 2771SOL     OW19948   1.161   0.658   7.327  0.1433  0.4582 -0.1539
 2771SOL    HW119949   1.098   0.720   7.362  1.0112  0.4903  1.3496
 2771SOL    HW219950   1.241   0.692   7.367 -0.2072  4.1998 -2.6459
 2772SOL     OW19951   0.168   2.273   2.281  0.0548  0.4714  0.4874
 2772SOL    HW119952   0.234   2.323   2.329  0.6521 -0.8605  1.0568
 2772SOL    HW219953   0.227   2.201   2.255 -0.0518 -0.2230  2.1970
 2773SOL     OW19954   4.504   0.494   8.756  0.4116  0.4804 -0.8893
 2773SOL    HW119955   4.577   0.460   8.703  1.3540 -0.1842  0.8603
 2773SOL    HW219956   4.441   0.422   8.744  0.5304  0.1395  0.6183
 2774SOL     OW19957   3.755   1.916   7.976 -0.2348 -0.7004 -0.0200
 2774SOL    HW119958   3.688   1.928   8.043 -0.8717 -1.2134 -0.5691
 2774SOL    HW219959   3.804   1.999   7.974  0.4645 -1.1038  0.3680
 2775SOL     OW19960   2.896   3.540   5.291 -0.6400 -0.4903  0.2910
 2775SOL    HW119961   2.926   3.496   5.212  0.6874  0.0188  0.5109
 2775SOL    HW219962   2.930   3.479   5.357  1.0595 -1.3552 -1.3889
 2776SOL     OW19963   1.505   3.347  13.856 -0.3114  0.9103  0.1441
 2776SOL    HW119964   1.415   3.359  13.828 -0.5869 -0.0159  0.6226
 2776SOL    HW219965   1.500   3.398  13.937  0.7646 -1.7386  1.8814
 2777SOL     OW19966   1.944   1.314   9.672  0.0600  0.1782  0.1717
 2777SOL    HW119967   2.003   1.311   9.746 -0.9142  1.4209  1.0009
 2777SOL    HW219968   1.872   1.363   9.713 -0.3813 -1.2484  1.1036
 2778SOL     OW19969   1.171   3.717  16.860 -0.2260 -0.0809  0.0422
 2778SOL    HW119970   1.184   3.623  16.874 -0.5387 -0.0023  0.8634
 2778SOL    HW219971   1.078   3.727  16.880  0.2209  0.3093  1.8982
 2779SOL     OW19972   1.966   2.394   9.515  0.0615  0.5762 -0.2623
 2779SOL    HW119973   1.970   2.445   9.596  1.3520  1.7246 -1.0571
 2779SOL    HW219974   1.981   2.458   9.446 -0.3006  0.5085 -0.4016
 2780SOL     OW19975   0.227   0.701   4.836 -0.1085  0.0853  0.2510
 2780SOL    HW119976   0.214   0.768   4.770  0.4446 -1.5602 -1.5335
 2780SOL    HW219977   0.184   0.740   4.912 -0.6360  0.9497 -0.4956
 2781SOL     OW19978   1.093   0.442   8.984  0.7270 -0.0033 -0.3441
 2781SOL    HW119979   1.014   0.429   9.036  0.8644 -1.0898 -0.4049
 2781SOL    HW219980   1.087   0.535   8.960 -1.8310  0.2556  1.3533
 2782SOL     OW19981   4.078   0.024   8.434 -0.3292 -0.0581 -0.1749
 2782SOL    HW119982   4.110   4.688   8.381  2.1288  0.2146  0.9342
 2782SOL    HW219983   4.108   4.734   8.521  0.2624 -0.9386 -0.6592
 2783SOL     OW19984   3.175   3.698   2.251 -0.2414  0.2834  0.4192
 2783SOL    HW119985   3.156   3.623   2.195 -2.5833  2.3202 -1.5404
 2783SOL    HW219986   3.100   3.701   2.311 -1.4590  0.1383 -1.0818
 2784SOL     OW19987   1.832   4.568   3.417 -0.2708 -0.4048 -0.6571
 2784SOL    HW119988   1.778   4.490   3.411  1.5585 -1.7934  0.9525
 2784SOL    HW219989   1.757   4.626   3.433  0.1747 -0.4357  1.5624
 2785SOL     OW19990   4.281   2.714   5.966 -0.1948 -0.1103 -0.2456
 2785SOL    HW119991   4.195   2.684   5.937 -0.7226 -0.4332  1.6460
 2785SOL    HW219992   4.341   2.649   5.932  1.1387  0.4502  1.0430
 2786SOL     OW19993   3.956   2.149  14.634 -0.0314  0.2763 -0.1080
 2786SOL    HW119994   3.877   2.187  14.596  0.3505  1.5543  0.3901
 2786SOL    HW219995   3.954   2.063  14.592 -0.3381 -0.6194  1.7784
 2787SOL     OW19996   3.940   0.963  13.847  0.2206  0.0977  0.0247
 2787SOL    HW119997   4.016   1.018  13.829 -0.3110  0.7265 -0.3053
 2787SOL    HW219998   3.966   0.877  13.814  1.4918  0.7455 -0.6561
 2788SOL     OW19999   1.838   1.235   5.238 -0.1171 -0.6791 -0.3114
 2788SOL    HW120000   1.857   1.141   5.235 -1.8543 -1.0961  1.8203
 2788SOL    HW220001   1.757   1.241   5.187 -2.2266 -1.4453  2.9513
 2789SOL     OW20002   1.799   2.586   4.740 -0.4029  0.3278  0.2402
 2789SOL    HW120003   1.883   2.622   4.770  0.4910 -0.2336 -1.6282
 2789SOL    HW220004   1.830   2.570   4.651 -0.6930 -1.1204  0.3897
 2790SOL     OW20005   0.829   2.662   2.463 -0.4308 -0.2284  0.4625
 2790SOL    HW120006   0.900   2.707   2.416 -1.2009  2.1053  1.5009
 2790SOL    HW220007   0.838   2.693   2.553 -0.1482 -0.7141  0.5994
 2791SOL     OW20008   0.307   3.435   1.959  0.1827 -0.5175 -0.0083
 2791SOL    HW120009   0.228   3.436   1.904 -0.1999 -0.2116  0.5527
 2791SOL    HW220010   0.285   3.517   2.002  1.0156  0.2253 -0.9891
 2792SOL     OW20011   0.448   3.553   5.920  0.5424 -0.2216 -0.1757
 2792SOL    HW120012   0.388   3.490   5.961 -2.3707  1.6372 -1.5610
 2792SOL    HW220013   0.431   3.626   5.979 -1.0096  0.4865 -1.4809
 2793SOL     OW20014   2.208   4.544   3.330 -0.1539 -0.3283 -0.6138
 2793SOL    HW120015   2.145   4.615   3.315  3.0010  2.5201 -0.4714
 2793SOL    HW220016   2.291   4.583   3.301 -0.0344  0.7031  1.1392
 2794SOL     OW20017   0.856   4.217  15.760  0.4541 -0.3345 -0.1291
 2794SOL    HW120018   0.786   4.155  15.783 -0.7012  1.5799  1.5262
 2794SOL    HW220019   0.830   4.297  15.805  0.7070  0.0883 -0.7437
 2795SOL     OW20020   2.371   3.589   9.793 -0.0302 -0.0356 -0.2713
 2795SOL    HW120021   2.380   3.570   9.886  0.6808 -1.1888 -0.5776
 2795SOL    HW220022   2.333   3.505   9.767  0.1711 -0.8486  2.1037
 2796SOL     OW20023   0.685   2.250  10.521 -0.2312  0.4003 -0.2090
 2796SOL    HW120024   0.706   2.192  10.448  2.4073  0.6874  0.2932
 2796SOL    HW220025   0.728   2.202  10.592 -0.2200  1.3945  0.4668
 2797SOL     OW20026   0.038   4.246   2.495 -0.2424  0.0158  0.1577
 2797SOL    HW120027   4.695   4.270   2.449 -1.0984 -1.2969  0.9341
 2797SOL    HW220028   0.089   4.326   2.487  2.4690 -1.7125  0.3604
 2798SOL     OW20029   3.148   3.348  11.300 -0.0225 -0.3479 -0.0789
 2798SOL    HW120030   3.200   3.399  11.363  0.1855  0.2794 -0.7576
 2798SOL    HW220031   3.114   3.403  11.230  0.9008  1.4287  0.8702
 2799SOL     OW20032   3.655   0.268  17.384 -0.2889  0.5478  0.9862
 2799SOL    HW120033   3.704   0.246  17.305 -0.7775  0.8111  0.6067
 2799SOL    HW220034   3.595   0.194  17.385 -0.8168  0.9665  0.4414
 2800SOL     OW20035   1.169   4.267   8.735  0.7789 -0.0695  0.1357
 2800SOL    HW120036   1.238   4.333   8.742  0.2317  0.6264 -0.9714
 2800SOL    HW220037   1.211   4.192   8.777  0.5642 -1.4945 -2.1804
 2801SOL     OW20038   1.814   0.656   4.235  0.1040 -0.1779 -0.3619
 2801SOL    HW120039   1.880   0.672   4.302  0.1500 -2.4052  0.1249
 2801SOL    HW220040   1.744   0.714   4.265  1.1047 -0.9246  3.4279
 2802SOL     OW20041   2.120   1.213   4.972 -0.0192 -0.7599  0.0098
 2802SOL    HW120042   2.185   1.193   5.039 -0.0197 -0.6698  0.0377
 2802SOL    HW220043   2.087   1.126   4.950  0.6386 -0.8608 -0.5617
 2803SOL     OW20044   1.263   2.495   5.242 -1.1156  0.2857 -0.1866
 2803SOL    HW120045   1.248   2.423   5.303 -0.3782  0.3736  0.0967
 2803SOL    HW220046   1.227   2.453   5.163  0.3102  0.8502 -1.1267
 2804SOL     OW20047   3.393   1.596   6.505  0.4524 -0.1229 -0.0645
 2804SOL    HW120048   3.418   1.599   6.598 -1.1420  0.7921  0.3301
 2804SOL    HW220049   3.371   1.686   6.483 -0.3698  0.2866  2.4459
 2805SOL     OW20050   3.255   3.959   1.140  0.2897  0.1675  0.2015
 2805SOL    HW120051   3.317   4.008   1.193  1.3675 -2.3019  1.2533
 2805SOL    HW220052   3.311   3.921   1.072  1.8497  0.7997  1.1403
 2806SOL     OW20053   2.160   0.735   9.671 -0.0032 -0.0353  0.2106
 2806SOL    HW120054   2.140   0.683   9.749  1.9308 -0.8575  0.1584
 2806SOL    HW220055   2.141   0.821   9.708 -1.5613 -0.2345 -0.1259
 2807SOL     OW20056   3.949   3.146  14.859 -0.1815 -0.1051 -0.1928
 2807SOL    HW120057   4.030   3.196  14.851  0.3184 -1.2928 -2.3963
 2807SOL    HW220058   3.875   3.203  14.837  0.9491  0.7365 -1.7665
 2808SOL     OW20059   0.928   1.785   7.517  0.1913 -0.7105 -0.4733
 2808SOL    HW120060   0.894   1.833   7.593 -1.2956 -3.8643  0.8237
 2808SOL    HW220061   1.005   1.841   7.508  0.2192 -0.2120  2.7004
 2809SOL     OW20062   2.962   4.104   6.539 -0.2042 -0.1796  0.0411
 2809SOL    HW120063   2.883   4.134   6.493  0.2783 -1.6412 -1.7333
 2809SOL    HW220064   2.938   4.052   6.616 -0.8024 -0.2014 -0.1545
 2810SOL     OW20065   3.371   3.979  17.494 -0.2958  0.9108 -0.2393
 2810SOL    HW120066   3.334   4.051  17.444 -0.3904  1.6732  0.9467
 2810SOL    HW220067   3.305   3.915  17.466 -0.5191  0.7475  0.6692
 2811SOL     OW20068   4.643   2.062   8.810  0.0184 -0.0973  0.1213
 2811SOL    HW120069   4.653   1.968   8.824  1.9194  0.1244  0.1488
 2811SOL    HW220070   4.713   2.098   8.864 -0.5687  0.1408  0.7231
 2812SOL     OW20071   1.199   4.635   1.712 -0.2571  0.0903 -0.7520
 2812SOL    HW120072   1.180   4.706   1.651 -0.7722  1.5390  1.1010
 2812SOL    HW220073   1.118   4.586   1.697 -1.0260  0.7203  1.4557
 2813SOL     OW20074   3.470   1.641   8.516  0.4985 -0.0619 -0.5819
 2813SOL    HW120075   3.468   1.737   8.520  0.8220  0.0062 -1.7829
 2813SOL    HW220076   3.428   1.604   8.593  1.2430  1.6895  0.6460
 2814SOL     OW20077   1.631   0.047   2.406 -0.1759 -0.3051  0.2560
 2814SOL    HW120078   1.691   0.037   2.480 -2.3309 -0.7062  1.9727
 2814SOL    HW220079   1.693   0.068   2.337 -0.9850  0.7289 -0.1546
 2815SOL     OW20080   3.319   0.560   4.332  0.1166 -0.0557  0.3368
 2815SOL    HW120081   3.392   0.519   4.286  1.3240  1.2864  1.0471
 2815SOL    HW220082   3.360   0.643   4.356  0.1546 -0.6667  2.3283
 2816SOL     OW20083   2.396   2.831   6.345  0.5223  0.3428 -0.6634
 2816SOL    HW120084   2.320   2.773   6.350  0.5587  0.4987  1.6557
 2816SOL    HW220085   2.457   2.782   6.401  0.7489  0.5363 -0.7403
 2817SOL     OW20086   0.932   3.909   6.724 -0.0293 -0.0963  0.0523
 2817SOL    HW120087   0.908   3.985   6.778  1.3947 -0.4967  1.2334
 2817SOL    HW220088   0.897   3.836   6.776  2.9845 -2.7296 -1.6703
 2818SOL     OW20089   3.252   0.623   6.930 -0.4440 -0.1640 -0.5650
 2818SOL    HW120090   3.165   0.614   6.891 -1.1790  0.1242  1.0106
 2818SOL    HW220091   3.254   0.718   6.942  1.1376 -0.1131 -1.2515
 2819SOL     OW20092   4.158   2.679   7.084  0.1429 -0.3433  0.4924
 2819SOL    HW120093   4.192   2.608   7.029 -0.5350  1.0235 -1.7055
 2819SOL    HW220094   4.075   2.646   7.119 -1.0725 -0.8269 -2.7670
 2820SOL     OW20095   0.442   2.433   3.299  0.7061 -0.4982 -0.0158
 2820SOL    HW120096   0.428   2.450   3.392 -1.0573  1.0027 -0.5487
 2820SOL    HW220097   0.386   2.360   3.273 -0.1402 -0.2656  1.1917
 2821SOL     OW20098   2.964   2.040   6.077 -0.0653  0.2637  0.5481
 2821SOL    HW120099   2.925   2.003   5.998  2.0605  2.5092 -1.5223
 2821SOL    HW220100   2.934   2.130   6.082 -2.5494 -0.6921  3.3231
 2822SOL     OW20101   3.306   3.291   1.484 -0.1177 -0.1448  0.2721
 2822SOL    HW120102   3.236   3.311   1.421 -2.6233 -2.1319  2.4427
 2822SOL    HW220103   3.282   3.340   1.562  3.8440 -0.5393  1.7000
 2823SOL     OW20104   0.730   1.387   4.073 -0.1653 -0.3608 -0.5330
 2823SOL    HW120105   0.773   1.468   4.101  0.6447 -0.9774  0.0060
 2823SOL    HW220106   0.645   1.394   4.116  0.6004 -2.5266  1.2999
 2824SOL     OW20107   3.595   3.092   2.177 -0.1377  0.2392  0.1936
 2824SOL    HW120108   3.579   3.000   2.197  2.7530  0.0984  1.8623
 2824SOL    HW220109   3.618   3.115   2.267  3.2916 -1.2741 -0.2924
 2825SOL     OW20110   2.066   0.472   8.809 -0.7782 -0.0957  0.1378
 2825SOL    HW120111   2.154   0.496   8.838 -1.0188  0.5732  0.3153
 2825SOL    HW220112   2.033   0.408   8.872  0.2899 -1.1481 -0.3693
 2826SOL     OW20113   1.998   2.288   8.647 -0.0724  0.0140 -0.0594
 2826SOL    HW120114   1.904   2.308   8.651  0.1157  0.8234  0.3727
 2826SOL    HW220115   2.047   2.370   8.641 -0.1645  0.1861  1.4237
 2827SOL     OW20116   4.407   4.556   8.532  0.9589  0.2106  0.2140
 2827SOL    HW120117   4.312   4.542   8.525  0.8274 -0.2459  2.7753
 2827SOL    HW220118   4.438   4.488   8.592  1.3697 -1.4817 -1.9400
 2828SOL     OW20119   2.870   1.847   7.408  0.5234 -0.2963  0.0423
 2828SOL    HW120120   2.966   1.847   7.402  0.6936 -0.7656  2.8728
 2828SOL    HW220121   2.853   1.903   7.484 -1.2795  0.3043 -0.8078
 2829SOL     OW20122   3.716   1.368  16.372 -0.1075 -0.0889 -0.3949
 2829SOL    HW120123   3.739   1.282  16.409  0.4761 -1.2660 -3.5066
 2829SOL    HW220124   3.629   1.379  16.411  0.0509 -1.1057  0.2456
 2830SOL     OW20125   2.786   4.662  13.593 -0.1616 -0.1810  0.0907
 2830SOL    HW120126   2.778   4.579  13.547 -0.8568  0.2787 -0.6199
 2830SOL    HW220127   2.742   4.631  13.673  0.5631  0.1645  0.6219
 2831SOL     OW20128   1.643   1.570  11.275  0.1571 -0.9267  0.1930
 2831SOL    HW120129   1.705   1.612  11.334  0.8776 -0.6255 -0.7738
 2831SOL    HW220130   1.682   1.602  11.193  1.4615 -0.6122  0.9446
 2832SOL     OW20131   3.062   4.166   4.391 -0.4249 -0.6650  0.1761
 2832SOL    HW120132   3.023   4.134   4.309  0.2829 -4.0379  1.1224
 2832SOL    HW220133   2.993   4.162   4.456 -2.2365  2.7608 -1.5799
 2833SOL     OW20134   1.427   3.225   1.900  0.0110 -0.4872 -0.1506
 2833SOL    HW120135   1.411   3.145   1.850 -0.0525  0.7645 -2.1622
 2833SOL    HW220136   1.375   3.216   1.980  1.5601 -1.0967  0.7786
 2834SOL     OW20137   2.832   4.677   0.936  0.0330  0.0344  0.0341
 2834SOL    HW120138   2.899   4.691   0.870  0.3517  2.5191  0.8723
 2834SOL    HW220139   2.784   0.023   0.939 -0.5637 -0.3565  1.3165
 2835SOL     OW20140   4.046   1.784   8.467  0.4659  0.1463  0.7787
 2835SOL    HW120141   4.118   1.733   8.505  1.0232  2.0520  2.3102
 2835SOL    HW220142   4.090   1.802   8.384  0.6969 -0.7186  0.7151
 2836SOL     OW20143   1.856   3.116   9.245 -0.4893 -0.1981 -0.0169
 2836SOL    HW120144   1.848   3.210   9.229  0.8523 -0.1949 -0.6813
 2836SOL    HW220145   1.836   3.080   9.158 -2.0510  1.5805 -0.3952
 2837SOL     OW20146   4.606   4.734   2.760 -0.5697 -0.1918  0.1672
 2837SOL    HW120147   4.621   0.084   2.797  1.0888 -0.3203 -0.2050
 2837SOL    HW220148   4.511   4.733   2.757 -0.5975  1.6371  0.1621
 2838SOL     OW20149   4.425   3.301   9.465  0.4008 -0.6582  0.1534
 2838SOL    HW120150   4.413   3.276   9.374  0.4131 -2.3247  0.6097
 2838SOL    HW220151   4.488   3.237   9.498  1.6866 -0.4202 -1.8114
 2839SOL     OW20152   2.333   3.790  10.277  0.5237 -0.3767 -0.0633
 2839SOL    HW120153   2.363   3.709  10.236  0.1889 -0.6889  0.3156
 2839SOL    HW220154   2.238   3.784  10.283  0.3944  1.1669 -0.4731
 2840SOL     OW20155   3.072   0.793   5.061  0.5355  0.7951  0.3568
 2840SOL    HW120156   2.988   0.770   5.020  0.4054 -2.5316  2.4254
 2840SOL    HW220157   3.096   0.719   5.118 -0.3903  1.1497  1.1987
 2841SOL     OW20158   1.440   0.897   1.217 -0.0442  0.1555 -0.1136
 2841SOL    HW120159   1.399   0.963   1.272  0.2365  1.5754 -1.6208
 2841SOL    HW220160   1.393   0.816   1.238  0.9550 -0.7390 -1.3145
 2842SOL     OW20161   2.688   1.241   9.095  0.6546  0.3054  0.2599
 2842SOL    HW120162   2.603   1.251   9.138  0.7381  0.5687  0.3664
 2842SOL    HW220163   2.728   1.184   9.161 -0.9206 -0.5094  0.4971
 2843SOL     OW20164   2.484   3.949  10.087  0.2544 -0.2139 -0.4024
 2843SOL    HW120165   2.427   3.916  10.017 -0.0108 -0.7155  0.0442
 2843SOL    HW220166   2.445   3.900  10.159  1.3669 -0.9832 -0.3231
 2844SOL     OW20167   2.402   3.087   6.950 -1.0500  0.2691 -0.5720
 2844SOL    HW120168   2.326   3.036   6.979 -0.2616 -0.7740 -0.3285
 2844SOL    HW220169   2.445   3.128   7.025 -1.5577  2.3641 -1.4340
 2845SOL     OW20170   2.460   3.017   3.415 -0.1666 -0.5233  0.2619
 2845SOL    HW120171   2.471   3.089   3.353 -0.7808 -0.5153  0.1644
 2845SOL    HW220172   2.525   3.037   3.482  0.9439  1.8389 -1.5316
 2846SOL     OW20173   1.435   2.003  14.838 -0.2920  0.4983 -0.4632
 2846SOL    HW120174   1.441   2.091  14.801 -0.3411  0.3389 -0.8532
 2846SOL    HW220175   1.481   2.021  14.920 -0.1816  1.3330 -0.7178
 2847SOL     OW20176   3.843   3.147  15.551 -0.2584 -0.2926  0.3927
 2847SOL    HW120177   3.921   3.185  15.593 -0.1895 -0.9804  0.8847
 2847SOL    HW220178   3.822   3.077  15.613 -0.0459  0.2493  1.0861
 2848SOL     OW20179   4.219   0.748  11.186 -0.8172 -0.4947  0.0936
 2848SOL    HW120180   4.269   0.714  11.259 -1.4467  0.5623  1.0249
 2848SOL    HW220181   4.132   0.732  11.222 -1.0087  0.3055  0.0021
 2849SOL     OW20182   4.595   2.993   7.634 -0.2256  0.4736  0.1183
 2849SOL    HW120183   4.526   3.049   7.670  0.1000 -1.3691  3.7020
 2849SOL    HW220184   4.666   3.057   7.638  0.3620 -0.0684 -1.5616
 2850SOL     OW20185   3.361   1.965   4.661  0.5465 -0.0287  0.0083
 2850SOL    HW120186   3.426   2.025   4.700  0.0547  0.2353  0.4345
 2850SOL    HW220187   3.393   1.881   4.693 -0.2418 -0.5520 -0.5921
 2851SOL     OW20188   2.847   1.311  14.712 -0.1196 -0.0196 -0.4698
 2851SOL    HW120189   2.818   1.384  14.657  1.1010  0.8285  0.0045
 2851SOL    HW220190   2.786   1.325  14.784  0.2788  0.0517 -0.1433
 2852SOL     OW20191   2.796   3.481   4.308 -0.3570 -0.4435 -0.4723
 2852SOL    HW120192   2.798   3.450   4.399  0.1212 -2.2496 -1.0953
 2852SOL    HW220193   2.724   3.543   4.301 -0.7057 -0.9825 -1.6322
 2853SOL     OW20194   1.064   0.320   5.590 -0.5917  0.2238  0.0807
 2853SOL    HW120195   0.979   0.331   5.547 -0.2854  1.5748 -0.1830
 2853SOL    HW220196   1.049   0.346   5.681 -5.3611  0.2440 -0.7203
 2854SOL     OW20197   4.090   2.314   4.254 -0.2998  0.1964 -0.0917
 2854SOL    HW120198   4.145   2.392   4.265 -2.2166  0.8346  4.7038
 2854SOL    HW220199   4.106   2.313   4.159 -1.0750  2.5632 -0.2478
 2855SOL     OW20200   0.301   4.266   7.295  0.6559 -0.1139  0.4427
 2855SOL    HW120201   0.296   4.278   7.200  2.2925 -0.1115  0.3535
 2855SOL    HW220202   0.222   4.214   7.307  0.2476  0.3683 -0.1623
 2856SOL     OW20203   1.178   3.148   9.285  0.1022 -0.9802  0.6718
 2856SOL    HW120204   1.166   3.060   9.248  0.0819 -0.1670 -1.2811
 2856SOL    HW220205   1.103   3.197   9.249  2.3006  1.9413  0.1002
 2857SOL     OW20206   2.726   3.054   1.191 -0.5058  0.1996  0.4859
 2857SOL    HW120207   2.674   2.994   1.245  0.0550 -0.8536 -0.1422
 2857SOL    HW220208   2.815   3.035   1.222  0.1738  1.7528 -0.5207
 2858SOL     OW20209   2.636   4.105   4.217  0.7618 -0.0219  0.6578
 2858SOL    HW120210   2.658   4.049   4.142  0.6678 -0.0847  0.6766
 2858SOL    HW220211   2.641   4.195   4.186 -0.2515 -1.0390 -2.4236
 2859SOL     OW20212   1.713   3.525   2.727 -0.1182  0.0082 -0.0928
 2859SOL    HW120213   1.639   3.547   2.670 -0.3386 -0.5394 -0.0190
 2859SOL    HW220214   1.783   3.491   2.672 -1.3441 -1.9234 -0.4804
 2860SOL     OW20215   0.571   2.634   8.353  1.0121  0.6828 -0.7498
 2860SOL    HW120216   0.488   2.651   8.308  1.5151  2.4861 -0.9816
 2860SOL    HW220217   0.556   2.543   8.377  0.0129  1.5436  1.8145
 2861SOL     OW20218   1.748   2.930  15.711  0.0911  0.1534  0.0535
 2861SOL    HW120219   1.802   3.008  15.726  1.7333 -0.8968 -0.3909
 2861SOL    HW220220   1.660   2.958  15.735 -0.1820 -0.6805  0.0323
 2862SOL     OW20221   1.048   3.025   4.194  0.1886 -0.3210  0.4108
 2862SOL    HW120222   1.128   3.012   4.245  0.2160 -3.1789 -0.3395
 2862SOL    HW220223   1.077   3.009   4.104  0.6614 -1.6417  0.8101
 2863SOL     OW20224   1.467   0.085  12.184 -0.9136  0.2831 -0.6781
 2863SOL    HW120225   1.471   0.134  12.266 -0.4546 -1.2880  0.2399
 2863SOL    HW220226   1.387   0.040  12.211 -0.2667  0.5115  1.5797
 2864SOL     OW20227   2.497   4.218   4.497 -1.1586 -0.1262  0.3595
 2864SOL    HW120228   2.531   4.296   4.540  1.2218 -0.5996 -0.6652
 2864SOL    HW220229   2.553   4.206   4.421  1.0157  1.1630  1.7594
 2865SOL     OW20230   2.259   2.935   3.081 -0.2884  0.1888  0.4445
 2865SOL    HW120231   2.314   2.857   3.074 -0.8526  0.1563 -3.2629
 2865SOL    HW220232   2.321   3.000   3.049 -0.7778 -0.8356 -2.5795
 2866SOL     OW20233   2.251   3.861   2.509  0.2616 -0.3156 -0.0809
 2866SOL    HW120234   2.252   3.783   2.454  3.6360 -0.7927  0.6657
 2866SOL    HW220235   2.296   3.916   2.445 -0.2821 -1.2466 -1.2601
 2867SOL     OW20236   0.132   2.239   3.581 -0.1721  0.1598 -0.0492
 2867SOL    HW120237   0.170   2.162   3.624  1.0680  0.2202 -1.0360
 2867SOL    HW220238   0.113   2.213   3.491  0.3129  2.0996 -0.7211
 2868SOL     OW20239   0.576   4.066   5.210 -0.5574 -0.1554 -0.5437
 2868SOL    HW120240   0.663   4.048   5.175  0.1473 -1.4251  1.8932
 2868SOL    HW220241   0.584   4.028   5.298  1.0184  0.8863 -0.2362
 2869SOL     OW20242   0.246   4.490   9.800  0.1520 -0.2710  0.1095
 2869SOL    HW120243   0.241   4.477   9.895  0.6273 -2.1673 -0.1098
 2869SOL    HW220244   0.274   4.581   9.794 -0.0113 -0.2020  0.3822
 2870SOL     OW20245   1.674   1.454  15.388 -0.0400  0.3778 -0.2356
 2870SOL    HW120246   1.623   1.374  15.381  0.4891 -0.0495  0.8820
 2870SOL    HW220247   1.728   1.438  15.465 -0.3203 -1.5351 -0.4463
 2871SOL     OW20248   1.392   0.192   2.327 -0.0927 -0.1574  0.0916
 2871SOL    HW120249   1.439   0.110   2.313  0.4337  0.6047 -2.4747
 2871SOL    HW220250   1.375   0.183   2.421 -2.6660 -3.0652 -0.6539
 2872SOL     OW20251   1.347   3.975   1.883 -0.1208  0.0973  0.1619
 2872SOL    HW120252   1.346   3.965   1.978  0.2704  0.5899  0.2197
 2872SOL    HW220253   1.281   4.042   1.864  0.7060  0.5716 -1.0616
 2873SOL     OW20254   1.043   1.076   2.584 -0.0787 -0.5038  0.0066
 2873SOL    HW120255   1.086   1.042   2.506  2.6986 -1.9122  2.1240
 2873SOL    HW220256   1.115   1.137   2.601 -0.9653  0.4887  0.1811
 2874SOL     OW20257   0.379   3.701   0.680 -0.2806 -1.0280  0.2166
 2874SOL    HW120258   0.369   3.630   0.744 -0.8439 -1.9057 -0.8428
 2874SOL    HW220259   0.339   3.667   0.600  2.4171 -1.8750 -0.8049
 2875SOL     OW20260   3.322   1.828   3.390  0.1716 -0.0687  0.0359
 2875SOL    HW120261   3.300   1.749   3.439 -0.9787 -0.3850 -0.9971
 2875SOL    HW220262   3.408   1.800   3.358  0.4327  0.9425 -0.1484
 2876SOL     OW20263   0.570   3.694   1.892 -0.2218  0.0870  0.0855
 2876SOL    HW120264   0.648   3.720   1.842  0.3286 -1.5416  0.0950
 2876SOL    HW220265   0.578   3.599   1.883 -0.4398  0.1592 -0.9041
 2877SOL     OW20266   0.962   3.516  13.586  0.1106  0.9383  0.0193
 2877SOL    HW120267   0.967   3.436  13.637  0.3947  1.8382  1.4111
 2877SOL    HW220268   0.894   3.490  13.525 -2.2357 -0.2988  3.1833
 2878SOL     OW20269   1.801   1.513  15.828  0.0276 -0.3115  0.1013
 2878SOL    HW120270   1.749   1.580  15.784 -2.0750 -1.0455  1.4536
 2878SOL    HW220271   1.844   1.473  15.753 -0.6667  1.8025 -1.4084
 2879SOL     OW20272   3.496   3.152   7.386 -0.5286 -0.0317 -0.8821
 2879SOL    HW120273   3.461   3.066   7.364  1.8096 -0.7830 -1.7566
 2879SOL    HW220274   3.441   3.171   7.462  1.5997 -0.1057  0.6879
 2880SOL     OW20275   1.719   3.599  16.424 -0.2018  0.2710 -0.2384
 2880SOL    HW120276   1.757   3.646  16.350  1.6488  1.0568  1.2087
 2880SOL    HW220277   1.699   3.677  16.477  0.8556  1.0265 -0.9484
 2881SOL     OW20278   1.775   0.951   0.939 -0.3459  0.0230 -0.0210
 2881SOL    HW120279   1.788   0.910   0.853 -0.9658 -1.3553  0.5328
 2881SOL    HW220280   1.866   0.972   0.959 -0.2849  0.2326 -0.5381
 2882SOL     OW20281   4.533   1.445  15.054  0.1881 -0.0936 -0.0577
 2882SOL    HW120282   4.466   1.380  15.033 -0.1466  0.8710 -1.9891
 2882SOL    HW220283   4.499   1.522  15.009  1.1697  1.2568  1.5431
 2883SOL     OW20284   4.491   0.107   1.541  0.7032  0.9610  0.2512
 2883SOL    HW120285   4.437   0.047   1.489  3.8764 -2.4430  0.8506
 2883SOL    HW220286   4.439   0.112   1.621 -3.3691 -1.0246 -2.2543
 2884SOL     OW20287   3.056   1.566   7.488 -0.3768  0.1897  0.1526
 2884SOL    HW120288   3.112   1.489   7.481  0.3452  0.8535 -1.3258
 2884SOL    HW220289   3.036   1.588   7.397 -0.8711  1.3406  0.5366
 2885SOL     OW20290   0.844   1.961   8.001 -0.4517  0.0119  0.2298
 2885SOL    HW120291   0.932   1.955   8.038 -0.4205 -0.9674 -0.0233
 2885SOL    HW220292   0.791   1.902   8.055  1.0147 -1.0271  0.5349
 2886SOL     OW20293   4.462   1.050   3.911  0.4601  0.2022 -0.2030
 2886SOL    HW120294   4.525   0.992   3.867  0.7884  0.9702 -0.7627
 2886SOL    HW220295   4.491   1.034   4.001  0.9565 -2.4890 -0.8211
 2887SOL     OW20296   3.809   2.244   2.932 -0.3975  0.2888 -0.0556
 2887SOL    HW120297   3.746   2.174   2.948  0.8939 -0.3291  2.3195
 2887SOL    HW220298   3.837   2.266   3.020 -1.1968 -0.0422  0.2836
 2888SOL     OW20299   4.189   0.784   7.363  0.7059  0.4391 -0.4952
 2888SOL    HW120300   4.096   0.791   7.387  0.2618 -0.6629 -1.8833
 2888SOL    HW220301   4.233   0.803   7.445 -0.4122  0.7715  0.0328
 2889SOL     OW20302   1.908   0.947  10.828 -0.4283  0.5751 -0.8981
 2889SOL    HW120303   1.841   0.903  10.777  0.9888  0.7033 -2.8741
 2889SOL    HW220304   1.947   1.007  10.764  0.4596 -0.8697 -1.7038
 2890SOL     OW20305   1.851   0.166   3.476 -0.5153 -0.1851  0.0859
 2890SOL    HW120306   1.897   0.094   3.432  0.1116  0.6709 -0.6695
 2890SOL    HW220307   1.914   0.197   3.541 -0.0967  0.1493 -0.4814
 2891SOL     OW20308   4.673   2.863  16.193 -0.1866 -0.0142  0.3421
 2891SOL    HW120309   4.705   2.785  16.239  2.9933  1.9281  1.3545
 2891SOL    HW220310   0.020   2.906  16.183  0.1176 -0.5477  0.6191
 2892SOL     OW20311   1.924   4.135   7.200  0.3031 -0.0262 -0.3899
 2892SOL    HW120312   1.983   4.072   7.159 -0.6026 -2.3516  1.8822
 2892SOL    HW220313   1.837   4.096   7.188 -0.2911  1.7339 -1.8468
 2893SOL     OW20314   0.996   1.811  11.961  0.4667  0.0219 -0.2919
 2893SOL    HW120315   0.908   1.792  11.994  0.8823  0.0424  0.8410
 2893SOL    HW220316   1.056   1.826  12.035  1.8592 -1.3650 -1.1432
 2894SOL     OW20317   0.337   2.079   4.718 -0.3210  0.3429  0.1858
 2894SOL    HW120318   0.306   2.142   4.784 -2.3884 -3.7099  3.1357
 2894SOL    HW220319   0.258   2.058   4.669 -0.0949  0.8174 -0.3831
 2895SOL     OW20320   0.668   3.730   8.011  0.4574 -0.0524  0.6543
 2895SOL    HW120321   0.689   3.784   7.935  0.9147 -1.2638 -0.0972
 2895SOL    HW220322   0.665   3.641   7.976  4.2738 -0.0936  0.4561
 2896SOL     OW20323   3.548   3.940   6.926 -0.4166  0.3448 -0.0024
 2896SOL    HW120324   3.484   3.974   6.863 -0.9541  0.9106  0.8522
 2896SOL    HW220325   3.631   3.949   6.880 -0.8163 -0.4186 -0.8541
 2897SOL     OW20326   1.447   0.660  10.727  0.2379  0.1496 -0.0250
 2897SOL    HW120327   1.402   0.604  10.790 -1.4558  2.2024  0.6231
 2897SOL    HW220328   1.464   0.601  10.654 -1.7789  0.1566 -0.5250
 2898SOL     OW20329   1.008   4.013   4.747 -0.0222  0.3389 -0.5375
 2898SOL    HW120330   1.049   3.944   4.695 -0.2322 -1.0621  1.1554
 2898SOL    HW220331   1.007   4.080   4.679 -0.9190  0.3582 -0.4960
 2899SOL     OW20332   2.831   3.730   8.081  0.0822  0.3759 -0.3052
 2899SOL    HW120333   2.823   3.638   8.104  0.8890 -0.2575 -2.5659
 2899SOL    HW220334   2.926   3.724   8.078 -0.0464 -0.7778 -2.1431
 2900SOL     OW20335   3.921   0.852  14.673  0.0399  0.3977  0.4191
 2900SOL    HW120336   4.011   0.823  14.659 -0.3625 -0.6283  0.0278
 2900SOL    HW220337   3.889   0.768  14.704  2.0362 -0.1969  0.8896
 2901SOL     OW20338   0.925   0.133   3.397 -0.0788  0.2355 -1.0181
 2901SOL    HW120339   1.009   0.108   3.435 -0.7348  0.8959  0.8935
 2901SOL    HW220340   0.878   0.051   3.411 -1.0493  0.7439 -1.3175
 2902SOL     OW20341   2.728   3.287   6.433 -0.4001 -0.2595 -0.5481
 2902SOL    HW120342   2.800   3.245   6.480  2.0967  1.8453 -2.4749
 2902SOL    HW220343   2.763   3.376   6.427  2.8911 -1.4723  0.8739
 2903SOL     OW20344   3.571   4.734   2.154  0.2628 -1.1163 -0.1185
 2903SOL    HW120345   3.660   4.699   2.143  1.4331  2.0460 -0.5662
 2903SOL    HW220346   3.578   0.092   2.152 -0.2176 -1.1127 -1.6414
 2904SOL     OW20347   1.669   4.024   5.287 -0.0297 -0.5420  0.1618
 2904SOL    HW120348   1.681   4.119   5.280  0.7317 -0.7138 -0.8504
 2904SOL    HW220349   1.755   4.002   5.322 -0.6640 -0.8113  1.5511
 2905SOL     OW20350   2.138   1.706   5.905 -0.2064  0.0432  0.0337
 2905SOL    HW120351   2.174   1.652   5.835  1.8479  1.3497  0.0830
 2905SOL    HW220352   2.222   1.739   5.937 -0.0811 -0.7384  0.4979
 2906SOL     OW20353   4.519   3.268  16.991 -0.1666 -0.1745  0.8936
 2906SOL    HW120354   4.594   3.268  16.931 -1.0651  0.2632 -0.2250
 2906SOL    HW220355   4.481   3.349  16.958 -0.9656 -1.8802 -2.3478
 2907SOL     OW20356   3.304   3.438  11.520 -0.1683 -0.1442  0.6298
 2907SOL    HW120357   3.298   3.382  11.597 -2.5113  0.1044  0.6382
 2907SOL    HW220358   3.326   3.525  11.554  4.4171 -1.8078  1.9398
 2908SOL     OW20359   2.271   4.275  13.052  0.4139 -0.9441  0.3785
 2908SOL    HW120360   2.255   4.185  13.081  0.3301 -0.5858  1.4681
 2908SOL    HW220361   2.359   4.287  13.090  0.1068  1.0047  0.4604
 2909SOL     OW20362   0.404   3.485   5.000 -0.4095  0.6291  0.6147
 2909SOL    HW120363   0.428   3.524   5.084  1.2110  1.6693 -0.3425
 2909SOL    HW220364   0.488   3.470   4.958 -0.6226 -2.2518  1.2229
 2910SOL     OW20365   1.174   4.487  10.425  1.0785 -0.2864 -0.2914
 2910SOL    HW120366   1.165   4.580  10.408 -1.8543 -0.6682 -0.7353
 2910SOL    HW220367   1.262   4.483  10.463  0.6288  0.8552  0.8477
 2911SOL     OW20368   2.951   2.692   4.428 -0.6525 -0.6472  0.2923
 2911SOL    HW120369   2.974   2.599   4.434  1.2395 -0.2654 -1.1398
 2911SOL    HW220370   2.921   2.680   4.338  2.4226 -1.6545 -0.5815
 2912SOL     OW20371   2.554   3.560   5.563 -0.7502  0.8223 -0.0427
 2912SOL    HW120372   2.504   3.478   5.569  1.4076 -0.4745  0.3876
 2912SOL    HW220373   2.571   3.553   5.469 -0.8460 -1.6589  0.1039
 2913SOL     OW20374   3.291   0.789   3.062 -0.4388  0.3203  0.2610
 2913SOL    HW120375   3.384   0.775   3.048 -0.4673 -0.1170  0.5093
 2913SOL    HW220376   3.249   0.805   2.977  0.4781 -2.3946 -0.6982
 2914SOL     OW20377   4.350   0.738   0.785 -0.3598 -0.1650 -0.2179
 2914SOL    HW120378   4.324   0.710   0.873  1.8578  1.2622  0.8769
 2914SOL    HW220379   4.277   0.797   0.767 -1.1277 -0.5397  1.7218
 2915SOL     OW20380   2.042   2.906   6.576  0.1629 -0.4206 -0.3680
 2915SOL    HW120381   2.047   2.816   6.609  1.6198 -1.1794 -2.7457
 2915SOL    HW220382   1.965   2.928   6.629  0.1274 -1.0893 -0.1433
 2916SOL     OW20383   2.359   2.371   7.842  0.0701  0.1883  0.0869
 2916SOL    HW120384   2.313   2.389   7.760 -0.4186  1.8100  0.7041
 2916SOL    HW220385   2.291   2.409   7.898 -1.7750  1.3551 -2.9693
 2917SOL     OW20386   4.088   4.290   4.648 -0.1121 -0.1361 -0.1733
 2917SOL    HW120387   4.158   4.287   4.714 -0.4693  0.5206  0.2376
 2917SOL    HW220388   4.010   4.279   4.703  1.4120 -1.1282  1.8107
 2918SOL     OW20389   1.531   3.650   4.814 -0.0444 -0.1351  0.6489
 2918SOL    HW120390   1.476   3.614   4.745 -0.1913  0.4233  0.4773
 2918SOL    HW220391   1.476   3.720   4.851 -0.7385  0.1744 -0.9973
 2919SOL     OW20392   4.284   4.230   5.470 -0.0411 -0.3103  0.1301
 2919SOL    HW120393   4.210   4.290   5.476  1.0126  0.7864  2.2998
 2919SOL    HW220394   4.355   4.274   5.517 -1.7814  3.0695 -0.4520
 2920SOL     OW20395   1.154   4.325  10.186  0.0832  0.1285  0.0725
 2920SOL    HW120396   1.140   4.339  10.279  2.0489 -0.6395  0.4860
 2920SOL    HW220397   1.249   4.334  10.190  0.2031 -1.1635  0.1132
 2921SOL     OW20398   1.302   1.573  11.648  0.0803  0.0923 -0.5244
 2921SOL    HW120399   1.305   1.581  11.552  0.9762 -0.0508 -0.5001
 2921SOL    HW220400   1.331   1.658  11.681  0.1155  0.2307 -0.9008
 2922SOL     OW20401   3.857   1.105  13.602  0.0581 -0.4644 -0.5606
 2922SOL    HW120402   3.927   1.168  13.582 -1.0320  0.6827 -0.7923
 2922SOL    HW220403   3.885   1.056  13.679  1.5612  0.0271 -0.7826
 2923SOL     OW20404   3.851   4.059  15.567 -0.6329 -0.4965  0.6034
 2923SOL    HW120405   3.828   3.972  15.535  1.5634 -0.6319 -0.5933
 2923SOL    HW220406   3.764   4.097  15.577 -0.2977  0.5179 -0.2857
 2924SOL     OW20407   2.086   1.883   7.472  0.1106  0.4843 -0.3464
 2924SOL    HW120408   2.172   1.906   7.438  0.3721  0.8628  0.5601
 2924SOL    HW220409   2.053   1.849   7.389 -2.4741  1.5679  0.2387
 2925SOL     OW20410   4.396   0.291   0.226  0.2193  0.2185  0.3911
 2925SOL    HW120411   4.444   0.371   0.249 -0.3048  0.8430 -0.7138
 2925SOL    HW220412   4.349   0.267   0.306 -0.7159 -3.3296 -1.2115
 2926SOL     OW20413   4.557   0.228  12.748 -0.0377  0.2795  0.3321
 2926SOL    HW120414   4.569   0.318  12.781  2.3829 -0.2965  0.9458
 2926SOL    HW220415   4.503   0.187  12.815  0.0427  1.4452  1.1156
 2927SOL     OW20416   4.453   2.864  17.255  0.5687 -0.0068  0.4806
 2927SOL    HW120417   4.492   2.810  17.186  0.2268  0.4774 -0.0917
 2927SOL    HW220418   4.409   2.929  17.200 -1.1295 -1.6462 -0.1247
 2928SOL     OW20419   3.037   2.757   4.753  0.2894 -0.1161 -0.1144
 2928SOL    HW120420   3.004   2.706   4.680 -0.4527 -1.0279  0.8697
 2928SOL    HW220421   3.073   2.837   4.713  0.6299 -1.0691 -1.6954
 2929SOL     OW20422   1.299   2.650   2.586  0.0931  0.3042 -0.3356
 2929SOL    HW120423   1.332   2.640   2.676  0.3975  0.1491 -0.4626
 2929SOL    HW220424   1.278   2.743   2.592  2.4344  0.8163  0.1818
 2930SOL     OW20425   0.771   1.094   8.237 -0.0389 -0.6930 -0.1091
 2930SOL    HW120426   0.774   1.123   8.146 -0.6751  1.7975  0.6622
 2930SOL    HW220427   0.700   1.030   8.243 -0.1556 -0.5817 -0.2940
 2931SOL     OW20428   1.477   3.492   2.536  0.0121  0.1365  0.0037
 2931SOL    HW120429   1.491   3.479   2.443  0.8710  0.0959  0.1348
 2931SOL    HW220430   1.417   3.566   2.542 -0.6615 -0.4285  0.3393
 2932SOL     OW20431   3.864   0.017   2.508  0.4126  0.4051  0.1246
 2932SOL    HW120432   3.939   0.075   2.523  0.0070  0.6882  1.0479
 2932SOL    HW220433   3.874   0.003   2.414 -1.9668 -0.2344 -0.0275
 2933SOL     OW20434   3.933   1.382  12.400 -0.2149 -0.2945 -0.8273
 2933SOL    HW120435   3.887   1.298  12.401 -1.5908  0.4676  1.5354
 2933SOL    HW220436   3.992   1.369  12.474  0.2134  1.9998 -0.7630
 2934SOL     OW20437   3.726   4.347   8.120  0.2817  0.1587  0.5392
 2934SOL    HW120438   3.635   4.326   8.103  0.4689 -2.0022  2.2230
 2934SOL    HW220439   3.719   4.362   8.214  1.2831 -3.4835  1.1852
 2935SOL     OW20440   3.608   4.583   2.414  0.2168 -0.4444 -0.4286
 2935SOL    HW120441   3.660   4.623   2.344  1.1416 -1.8711 -0.5631
 2935SOL    HW220442   3.675   4.529   2.456  0.3762  0.6813  0.7515
 2936SOL     OW20443   2.469   1.886   8.772 -0.1312  0.7137  0.1789
 2936SOL    HW120444   2.461   1.883   8.677 -2.6048 -1.8336  0.4988
 2936SOL    HW220445   2.381   1.878   8.808 -1.5796  2.5112 -2.9421
 2937SOL     OW20446   0.938   3.730   3.243 -0.4604  0.0317  0.5855
 2937SOL    HW120447   0.945   3.779   3.161 -0.0985  1.2306  1.3227
 2937SOL    HW220448   1.010   3.758   3.300  1.2492 -1.1915 -1.0005
 2938SOL     OW20449   1.977   2.699   7.139 -0.2000 -0.2638 -0.1342
 2938SOL    HW120450   1.884   2.707   7.157 -0.2287  2.5049 -1.5082
 2938SOL    HW220451   2.029   2.728   7.214 -0.8240  3.2415 -1.0565
 2939SOL     OW20452   2.821   2.787   0.950  0.1651  0.5302  1.0413
 2939SOL    HW120453   2.806   2.726   1.022 -2.3968 -0.1861 -0.1001
 2939SOL    HW220454   2.845   2.726   0.880 -1.6993  0.0029  0.8822
 2940SOL     OW20455   1.015   4.091  15.958  0.0662 -0.0889  0.1985
 2940SOL    HW120456   1.110   4.094  15.970  0.2463  0.0498 -1.2125
 2940SOL    HW220457   1.001   4.129  15.871  0.8184 -0.2796 -0.0077
 2941SOL     OW20458   0.375   1.983  15.001  0.0380 -0.4818  0.4091
 2941SOL    HW120459   0.309   1.950  15.062  1.0284  0.3434  1.9574
 2941SOL    HW220460   0.412   2.047  15.062 -0.3451  0.6492 -0.5461
 2942SOL     OW20461   2.871   4.186   7.290 -0.4071 -0.4084  0.0384
 2942SOL    HW120462   2.855   4.280   7.297 -1.3006 -0.5963  0.4216
 2942SOL    HW220463   2.958   4.178   7.331 -1.2745 -0.8373  1.7856
 2943SOL     OW20464   3.079   3.654   7.990 -0.5871  0.1552  0.1611
 2943SOL    HW120465   3.106   3.656   7.898 -0.2390 -0.7987  0.2418
 2943SOL    HW220466   3.084   3.559   8.005  1.2652  0.0704 -1.0221
 2944SOL     OW20467   2.050   4.157   2.418  0.0213  0.1043 -0.2771
 2944SOL    HW120468   2.137   4.177   2.453 -1.8302  0.7539  3.9089
 2944SOL    HW220469   2.051   4.206   2.336  1.8418  1.3977  0.5342
 2945SOL     OW20470   2.629   4.409   6.155  0.3025  0.3761 -0.3669
 2945SOL    HW120471   2.556   4.463   6.185  0.6622  0.4699  0.3266
 2945SOL    HW220472   2.695   4.478   6.163  0.1825  0.5281 -0.6790
 2946SOL     OW20473   2.969   1.509   8.422  0.5225 -0.1123 -0.3000
 2946SOL    HW120474   2.944   1.601   8.429 -0.9778 -0.5025 -0.6518
 2946SOL    HW220475   2.932   1.475   8.504 -1.8100  0.8052 -0.9896
 2947SOL     OW20476   3.687   2.967  17.186  0.6261  0.0646 -0.1564
 2947SOL    HW120477   3.649   2.904  17.247 -0.4811  0.4420 -0.4492
 2947SOL    HW220478   3.670   3.051  17.228 -0.4705  0.6557 -1.7940
 2948SOL     OW20479   1.526   3.997   2.745  0.3992  0.3211 -0.5458
 2948SOL    HW120480   1.577   3.917   2.747 -0.9344 -0.5277  0.1618
 2948SOL    HW220481   1.486   3.990   2.832 -1.1878  1.1006 -1.2039
 2949SOL     OW20482   2.266   2.160   7.112  0.4732  0.3370 -0.3841
 2949SOL    HW120483   2.220   2.101   7.052  1.0099  0.6219 -1.0730
 2949SOL    HW220484   2.193   2.159   7.174  1.2103 -1.2783  0.4492
 2950SOL     OW20485   1.449   2.039   6.214  0.0208 -0.1662 -0.0965
 2950SOL    HW120486   1.507   2.105   6.252  1.7211 -0.4388 -2.1447
 2950SOL    HW220487   1.421   1.983   6.285 -1.2408  1.7096  0.8723
 2951SOL     OW20488   0.704   3.224   6.547 -0.0074 -1.0981  0.1947
 2951SOL    HW120489   0.743   3.219   6.634 -1.0064  2.0956  0.8043
 2951SOL    HW220490   0.612   3.232   6.573  0.6683  1.4512  1.7624
 2952SOL     OW20491   1.451   2.035   1.939 -0.2490 -0.2902 -0.1556
 2952SOL    HW120492   1.407   2.042   2.024 -2.9801  0.4409 -1.6282
 2952SOL    HW220493   1.537   2.002   1.964  0.3301  0.5526 -1.0109
 2953SOL     OW20494   2.124   2.619   5.350  0.1986 -0.3743 -0.1284
 2953SOL    HW120495   2.204   2.598   5.301 -0.0963  0.5508 -0.9962
 2953SOL    HW220496   2.164   2.635   5.435 -2.1573 -0.4241  0.9888
 2954SOL     OW20497   3.775   2.493  15.764  0.0053  0.4123  0.4680
 2954SOL    HW120498   3.807   2.532  15.846 -0.6525  2.6309 -0.3270
 2954SOL    HW220499   3.746   2.576  15.726 -2.2217 -0.2469  0.7571
 2955SOL     OW20500   1.279   0.992  12.053 -0.6865  0.4822  0.4549
 2955SOL    HW120501   1.322   1.050  11.990 -1.2567  1.3537  0.8594
 2955SOL    HW220502   1.188   0.996  12.022 -0.5189  1.6730  0.1173
 2956SOL     OW20503   0.194   4.132   4.461 -0.0650 -0.3114 -0.0209
 2956SOL    HW120504   0.258   4.107   4.529 -0.9775  0.8516  1.2742
 2956SOL    HW220505   0.121   4.175   4.506 -0.1604  0.5108 -0.9602
 2957SOL     OW20506   0.014   3.619  11.519  0.4353  0.7012  0.6234
 2957SOL    HW120507   0.076   3.575  11.461  0.0432  0.5806  0.2964
 2957SOL    HW220508   0.052   3.705  11.539 -0.1495  1.2507 -0.6564
 2958SOL     OW20509   1.943   3.611   7.350 -1.4175  0.6330 -0.4019
 2958SOL    HW120510   2.023   3.590   7.302 -0.5187  0.0353  1.3358
 2958SOL    HW220511   1.884   3.633   7.278 -0.3151 -1.3692 -1.9123
 2959SOL     OW20512   4.469   0.996   5.263 -0.2538  0.2702 -0.2351
 2959SOL    HW120513   4.524   0.922   5.287  0.2465  0.7078 -0.0242
 2959SOL    HW220514   4.416   0.959   5.193  0.9459 -0.1894 -0.9060
 2960SOL     OW20515   4.131   1.543   6.025  0.2039  0.4726  0.0190
 2960SOL    HW120516   4.061   1.596   6.064 -0.7877 -1.0301  0.2607
 2960SOL    HW220517   4.201   1.609   6.032 -0.1489  0.8149  0.3258
 2961SOL     OW20518   0.758   4.054   6.579  0.2510 -0.2607  0.0359
 2961SOL    HW120519   0.834   4.112   6.575 -0.2494  0.3276 -0.7482
 2961SOL    HW220520   0.804   3.974   6.605  1.6345  0.7798  0.8070
 2962SOL     OW20521   1.614   3.857   2.163  0.3276  0.1285 -0.1755
 2962SOL    HW120522   1.638   3.862   2.255 -2.5673 -2.4401  0.7126
 2962SOL    HW220523   1.564   3.939   2.159 -1.1846 -0.8637 -1.7092
 2963SOL     OW20524   1.305   0.513  12.127 -0.1293 -0.1003 -0.1211
 2963SOL    HW120525   1.310   0.468  12.211  0.5315  2.2751  1.0849
 2963SOL    HW220526   1.285   0.604  12.146 -1.4727  0.2957 -3.4566
 2964SOL     OW20527   2.909   4.660  14.739  0.1045  0.8229 -0.5199
 2964SOL    HW120528   2.992   4.677  14.696 -0.1285  0.3869 -1.1468
 2964SOL    HW220529   2.858   4.733  14.704 -0.4196  0.8942  0.3609
 2965SOL     OW20530   3.811   0.945   5.314  0.0721  0.1333 -0.0565
 2965SOL    HW120531   3.875   0.961   5.384 -0.7698  0.1830  0.7005
 2965SOL    HW220532   3.742   0.902   5.364  0.5383  1.8057  2.0376
 2966SOL     OW20533   4.533   1.275   6.937 -0.2796  0.1870 -0.0029
 2966SOL    HW120534   4.593   1.210   6.973 -1.0562 -0.6141 -0.1633
 2966SOL    HW220535   4.586   1.314   6.868  1.5582 -0.8269  0.8411
 2967SOL     OW20536   2.364   0.415   6.055 -0.3663 -0.3479 -0.2097
 2967SOL    HW120537   2.446   0.465   6.054 -0.8933  0.4612 -2.2477
 2967SOL    HW220538   2.306   0.471   6.004 -0.7541 -1.1005 -0.5928
 2968SOL     OW20539   0.250   3.977   5.652 -0.0956  0.1000  0.3992
 2968SOL    HW120540   0.206   4.019   5.726  0.6902  0.7472  0.4926
 2968SOL    HW220541   0.331   4.027   5.650  2.1092 -3.5216 -0.6799
 2969SOL     OW20542   0.663   3.436   3.057  0.5452 -0.7817  0.0620
 2969SOL    HW120543   0.603   3.424   3.130  0.5611 -0.3890  0.1388
 2969SOL    HW220544   0.649   3.361   2.999 -0.9780 -0.6986  0.3266
 2970SOL     OW20545   1.439   4.411  13.273 -1.0273  0.4282 -0.0413
 2970SOL    HW120546   1.471   4.500  13.289  2.5039 -1.3777  2.8689
 2970SOL    HW220547   1.512   4.353  13.296  0.0307  1.7329 -0.1274
 2971SOL     OW20548   1.990   3.606   2.566  0.1073  0.3838 -0.6080
 2971SOL    HW120549   2.041   3.648   2.497  0.6314 -2.7320 -2.1423
 2971SOL    HW220550   1.905   3.590   2.525 -0.3617  0.3936  0.3458
 2972SOL     OW20551   2.088   2.447   4.019 -0.0406  0.0610 -0.3733
 2972SOL    HW120552   2.110   2.511   4.086  0.1992  0.1052 -0.4926
 2972SOL    HW220553   2.169   2.396   4.014  0.4492  0.8535 -0.6104
 2973SOL     OW20554   2.857   4.486  10.151  0.3497 -0.3305  0.0056
 2973SOL    HW120555   2.778   4.440  10.125  1.7690 -2.8918  0.2417
 2973SOL    HW220556   2.902   4.512  10.070 -1.5602  0.0465 -0.9347
 2974SOL     OW20557   2.542   4.536   5.424 -0.1744  0.2346  0.3268
 2974SOL    HW120558   2.498   4.460   5.462 -0.1608 -1.0793 -2.2631
 2974SOL    HW220559   2.630   4.501   5.437  0.1357  1.5092  1.6585
 2975SOL     OW20560   1.320   0.814   6.381 -0.0406  0.1267 -0.1722
 2975SOL    HW120561   1.276   0.890   6.420 -0.5573 -0.3099  0.0825
 2975SOL    HW220562   1.248   0.766   6.341  1.0207 -1.3068 -0.3589
 2976SOL     OW20563   1.555   1.781   8.116 -0.5369 -0.2982 -0.7057
 2976SOL    HW120564   1.644   1.759   8.145  0.1075  1.9489 -0.9694
 2976SOL    HW220565   1.565   1.856   8.057 -1.5790 -1.1436 -1.9539
 2977SOL     OW20566   2.809   2.489   9.519  0.4580  0.2311 -0.0514
 2977SOL    HW120567   2.781   2.535   9.598 -1.0860  0.9605 -1.0286
 2977SOL    HW220568   2.885   2.540   9.491 -0.4060  1.7543  0.3849
 2978SOL     OW20569   1.550   2.514   3.752  0.3307  0.2395  0.0117
 2978SOL    HW120570   1.498   2.573   3.697  1.5581 -0.4842 -1.8990
 2978SOL    HW220571   1.627   2.513   3.696  0.3859 -0.9060  0.1022
 2979SOL     OW20572   1.284   1.274  15.231 -0.2152  0.4512 -0.1392
 2979SOL    HW120573   1.349   1.268  15.161  1.3863 -0.2447  1.4024
 2979SOL    HW220574   1.282   1.180  15.248 -2.0794  0.5414  0.1450
 2980SOL     OW20575   1.593   1.640   1.953  0.4735 -0.6897 -0.0935
 2980SOL    HW120576   1.511   1.592   1.939  0.2250 -0.4242  0.4428
 2980SOL    HW220577   1.632   1.627   1.867  1.9550 -0.5739  0.5695
 2981SOL     OW20578   2.100   2.177   2.467 -0.3981  0.4606 -0.0933
 2981SOL    HW120579   2.161   2.149   2.535  1.6699  1.0723 -1.7152
 2981SOL    HW220580   2.040   2.102   2.458  1.0381 -0.6064 -0.7346
 2982SOL     OW20581   4.165   4.052   7.128  0.3603  0.3469  0.3397
 2982SOL    HW120582   4.168   4.146   7.109 -2.8487  0.7925  1.9375
 2982SOL    HW220583   4.182   4.022   7.039 -3.6429  2.5055 -1.1454
 2983SOL     OW20584   2.679   2.360   8.667 -0.2522  0.5110  0.2606
 2983SOL    HW120585   2.767   2.359   8.629  0.1179  0.4176  1.1239
 2983SOL    HW220586   2.625   2.340   8.591  0.8947 -3.0404  0.3716
 2984SOL     OW20587   0.402   0.321   7.526  0.2272 -0.5822  0.3198
 2984SOL    HW120588   0.335   0.254   7.512 -0.5114 -0.1329  1.6929
 2984SOL    HW220589   0.463   0.257   7.562 -0.4492 -2.5090 -1.9748
 2985SOL     OW20590   1.710   3.473   7.903 -0.0110  0.2320  0.5426
 2985SOL    HW120591   1.638   3.430   7.949  0.0900 -1.5678 -0.9747
 2985SOL    HW220592   1.783   3.422   7.939  0.4646  0.4675 -0.0931
 2986SOL     OW20593   0.987   0.859   5.116  0.2934  0.2106  0.4591
 2986SOL    HW120594   1.057   0.893   5.061 -2.5292  3.3388 -1.1927
 2986SOL    HW220595   0.910   0.906   5.083 -1.1608 -0.7943  2.3799
 2987SOL     OW20596   1.370   4.437   1.684  0.7617 -0.1130 -0.0516
 2987SOL    HW120597   1.341   4.413   1.596 -0.4678  2.1181 -0.2831
 2987SOL    HW220598   1.304   4.505   1.702  2.5580  1.0837  2.0266
 2988SOL     OW20599   1.166   4.357   5.261  0.4780  0.3869  0.0266
 2988SOL    HW120600   1.164   4.438   5.310 -3.2596 -1.3123  2.6455
 2988SOL    HW220601   1.076   4.340   5.233 -0.1439  1.4542  1.4528
 2989SOL     OW20602   2.353   0.913  15.534  0.1152  0.0529  0.2302
 2989SOL    HW120603   2.392   0.841  15.483 -1.5800 -1.1034  0.5478
 2989SOL    HW220604   2.286   0.872  15.589  0.7882 -0.6874  0.4889
 2990SOL     OW20605   3.712   4.465   2.800 -0.0134  0.2869 -0.4193
 2990SOL    HW120606   3.694   4.546   2.848  0.1530  0.5704 -0.8453
 2990SOL    HW220607   3.693   4.405   2.873  2.2861  0.6423  0.4858
 2991SOL     OW20608   2.519   0.576  10.555 -0.0795  0.1013  0.0173
 2991SOL    HW120609   2.436   0.579  10.602 -1.7759 -0.6369 -2.9063
 2991SOL    HW220610   2.533   0.482  10.566 -1.9859 -0.2089 -0.1705
 2992SOL     OW20611   2.107   1.382  16.469  0.4634 -0.0117 -0.6754
 2992SOL    HW120612   2.155   1.460  16.439  2.2630 -0.7717  0.2453
 2992SOL    HW220613   2.161   1.357  16.544  0.3862  2.9194  0.3641
 2993SOL     OW20614   4.133   3.752   6.237  0.2685 -0.6011  0.0806
 2993SOL    HW120615   4.186   3.673   6.240  1.5216  0.1371 -2.3182
 2993SOL    HW220616   4.148   3.785   6.326 -1.1489 -1.1571  0.5275
 2994SOL     OW20617   3.726   3.877   8.615  0.0531  0.4923 -0.2667
 2994SOL    HW120618   3.688   3.958   8.580  3.7375  1.8104 -1.2299
 2994SOL    HW220619   3.708   3.813   8.547 -0.0742  1.6475 -1.3203
 2995SOL     OW20620   0.787   3.018  16.193  0.4650  0.6948  0.2354
 2995SOL    HW120621   0.701   2.978  16.194  2.1491 -2.8145  2.2167
 2995SOL    HW220622   0.776   3.084  16.124  0.1161  0.8545  0.4474
 2996SOL     OW20623   2.022   4.607  13.294  0.1369  0.1856  0.1117
 2996SOL    HW120624   2.075   4.540  13.250 -1.1409  0.0498 -1.2534
 2996SOL    HW220625   1.988   4.563  13.372 -0.1761 -1.5420 -0.9861
 2997SOL     OW20626   4.365   1.168   3.679 -0.4247  0.4811  0.0078
 2997SOL    HW120627   4.400   1.120   3.754  1.7731  0.7029 -0.8818
 2997SOL    HW220628   4.317   1.235   3.729 -2.8501 -1.4142  0.2072
 2998SOL     OW20629   1.538   0.244   8.615 -0.0314 -0.5660 -0.2175
 2998SOL    HW120630   1.591   0.287   8.682 -2.1073  1.2648  0.2329
 2998SOL    HW220631   1.532   0.308   8.544 -1.2101 -0.5492 -0.1049
 2999SOL     OW20632   1.610   0.933   5.154  0.3972  0.1839 -0.0925
 2999SOL    HW120633   1.553   0.997   5.196  0.1420 -0.8205  1.0674
 2999SOL    HW220634   1.558   0.890   5.085  0.5986 -0.0275 -0.1143
 3000SOL     OW20635   2.021   0.677   4.429 -0.4412  0.6544  0.0670
 3000SOL    HW120636   2.029   0.633   4.513 -2.9608  0.4101  0.1892
 3000SOL    HW220637   2.098   0.734   4.428  0.2472 -0.2902 -0.2911
 3001SOL     OW20638   4.223   0.718   6.085  0.1972  0.3782  0.3794
 3001SOL    HW120639   4.207   0.811   6.068 -0.2741  0.1581 -0.3524
 3001SOL    HW220640   4.291   0.698   6.021  0.9911  0.4194  1.1919
 3002SOL     OW20641   1.160   0.065   3.561  0.2049  1.0322  0.6605
 3002SOL    HW120642   1.190   0.149   3.596  1.7004  0.5308  0.5767
 3002SOL    HW220643   1.229   0.055   3.497 -0.2531  1.1607  0.1474
 3003SOL     OW20644   0.436   1.214  14.219  0.3149  0.5189 -0.6010
 3003SOL    HW120645   0.483   1.297  14.230 -0.3891  0.7927  0.3286
 3003SOL    HW220646   0.371   1.234  14.152  0.2975 -0.8741 -1.0069
 3004SOL     OW20647   1.216   0.942   0.687  0.0421 -0.1454  0.3114
 3004SOL    HW120648   1.272   1.015   0.712  1.2125 -0.0726 -2.5094
 3004SOL    HW220649   1.270   0.868   0.713 -0.4259 -0.7701 -0.4807
 3005SOL     OW20650   2.356   3.852  11.711  0.2604 -0.9743 -0.6075
 3005SOL    HW120651   2.326   3.851  11.802 -2.8610 -0.1863 -1.6498
 3005SOL    HW220652   2.369   3.946  11.697 -1.0931 -0.7291 -0.1985
 3006SOL     OW20653   3.969   3.985  14.349 -0.2629  0.0566 -0.0681
 3006SOL    HW120654   3.935   3.900  14.323 -0.9785 -0.7354  3.4772
 3006SOL    HW220655   3.973   3.965  14.443  0.2781 -1.7055 -0.4805
 3007SOL     OW20656   2.001   2.500   7.585  0.3628 -0.2430 -0.3121
 3007SOL    HW120657   2.006   2.445   7.662  2.9262 -2.5120 -2.0792
 3007SOL    HW220658   1.922   2.459   7.551 -0.1173 -0.9080  1.6095
 3008SOL     OW20659   3.711   2.243   5.143 -0.1761  0.4300 -0.2345
 3008SOL    HW120660   3.792   2.205   5.110 -0.2471 -1.7650  2.0790
 3008SOL    HW220661   3.643   2.206   5.087 -0.4606 -1.6800  1.4825
 3009SOL     OW20662   3.255   0.661   2.116  0.1304  0.3141  0.1064
 3009SOL    HW120663   3.165   0.638   2.095 -1.0747  2.2093  3.1794
 3009SOL    HW220664   3.250   0.635   2.208 -0.5534 -0.5546 -0.1804
 3010SOL     OW20665   2.260   0.374   3.331  0.3101 -0.7633  0.3638
 3010SOL    HW120666   2.275   0.439   3.400 -1.4091 -0.4447  0.4323
 3010SOL    HW220667   2.258   0.290   3.376 -1.9336 -1.1825 -0.5474
 3011SOL     OW20668   2.521   4.214  11.464 -0.1301  0.6707 -0.2270
 3011SOL    HW120669   2.616   4.212  11.480 -0.3764 -0.7979  1.0046
 3011SOL    HW220670   2.509   4.153  11.391  1.0182  0.3731 -0.1774
 3012SOL     OW20671   0.246   2.611   6.495 -0.0760 -0.2028  0.1669
 3012SOL    HW120672   0.233   2.643   6.585  2.0118 -2.3125  1.2165
 3012SOL    HW220673   0.331   2.568   6.490 -0.5741 -0.9540 -1.6683
 3013SOL     OW20674   0.261   0.343   4.162 -0.1642 -0.1629  0.3033
 3013SOL    HW120675   0.219   0.257   4.157 -1.0819  0.3205 -0.2399
 3013SOL    HW220676   0.245   0.353   4.256  1.3915 -1.0249  0.6556
 3014SOL     OW20677   4.229   2.230   7.763 -0.1822  0.1869 -0.1426
 3014SOL    HW120678   4.179   2.309   7.782 -0.4139 -0.5505  2.3400
 3014SOL    HW220679   4.266   2.217   7.851 -1.4527 -0.5548  0.2743
 3015SOL     OW20680   0.039   4.674   4.387 -0.3817  0.0010  0.2388
 3015SOL    HW120681   0.127   4.648   4.362 -0.5595  2.4748 -2.9916
 3015SOL    HW220682   0.056   4.662   4.481 -2.6006  0.0993  0.6632
 3016SOL     OW20683   0.236   3.125   1.191 -0.3282 -0.2660  0.0097
 3016SOL    HW120684   0.327   3.145   1.166 -0.0532 -0.1689  1.1065
 3016SOL    HW220685   0.196   3.185   1.128 -2.0970 -0.8555  0.5782
 3017SOL     OW20686   0.409   1.984   2.692 -0.5457 -0.0672  0.4480
 3017SOL    HW120687   0.476   2.040   2.654  0.8211  0.3877  3.6260
 3017SOL    HW220688   0.439   1.896   2.667 -3.6923 -0.4642 -1.9496
 3018SOL     OW20689   2.700   0.222   2.569  0.2723 -0.3553 -0.4716
 3018SOL    HW120690   2.662   0.197   2.484  0.8853 -0.6841 -0.6566
 3018SOL    HW220691   2.623   0.247   2.618  1.1261 -0.8408  1.1026
 3019SOL     OW20692   0.442   3.765   7.665 -0.3348  0.5810  0.1020
 3019SOL    HW120693   0.394   3.815   7.599  1.1663  2.0132  0.1126
 3019SOL    HW220694   0.392   3.768   7.747 -1.4894 -0.6887 -0.5727
 3020SOL     OW20695   0.925   0.089   0.122  0.0318  0.2951 -0.0162
 3020SOL    HW120696   0.884   0.002   0.128  0.9997 -0.3272 -2.5601
 3020SOL    HW220697   0.870   0.125   0.053  0.5027  3.4044  1.2295
 3021SOL     OW20698   1.186   1.905  13.529 -0.4052  0.2964  0.4359
 3021SOL    HW120699   1.212   1.986  13.572  0.3077 -0.0556  0.6767
 3021SOL    HW220700   1.196   1.849  13.606  0.6598 -1.0300 -0.6561
 3022SOL     OW20701   4.686   2.860   0.240  0.1159  0.5504  0.2172
 3022SOL    HW120702   4.676   2.813   0.323 -0.7181  0.8064  0.2625
 3022SOL    HW220703   4.714   2.948   0.264  0.1490  0.3204  1.0214
 3023SOL     OW20704   1.123   1.481   9.405  0.6899 -0.3330 -0.4199
 3023SOL    HW120705   1.120   1.459   9.498  0.2949 -1.7657 -0.7805
 3023SOL    HW220706   1.091   1.400   9.365 -1.1388  0.7323 -1.1379
 3024SOL     OW20707   1.485   0.076   7.016 -0.6137  0.7392  0.4456
 3024SOL    HW120708   1.541   0.010   7.056  1.3680  1.0661 -1.7596
 3024SOL    HW220709   1.487   0.151   7.075 -0.0863  1.1040 -0.0320
 3025SOL     OW20710   4.548   3.509   7.765 -0.4429  0.3847  0.1751
 3025SOL    HW120711   4.571   3.596   7.732 -1.8445  1.1942  1.3132
 3025SOL    HW220712   4.629   3.481   7.807 -1.2054 -1.4485  0.4350
 3026SOL     OW20713   0.285   0.830   9.005 -0.4358 -0.0483 -0.7653
 3026SOL    HW120714   0.228   0.787   9.069  1.4015 -1.5432 -0.1613
 3026SOL    HW220715   0.223   0.896   8.973 -0.3090  0.7762  0.6822
 3027SOL     OW20716   1.127   2.045   5.732  0.5289  0.5179 -0.0247
 3027SOL    HW120717   1.123   2.004   5.646 -0.7907  0.5549  0.0234
 3027SOL    HW220718   1.191   1.986   5.773  0.9108  2.6090  2.4542
 3028SOL     OW20719   2.209   2.264   5.778  0.2284 -0.3073  0.2348
 3028SOL    HW120720   2.285   2.307   5.739 -1.1885  0.9700 -1.1202
 3028SOL    HW220721   2.155   2.233   5.706 -0.4837  0.7075  0.3369
 3029SOL     OW20722   0.301   4.632   4.315  0.7177 -0.1218  0.1357
 3029SOL    HW120723   0.370   4.662   4.256  0.6390  0.8691  0.5542
 3029SOL    HW220724   0.362   4.587   4.374  1.8083  1.8091  0.4531
 3030SOL     OW20725   1.827   0.152   8.242  0.9656 -0.1405  0.5860
 3030SOL    HW120726   1.922   0.162   8.243  0.8060  1.4595 -1.2035
 3030SOL    HW220727   1.817   0.059   8.264  0.1336  0.4639  2.7813
 3031SOL     OW20728   0.206   0.121   2.297 -0.0847  0.2714 -0.0630
 3031SOL    HW120729   0.233   0.121   2.389 -1.6188 -1.3492  0.3983
 3031SOL    HW220730   0.263   0.049   2.269  2.1095  1.9509  0.1114
 3032SOL     OW20731   2.167   4.221   9.170  0.0331 -0.0826 -0.1539
 3032SOL    HW120732   2.119   4.283   9.116 -1.2985 -2.2557 -1.4707
 3032SOL    HW220733   2.218   4.178   9.101  1.2509  1.3088 -0.1368
 3033SOL     OW20734   0.924   1.437   2.536  0.0270  0.2878  0.2407
 3033SOL    HW120735   0.920   1.472   2.625 -1.3264  1.1124 -0.1474
 3033SOL    HW220736   0.994   1.491   2.500 -1.6398 -1.0207 -5.0025
 3034SOL     OW20737   3.032   3.969   5.334  0.0615 -0.1639  0.3644
 3034SOL    HW120738   3.109   3.913   5.342 -2.0525 -2.9747  0.8991
 3034SOL    HW220739   2.961   3.914   5.300 -0.7599  1.5764 -0.7722
 3035SOL     OW20740   2.976   2.404   1.575 -0.6640  0.3177 -0.2696
 3035SOL    HW120741   3.005   2.459   1.648 -2.6291 -0.4859  1.1102
 3035SOL    HW220742   2.914   2.345   1.617  0.5486 -0.4744  0.3855
 3036SOL     OW20743   4.105   3.800  17.006 -0.0950 -0.1999  0.0381
 3036SOL    HW120744   4.187   3.770  17.045 -0.1782  0.2458  0.5520
 3036SOL    HW220745   4.122   3.789  16.912  0.3702 -1.1639  0.2280
 3037SOL     OW20746   2.541   3.735   8.850 -0.2564 -0.3717 -0.4190
 3037SOL    HW120747   2.600   3.712   8.778  1.5255 -0.0863  0.9594
 3037SOL    HW220748   2.455   3.723   8.809 -0.3273 -0.9101 -0.1100
 3038SOL     OW20749   0.969   0.060   8.284 -0.7858  0.0216  0.3138
 3038SOL    HW120750   1.045   0.043   8.341  0.7081  2.7254 -0.8870
 3038SOL    HW220751   0.920   0.112   8.348 -2.3806 -0.5099 -0.4831
 3039SOL     OW20752   4.204   4.512   3.980 -0.3814  0.3618 -0.3560
 3039SOL    HW120753   4.254   4.525   4.061 -0.8972  0.2430 -0.0203
 3039SOL    HW220754   4.265   4.464   3.924 -1.9204 -1.5430 -0.3957
 3040SOL     OW20755   2.903   1.106   5.665  0.1717  0.4026  0.0966
 3040SOL    HW120756   2.967   1.169   5.632 -0.7066  1.2117 -0.0438
 3040SOL    HW220757   2.951   1.086   5.746  1.1968 -1.2212 -0.8966
 3041SOL     OW20758   1.542   0.966   5.569  0.1603 -0.2499 -0.7435
 3041SOL    HW120759   1.618   0.968   5.511  1.2175  0.2319  0.6605
 3041SOL    HW220760   1.523   0.874   5.551 -1.5737 -0.2498  1.0709
 3042SOL     OW20761   2.691   2.956   2.744 -0.1084 -0.6205  0.0180
 3042SOL    HW120762   2.746   2.958   2.823  0.4209 -2.0304 -0.3104
 3042SOL    HW220763   2.674   2.862   2.735  0.8010 -0.9406  1.4818
 3043SOL     OW20764   0.107   4.024   8.564  0.0927 -0.5458  0.0562
 3043SOL    HW120765   0.027   3.970   8.565 -0.7807  0.7539 -0.1596
 3043SOL    HW220766   0.169   3.953   8.544  0.0404 -0.8874  1.1353
 3044SOL     OW20767   1.695   1.123  16.212  0.2338  0.5373 -0.4504
 3044SOL    HW120768   1.758   1.172  16.265 -0.6745 -1.0731  2.1225
 3044SOL    HW220769   1.684   1.185  16.140 -1.0951  0.8088 -0.0174
 3045SOL     OW20770   3.907   2.302   8.632  0.5032 -0.6521 -0.2348
 3045SOL    HW120771   3.949   2.384   8.658 -2.5693  1.5492 -2.2196
 3045SOL    HW220772   3.958   2.240   8.685  1.2949  0.0295 -0.2123
 3046SOL     OW20773   3.616   2.655   6.852 -0.3715  0.2173  0.5366
 3046SOL    HW120774   3.617   2.700   6.936  0.0550 -1.5535  1.4550
 3046SOL    HW220775   3.657   2.570   6.867 -0.9250 -0.2269 -0.4512
 3047SOL     OW20776   1.730   4.185   8.720 -0.5135 -0.4500 -0.1104
 3047SOL    HW120777   1.692   4.255   8.773  1.5622  1.8963 -1.7105
 3047SOL    HW220778   1.733   4.218   8.631 -1.3144 -0.7396 -0.2369
 3048SOL     OW20779   4.198   2.964   8.261 -0.7688  0.1203  0.0229
 3048SOL    HW120780   4.197   2.959   8.356  0.8584 -1.8972 -0.0630
 3048SOL    HW220781   4.256   3.037   8.241 -1.2988  0.4691 -0.2395
 3049SOL     OW20782   0.645   3.217   5.728  0.3206  0.1693 -0.6604
 3049SOL    HW120783   0.672   3.224   5.636 -3.6403  2.0612 -1.6800
 3049SOL    HW220784   0.725   3.182   5.766 -0.1241  0.2450  0.3429
 3050SOL     OW20785   4.724   4.544   1.035 -0.1592 -0.0617 -0.2007
 3050SOL    HW120786   4.676   4.520   0.956  0.5774 -2.5681  0.1117
 3050SOL    HW220787   4.697   4.478   1.099  0.1540 -0.2199 -0.2326
 3051SOL     OW20788   0.869   2.299   1.740 -0.8648  0.0344  0.0647
 3051SOL    HW120789   0.915   2.224   1.777 -0.0997  0.4007 -0.1569
 3051SOL    HW220790   0.845   2.335   1.825  0.0116 -0.6013  0.5829
 3052SOL     OW20791   3.083   1.113   9.682  0.0922 -0.3870  0.1398
 3052SOL    HW120792   3.019   1.045   9.702  1.3630 -1.7641 -0.4689
 3052SOL    HW220793   3.105   1.100   9.590 -0.7880  0.0974 -0.1348
 3053SOL     OW20794   4.719   1.743   3.856 -0.1544  0.1913  0.2512
 3053SOL    HW120795   4.638   1.752   3.906  1.3588  0.0248  2.7258
 3053SOL    HW220796   4.685   1.686   3.787  0.4807  0.1592 -0.0401
 3054SOL     OW20797   3.536   2.077   1.852  0.0194  0.2446 -0.1437
 3054SOL    HW120798   3.560   2.022   1.777 -0.1885 -1.2853  0.9203
 3054SOL    HW220799   3.603   2.053   1.916  1.3755  0.3354 -1.5270
 3055SOL     OW20800   0.443   1.389   7.530  0.2878  0.0639  0.1920
 3055SOL    HW120801   0.369   1.389   7.591  0.2809 -0.7619  0.1852
 3055SOL    HW220802   0.477   1.300   7.533 -0.6113 -0.2593  0.7523
 3056SOL     OW20803   2.845   2.601   0.772  0.0252 -0.3659 -0.3398
 3056SOL    HW120804   2.925   2.613   0.721  0.1771 -0.1593 -0.0514
 3056SOL    HW220805   2.833   2.506   0.772  0.9877 -0.4816 -0.5822
 3057SOL     OW20806   0.850   2.796   7.174 -0.4058  0.4897  0.3704
 3057SOL    HW120807   0.874   2.814   7.265 -0.2680 -0.0733  0.4455
 3057SOL    HW220808   0.903   2.718   7.154  2.5638  2.8273 -0.9697
 3058SOL     OW20809   1.905   2.926  12.102 -0.6568 -0.1345  0.8256
 3058SOL    HW120810   1.922   2.837  12.132 -0.5469 -1.2949 -2.7126
 3058SOL    HW220811   1.974   2.975  12.147  0.6292 -2.4044  1.3375
 3059SOL     OW20812   4.607   1.176  11.136  0.7963 -0.1537  0.0544
 3059SOL    HW120813   4.570   1.118  11.070 -0.6573 -2.1171  2.5716
 3059SOL    HW220814   4.625   1.114  11.208  3.8303  2.0817  1.2463
 3060SOL     OW20815   2.658   1.721   1.017 -0.2924 -0.0568  0.9388
 3060SOL    HW120816   2.707   1.789   1.062 -0.1233  0.2115  0.3565
 3060SOL    HW220817   2.654   1.766   0.932 -1.4838 -1.3417  0.3048
 3061SOL     OW20818   1.245   1.251   1.840 -0.1900  0.3277 -0.2655
 3061SOL    HW120819   1.254   1.256   1.935 -2.4455 -0.2056 -0.0192
 3061SOL    HW220820   1.336   1.260   1.809  0.7385 -0.6739  2.2107
 3062SOL     OW20821   0.499   1.898   9.599 -0.4291 -0.2217 -0.3341
 3062SOL    HW120822   0.568   1.958   9.571 -1.2941 -0.0952 -2.1851
 3062SOL    HW220823   0.468   1.859   9.517  0.6147 -2.5088  0.3423
 3063SOL     OW20824   1.545   4.173  11.095 -0.7776 -0.1730  0.6422
 3063SOL    HW120825   1.533   4.165  11.000  1.7282 -2.4912  0.5299
 3063SOL    HW220826   1.458   4.161  11.134 -0.7456  1.7072  1.2726
 3064SOL     OW20827   0.207   2.104   8.959  0.4867  0.2754 -0.7220
 3064SOL    HW120828   0.285   2.105   9.014 -0.8491 -0.4307  1.1838
 3064SOL    HW220829   0.132   2.116   9.017 -0.0075 -0.0267 -1.2996
 3065SOL     OW20830   1.219   2.473   7.544 -0.6892  0.3310  0.0584
 3065SOL    HW120831   1.156   2.546   7.553 -1.3990 -0.5697  2.4168
 3065SOL    HW220832   1.143   2.416   7.528 -0.0016 -0.5998  0.1655
 3066SOL     OW20833   3.563   3.867   8.050  0.0558  0.3385 -0.1953
 3066SOL    HW120834   3.586   3.917   8.129  0.0674 -0.4938  0.3339
 3066SOL    HW220835   3.567   3.920   7.971 -1.4555 -0.4172 -0.7826
 3067SOL     OW20836   2.076   1.603  14.497  0.0683  0.0460  0.8303
 3067SOL    HW120837   2.128   1.627  14.573  0.6004 -0.4054  0.6130
 3067SOL    HW220838   2.056   1.510  14.507  0.4659 -0.2995 -1.5305
 3068SOL     OW20839   2.731   2.909   2.198  0.4337  0.1196 -0.1616
 3068SOL    HW120840   2.692   2.842   2.142  0.5015 -1.9910  2.3623
 3068SOL    HW220841   2.822   2.883   2.216  0.6118 -0.0525 -1.3002
 3069SOL     OW20842   0.673   0.615   1.661 -0.2523  0.0307  0.5956
 3069SOL    HW120843   0.669   0.678   1.734  1.1399  0.3372  0.4174
 3069SOL    HW220844   0.682   0.679   1.591  2.0486  0.1602  0.9940
 3070SOL     OW20845   3.919   3.466  14.786 -0.5931 -0.0277 -0.7522
 3070SOL    HW120846   3.831   3.459  14.823 -0.2265  1.8672  0.5002
 3070SOL    HW220847   3.951   3.539  14.839 -2.2997  1.1936 -1.3913
 3071SOL     OW20848   3.198   0.910   5.954 -0.2893 -0.1046  0.4698
 3071SOL    HW120849   3.133   0.969   5.915 -0.0406  0.4128  0.8268
 3071SOL    HW220850   3.167   0.907   6.044  1.1199  1.0099  0.9998
 3072SOL     OW20851   4.695   4.494  16.343  0.1167 -0.0419 -0.0980
 3072SOL    HW120852   4.668   4.407  16.371  2.8641 -0.4300  1.3457
 3072SOL    HW220853   0.003   4.524  16.422 -0.4749 -0.6304  0.4696
 3073SOL     OW20854   2.132   3.471   7.945  0.2824  0.1937 -0.0502
 3073SOL    HW120855   2.153   3.487   7.853 -1.1546 -0.8323 -0.5551
 3073SOL    HW220856   2.141   3.376   7.949  0.8623  0.3983  3.2843
 3074SOL     OW20857   4.597   2.362   9.776  0.3134 -0.1820  0.1148
 3074SOL    HW120858   4.583   2.406   9.859  0.4067  0.6548 -0.3130
 3074SOL    HW220859   4.686   2.393   9.757  0.4219 -1.3694 -1.3305
 3075SOL     OW20860   2.228   3.563  10.132  0.2099  0.1240 -0.1141
 3075SOL    HW120861   2.188   3.618  10.066 -0.7902  1.9143  1.9762
 3075SOL    HW220862   2.204   3.474  10.108  0.5153  0.6057 -2.1640
 3076SOL     OW20863   2.042   1.805  11.078 -0.2041 -0.1254 -0.0609
 3076SOL    HW120864   2.104   1.737  11.050 -0.7831 -0.8176  0.3259
 3076SOL    HW220865   2.088   1.837  11.156 -0.8921  3.2660 -1.0450
 3077SOL     OW20866   4.314   4.348   1.555 -0.2626  0.0479 -0.1219
 3077SOL    HW120867   4.267   4.294   1.491 -0.9631  1.6206 -0.9266
 3077SOL    HW220868   4.391   4.361   1.501  0.0292  1.1761  0.5605
 3078SOL     OW20869   1.925   3.660   6.068  0.3018 -0.6420  0.6760
 3078SOL    HW120870   1.960   3.638   5.981  0.5722 -0.8513  0.8387
 3078SOL    HW220871   1.999   3.684   6.124  0.4278  0.2332  0.1344
 3079SOL     OW20872   3.469   2.352   7.797  0.3832 -0.3131 -0.3664
 3079SOL    HW120873   3.504   2.268   7.766  0.9048 -0.1096 -0.3373
 3079SOL    HW220874   3.541   2.407   7.766  1.1557 -0.7605  0.6293
 3080SOL     OW20875   2.646   3.295   7.137  0.4008  0.3420 -0.4349
 3080SOL    HW120876   2.644   3.349   7.058 -2.0370  0.9912  0.0837
 3080SOL    HW220877   2.739   3.273   7.148 -0.4897 -3.1013  0.0804
 3081SOL     OW20878   3.711   4.240  14.493 -0.5630  0.7154 -0.1206
 3081SOL    HW120879   3.769   4.178  14.537  0.1367  2.0314  0.7885
 3081SOL    HW220880   3.759   4.322  14.486 -0.8993  0.6985 -2.7263
 3082SOL     OW20881   3.383   1.675   6.836 -0.3497 -0.2693 -0.4499
 3082SOL    HW120882   3.366   1.752   6.781 -0.9163  0.1852  0.3616
 3082SOL    HW220883   3.296   1.644   6.859 -0.7918  0.8749 -0.5451
 3083SOL     OW20884   0.040   2.739   2.901  0.0836  0.1646 -0.0307
 3083SOL    HW120885   0.099   2.698   2.838 -0.7679  0.7592 -1.2205
 3083SOL    HW220886   4.692   2.753   2.858 -1.1410  1.6023  2.8761
 3084SOL     OW20887   3.837   2.706  14.376 -0.2007  0.3114  0.1772
 3084SOL    HW120888   3.811   2.633  14.320  2.7355 -1.9795  1.8153
 3084SOL    HW220889   3.760   2.762  14.366 -0.9516 -0.5227  1.2105
 3085SOL     OW20890   4.102   3.729   9.407  0.5623 -0.6007 -0.5634
 3085SOL    HW120891   4.148   3.747   9.490  0.0933  1.5577 -0.7724
 3085SOL    HW220892   4.014   3.757   9.434  0.5237  1.2966 -2.6660
 3086SOL     OW20893   0.912   1.131  16.060  0.1952 -0.3246  0.5543
 3086SOL    HW120894   0.926   1.208  16.005  2.7827 -0.6298  0.7921
 3086SOL    HW220895   0.825   1.159  16.090  0.7500  0.3127  1.5651
 3087SOL     OW20896   2.628   3.820   1.274  0.1888  0.4196  0.3635
 3087SOL    HW120897   2.586   3.891   1.225 -2.1125 -0.7282  0.6583
 3087SOL    HW220898   2.681   3.874   1.333  1.5568  1.7305 -2.0373
 3088SOL     OW20899   2.133   4.605   0.580 -0.2280 -0.3853  0.5210
 3088SOL    HW120900   2.176   4.523   0.607  0.8440 -0.8148 -2.4857
 3088SOL    HW220901   2.065   4.606   0.647 -0.7956  0.3113 -0.0855
 3089SOL     OW20902   3.228   0.248  14.465 -0.8318 -0.1892  0.0067
 3089SOL    HW120903   3.135   0.243  14.487 -0.5512  0.7618  1.4027
 3089SOL    HW220904   3.233   0.326  14.410  0.9030  0.0565  0.5121
 3090SOL     OW20905   3.036   2.667   8.952  0.2375  0.2291  0.1294
 3090SOL    HW120906   2.987   2.642   9.029  0.6801 -0.3227  0.2335
 3090SOL    HW220907   3.007   2.757   8.939  0.2362  0.5151  2.1496
 3091SOL     OW20908   0.374   4.465   1.597 -0.4179  0.2640 -0.2621
 3091SOL    HW120909   0.363   4.371   1.586 -1.9672  0.2047  1.6781
 3091SOL    HW220910   0.363   4.459   1.692  3.6904  2.0455  0.3247
 3092SOL     OW20911   4.408   3.000   8.461 -0.5374 -0.9002 -0.8810
 3092SOL    HW120912   4.486   2.982   8.512 -0.0176  1.1698 -0.9508
 3092SOL    HW220913   4.343   2.987   8.530  1.1638 -1.0114  0.6722
 3093SOL     OW20914   1.063   2.260   3.858  0.0643 -0.0883 -0.3532
 3093SOL    HW120915   1.111   2.251   3.941  1.2445  1.1596 -0.9150
 3093SOL    HW220916   1.012   2.179   3.851 -0.8448  0.3494  1.2048
 3094SOL     OW20917   3.699   3.011   4.710 -0.3576  0.1902  0.8348
 3094SOL    HW120918   3.658   3.080   4.762  0.9938  2.4894 -1.1849
 3094SOL    HW220919   3.708   2.944   4.778 -1.2911 -1.7957 -0.9929
 3095SOL     OW20920   0.146   4.441   8.706 -0.7441 -0.1827 -0.0228
 3095SOL    HW120921   0.178   4.433   8.616  2.9428 -1.0791  1.3595
 3095SOL    HW220922   0.152   4.536   8.712  0.5557 -0.3649  1.6699
 3096SOL     OW20923   3.224   4.028   7.584  0.2050  1.0051 -0.0108
 3096SOL    HW120924   3.220   4.057   7.493 -2.4520 -0.9612 -0.5361
 3096SOL    HW220925   3.167   3.950   7.585 -0.4148  1.4215 -2.3037
 3097SOL     OW20926   3.495   4.133  11.045  1.0718 -0.3109  0.5546
 3097SOL    HW120927   3.467   4.079  11.119 -0.9354 -1.2591 -0.9035
 3097SOL    HW220928   3.421   4.119  10.986  2.3012 -2.8856 -0.3655
 3098SOL     OW20929   2.053   0.045   4.475  0.1059  0.3152  0.0197
 3098SOL    HW120930   2.025   0.102   4.403 -0.6610  2.3025  1.8824
 3098SOL    HW220931   1.985   4.714   4.471  0.4271  0.0605 -1.0210
 3099SOL     OW20932   0.197   3.829   8.290 -0.0561 -0.0297  0.1511
 3099SOL    HW120933   0.129   3.763   8.276 -3.7770  3.3959  1.8747
 3099SOL    HW220934   0.164   3.901   8.236 -1.7869  0.2908  1.6496
 3100SOL     OW20935   4.565   2.470   6.150 -0.2645 -0.0749 -0.0227
 3100SOL    HW120936   4.571   2.521   6.069  1.3567  0.7830  0.6381
 3100SOL    HW220937   4.620   2.519   6.211 -2.2989 -0.2176  1.9250
 3101SOL     OW20938   2.297   3.378   4.168 -0.3756  0.8136  0.6193
 3101SOL    HW120939   2.282   3.315   4.239 -0.9395 -0.7507 -0.9071
 3101SOL    HW220940   2.215   3.369   4.120  0.4778 -2.3320 -0.1925
 3102SOL     OW20941   3.601   1.019  13.530  0.5432 -0.2681  0.3034
 3102SOL    HW120942   3.644   0.957  13.590  1.3051  1.7629  1.8550
 3102SOL    HW220943   3.666   1.089  13.535  0.1357  0.0371  1.2610
 3103SOL     OW20944   0.762   1.948   1.950 -0.1720  0.1153 -0.0633
 3103SOL    HW120945   0.719   1.876   1.903  0.8648  0.1792 -1.0972
 3103SOL    HW220946   0.745   2.020   1.890  1.7282  0.7590  0.1640
 3104SOL     OW20947   0.617   3.216   2.883 -0.2987  0.2757 -0.4808
 3104SOL    HW120948   0.661   3.148   2.834 -1.2010 -0.9954  0.4681
 3104SOL    HW220949   0.542   3.245   2.831 -1.5253  0.4563  1.3645
 3105SOL     OW20950   3.390   1.703   0.324  0.2124 -0.3955  0.4166
 3105SOL    HW120951   3.472   1.674   0.285  0.5807  1.6115 -0.2909
 3105SOL    HW220952   3.413   1.702   0.417 -2.3106 -0.4775  1.0611
 3106SOL     OW20953   0.442   0.887  13.950 -0.5319 -0.0435  0.2205
 3106SOL    HW120954   0.498   0.863  13.876  1.5690  3.4418  0.6624
 3106SOL    HW220955   0.423   0.980  13.936  2.0463  0.2206 -1.4957
 3107SOL     OW20956   2.615   4.655  17.727  0.5097 -0.6668 -0.0417
 3107SOL    HW120957   2.655   4.608   0.052 -1.0103  0.5899  1.6381
 3107SOL    HW220958   2.645   0.009  17.735 -0.4378 -0.3596  0.0196
 3108SOL     OW20959   2.910   2.136  11.666 -0.2403 -0.0113 -0.2259
 3108SOL    HW120960   2.914   2.064  11.603 -1.1507 -2.3988  2.4569
 3108SOL    HW220961   2.993   2.125  11.712  0.8845  1.7351 -1.8498
 3109SOL     OW20962   3.002   0.899  15.313 -0.0665 -0.4316  0.3189
 3109SOL    HW120963   2.909   0.919  15.327  0.1533  1.6471 -1.0457
 3109SOL    HW220964   3.014   0.924  15.221  2.8748 -0.4335  0.7143
 3110SOL     OW20965   1.070   2.828  14.012  0.3301 -0.2309 -0.0198
 3110SOL    HW120966   1.009   2.852  13.942  0.1092  0.5427  0.4332
 3110SOL    HW220967   1.020   2.880  14.076 -0.3706  0.5355 -1.2010
 3111SOL     OW20968   2.984   3.350   9.604 -0.3370 -0.0451  0.2082
 3111SOL    HW120969   2.921   3.282   9.625  0.4918 -1.4250 -1.8177
 3111SOL    HW220970   2.959   3.428   9.655 -1.2582 -0.0302 -0.2628
 3112SOL     OW20971   0.100   3.439   4.023 -0.3042  0.3406 -0.1708
 3112SOL    HW120972   0.137   3.373   4.081 -2.9448 -1.8199 -0.9532
 3112SOL    HW220973   0.009   3.429   4.050  0.1959  0.1292  1.4383
 3113SOL     OW20974   1.603   3.826  10.842 -0.4372 -0.0593  0.4282
 3113SOL    HW120975   1.549   3.904  10.857 -0.4188  0.1398 -0.5337
 3113SOL    HW220976   1.584   3.770  10.917  0.7058 -0.2348  0.5766
 3114SOL     OW20977   1.828   3.103   7.271  0.2947  0.2201  0.0515
 3114SOL    HW120978   1.923   3.113   7.277  0.3782 -0.1601 -0.6574
 3114SOL    HW220979   1.798   3.111   7.362  0.7993 -0.6879  0.3008
 3115SOL     OW20980   2.798   2.336   5.153 -0.0409  0.3778 -0.8466
 3115SOL    HW120981   2.811   2.356   5.061 -1.1956  0.4816 -0.9779
 3115SOL    HW220982   2.704   2.323   5.163 -0.1799  1.7958 -0.3103
 3116SOL     OW20983   0.712   4.135   2.729  0.0760  0.6988 -0.0023
 3116SOL    HW120984   0.784   4.185   2.768  0.7960 -1.5748  1.5130
 3116SOL    HW220985   0.702   4.185   2.647 -1.4673  1.8101  0.8617
 3117SOL     OW20986   4.183   2.906   2.515  0.1991 -1.0122  0.1233
 3117SOL    HW120987   4.189   2.879   2.607  1.7917  1.6712  0.7736
 3117SOL    HW220988   4.267   2.951   2.509 -0.3950  0.1957  0.7629
 3118SOL     OW20989   2.985   0.234   5.981 -0.0140 -0.2843  0.3224
 3118SOL    HW120990   2.942   0.209   6.063  0.4803 -1.6622  0.1588
 3118SOL    HW220991   3.026   0.313   6.015 -1.6463  0.3371  0.8383
 3119SOL     OW20992   1.990   2.158   0.074  0.0605 -0.1560 -0.3462
 3119SOL    HW120993   1.945   2.088   0.027 -0.0339  0.1044 -0.6426
 3119SOL    HW220994   2.046   2.108   0.133 -1.1806 -0.5126  0.5204
 3120SOL     OW20995   3.200   0.064   6.356  0.6851  0.5547  0.4265
 3120SOL    HW120996   3.174   0.140   6.304 -2.9377  0.6365  2.3329
 3120SOL    HW220997   3.284   0.038   6.318 -0.0324 -1.0025 -0.1050
 3121SOL     OW20998   1.803   1.390   7.939  0.8360 -0.2093  0.4450
 3121SOL    HW120999   1.713   1.360   7.946  0.9824 -0.4941  1.1736
 3121SOL    HW221000   1.831   1.345   7.859  0.2285 -0.6050  0.4626
 3122SOL     OW21001   4.508   3.779   3.956 -0.6219  0.7001 -0.1666
 3122SOL    HW121002   4.596   3.740   3.952 -0.6309  0.7632 -0.8290
 3122SOL    HW221003   4.518   3.826   4.039 -1.2367 -0.6325  0.6774
 3123SOL     OW21004   4.167   0.427   0.366  0.1187 -0.1255 -0.1221
 3123SOL    HW121005   4.217   0.469   0.436  0.1683  1.9921 -1.4272
 3123SOL    HW221006   4.105   0.495   0.340 -0.4404 -1.0468 -1.2278
 3124SOL     OW21007   4.160   2.519  12.931  0.2212  0.7570  0.0803
 3124SOL    HW121008   4.180   2.613  12.930  0.0372  0.7861 -1.0587
 3124SOL    HW221009   4.158   2.496  12.838  0.4715 -0.7746  0.4521
 3125SOL     OW21010   2.942   0.728   3.696 -0.0908  0.2955 -0.2208
 3125SOL    HW121011   2.866   0.676   3.671  0.5949 -0.2184 -1.2237
 3125SOL    HW221012   2.991   0.741   3.615 -0.2878  0.1136 -0.3696
 3126SOL     OW21013   3.207   1.902   8.071 -0.1328 -0.1071 -0.1823
 3126SOL    HW121014   3.235   1.835   8.009  1.5308 -1.5644  2.1053
 3126SOL    HW221015   3.236   1.863   8.154 -1.5802 -4.4978 -1.7588
 3127SOL     OW21016   1.202   0.925   8.516  0.5988 -0.2379  0.0077
 3127SOL    HW121017   1.132   0.960   8.462  0.2004  2.1425  2.0867
 3127SOL    HW221018   1.224   0.847   8.465  0.4823 -0.5756  0.4815
 3128SOL     OW21019   0.663   1.183   5.929 -0.5122  0.4760  0.0600
 3128SOL    HW121020   0.667   1.276   5.951  0.9883  0.5186 -0.3327
 3128SOL    HW221021   0.740   1.183   5.871 -0.3551 -1.4365  0.2513
 3129SOL     OW21022   3.544   0.185   6.034 -0.0602 -0.0640 -0.2402
 3129SOL    HW121023   3.605   0.135   5.981  0.8075  1.0937 -0.3333
 3129SOL    HW221024   3.611   0.223   6.090  0.0898  2.6087 -2.2417
 3130SOL     OW21025   2.806   0.240   0.954 -0.3566  0.2153  0.0726
 3130SOL    HW121026   2.793   0.235   1.049  1.0520  0.8888  0.2904
 3130SOL    HW221027   2.773   0.327   0.932 -1.2963 -0.0267  0.5293
 3131SOL     OW21028   2.940   3.938   0.453 -0.1813  0.3888  0.3597
 3131SOL    HW121029   2.994   4.002   0.406  0.6475  1.0110  2.1450
 3131SOL    HW221030   2.996   3.862   0.442 -0.7736 -0.4647  3.3121
 3132SOL     OW21031   1.699   0.075   5.149  0.0767  0.3514  0.0752
 3132SOL    HW121032   1.620   0.034   5.115 -1.4552  2.2025  1.3966
 3132SOL    HW221033   1.713   0.014   5.221 -1.2226  0.4518  0.4145
 3133SOL     OW21034   2.672   2.241   9.542 -0.2105  0.5374 -0.6371
 3133SOL    HW121035   2.704   2.331   9.532 -0.7119  0.8181  0.2909
 3133SOL    HW221036   2.648   2.209   9.455  0.0811  0.5542 -0.7230
 3134SOL     OW21037   2.932   0.032  10.129 -0.2960  0.1115  0.0936
 3134SOL    HW121038   2.996   0.088  10.173  0.4509  1.6757 -2.9573
 3134SOL    HW221039   2.868   0.009  10.196 -1.2913 -1.9667 -1.5546
 3135SOL     OW21040   2.949   0.679   2.203  0.6534 -0.5054 -0.1894
 3135SOL    HW121041   2.915   0.747   2.146  1.7724 -0.7945 -1.2005
 3135SOL    HW221042   2.866   0.643   2.235  0.5313  0.9599  1.1663
 3136SOL     OW21043   1.608   2.318   2.686  0.2461  0.5815  0.4193
 3136SOL    HW121044   1.664   2.336   2.762 -0.7035 -0.6235  1.4019
 3136SOL    HW221045   1.648   2.371   2.617  2.0493 -0.1988  0.8476
 3137SOL     OW21046   3.523   1.296   5.294  0.4461 -0.6634 -0.3153
 3137SOL    HW121047   3.611   1.285   5.331 -0.0779  1.7374  1.6588
 3137SOL    HW221048   3.533   1.245   5.214 -0.8568  0.6847 -1.3238
 3138SOL     OW21049   0.003   1.430   6.838 -0.4210 -0.0440  0.3742
 3138SOL    HW121050   4.704   1.519   6.843  0.8505  0.5651 -1.3509
 3138SOL    HW221051   0.079   1.448   6.782 -1.3835 -2.1873 -1.5664
 3139SOL     OW21052   1.933   3.062  13.543 -0.1479 -0.5085 -0.5636
 3139SOL    HW121053   1.969   3.112  13.616 -0.7083  0.4951 -0.9676
 3139SOL    HW221054   1.927   3.133  13.479 -1.4067 -0.3015 -0.2272
 3140SOL     OW21055   3.899   0.651  15.837 -0.2783  0.3503  0.7495
 3140SOL    HW121056   3.937   0.577  15.789  0.7977 -0.0031  2.1323
 3140SOL    HW221057   3.946   0.635  15.919  0.1552 -0.7029  0.2973
 3141SOL     OW21058   4.543   0.881   0.678  0.4692  0.3800  0.2200
 3141SOL    HW121059   4.547   0.955   0.739 -0.3173  1.0795 -0.5713
 3141SOL    HW221060   4.483   0.834   0.736  0.4665  0.3868  0.2226
 3142SOL     OW21061   0.753   0.151   2.249 -0.0505  0.5505 -0.1357
 3142SOL    HW121062   0.723   0.134   2.338  0.4627  2.8438  0.4603
 3142SOL    HW221063   0.848   0.139   2.253 -0.2576 -1.0487  0.1314
 3143SOL     OW21064   2.270   2.588  15.991  0.1399 -0.3744  0.0640
 3143SOL    HW121065   2.263   2.667  16.044 -0.7993  1.2801 -2.5664
 3143SOL    HW221066   2.225   2.619  15.913 -0.7926 -0.2473  0.6517
 3144SOL     OW21067   3.640   2.291  11.986 -0.2413  0.0351  0.0573
 3144SOL    HW121068   3.716   2.286  11.928  1.3681 -1.0371  2.2286
 3144SOL    HW221069   3.670   2.261  12.072  0.6259 -0.5741 -0.4564
 3145SOL     OW21070   2.870   3.798   3.112  0.0507  0.1128 -0.0256
 3145SOL    HW121071   2.809   3.865   3.080 -0.5981 -1.4882 -2.1288
 3145SOL    HW221072   2.853   3.807   3.206 -1.8299 -4.3719  0.0714
 3146SOL     OW21073   0.637   2.553   7.405  0.1030 -0.2469 -0.1238
 3146SOL    HW121074   0.642   2.541   7.310 -0.6667 -0.0946 -0.1769
 3146SOL    HW221075   0.715   2.608   7.416 -0.9697  1.1646  0.4628
 3147SOL     OW21076   1.287   2.792   8.040 -0.0614  0.1614  0.4713
 3147SOL    HW121077   1.314   2.769   7.951 -1.6344  3.2989 -0.8360
 3147SOL    HW221078   1.201   2.830   8.021  0.5323  0.7499 -1.0033
 3148SOL     OW21079   1.831   2.509  11.982  0.4095  0.2012  0.5389
 3148SOL    HW121080   1.860   2.574  12.045  2.2976  1.7913 -1.9898
 3148SOL    HW221081   1.827   2.554  11.897  2.4728  0.6497  0.6835
 3149SOL     OW21082   1.080   0.450   8.481 -0.4583  0.1326 -0.1806
 3149SOL    HW121083   1.122   0.506   8.546 -1.8014 -0.0977  0.8974
 3149SOL    HW221084   1.152   0.439   8.419  1.6790  2.7472  1.8476
 3150SOL     OW21085   4.233   1.219   6.484 -0.2022 -0.1207 -0.2002
 3150SOL    HW121086   4.152   1.238   6.531 -1.1807 -1.4504 -1.3545
 3150SOL    HW221087   4.224   1.282   6.412  0.9510  0.8977  0.5297
 3151SOL     OW21088   3.603   2.114   7.731 -0.4755  0.0403 -0.1894
 3151SOL    HW121089   3.562   2.033   7.758  0.3134 -0.3554 -0.1652
 3151SOL    HW221090   3.663   2.078   7.665  0.6633  1.5338  0.0140
 3152SOL     OW21091   2.503   0.701  15.439  0.6392  0.2627 -0.2070
 3152SOL    HW121092   2.560   0.727  15.512  1.2218 -1.8352  0.1030
 3152SOL    HW221093   2.520   0.607  15.431  0.2156  0.2809 -1.3510
 3153SOL     OW21094   1.988   4.268   1.614 -0.4418 -0.1078 -0.5122
 3153SOL    HW121095   1.909   4.223   1.644 -0.5490  1.3680  1.4418
 3153SOL    HW221096   1.963   4.353   1.650  1.0457 -0.0851  0.4880
 3154SOL     OW21097   2.278   1.427   5.266  0.4550 -0.1233 -0.1426
 3154SOL    HW121098   2.300   1.338   5.237 -0.3477 -0.6170  0.7400
 3154SOL    HW221099   2.204   1.453   5.211  0.0275 -0.3196  0.3345
 3155SOL     OW21100   0.768   3.176   1.011  0.3578 -0.3536 -0.1494
 3155SOL    HW121101   0.736   3.262   0.982  1.4615 -0.0005 -0.3242
 3155SOL    HW221102   0.850   3.194   1.057  1.9224 -0.0989 -2.9967
 3156SOL     OW21103   0.264   3.581   0.154  0.3581  0.1661 -0.4689
 3156SOL    HW121104   0.214   3.663   0.150  1.5482  0.7523 -2.8928
 3156SOL    HW221105   0.349   3.621   0.141 -0.5109  1.7782 -1.1423
 3157SOL     OW21106   3.617   1.420   3.222  0.1650 -0.0991 -1.2373
 3157SOL    HW121107   3.582   1.360   3.156  0.3783 -1.2160 -0.3209
 3157SOL    HW221108   3.593   1.371   3.300 -2.8923  1.1080 -1.4259
 3158SOL     OW21109   4.205   1.539   3.648  0.5133  1.0019 -0.1232
 3158SOL    HW121110   4.170   1.490   3.574 -1.5103  0.2703  1.3235
 3158SOL    HW221111   4.260   1.471   3.686 -0.5809  0.8098  1.1049
 3159SOL     OW21112   3.931   0.546   4.853  0.2701  0.1777  0.2577
 3159SOL    HW121113   3.982   0.507   4.924  0.4463 -4.2767 -2.3567
 3159SOL    HW221114   3.881   0.467   4.835  2.1197 -0.7652 -0.6939
 3160SOL     OW21115   1.032   2.287  10.401  0.0810 -0.4828 -0.0682
 3160SOL    HW121116   1.069   2.200  10.419 -0.8191 -0.5154  1.6286
 3160SOL    HW221117   1.092   2.353  10.437  0.5885 -0.2753 -1.2992
 3161SOL     OW21118   0.168   0.546   2.809  0.0972  0.3119  0.3797
 3161SOL    HW121119   0.186   0.475   2.871  1.0568  2.3103  2.4188
 3161SOL    HW221120   0.075   0.530   2.800 -0.5705  3.1155  2.3012
 3162SOL     OW21121   4.498   4.595   4.652 -0.0551  0.2234 -0.4233
 3162SOL    HW121122   4.465   4.675   4.612 -1.8767  0.1363  0.9029
 3162SOL    HW221123   4.585   4.627   4.673 -0.1555  1.2663 -1.6084
 3163SOL     OW21124   3.132   4.735  14.607  0.3115  0.1163  0.4846
 3163SOL    HW121125   3.205   0.010  14.546  0.1975 -1.7593 -0.0228
 3163SOL    HW221126   3.078   0.075  14.588  3.0780  1.8114 -0.4561
 3164SOL     OW21127   4.587   1.962   4.769 -0.5064 -0.0647 -0.2169
 3164SOL    HW121128   4.578   2.016   4.690 -0.4138  1.4172  0.7846
 3164SOL    HW221129   4.586   2.022   4.844  0.4114  0.3991 -0.5838
 3165SOL     OW21130   1.450   4.660   5.116 -0.0878 -0.0950  0.1979
 3165SOL    HW121131   1.446   4.565   5.120 -0.9413 -0.0496  0.4403
 3165SOL    HW221132   1.471   4.666   5.022 -1.0173 -1.4348 -0.0804
 3166SOL     OW21133   3.205   3.986   7.103  0.6348 -0.5547 -0.2800
 3166SOL    HW121134   3.291   3.964   7.070 -0.4339 -3.4256 -1.1467
 3166SOL    HW221135   3.173   3.901   7.133 -0.0573 -0.1811  0.0596
 3167SOL     OW21136   1.169   3.338   6.954  0.6673 -0.0273  0.0190
 3167SOL    HW121137   1.170   3.400   6.881  0.6960 -0.1746 -0.1051
 3167SOL    HW221138   1.130   3.260   6.914  0.5051  0.2938 -0.4522
 3168SOL     OW21139   0.148   2.061  13.279 -0.2736 -0.4237 -0.1824
 3168SOL    HW121140   0.071   2.025  13.324 -0.2911 -0.0804  0.0684
 3168SOL    HW221141   0.102   2.125  13.225  1.7380  1.0790 -0.1265
 3169SOL     OW21142   3.769   1.580  14.987  0.1140  0.3195  0.3100
 3169SOL    HW121143   3.792   1.663  15.028 -1.7256  1.5116 -1.0740
 3169SOL    HW221144   3.847   1.562  14.934  0.7923 -0.8512  1.7341
 3170SOL     OW21145   3.809   3.734   2.801 -0.4721  0.2640  1.0353
 3170SOL    HW121146   3.862   3.801   2.756 -0.4179 -0.8680 -0.5829
 3170SOL    HW221147   3.838   3.738   2.892  1.4773 -1.0040  0.4577
 3171SOL     OW21148   0.999   3.009   6.497 -0.0966 -0.2616  0.2266
 3171SOL    HW121149   1.009   2.942   6.565  2.4190 -1.3146 -1.2076
 3171SOL    HW221150   1.001   2.948   6.424  0.6501  0.9770 -0.7981
 3172SOL     OW21151   0.682   2.520   3.216 -0.2623  0.1756  0.4717
 3172SOL    HW121152   0.743   2.448   3.203 -0.0738  0.0810  1.9170
 3172SOL    HW221153   0.597   2.480   3.238  0.4359 -0.8032  1.3803
 3173SOL     OW21154   4.708   1.143   2.941 -0.1000 -0.4958  0.1061
 3173SOL    HW121155   4.713   1.148   2.846  0.4547  0.1347  0.1676
 3173SOL    HW221156   0.057   1.106   2.961 -0.3845 -0.1449  1.9575
 3174SOL     OW21157   1.608   0.613  13.719  0.3297  0.0773 -0.4303
 3174SOL    HW121158   1.679   0.651  13.771  1.3031 -2.2068 -0.0934
 3174SOL    HW221159   1.629   0.521  13.701  0.9414  0.1014  0.1409
 3175SOL     OW21160   1.012   0.988   7.242  0.2445 -0.2854  0.2639
 3175SOL    HW121161   1.067   1.064   7.224 -0.6390 -0.0677 -1.5378
 3175SOL    HW221162   1.049   0.917   7.189 -0.1716 -0.2505 -0.0709
 3176SOL     OW21163   2.366   4.169   3.256 -0.3848  0.0585  0.1196
 3176SOL    HW121164   2.364   4.175   3.351  2.8016 -0.7077  0.2330
 3176SOL    HW221165   2.273   4.154   3.245  0.0994 -3.4793  0.7955
 3177SOL     OW21166   1.396   2.477   1.431 -0.3017  0.4835  0.1338
 3177SOL    HW121167   1.370   2.386   1.441  2.3333 -0.2894  0.0891
 3177SOL    HW221168   1.336   2.506   1.362 -0.3387  2.1629  0.8685
 3178SOL     OW21169   4.035   3.527   5.607 -0.0598  0.8744 -0.0698
 3178SOL    HW121170   4.058   3.510   5.699  3.4666  1.6228 -0.8053
 3178SOL    HW221171   3.972   3.598   5.611 -0.9372  0.1113 -0.3698
 3179SOL     OW21172   2.215   3.818   6.799  0.5132  0.0389  0.6236
 3179SOL    HW121173   2.158   3.887   6.763  1.3338  0.3217 -0.1498
 3179SOL    HW221174   2.154   3.747   6.818 -1.4580  1.8199  0.9518
 3180SOL     OW21175   0.324   2.747   1.690 -0.1944 -0.2717 -0.1727
 3180SOL    HW121176   0.255   2.730   1.754 -0.2910 -4.0009 -1.2715
 3180SOL    HW221177   0.342   2.839   1.707 -0.1528 -0.0800 -1.2178
 3181SOL     OW21178   2.926   4.481   3.339  0.4413  0.0143  0.0802
 3181SOL    HW121179   2.902   4.481   3.246 -1.6109 -2.0451  0.6175
 3181SOL    HW221180   2.901   4.568   3.368 -0.6441  0.3266 -1.8201
 3182SOL     OW21181   0.763   2.539   4.320 -0.5330  0.3750  0.3873
 3182SOL    HW121182   0.761   2.467   4.257  0.1970  1.2529 -0.6609
 3182SOL    HW221183   0.687   2.526   4.376 -0.1843 -1.4906  0.4259
 3183SOL     OW21184   0.480   3.201  14.834 -0.0905 -0.4841  0.2246
 3183SOL    HW121185   0.532   3.270  14.793 -0.4722  0.2424  0.9490
 3183SOL    HW221186   0.395   3.233  14.803 -0.9672 -2.4752  0.5622
 3184SOL     OW21187   2.650   3.897   4.389  0.0681 -0.0459 -0.3269
 3184SOL    HW121188   2.635   3.968   4.326  1.0101 -0.1579 -0.6712
 3184SOL    HW221189   2.632   3.812   4.349 -3.3760  0.7610 -0.5217
 3185SOL     OW21190   1.553   2.314   1.711  0.0683 -0.2174  0.1760
 3185SOL    HW121191   1.548   2.248   1.780  0.5192 -1.3085 -0.8461
 3185SOL    HW221192   1.574   2.266   1.631 -1.0664  1.9490 -1.4074
 3186SOL     OW21193   3.890   3.229   0.205  0.2958  0.0095  0.1375
 3186SOL    HW121194   3.853   3.170   0.270 -0.2890  0.4224  0.1789
 3186SOL    HW221195   3.858   3.312   0.242  0.1045  0.5184 -1.1500
 3187SOL     OW21196   2.898   2.838   4.139  0.0726 -0.0056 -0.1007
 3187SOL    HW121197   2.972   2.815   4.195  2.2200 -0.3351 -3.0680
 3187SOL    HW221198   2.914   2.784   4.061 -1.3748  1.3161 -1.3194
 3188SOL     OW21199   0.534   1.959   9.143  0.1356 -0.3263 -0.6878
 3188SOL    HW121200   0.548   1.910   9.062 -0.0712  0.7376 -1.3611
 3188SOL    HW221201   0.508   1.886   9.199  1.7411 -2.2037 -2.3954
 3189SOL     OW21202   3.533   0.934   0.565  0.2485 -0.6571 -0.3890
 3189SOL    HW121203   3.552   0.968   0.652  0.4759  0.2286 -0.7831
 3189SOL    HW221204   3.595   0.974   0.504 -1.1047  0.9611 -0.7022
 3190SOL     OW21205   1.751   1.653   3.360  0.1063 -0.1587  0.0418
 3190SOL    HW121206   1.716   1.603   3.287  1.2033 -1.5930  0.4983
 3190SOL    HW221207   1.706   1.736   3.343 -0.7543 -0.3458  1.4339
 3191SOL     OW21208   0.006   1.007   7.173 -0.2553  0.7262  0.3576
 3191SOL    HW121209   4.686   0.976   7.244  2.0718 -0.9799  1.4938
 3191SOL    HW221210   0.092   0.985   7.211 -1.0315  0.7432  2.1434
 3192SOL     OW21211   0.357   4.357   4.713 -0.5735 -0.1635 -0.2358
 3192SOL    HW121212   0.374   4.265   4.692  1.9629  0.6204 -1.6416
 3192SOL    HW221213   0.322   4.342   4.801  3.0777  0.3139  1.3093
 3193SOL     OW21214   0.443   4.049   0.545  0.4944 -0.4849 -0.2198
 3193SOL    HW121215   0.515   4.025   0.487 -0.9410 -0.8954 -1.8264
 3193SOL    HW221216   0.386   4.095   0.482  0.6489 -1.0286 -0.7498
 3194SOL     OW21217   2.676   3.421   7.663  0.2267 -0.5432 -0.1718
 3194SOL    HW121218   2.625   3.468   7.729 -2.1336 -1.8595 -1.0902
 3194SOL    HW221219   2.743   3.482   7.632 -1.2452  0.8144 -0.6693
 3195SOL     OW21220   2.653   4.110  15.938  0.2931  0.1213  0.2443
 3195SOL    HW121221   2.704   4.170  15.992 -0.8636  2.7351 -1.5098
 3195SOL    HW221222   2.626   4.166  15.864  2.1603 -0.2319 -0.7019
 3196SOL     OW21223   0.394   4.559   0.391 -0.1821  0.4091  0.3638
 3196SOL    HW121224   0.440   4.634   0.428  0.7167  0.1704 -0.2714
 3196SOL    HW221225   0.304   4.590   0.404 -0.9489 -0.9347 -1.7252
 3197SOL     OW21226   0.922   4.631   7.376 -0.1225 -0.5784 -0.3852
 3197SOL    HW121227   0.961   4.546   7.355 -0.1068 -0.5684 -0.3963
 3197SOL    HW221228   0.861   4.610   7.447  0.3910  0.8453  0.4621
 3198SOL     OW21229   3.805   3.864   7.325  0.1576  0.1652  0.3092
 3198SOL    HW121230   3.725   3.882   7.275  0.2863 -0.2948 -0.0604
 3198SOL    HW221231   3.781   3.773   7.345 -1.7785  0.6766  0.3143
 3199SOL     OW21232   4.464   3.302   7.259  0.5706  0.3763  0.1016
 3199SOL    HW121233   4.505   3.216   7.265  0.1730  0.3954  3.0042
 3199SOL    HW221234   4.534   3.365   7.274 -0.0523  0.9469  0.6085
 3200SOL     OW21235   1.275   1.157   6.813 -0.0646  0.0723  0.3905
 3200SOL    HW121236   1.200   1.217   6.809  1.5974  1.8882 -2.7326
 3200SOL    HW221237   1.331   1.208   6.871  0.6519  1.0346 -1.1363
 3201SOL     OW21238   4.456   2.293   9.503 -0.1103  0.4728  0.4227
 3201SOL    HW121239   4.513   2.327   9.571 -0.0413  0.5351  0.3337
 3201SOL    HW221240   4.508   2.311   9.424 -0.2432 -0.3938  0.1379
 3202SOL     OW21241   0.387   3.630   8.741  0.1190  0.6953 -0.4139
 3202SOL    HW121242   0.479   3.616   8.720  0.3268 -1.1316  1.6974
 3202SOL    HW221243   0.358   3.539   8.753 -0.6521  0.7269 -2.1805
 3203SOL     OW21244   0.783   2.110  10.715  0.1160  0.5095  0.0632
 3203SOL    HW121245   0.844   2.096  10.787 -1.6642 -0.3270  1.4055
 3203SOL    HW221246   0.785   2.024  10.673 -1.1673 -0.2132  1.4928
 3204SOL     OW21247   1.635   0.886   6.611  0.9310  0.6973 -0.1985
 3204SOL    HW121248   1.685   0.851   6.537  0.9792  0.3744 -0.0141
 3204SOL    HW221249   1.571   0.943   6.569  0.8401  1.2374  0.6934
 3205SOL     OW21250   0.667   0.957   5.119 -0.2882  0.2568  0.6761
 3205SOL    HW121251   0.705   1.022   5.178 -0.8746  1.3144 -0.1237
 3205SOL    HW221252   0.702   0.992   5.037 -1.4011  0.8090  0.4330
 3206SOL     OW21253   1.317   4.112   7.957  0.0806 -0.2779 -0.2033
 3206SOL    HW121254   1.306   4.043   8.023  0.6600 -0.0356  0.1515
 3206SOL    HW221255   1.328   4.195   8.005 -2.6759 -0.4286  0.7193
 3207SOL     OW21256   2.613   0.066  16.986  0.2068  0.5478 -0.7435
 3207SOL    HW121257   2.617   0.030  17.075  3.4335 -2.0822 -1.9536
 3207SOL    HW221258   2.565   0.147  17.005 -2.4896 -1.5130  1.2016
 3208SOL     OW21259   0.284   3.713   2.002  0.0079  0.0935  0.1766
 3208SOL    HW121260   0.378   3.729   1.989 -0.2830 -2.0819 -4.7434
 3208SOL    HW221261   0.268   3.739   2.093  0.4442 -1.1845  0.6219
 3209SOL     OW21262   0.712   3.865   7.776  0.1043 -0.3024 -0.0998
 3209SOL    HW121263   0.640   3.847   7.716 -0.9534 -0.2839  1.1799
 3209SOL    HW221264   0.707   3.961   7.777 -1.7886 -0.4663  2.6866
 3210SOL     OW21265   3.804   1.942   3.029  0.6748  0.8756 -0.2775
 3210SOL    HW121266   3.770   1.955   3.117 -1.2528  1.5918 -1.1316
 3210SOL    HW221267   3.720   1.956   2.986  1.2052  1.1989 -1.2123
 3211SOL     OW21268   1.968   0.588  11.131  0.2722 -0.0410  0.3209
 3211SOL    HW121269   1.996   0.570  11.041  0.0086  0.2698  0.1740
 3211SOL    HW221270   1.904   0.658  11.116  2.1564  1.5354 -0.3614
 3212SOL     OW21271   4.714   4.175   6.247  0.5730  0.0991  0.1787
 3212SOL    HW121272   0.018   4.225   6.318  1.8561 -1.9900  0.9002
 3212SOL    HW221273   0.036   4.205   6.177  0.1745 -0.6473 -0.4785
 3213SOL     OW21274   4.659   0.553   1.995  0.0909  0.1247 -0.5853
 3213SOL    HW121275   4.680   0.622   1.933  0.0859  1.7831  1.2631
 3213SOL    HW221276   0.004   0.504   1.983 -0.8141 -1.2798 -1.0982
 3214SOL     OW21277   0.718   0.269   7.250 -0.6854  0.2622  0.0831
 3214SOL    HW121278   0.688   0.257   7.160  0.3847  1.9401 -0.4943
 3214SOL    HW221279   0.807   0.290   7.224 -0.6642 -2.2864 -1.9097
 3215SOL     OW21280   2.201   4.304   8.277 -0.3195 -0.3073  0.2482
 3215SOL    HW121281   2.248   4.377   8.317 -1.8547 -1.0095  3.3871
 3215SOL    HW221282   2.112   4.338   8.280 -0.7410 -1.3185 -0.7121
 3216SOL     OW21283   4.561   2.188   8.579 -0.3767 -0.2801 -0.1002
 3216SOL    HW121284   4.587   2.113   8.526 -2.1581 -1.4224  0.6477
 3216SOL    HW221285   4.613   2.160   8.655 -1.9529  1.4762  1.6390
 3217SOL     OW21286   4.019   0.854   6.235 -0.0726 -0.0409  0.0846
 3217SOL    HW121287   3.948   0.865   6.171  0.7613  1.0011 -0.6509
 3217SOL    HW221288   3.971   0.883   6.313 -1.1611 -0.1479 -0.5366
 3218SOL     OW21289   0.077   0.675  12.779 -0.3851 -0.5711  0.1936
 3218SOL    HW121290   4.730   0.671  12.824 -0.4100  1.9228  0.3566
 3218SOL    HW221291   0.105   0.584  12.786 -2.5027 -1.1880  0.6600
 3219SOL     OW21292   1.872   3.741   1.645  0.3494 -0.1375  0.4373
 3219SOL    HW121293   1.892   3.681   1.573 -1.2710 -2.2223  1.7146
 3219SOL    HW221294   1.872   3.824   1.597  0.7531 -1.0029 -1.0655
 3220SOL     OW21295   0.643   0.760   5.946  0.0336 -0.0774 -0.1385
 3220SOL    HW121296   0.684   0.830   5.894  1.7888 -1.2881 -0.3841
 3220SOL    HW221297   0.587   0.708   5.889 -0.1262  1.6659 -1.6096
 3221SOL     OW21298   1.427   0.185  15.232 -0.2101  0.4210  0.0935
 3221SOL    HW121299   1.417   0.094  15.262  2.0136  0.1847  0.1223
 3221SOL    HW221300   1.378   0.221  15.306 -0.8174  0.8574 -0.5123
 3222SOL     OW21301   1.613   3.750   5.187  0.1394  0.1208  0.1342
 3222SOL    HW121302   1.522   3.731   5.209  0.2822  0.4279  0.9716
 3222SOL    HW221303   1.616   3.829   5.240 -0.9536 -0.5204  1.1620
 3223SOL     OW21304   1.768   2.892   2.789  0.2572 -0.0949 -0.3220
 3223SOL    HW121305   1.841   2.928   2.739  1.5575 -1.8524  0.3079
 3223SOL    HW221306   1.697   2.954   2.769 -0.5158 -0.7481  0.3903
 3224SOL     OW21307   0.531   1.696   8.326  0.2386  0.4177 -0.2830
 3224SOL    HW121308   0.451   1.674   8.279  0.2844  1.9085 -1.0823
 3224SOL    HW221309   0.504   1.680   8.416 -0.8513  0.2144 -0.6478
 3225SOL     OW21310   2.367   3.548  14.933  0.3205  0.0606  0.2704
 3225SOL    HW121311   2.347   3.639  14.957 -1.4817  0.6401 -3.3215
 3225SOL    HW221312   2.420   3.556  14.853  0.6315 -1.7991  0.2940
 3226SOL     OW21313   2.377   2.040   7.624 -0.1646  0.3438 -0.7411
 3226SOL    HW121314   2.401   1.969   7.565  1.2184 -0.1481  0.4236
 3226SOL    HW221315   2.434   2.113   7.599 -1.6233  1.2055 -1.5929
 3227SOL     OW21316   0.027   2.383   3.130  0.2162  0.1466  0.3835
 3227SOL    HW121317   4.710   2.372   3.052 -0.0980 -0.9827  0.7672
 3227SOL    HW221318   0.025   2.296   3.170  0.0345 -0.2385 -0.4705
 3228SOL     OW21319   1.642   4.361   8.883 -0.2043  0.4547  0.0285
 3228SOL    HW121320   1.643   4.363   8.979 -1.8671 -1.5653  0.1025
 3228SOL    HW221321   1.600   4.442   8.854 -0.9637  0.1641  0.3213
 3229SOL     OW21322   4.351   2.015  12.228  0.1311  0.3526  0.0745
 3229SOL    HW121323   4.382   2.024  12.319  0.5062 -0.0443 -0.0120
 3229SOL    HW221324   4.265   1.978  12.247  0.0206 -0.2266 -1.5621
 3230SOL     OW21325   1.682   0.183   5.738  0.4654 -0.0309 -0.3927
 3230SOL    HW121326   1.590   0.204   5.720  0.5944  0.6200 -0.2716
 3230SOL    HW221327   1.721   0.211   5.656 -0.7925  0.6938 -0.7325
 3231SOL     OW21328   1.958   0.322  16.441 -0.3895  0.1676  0.2177
 3231SOL    HW121329   1.929   0.290  16.526  3.8010  0.2815  1.7056
 3231SOL    HW221330   2.048   0.348  16.463 -1.5026  3.5734  0.8057
 3232SOL     OW21331   0.766   0.635   3.096  0.1722 -0.5441 -0.2526
 3232SOL    HW121332   0.717   0.717   3.103  1.7638  0.2220  1.8864
 3232SOL    HW221333   0.743   0.585   3.175  0.1376  0.9801  0.6972
 3233SOL     OW21334   4.088   0.382  12.451  0.5655  0.6052 -0.5608
 3233SOL    HW121335   4.029   0.433  12.394  2.8932  3.4074 -0.4385
 3233SOL    HW221336   4.053   0.297  12.426  2.3674 -0.0501 -0.7934
 3234SOL     OW21337   3.032   1.925   6.698  0.2336 -0.3327  0.4885
 3234SOL    HW121338   2.963   1.904   6.761 -0.1959  1.9225  0.7699
 3234SOL    HW221339   3.030   2.021   6.693  2.9705 -0.3512 -1.1172
 3235SOL     OW21340   1.580   0.541   4.047  0.2339  0.6595  0.1304
 3235SOL    HW121341   1.604   0.448   4.041 -0.6800  0.3897  0.7360
 3235SOL    HW221342   1.647   0.565   4.111 -1.7306 -2.9664  3.5044
 3236SOL     OW21343   0.504   3.327   1.277 -0.3589 -0.3888 -0.6349
 3236SOL    HW121344   0.579   3.377   1.309 -0.6254 -0.5004  0.1583
 3236SOL    HW221345   0.528   3.235   1.282  0.8592 -0.0283  0.1169
 3237SOL     OW21346   3.229   2.858  17.228  0.3937  0.4013 -0.3580
 3237SOL    HW121347   3.136   2.869  17.207  0.6482  0.1017 -1.6401
 3237SOL    HW221348   3.251   2.781  17.175 -0.5886 -0.4111  0.4248
 3238SOL     OW21349   3.850   3.273   8.766  0.1626  0.0654  0.4155
 3238SOL    HW121350   3.835   3.346   8.826 -2.4363 -0.4864  0.4414
 3238SOL    HW221351   3.762   3.238   8.753  0.3117  0.3066 -1.2369
 3239SOL     OW21352   1.997   4.416  16.290  0.2081 -0.2253 -0.1456
 3239SOL    HW121353   2.028   4.506  16.287  2.6621 -0.9673  2.3189
 3239SOL    HW221354   1.934   4.431  16.360 -0.1432 -1.0188 -0.2836
 3240SOL     OW21355   0.353   2.356  10.323 -0.2039  0.1144 -0.0083
 3240SOL    HW121356   0.367   2.343  10.417  0.1870 -0.0318 -0.0864
 3240SOL    HW221357   0.439   2.377  10.288 -1.4461  0.9735 -2.5449
 3241SOL     OW21358   4.018   2.396  16.206  0.0579  0.0308 -0.0748
 3241SOL    HW121359   3.950   2.419  16.143  0.1159 -0.7036 -0.4119
 3241SOL    HW221360   4.096   2.445  16.179  0.5969 -0.7229  0.1124
 3242SOL     OW21361   0.281   3.816  10.724 -0.4142  0.3187 -0.3187
 3242SOL    HW121362   0.237   3.844  10.644 -0.4821 -1.6764 -0.9787
 3242SOL    HW221363   0.242   3.877  10.786 -0.4256  0.6579 -0.6608
 3243SOL     OW21364   3.331   2.172   2.916 -0.6812 -0.2359  0.3292
 3243SOL    HW121365   3.396   2.223   2.964 -2.4308  2.3393 -0.0207
 3243SOL    HW221366   3.271   2.163   2.991 -0.6638  0.0748  0.3812
 3244SOL     OW21367   0.444   1.534   8.540 -0.5372 -0.1106  0.2052
 3244SOL    HW121368   0.451   1.441   8.561 -0.2175 -0.3943 -1.1436
 3244SOL    HW221369   0.360   1.557   8.579  0.2300  1.9541  0.6183
 3245SOL     OW21370   1.939   3.399  12.242 -0.3586 -0.2373 -0.1588
 3245SOL    HW121371   1.932   3.313  12.200 -0.0913 -0.4006  0.1327
 3245SOL    HW221372   2.031   3.405  12.265 -1.1180  3.3596  1.9531
 3246SOL     OW21373   2.687   1.999   4.189 -0.1988  0.0615 -1.1337
 3246SOL    HW121374   2.737   1.920   4.209  0.6419  1.3957  1.9700
 3246SOL    HW221375   2.660   2.031   4.275 -0.2569 -0.2028 -1.0554
 3247SOL     OW21376   3.479   4.621   8.386  0.3526  0.7825 -0.2003
 3247SOL    HW121377   3.540   4.547   8.389  0.9344  1.2499 -0.4480
 3247SOL    HW221378   3.432   4.610   8.469  0.3380  1.1430 -0.1614
 3248SOL     OW21379   2.996   2.482   7.233 -0.4341  0.2797 -0.8240
 3248SOL    HW121380   2.937   2.557   7.221  1.7392  2.1517  0.2210
 3248SOL    HW221381   3.065   2.517   7.290  0.6844 -0.3678 -1.8026
 3249SOL     OW21382   3.458   4.258  15.232  0.1777 -0.9568 -0.3030
 3249SOL    HW121383   3.453   4.163  15.242 -1.7796 -0.8140  0.1445
 3249SOL    HW221384   3.508   4.270  15.151  0.9602 -3.9326 -0.2313
 3250SOL     OW21385   1.950   2.934  11.844 -0.2585 -0.9611  0.3925
 3250SOL    HW121386   1.923   2.847  11.814  0.8420 -1.8134  1.8131
 3250SOL    HW221387   1.934   2.928  11.939  1.9704 -3.0105  0.6479
 3251SOL     OW21388   0.307   3.129   8.114 -0.4653  0.0484 -0.1633
 3251SOL    HW121389   0.225   3.147   8.160 -0.5460 -0.4933 -0.0966
 3251SOL    HW221390   0.291   3.046   8.070  0.9594  0.5337 -1.5925
 3252SOL     OW21391   3.032   1.499  10.498 -0.1030 -0.5682 -0.4806
 3252SOL    HW121392   3.089   1.461  10.431 -0.1811  1.7456 -1.8750
 3252SOL    HW221393   3.023   1.427  10.559  0.9263  0.3233  0.7218
 3253SOL     OW21394   4.281   1.288   7.118  0.5407  0.0906 -0.0985
 3253SOL    HW121395   4.211   1.268   7.179 -0.7406  0.8717 -1.3060
 3253SOL    HW221396   4.248   1.249   7.036  1.5240 -0.5343 -0.1975
 3254SOL     OW21397   4.356   0.026   6.375 -0.0589  0.1285 -0.0180
 3254SOL    HW121398   4.358   0.121   6.360 -0.4202  0.1669  0.1581
 3254SOL    HW221399   4.274   0.004   6.420 -0.9710  2.0762 -0.6968
 3255SOL     OW21400   4.732   4.461   8.410 -0.3691 -0.5156  0.1213
 3255SOL    HW121401   0.071   4.404   8.409 -1.2568 -1.7256  0.8077
 3255SOL    HW221402   4.685   4.432   8.489  0.6077  0.1121  0.9357
 3256SOL     OW21403   2.560   2.775  16.174 -0.3698 -0.0446  0.1266
 3256SOL    HW121404   2.533   2.752  16.085 -0.1822  0.1106  0.0315
 3256SOL    HW221405   2.478   2.760  16.222 -1.6069  1.5142 -1.5214
 3257SOL     OW21406   0.439   4.625   9.347 -0.3558  0.6421  0.1109
 3257SOL    HW121407   0.421   4.682   9.422 -0.2213 -1.2239  1.5615
 3257SOL    HW221408   0.533   4.636   9.332 -0.1994 -1.4875 -0.5861
 3258SOL     OW21409   3.053   4.352  11.535  0.0314  0.7627  0.0599
 3258SOL    HW121410   3.089   4.287  11.474  0.9848  0.7316  0.6502
 3258SOL    HW221411   3.055   4.431  11.481  2.7284 -0.1119 -1.1259
 3259SOL     OW21412   0.416   2.973   5.284 -0.0884 -0.2390  0.7439
 3259SOL    HW121413   0.453   3.051   5.243 -0.6190 -0.8871 -0.9761
 3259SOL    HW221414   0.397   2.994   5.375  1.2232  2.4756  0.3812
 3260SOL     OW21415   2.683   1.605  13.149  0.3491  0.3426  0.0141
 3260SOL    HW121416   2.641   1.542  13.090 -0.3349  1.7081 -0.9716
 3260SOL    HW221417   2.616   1.674  13.156 -1.3200 -1.6617  3.6639
 3261SOL     OW21418   1.729   0.557  14.561 -0.3677 -0.3070  0.0163
 3261SOL    HW121419   1.730   0.631  14.622  0.5300 -0.0082 -0.3608
 3261SOL    HW221420   1.702   0.587  14.474 -1.2589 -0.1815  0.3276
 3262SOL     OW21421   0.902   3.671   4.115  0.1737  0.4034 -0.3742
 3262SOL    HW121422   0.993   3.653   4.142  0.7050  1.8551 -1.2220
 3262SOL    HW221423   0.858   3.601   4.163 -0.1882  1.4093  0.7451
 3263SOL     OW21424   1.011   1.163   5.875  0.0461  0.3997  0.3462
 3263SOL    HW121425   1.070   1.238   5.865  0.5746 -0.0543  0.0733
 3263SOL    HW221426   1.074   1.104   5.917 -0.7439 -0.5905  0.1372
 3264SOL     OW21427   0.580   2.773   1.016 -0.2265 -0.1371  0.2914
 3264SOL    HW121428   0.489   2.787   0.990  0.0812 -1.8971 -1.7756
 3264SOL    HW221429   0.624   2.843   0.967  0.2680 -0.0416  0.8610
 3265SOL     OW21430   4.536   4.489   3.650 -0.2393  0.2754  0.4797
 3265SOL    HW121431   4.527   4.443   3.566 -1.2614  0.1664  0.6512
 3265SOL    HW221432   4.620   4.528   3.626  0.2515 -1.4554 -0.6000
 3266SOL     OW21433   0.347   2.051   5.498 -0.1303  0.0227  0.1523
 3266SOL    HW121434   0.304   1.984   5.550 -0.9368 -1.1058 -1.9730
 3266SOL    HW221435   0.430   2.058   5.545 -0.9857 -0.6217  1.7350
 3267SOL     OW21436   2.353   0.495   5.485  0.2169 -0.0354  0.4358
 3267SOL    HW121437   2.388   0.505   5.574  1.6523 -0.4677 -0.0801
 3267SOL    HW221438   2.418   0.541   5.431  2.9297 -2.2453  1.8227
 3268SOL     OW21439   0.253   3.379   4.743  0.1508  0.0016 -0.5766
 3268SOL    HW121440   0.292   3.429   4.815 -1.5880  0.1547  0.2562
 3268SOL    HW221441   0.177   3.344   4.790 -0.4974  1.4897 -0.5258
 3269SOL     OW21442   2.454   3.980   6.802  0.2224 -0.5419  0.2328
 3269SOL    HW121443   2.389   3.910   6.794 -1.5304  0.9886  0.9672
 3269SOL    HW221444   2.443   4.007   6.893  1.6512  0.1655  0.1978
 3270SOL     OW21445   0.136   2.625   5.155  0.3360  0.1819 -0.5778
 3270SOL    HW121446   0.151   2.715   5.129 -1.1849  0.7504  0.5501
 3270SOL    HW221447   0.216   2.616   5.208  0.7118  3.5979 -0.5979
 3271SOL     OW21448   1.756   2.533   3.578 -0.5220 -0.0702  0.1144
 3271SOL    HW121449   1.819   2.471   3.615  2.7881  2.3766 -1.4336
 3271SOL    HW221450   1.811   2.611   3.571 -0.2916 -0.2727 -0.2911
 3272SOL     OW21451   3.692   0.737   8.013 -0.5220 -0.3303 -0.4707
 3272SOL    HW121452   3.757   0.775   8.073 -2.9793  0.1145  1.8967
 3272SOL    HW221453   3.705   0.643   8.015  0.5583 -0.1693 -0.0197
 3273SOL     OW21454   0.182   3.536  10.724  0.0224  1.0039  0.1734
 3273SOL    HW121455   0.197   3.541  10.630 -1.8072 -1.8109 -0.2737
 3273SOL    HW221456   0.153   3.626  10.735 -2.5692  0.1182  0.5726
 3274SOL     OW21457   0.992   4.230   6.617 -1.0884  0.2864  0.3682
 3274SOL    HW121458   0.972   4.313   6.659  2.1126 -0.0570  2.5428
 3274SOL    HW221459   1.072   4.200   6.660  0.2666  0.0527 -2.3189
 3275SOL     OW21460   0.671   1.376   2.670 -0.3797 -0.0242 -0.2757
 3275SOL    HW121461   0.728   1.345   2.600 -2.1035 -1.6472 -0.9891
 3275SOL    HW221462   0.712   1.328   2.742 -0.0466  0.8247  0.0996
 3276SOL     OW21463   2.207   1.511   3.293 -0.5212 -0.3378 -0.2223
 3276SOL    HW121464   2.258   1.587   3.320  0.8936 -0.8107 -1.5575
 3276SOL    HW221465   2.276   1.445   3.281 -0.4701 -0.4426  0.6106
 3277SOL     OW21466   3.204   2.602   7.349 -0.3445 -0.2518 -0.5151
 3277SOL    HW121467   3.214   2.689   7.309  0.3152  0.0416  0.2746
 3277SOL    HW221468   3.283   2.561   7.313  1.1849  1.5234  0.7703
 3278SOL     OW21469   4.260   3.796   1.917 -0.0414 -0.0977 -0.0824
 3278SOL    HW121470   4.331   3.831   1.863  1.0068 -2.0816  0.0080
 3278SOL    HW221471   4.213   3.743   1.852 -1.1417  0.4151  0.2990
 3279SOL     OW21472   1.120   3.519  15.971 -0.3199 -0.2251 -0.6953
 3279SOL    HW121473   1.083   3.478  16.049  1.0402 -0.1565 -0.0138
 3279SOL    HW221474   1.101   3.611  15.989  1.3302  0.0676 -0.4557
 3280SOL     OW21475   2.103   3.545   8.727  0.3015  0.2657 -0.1783
 3280SOL    HW121476   2.161   3.497   8.667 -0.2191  1.6282 -1.7591
 3280SOL    HW221477   2.161   3.616   8.751  0.4060  1.5874 -4.3471
 3281SOL     OW21478   2.978   1.519   9.555 -0.0488 -0.4992  0.3372
 3281SOL    HW121479   3.030   1.463   9.613  0.0948  0.7329  1.3811
 3281SOL    HW221480   2.897   1.523   9.606 -1.1334 -1.6864 -1.2927
 3282SOL     OW21481   1.107   3.347   3.619  0.2029 -0.3197  0.3453
 3282SOL    HW121482   1.011   3.341   3.617  0.0628  2.1712 -1.1720
 3282SOL    HW221483   1.110   3.341   3.715 -2.1156 -0.6830  0.3930
 3283SOL     OW21484   4.134   0.614  10.546 -0.0544  0.0454 -0.9639
 3283SOL    HW121485   4.052   0.567  10.530  0.5908 -1.8569  1.3777
 3283SOL    HW221486   4.197   0.577  10.483  0.8423 -1.0827  0.6141
 3284SOL     OW21487   1.126   4.677   6.497 -0.4560 -0.0004  0.1884
 3284SOL    HW121488   1.183   4.706   6.425  1.1523  0.9432  1.8562
 3284SOL    HW221489   1.056   4.733   6.464 -2.4045 -1.6029  1.6647
 3285SOL     OW21490   4.394   0.038   8.700  0.1949 -0.2422 -0.1271
 3285SOL    HW121491   4.425   4.730   8.778  1.6947  0.8829 -0.0707
 3285SOL    HW221492   4.435   4.732   8.625 -0.1657 -0.3928 -0.2390
 3286SOL     OW21493   0.337   2.137  13.477  0.0238 -0.6533 -0.3000
 3286SOL    HW121494   0.396   2.201  13.437  1.2063 -1.7495 -0.3385
 3286SOL    HW221495   0.267   2.127  13.413 -1.5181  2.6304  0.9049
 3287SOL     OW21496   1.849   1.365  15.597  0.2619 -0.1667 -0.0587
 3287SOL    HW121497   1.918   1.308  15.564  1.2151  0.5363  0.7411
 3287SOL    HW221498   1.797   1.294  15.635  0.5515 -0.0721  0.5191
 3288SOL     OW21499   3.156   2.642   8.685 -0.3419 -0.4354  0.1494
 3288SOL    HW121500   3.152   2.547   8.693  0.4512 -0.4966 -0.1579
 3288SOL    HW221501   3.116   2.671   8.766 -2.4424 -2.7558 -0.0750
 3289SOL     OW21502   3.325   4.357   7.412 -0.0662  0.6161  0.2780
 3289SOL    HW121503   3.274   4.434   7.387 -1.1242 -0.3554 -0.5065
 3289SOL    HW221504   3.289   4.329   7.496  0.8719  2.1814  1.2063
 3290SOL     OW21505   2.702   2.088   8.333 -0.2962  0.1879  0.3745
 3290SOL    HW121506   2.769   2.098   8.401  0.4578  0.3279 -0.3913
 3290SOL    HW221507   2.687   1.995   8.353 -2.2916  0.0666 -1.7469
 3291SOL     OW21508   1.652   3.161   2.844  0.0522  0.4663 -0.1344
 3291SOL    HW121509   1.593   3.188   2.914  1.2919  0.2780  0.9818
 3291SOL    HW221510   1.605   3.185   2.765 -0.0382  0.4732 -0.0778
 3292SOL     OW21511   3.581   3.603   2.334  0.4733  0.3216  0.2280
 3292SOL    HW121512   3.668   3.640   2.344  1.1815 -1.3096 -0.0025
 3292SOL    HW221513   3.532   3.677   2.297 -2.1959 -1.0863  0.9387
 3293SOL     OW21514   1.833   0.062   3.954 -0.1751  0.4003  0.0039
 3293SOL    HW121515   1.836   0.098   4.043 -0.2970  0.5199 -0.0411
 3293SOL    HW221516   1.847   4.705   3.967 -2.2684 -0.0520 -1.1459
 3294SOL     OW21517   2.534   0.884   9.095 -0.5596  0.8634  0.6206
 3294SOL    HW121518   2.470   0.921   9.155 -1.6372  0.4128 -0.2602
 3294SOL    HW221519   2.494   0.907   9.011 -0.4077  1.7239  0.7807
 3295SOL     OW21520   0.902   0.921   9.340  0.4748  0.1666 -0.4645
 3295SOL    HW121521   0.885   0.999   9.392 -1.1668 -1.8043  1.9359
 3295SOL    HW221522   0.822   0.874   9.363  0.4036 -1.0355 -3.1965
 3296SOL     OW21523   4.606   0.782   5.310 -0.3499 -0.0010  0.5084
 3296SOL    HW121524   4.640   0.827   5.388 -0.2746 -1.8857  1.5461
 3296SOL    HW221525   4.651   0.698   5.310 -4.0476 -1.9559 -0.8262
 3297SOL     OW21526   1.629   1.375   7.163 -0.6344 -0.5579  0.2399
 3297SOL    HW121527   1.577   1.449   7.132 -0.2897 -0.5711 -0.3641
 3297SOL    HW221528   1.640   1.325   7.082 -0.9423 -0.2836  0.0278
 3298SOL     OW21529   1.100   1.075   5.293 -0.2805 -0.0087 -0.1194
 3298SOL    HW121530   1.011   1.041   5.285 -0.1605 -0.2739 -0.3151
 3298SOL    HW221531   1.091   1.137   5.365  0.3715  0.3357 -0.3362
 3299SOL     OW21532   4.116   3.642   1.703  0.0503  0.3729  0.3396
 3299SOL    HW121533   4.162   3.631   1.620 -1.8696 -0.7326 -0.5719
 3299SOL    HW221534   4.103   3.556   1.742  3.4388 -0.2204  0.0981
 3300SOL     OW21535   0.160   2.340   8.083  0.8028  0.0776 -0.2386
 3300SOL    HW121536   0.219   2.265   8.089  1.2178  0.5105  1.0183
 3300SOL    HW221537   0.089   2.304   8.029  0.6144 -1.4210  0.9964
 3301SOL     OW21538   2.544   0.493   5.172 -0.5002 -0.7371  0.0510
 3301SOL    HW121539   2.576   0.464   5.258  1.2582  0.2813 -0.2790
 3301SOL    HW221540   2.533   0.406   5.135  0.0867 -0.7671 -0.0502
 3302SOL     OW21541   1.199   0.278   2.661 -0.0524  0.2598 -0.1626
 3302SOL    HW121542   1.233   0.354   2.614  0.6076  1.6052  2.4819
 3302SOL    HW221543   1.269   0.215   2.643  0.4048  1.3798 -2.3108
 3303SOL     OW21544   0.635   1.547   4.819  0.2311 -0.2828  0.0405
 3303SOL    HW121545   0.567   1.517   4.761 -0.3069 -0.8934  0.9854
 3303SOL    HW221546   0.602   1.636   4.836 -1.5846 -1.2197  1.3390
 3304SOL     OW21547   3.029   1.106   7.644 -0.2346  0.0528  0.1557
 3304SOL    HW121548   2.941   1.138   7.661 -0.9136 -0.4779 -2.2715
 3304SOL    HW221549   3.053   1.151   7.563 -0.5454 -1.6780 -0.8989
 3305SOL     OW21550   1.919   1.707   6.974 -0.1453 -0.4346 -0.1378
 3305SOL    HW121551   1.995   1.701   6.915 -0.9878 -2.1168 -1.0283
 3305SOL    HW221552   1.872   1.634   6.935 -2.4518  0.0768  1.7101
 3306SOL     OW21553   1.281   4.500   2.981 -0.1851  0.4536 -0.6149
 3306SOL    HW121554   1.356   4.447   3.010 -0.3539  0.0030 -0.9941
 3306SOL    HW221555   1.314   4.586   2.955 -0.7388  0.9095  0.2190
 3307SOL     OW21556   1.627   2.331   3.201  0.5714 -0.4765 -0.4466
 3307SOL    HW121557   1.630   2.424   3.177 -1.0359  0.0006  1.3004
 3307SOL    HW221558   1.591   2.334   3.289 -0.7578  0.6236 -1.0335
 3308SOL     OW21559   1.217   0.732   9.774  0.0156 -0.3515 -0.1558
 3308SOL    HW121560   1.256   0.661   9.825 -0.9549 -1.8800 -1.5581
 3308SOL    HW221561   1.282   0.764   9.711 -0.8752  0.0599 -0.8623
 3309SOL     OW21562   2.731   4.118   1.329  0.2479  0.6242  0.1926
 3309SOL    HW121563   2.771   4.143   1.246  0.5159 -1.8339 -0.4216
 3309SOL    HW221564   2.664   4.186   1.334 -0.7977 -0.3112 -0.8040
 3310SOL     OW21565   1.439   3.034  10.455  0.5993 -0.6387 -0.4965
 3310SOL    HW121566   1.347   3.028  10.482  0.4609 -0.8386 -1.0264
 3310SOL    HW221567   1.454   3.128  10.446  0.4762 -0.4629  1.0132
 3311SOL     OW21568   3.164   4.100   3.929 -0.0682 -0.1088  0.0807
 3311SOL    HW121569   3.211   4.075   3.849 -0.7296 -3.4571  0.7109
 3311SOL    HW221570   3.231   4.068   3.990  0.4996  0.0734 -0.4428
 3312SOL     OW21571   1.134   4.513  12.910  0.4249 -0.6744 -0.2211
 3312SOL    HW121572   1.084   4.433  12.893 -0.9726  0.0170  0.5894
 3312SOL    HW221573   1.174   4.492  12.994 -0.0813  0.4594  0.3020
 3313SOL     OW21574   2.128   3.648  13.483 -0.1708 -0.2719  0.0276
 3313SOL    HW121575   2.199   3.707  13.457  1.4462 -0.8745  2.9573
 3313SOL    HW221576   2.181   3.570  13.503 -0.9672 -0.3605  1.7793
 3314SOL     OW21577   1.416   4.351   5.148  0.1725 -0.2392 -0.0262
 3314SOL    HW121578   1.322   4.357   5.166 -0.2473  1.1486 -2.6725
 3314SOL    HW221579   1.415   4.347   5.052  1.1886 -1.0427 -0.0153
 3315SOL     OW21580   1.929   1.790   1.569  0.4138 -0.2247 -0.3467
 3315SOL    HW121581   1.887   1.848   1.505 -0.5222  0.0011  0.4724
 3315SOL    HW221582   2.016   1.831   1.574  1.3208 -2.2726  0.3938
 3316SOL     OW21583   4.595   0.625   6.595 -0.6662 -0.2207  0.3910
 3316SOL    HW121584   4.675   0.673   6.616 -1.4402  0.7831  1.0338
 3316SOL    HW221585   4.562   0.664   6.514 -1.0290 -0.5318  0.3924
 3317SOL     OW21586   4.061   3.627  16.096  0.6301  0.0437  0.0824
 3317SOL    HW121587   4.047   3.602  16.005  1.8054  1.8397 -0.5922
 3317SOL    HW221588   4.035   3.719  16.093  1.9681  0.3519 -1.8611
 3318SOL     OW21589   1.813   1.828   4.060 -0.4965  0.8250  0.3777
 3318SOL    HW121590   1.791   1.884   4.135  0.0241  0.0887  1.0768
 3318SOL    HW221591   1.847   1.896   4.001 -1.0161  1.9541  1.3824
 3319SOL     OW21592   1.778   1.652   8.159  0.2025 -0.3563  0.0173
 3319SOL    HW121593   1.763   1.587   8.228 -3.6137  0.3424 -0.1481
 3319SOL    HW221594   1.864   1.689   8.180  0.0736 -0.2873  0.4350
 3320SOL     OW21595   2.481   2.277   1.994  0.7506  0.8081  0.3701
 3320SOL    HW121596   2.404   2.296   2.048  0.2789 -0.8413  0.2809
 3320SOL    HW221597   2.427   2.223   1.936  0.7217  2.2598 -0.9441
 3321SOL     OW21598   3.582   2.553   6.076  0.8874 -0.3415 -0.0151
 3321SOL    HW121599   3.559   2.553   5.983  0.3559 -0.6905  0.1172
 3321SOL    HW221600   3.667   2.510   6.069  0.4880 -1.2126  0.4844
 3322SOL     OW21601   0.658   0.071   9.977 -0.1965  0.1958 -0.1005
 3322SOL    HW121602   0.571   0.052  10.011 -0.1311 -0.2998 -0.2118
 3322SOL    HW221603   0.713   0.014  10.030 -1.7974 -0.2759  1.0281
 3323SOL     OW21604   3.675   4.173   7.640  0.6111 -0.6028 -0.4332
 3323SOL    HW121605   3.645   4.251   7.593  0.8245 -1.0854 -1.3708
 3323SOL    HW221606   3.615   4.106   7.607 -0.6409 -0.5212  1.7266
 3324SOL     OW21607   0.943   3.238  13.641  1.0819 -0.0330  0.0866
 3324SOL    HW121608   0.996   3.229  13.720  1.3785 -4.5161 -0.6024
 3324SOL    HW221609   0.986   3.182  13.575  0.5667 -0.9398  0.5151
 3325SOL     OW21610   1.541   0.354  17.730 -0.0501  0.0946  0.7170
 3325SOL    HW121611   1.635   0.364   0.000 -0.1241 -0.1612  1.2976
 3325SOL    HW221612   1.535   0.258  17.731 -2.8016  0.2876  1.1523
 3326SOL     OW21613   0.144   2.814  11.481  0.3121  0.0148  0.2866
 3326SOL    HW121614   0.084   2.878  11.442 -0.8267 -0.1062  1.8086
 3326SOL    HW221615   0.153   2.752  11.409 -0.4104 -0.3462  0.5016
 3327SOL     OW21616   4.004   2.818   5.882 -0.7586  0.4738 -0.0264
 3327SOL    HW121617   4.060   2.848   5.811 -0.3306  2.0506  0.9745
 3327SOL    HW221618   3.990   2.728   5.853 -0.8794 -0.0662  1.7046
 3328SOL     OW21619   2.164   1.749   2.694 -0.5009  0.5051 -0.1419
 3328SOL    HW121620   2.100   1.778   2.760  0.9355  3.3558  0.0336
 3328SOL    HW221621   2.129   1.665   2.666 -1.1309  0.6509  0.1892
 3329SOL     OW21622   2.661   0.199   6.792  0.4176 -0.7033  0.6381
 3329SOL    HW121623   2.597   0.182   6.723  0.9781 -3.4138  0.7783
 3329SOL    HW221624   2.623   0.134   6.851 -0.3726  0.1199  1.0409
 3330SOL     OW21625   1.158   4.650   1.283 -0.4224 -0.0418 -0.2645
 3330SOL    HW121626   1.204   4.603   1.214  0.2469  0.2868 -0.0348
 3330SOL    HW221627   1.086   4.665   1.221 -0.3862  0.0527 -0.2824
 3331SOL     OW21628   0.664   4.475   7.212  0.2139  0.2436 -0.3480
 3331SOL    HW121629   0.573   4.506   7.215  0.0516 -0.2590 -0.1674
 3331SOL    HW221630   0.705   4.519   7.137 -1.1917  0.4292 -1.0068
 3332SOL     OW21631   3.572   1.116   2.105  0.2093 -0.3247  0.0133
 3332SOL    HW121632   3.539   1.204   2.089 -1.6289 -1.2788 -1.3527
 3332SOL    HW221633   3.515   1.073   2.041  1.3989 -2.4515  0.3507
 3333SOL     OW21634   2.105   4.126   6.419  0.7646  0.3352  0.2503
 3333SOL    HW121635   2.016   4.119   6.384  0.7855 -0.5313  0.3874
 3333SOL    HW221636   2.159   4.115   6.340 -0.6613 -4.6667 -0.0380
 3334SOL     OW21637   2.785   3.293  14.999  0.1712 -0.0290 -0.0287
 3334SOL    HW121638   2.734   3.221  15.035 -0.8517  1.3467  1.2427
 3334SOL    HW221639   2.752   3.366  15.051 -0.6218 -1.7220  1.8465
 3335SOL     OW21640   3.833   4.094   8.066 -0.7473 -0.3072 -0.1126
 3335SOL    HW121641   3.799   4.077   8.154  1.4758 -0.4901  0.7066
 3335SOL    HW221642   3.820   4.189   8.059  2.7239 -0.0167 -2.6864
 3336SOL     OW21643   4.551   0.591   7.370  0.3753 -0.3070 -0.4188
 3336SOL    HW121644   4.517   0.592   7.460  0.1516  2.4558 -0.5253
 3336SOL    HW221645   4.619   0.524   7.377  0.6234 -0.0778 -0.6226
 3337SOL     OW21646   2.562   4.688   8.826 -0.3927 -0.0644 -0.3422
 3337SOL    HW121647   2.589   4.694   8.917  0.4488 -0.1617 -0.5862
 3337SOL    HW221648   2.609   4.607   8.808  0.2335 -0.4759  3.1859
 3338SOL     OW21649   0.643   3.984   8.990 -0.1844 -0.2075  0.0631
 3338SOL    HW121650   0.608   4.070   8.964  0.9211  0.1836 -0.1012
 3338SOL    HW221651   0.570   3.938   9.032 -0.3291 -1.3343 -1.4001
 3339SOL     OW21652   0.300   0.017   6.847  0.1552 -0.5403  0.5015
 3339SOL    HW121653   0.309   4.683   6.911 -1.8160 -2.5779 -1.4894
 3339SOL    HW221654   0.368   0.074   6.883  1.2507 -1.2028 -0.5251
 3340SOL     OW21655   3.347   0.362   4.046 -0.2637 -0.3849 -0.2170
 3340SOL    HW121656   3.383   0.331   4.129  1.2703  0.6717 -0.4814
 3340SOL    HW221657   3.426   0.370   3.992  0.3119  0.3538  0.7394
 3341SOL     OW21658   4.258   3.932   2.166 -0.4288  0.3817  0.0932
 3341SOL    HW121659   4.221   4.020   2.161 -2.7478 -0.4798  2.1015
 3341SOL    HW221660   4.264   3.915   2.072  0.3794  2.6615 -0.2742
 3342SOL     OW21661   2.873   0.412   2.530  0.3505 -0.3145  0.3140
 3342SOL    HW121662   2.845   0.501   2.554  0.7257 -0.1396  0.0917
 3342SOL    HW221663   2.792   0.363   2.543  0.1322  0.1945  0.9157
 3343SOL     OW21664   4.686   0.789   1.835 -0.5617 -0.0112 -0.4375
 3343SOL    HW121665   0.005   0.858   1.799  0.0761 -0.0054  0.5574
 3343SOL    HW221666   4.688   0.732   1.758  0.5177 -0.8174  0.1921
 3344SOL     OW21667   3.690   3.928   3.528  0.3440  0.1969  0.1601
 3344SOL    HW121668   3.600   3.940   3.560 -1.3772 -2.5464 -3.5150
 3344SOL    HW221669   3.712   4.018   3.506  0.8687  0.2637  0.9632
 3345SOL     OW21670   4.690   2.466   8.551 -0.3508  0.2790 -0.0588
 3345SOL    HW121671   0.038   2.464   8.594  0.5349  0.3268 -1.7963
 3345SOL    HW221672   4.634   2.427   8.619 -0.1882  0.0702 -0.0439
 3346SOL     OW21673   1.677   3.283  13.663  0.1041 -0.5682  0.6321
 3346SOL    HW121674   1.745   3.350  13.656 -1.8161  1.4379  1.4008
 3346SOL    HW221675   1.604   3.323  13.709 -3.2470 -3.7286 -1.8577
 3347SOL     OW21676   1.069   1.823   1.830 -0.3002  0.0995  0.0186
 3347SOL    HW121677   0.985   1.797   1.792 -0.2456 -2.2193  1.4646
 3347SOL    HW221678   1.093   1.744   1.880  0.4128  0.1890 -0.1722
 3348SOL     OW21679   2.236   2.184   8.152  0.1572  0.0782  0.1587
 3348SOL    HW121680   2.193   2.161   8.234 -0.5431  0.6023 -0.0615
 3348SOL    HW221681   2.294   2.108   8.158  0.9384  0.5569 -1.2267
 3349SOL     OW21682   3.248   3.573  15.730  0.5146  0.4610 -0.1650
 3349SOL    HW121683   3.249   3.519  15.809  2.9066 -1.7004 -1.6858
 3349SOL    HW221684   3.286   3.513  15.666 -1.1771 -2.3419  1.4711
 3350SOL     OW21685   0.624   3.995   1.992  0.4217 -0.2398 -0.2772
 3350SOL    HW121686   0.587   3.944   2.064 -1.2880  0.0908 -0.9308
 3350SOL    HW221687   0.711   4.012   2.027 -0.6330  0.7359  1.8364
 3351SOL     OW21688   0.342   0.885   9.674 -0.3547  0.0998  0.4705
 3351SOL    HW121689   0.405   0.943   9.716  0.7075 -0.6001 -0.1759
 3351SOL    HW221690   0.342   0.927   9.588 -1.6688 -0.9689 -0.0481
 3352SOL     OW21691   3.434   4.010  11.678  0.6532  0.1787 -0.1060
 3352SOL    HW121692   3.444   4.083  11.739  0.6405  0.7213 -0.7659
 3352SOL    HW221693   3.450   4.052  11.594  2.2074 -1.4029 -0.6122
 3353SOL     OW21694   3.923   0.801   7.378 -0.0329  0.1126 -0.0051
 3353SOL    HW121695   3.889   0.753   7.452  2.1792 -2.2012 -0.4934
 3353SOL    HW221696   3.913   0.892   7.407  1.1071 -0.4840  2.1923
 3354SOL     OW21697   2.872   0.721   1.918  0.7999  0.2333  0.2896
 3354SOL    HW121698   2.914   0.635   1.928  0.4721  0.1190  0.6775
 3354SOL    HW221699   2.940   0.777   1.880 -0.1615  3.2561  3.0022
 3355SOL     OW21700   1.763   3.778   3.714  0.4258 -0.3003  0.1159
 3355SOL    HW121701   1.765   3.762   3.620  0.7800  1.3384 -0.1638
 3355SOL    HW221702   1.708   3.711   3.754  1.8647 -1.2607  0.4943
 3356SOL     OW21703   2.563   4.636  11.206 -0.0683  0.1308 -0.0117
 3356SOL    HW121704   2.552   4.680  11.122  1.1909  2.7939  1.2181
 3356SOL    HW221705   2.502   4.562  11.202  0.5759 -0.5028  1.9664
 3357SOL     OW21706   3.422   0.088   7.173 -0.2911 -0.1620  0.3570
 3357SOL    HW121707   3.433   0.178   7.204 -1.3408 -0.5502  1.9019
 3357SOL    HW221708   3.490   0.044   7.224  1.5546 -0.0567 -2.0377
 3358SOL     OW21709   1.262   2.582   4.508  0.7913 -0.0296 -0.3992
 3358SOL    HW121710   1.226   2.540   4.586  0.6696  2.1301  0.6940
 3358SOL    HW221711   1.182   2.600   4.458 -1.1050 -1.7366  2.0039
 3359SOL     OW21712   0.055   4.100   2.998  0.2741 -0.2243  0.3753
 3359SOL    HW121713   0.063   4.010   2.965 -0.4597 -0.2922  0.3846
 3359SOL    HW221714   0.145   4.115   3.027  0.8287  0.6120 -1.7869
 3360SOL     OW21715   4.627   0.477   2.785 -0.2231 -0.3563  0.5356
 3360SOL    HW121716   4.558   0.476   2.718  1.5645 -0.8382 -1.2891
 3360SOL    HW221717   4.583   0.508   2.864 -1.9043 -1.1735 -0.0669
 3361SOL     OW21718   2.366   4.112  11.665  1.0054 -0.0370  0.1078
 3361SOL    HW121719   2.282   4.138  11.626  1.2195 -1.6583 -1.4736
 3361SOL    HW221720   2.424   4.155  11.602  1.1421 -1.0497 -0.4548
 3362SOL     OW21721   2.359   1.331  16.946  0.0566  0.3691  0.4120
 3362SOL    HW121722   2.401   1.413  16.971 -1.1344  1.0486  0.1720
 3362SOL    HW221723   2.278   1.359  16.903  0.3140 -0.2626 -0.4882
 3363SOL     OW21724   2.309   2.973   5.482  0.4523  0.1480  0.2001
 3363SOL    HW121725   2.233   3.003   5.532 -0.2871 -0.0824 -0.7671
 3363SOL    HW221726   2.271   2.966   5.394 -0.1504 -0.2462  0.4912
 3364SOL     OW21727   2.449   4.008   8.224  0.1347  0.2390  0.3750
 3364SOL    HW121728   2.456   4.077   8.158  1.1653 -0.5562 -0.3346
 3364SOL    HW221729   2.389   3.939   8.196 -0.0996  0.2992  0.7191
 3365SOL     OW21730   3.049   3.925   1.320 -0.5015  1.2665 -0.3091
 3365SOL    HW121731   3.088   3.917   1.406  1.9126  1.8582 -1.3531
 3365SOL    HW221732   3.129   3.916   1.269 -1.4997 -0.3368 -1.6048
 3366SOL     OW21733   0.477   4.312   0.421  0.0979  0.4058 -0.2442
 3366SOL    HW121734   0.455   4.405   0.414  0.4301  0.7078  2.7988
 3366SOL    HW221735   0.392   4.269   0.413  1.3482 -2.5622  2.5342
 3367SOL     OW21736   0.059   0.889   6.021  0.4221 -0.3114 -0.5116
 3367SOL    HW121737   0.145   0.872   6.058 -0.1761  0.3287  1.1566
 3367SOL    HW221738   0.065   0.838   5.940  0.8044 -0.5215 -0.3496
 3368SOL     OW21739   0.956   3.455   7.378  0.7194 -0.0117 -0.2633
 3368SOL    HW121740   0.864   3.477   7.364  0.3985 -0.1605  1.7143
 3368SOL    HW221741   0.987   3.536   7.419 -0.0913 -0.3133  0.9294
 3369SOL     OW21742   3.251   2.206   5.379  0.1133 -0.1976  0.3801
 3369SOL    HW121743   3.205   2.184   5.460  2.0528 -0.0719  1.5205
 3369SOL    HW221744   3.181   2.196   5.314 -0.3372 -0.9785  0.9811
 3370SOL     OW21745   0.673   0.716   9.883  0.0012  0.1758  0.1807
 3370SOL    HW121746   0.671   0.624   9.912 -3.6797  0.3196  0.4737
 3370SOL    HW221747   0.767   0.728   9.870 -0.1545 -0.0275 -1.1766
 3371SOL     OW21748   1.115   3.945   7.584 -0.1909  0.2476 -0.4601
 3371SOL    HW121749   1.058   3.907   7.651  1.4096 -0.2619  0.6183
 3371SOL    HW221750   1.200   3.960   7.626 -0.3996  1.3792 -0.4431
 3372SOL     OW21751   0.777   4.345   4.932 -0.3803 -0.3497 -0.6157
 3372SOL    HW121752   0.771   4.323   4.839 -1.0581  0.3293 -0.7326
 3372SOL    HW221753   0.839   4.277   4.961  0.2334 -0.6685 -2.6578
 3373SOL     OW21754   1.871   1.257   6.785 -0.4623  0.6470  0.0543
 3373SOL    HW121755   1.896   1.260   6.692 -2.7544  1.3570 -0.5265
 3373SOL    HW221756   1.835   1.170   6.801  3.8998 -1.2969 -0.6584
 3374SOL     OW21757   3.355   2.205   6.965  0.0261  0.5752 -0.4777
 3374SOL    HW121758   3.433   2.178   7.015  0.0130  3.4381  1.0907
 3374SOL    HW221759   3.289   2.204   7.034  0.9998 -1.4736  0.4192
 3375SOL     OW21760   3.285   0.698   8.535  0.4593  0.3913  0.1766
 3375SOL    HW121761   3.280   0.721   8.628  0.3146 -3.5385  1.1215
 3375SOL    HW221762   3.336   0.773   8.504  0.5550  1.0177  1.8634
 3376SOL     OW21763   0.189   2.697   5.884 -0.2720 -0.0210 -0.0996
 3376SOL    HW121764   0.178   2.650   5.967 -3.3206  0.2678 -0.3378
 3376SOL    HW221765   0.255   2.633   5.855 -0.9309 -0.4464 -0.6717
 3377SOL     OW21766   1.416   0.299   5.811  0.2770 -0.8648 -0.0359
 3377SOL    HW121767   1.486   0.337   5.864 -1.7765  2.0213  0.5932
 3377SOL    HW221768   1.394   0.218   5.859  0.7961  0.4279  2.4110
 3378SOL     OW21769   4.480   4.455   1.149 -0.2018  0.2617  0.4720
 3378SOL    HW121770   4.462   4.398   1.075  1.5429 -0.8349  0.8838
 3378SOL    HW221771   4.393   4.478   1.180 -0.7031 -1.3537  0.2520
 3379SOL     OW21772   1.426   0.669   6.986 -0.0520 -0.1076 -0.5433
 3379SOL    HW121773   1.395   0.598   6.931 -1.1679 -0.6614  0.7936
 3379SOL    HW221774   1.403   0.746   6.934  2.0638  0.6428 -0.3643
 3380SOL     OW21775   0.957   0.913  16.198  0.0936  0.3936  0.2941
 3380SOL    HW121776   0.934   0.994  16.153  1.4758 -0.9711 -2.8532
 3380SOL    HW221777   1.030   0.891  16.141 -0.0492  0.7762 -0.0346
 3381SOL     OW21778   1.797   1.369   1.571 -0.1870 -0.1268  0.2482
 3381SOL    HW121779   1.875   1.415   1.540  0.5214 -0.9715  0.7947
 3381SOL    HW221780   1.836   1.328   1.647 -0.5947  0.8710  0.9982
 3382SOL     OW21781   2.170   0.993   3.172 -0.0986 -0.4226 -0.6792
 3382SOL    HW121782   2.156   1.012   3.265  1.3628 -1.7658 -0.1838
 3382SOL    HW221783   2.158   1.081   3.137  1.9294  0.5684  1.1359
 3383SOL     OW21784   2.623   1.400  15.846 -0.1799  0.2708  0.3539
 3383SOL    HW121785   2.680   1.477  15.845 -0.0360  0.1919  1.6783
 3383SOL    HW221786   2.610   1.405  15.941 -0.3450 -1.1205  0.3995
 3384SOL     OW21787   4.494   3.922   2.311  0.1145 -0.2607  0.0225
 3384SOL    HW121788   4.548   3.907   2.233 -1.5661 -0.0087 -1.1994
 3384SOL    HW221789   4.403   3.916   2.284  0.2501  0.3575 -0.5813
 3385SOL     OW21790   1.544   2.278   5.347  0.2642  0.1554  0.4450
 3385SOL    HW121791   1.558   2.308   5.436 -0.3517 -1.2266  1.0025
 3385SOL    HW221792   1.629   2.236   5.333  0.6262  0.4462  1.8486
 3386SOL     OW21793   0.459   1.851   6.228 -0.5500 -0.0321  0.0779
 3386SOL    HW121794   0.409   1.860   6.309 -1.6634 -0.2169 -0.5874
 3386SOL    HW221795   0.527   1.788   6.252  0.5192  1.5037  1.0726
 3387SOL     OW21796   1.348   3.242  17.016  0.1088 -0.3537 -0.2477
 3387SOL    HW121797   1.307   3.318  17.056 -0.8135 -1.7964  1.5170
 3387SOL    HW221798   1.392   3.280  16.940 -2.1641  0.8025 -0.9876
 3388SOL     OW21799   3.801   3.720   3.393 -0.3600 -0.2321  0.0266
 3388SOL    HW121800   3.771   3.794   3.445  1.5788 -0.7931  1.9481
 3388SOL    HW221801   3.717   3.684   3.363 -0.3081  0.4407 -0.9112
 3389SOL     OW21802   2.572   1.112   3.265 -0.6638 -0.5223  0.0408
 3389SOL    HW121803   2.570   1.020   3.238 -0.0039 -0.0348 -1.6887
 3389SOL    HW221804   2.667   1.121   3.260 -0.6403 -1.6974 -1.6891
 3390SOL     OW21805   3.117   1.953   2.163 -0.1412 -0.1892 -0.2044
 3390SOL    HW121806   3.054   2.012   2.121 -0.0464 -1.5309 -2.2286
 3390SOL    HW221807   3.048   1.908   2.211  0.0115 -0.7180 -0.4897
 3391SOL     OW21808   1.191   0.928  13.362  0.0744 -0.3949  0.1157
 3391SOL    HW121809   1.251   0.854  13.349 -1.0096 -0.7118 -2.9778
 3391SOL    HW221810   1.245   1.000  13.330 -1.5908 -0.2749 -2.4242
 3392SOL     OW21811   4.554   2.330   2.430 -0.3572  0.1008 -0.3511
 3392SOL    HW121812   4.600   2.279   2.364  1.6743  2.1288 -0.4889
 3392SOL    HW221813   4.607   2.305   2.506 -2.8721 -0.7349  1.1399
 3393SOL     OW21814   1.931   1.149   2.106  0.1627 -0.5611  0.2808
 3393SOL    HW121815   1.914   1.123   2.196 -0.2455 -0.9410  0.0915
 3393SOL    HW221816   2.025   1.169   2.107  0.1984 -0.5883 -1.6973
 3394SOL     OW21817   0.319   3.910   7.440  0.3447 -0.0028  0.5174
 3394SOL    HW121818   0.380   3.904   7.367  0.5064 -0.4390  0.6905
 3394SOL    HW221819   0.354   3.991   7.478 -0.5373  0.6461 -0.0299
 3395SOL     OW21820   2.959   3.628   2.687 -0.2337  0.6286  0.4442
 3395SOL    HW121821   2.994   3.668   2.607 -0.1489  0.0408  0.1805
 3395SOL    HW221822   2.987   3.689   2.755  1.4288 -0.9877  1.2113
 3396SOL     OW21823   3.175   0.800   8.839  0.4182 -1.2657  0.4152
 3396SOL    HW121824   3.181   0.780   8.933  0.1972 -3.8645 -0.1309
 3396SOL    HW221825   3.172   0.896   8.841  3.8213 -1.0914 -1.6727
 3397SOL     OW21826   0.344   3.218   6.242 -0.1868  0.2357 -0.1180
 3397SOL    HW121827   0.257   3.200   6.277  1.4543 -3.2014  2.1613
 3397SOL    HW221828   0.372   3.129   6.223 -0.9445 -0.2501  1.0929
 3398SOL     OW21829   4.337   0.137   2.064 -0.0350 -0.1145  0.4521
 3398SOL    HW121830   4.313   0.046   2.078  2.1546 -0.6078  1.0050
 3398SOL    HW221831   4.263   0.187   2.029  2.2550  2.2259 -1.1273
 3399SOL     OW21832   0.266   4.145   0.355 -0.0990  1.0201  0.4591
 3399SOL    HW121833   0.331   4.122   0.288  0.1493 -0.1216  1.0948
 3399SOL    HW221834   0.181   4.118   0.321  1.0463 -1.0821 -0.7212
 3400SOL     OW21835   2.949   1.657   1.963  0.0880 -0.0018 -0.4886
 3400SOL    HW121836   3.008   1.633   2.034  0.4159  1.0323 -0.4103
 3400SOL    HW221837   3.020   1.671   1.901 -0.4833  1.7524 -0.7472
 3401SOL     OW21838   2.576   1.629   2.935  0.7147 -0.4768  0.4457
 3401SOL    HW121839   2.622   1.696   2.884 -2.2701  1.5285  0.3873
 3401SOL    HW221840   2.608   1.651   3.022  1.1810 -0.9257  0.3864
 3402SOL     OW21841   0.180   0.513   6.011 -0.1291 -0.4207  0.2431
 3402SOL    HW121842   0.241   0.587   6.010 -0.6278 -0.0091  0.7910
 3402SOL    HW221843   0.117   0.554   6.069 -0.2630 -0.8363  0.3907
 3403SOL     OW21844   4.288   1.742   7.648  0.1088 -0.6405  0.2687
 3403SOL    HW121845   4.234   1.815   7.617  2.8270  1.7402  1.0830
 3403SOL    HW221846   4.292   1.693   7.567 -1.7557 -0.1363 -0.1113
 3404SOL     OW21847   2.330   3.608   5.326  0.4329 -0.3264  0.2306
 3404SOL    HW121848   2.420   3.593   5.296  0.7453  1.3311  0.3300
 3404SOL    HW221849   2.315   3.514   5.340 -0.1301 -0.3676 -0.6759
 3405SOL     OW21850   2.812   4.602  13.219  0.4853  0.1682 -0.0510
 3405SOL    HW121851   2.823   4.540  13.291  0.1506 -1.3194 -1.2795
 3405SOL    HW221852   2.864   4.562  13.149 -0.2051 -0.0142 -0.4584
 3406SOL     OW21853   0.533   1.091   5.372 -0.1815 -0.8986  0.0880
 3406SOL    HW121854   0.438   1.079   5.372 -0.2346 -0.5297 -3.0490
 3406SOL    HW221855   0.526   1.167   5.314  1.2063  0.7902  2.1340
 3407SOL     OW21856   0.272   2.277   3.148 -0.7685 -0.2866  0.6659
 3407SOL    HW121857   0.192   2.328   3.136  0.4000  1.1562 -0.9614
 3407SOL    HW221858   0.300   2.247   3.061  0.1055 -1.1250  1.2314
 3408SOL     OW21859   4.312   1.765   9.558  0.2913  0.4555 -0.0861
 3408SOL    HW121860   4.243   1.728   9.503  0.5760 -1.7596  1.0706
 3408SOL    HW221861   4.324   1.855   9.526 -0.3894  0.0066 -1.5968
 3409SOL     OW21862   1.228   3.359   4.195 -0.1777  0.2573 -0.0291
 3409SOL    HW121863   1.309   3.364   4.245  0.1445 -0.6530 -0.4651
 3409SOL    HW221864   1.169   3.311   4.253  1.0046 -0.1877  0.7965
 3410SOL     OW21865   1.332   3.519  10.454 -0.3811 -0.3661  0.3648
 3410SOL    HW121866   1.310   3.454  10.387 -2.2956 -0.3804  0.9958
 3410SOL    HW221867   1.376   3.588  10.404 -0.3520 -1.2341 -0.8178
 3411SOL     OW21868   2.615   2.531   4.648  0.6663 -0.0418  0.3121
 3411SOL    HW121869   2.626   2.473   4.723  0.1464 -1.4964 -0.7424
 3411SOL    HW221870   2.706   2.543   4.619 -0.1845  0.0297 -2.3544
 3412SOL     OW21871   3.742   0.090   9.313  0.2278  0.1637  0.1126
 3412SOL    HW121872   3.726   0.043   9.395  1.0134 -2.3351 -1.1679
 3412SOL    HW221873   3.798   0.164   9.338 -1.3283  1.5543 -0.4566
 3413SOL     OW21874   2.088   2.118   4.825  0.2465  0.2302  0.0215
 3413SOL    HW121875   2.110   2.192   4.769 -0.0781 -0.0380 -0.4558
 3413SOL    HW221876   2.147   2.125   4.901 -2.8269 -1.3659  2.5589
 3414SOL     OW21877   0.748   1.096  11.970 -0.0824 -0.3893  0.1520
 3414SOL    HW121878   0.728   1.034  12.040  1.2528 -1.3670 -0.3129
 3414SOL    HW221879   0.841   1.077  11.956  0.3900  0.3949  2.2564
 3415SOL     OW21880   4.503   2.723   8.881 -0.9808  0.5379  0.4917
 3415SOL    HW121881   4.519   2.667   8.958  0.6308  0.6768  0.2668
 3415SOL    HW221882   4.431   2.676   8.839 -0.1781  0.8775 -1.2774
 3416SOL     OW21883   0.492   2.035   7.933  0.1727 -0.2422 -0.0023
 3416SOL    HW121884   0.563   2.099   7.922 -0.4589  0.0588 -2.3187
 3416SOL    HW221885   0.504   1.992   7.848  1.1591 -1.1398  0.5867
 3417SOL     OW21886   1.368   4.095   7.562  0.0112  0.4320  0.2322
 3417SOL    HW121887   1.404   4.006   7.555  0.1170  0.4937  0.0117
 3417SOL    HW221888   1.404   4.132   7.643 -0.3953 -1.2048  1.1678
 3418SOL     OW21889   2.922   2.364   1.984 -0.0110 -0.5193  0.0262
 3418SOL    HW121890   2.915   2.360   2.080 -1.7367  0.5630 -0.0685
 3418SOL    HW221891   2.854   2.297   1.972 -0.0975 -0.8663  2.3630
 3419SOL     OW21892   1.294   3.905   8.585 -0.8169 -0.2648 -0.6279
 3419SOL    HW121893   1.234   3.881   8.515 -1.7474  0.1941  0.0128
 3419SOL    HW221894   1.374   3.937   8.544 -0.4200  0.6032  0.7956
 3420SOL     OW21895   1.974   0.535  15.844 -0.0066  0.1541  0.7025
 3420SOL    HW121896   1.924   0.522  15.764  1.4423  0.6660 -0.3005
 3420SOL    HW221897   1.944   0.625  15.858  0.5715  0.8531 -2.4765
 3421SOL     OW21898   0.248   1.853   4.182  0.6161  0.0299  0.6204
 3421SOL    HW121899   0.298   1.819   4.256 -1.0316  0.8470  2.1137
 3421SOL    HW221900   0.169   1.878   4.230 -1.7743 -1.6381 -2.4682
 3422SOL     OW21901   3.611   3.500   4.025  0.3270  0.2104  0.1819
 3422SOL    HW121902   3.602   3.466   3.936 -3.7153  0.7319  0.4130
 3422SOL    HW221903   3.687   3.558   4.015  1.3835 -1.1329  0.4217
 3423SOL     OW21904   3.621   1.328   7.960 -0.3708 -0.6507 -0.1814
 3423SOL    HW121905   3.532   1.315   7.992  0.4675  0.9717  2.8036
 3423SOL    HW221906   3.669   1.262   8.010  1.2318  1.2795  0.8078
 3424SOL     OW21907   2.937   2.089  11.394 -0.1384 -0.0157  0.2519
 3424SOL    HW121908   2.874   2.135  11.339  0.9226  0.8028 -0.2759
 3424SOL    HW221909   3.008   2.151  11.409 -2.1727  2.7783 -1.6561
 3425SOL     OW21910   3.833   4.717   4.861  0.1566  0.0986  0.3380
 3425SOL    HW121911   3.778   0.030   4.921  0.8901 -0.0872  1.1726
 3425SOL    HW221912   3.912   0.033   4.848  1.4095 -1.8040  0.1394
 3426SOL     OW21913   2.818   0.696   7.387  0.3459  0.1079 -0.4183
 3426SOL    HW121914   2.735   0.693   7.435 -0.1671 -0.6223 -1.3531
 3426SOL    HW221915   2.841   0.606   7.407  1.5566  0.1066 -1.8653
 3427SOL     OW21916   1.656   1.739   6.238  0.0262  0.1042  0.1434
 3427SOL    HW121917   1.655   1.834   6.228  4.0695 -0.0093 -1.0739
 3427SOL    HW221918   1.717   1.722   6.310  0.1970  2.4121  0.5346
 3428SOL     OW21919   2.119   1.945   8.592  0.5940  0.1070  0.2822
 3428SOL    HW121920   2.070   1.972   8.669 -1.3524 -0.0906 -0.8783
 3428SOL    HW221921   2.163   1.867   8.626 -1.2013 -1.2186 -0.4272
 3429SOL     OW21922   0.844   1.375   5.435 -0.1249  0.6048 -0.0923
 3429SOL    HW121923   0.913   1.439   5.416 -0.1033 -0.0839 -2.3751
 3429SOL    HW221924   0.769   1.428   5.460  0.1997  1.1728 -0.3316
 3430SOL     OW21925   3.755   4.487  11.292 -0.1272  0.3588 -0.0716
 3430SOL    HW121926   3.727   4.429  11.362  1.9706 -0.2445  0.2697
 3430SOL    HW221927   3.701   4.456  11.220  0.1075 -0.5478  0.1482
 3431SOL     OW21928   0.965   1.821   0.786  0.5816  0.3829 -0.5507
 3431SOL    HW121929   0.992   1.733   0.761  0.8358  0.1739  0.4236
 3431SOL    HW221930   0.961   1.867   0.702  0.6553  3.8642  1.3327
 3432SOL     OW21931   0.539   4.561   8.182  0.6405  0.5946  0.1217
 3432SOL    HW121932   0.627   4.547   8.146 -0.1848 -2.9466 -0.5701
 3432SOL    HW221933   0.552   4.642   8.230 -0.6612  0.5812  0.4855
 3433SOL     OW21934   0.162   1.248   4.056  0.5532  0.5559  0.1272
 3433SOL    HW121935   0.148   1.197   4.136  0.2320  0.7892  0.2242
 3433SOL    HW221936   0.256   1.235   4.055  0.4812  0.1487 -1.1410
 3434SOL     OW21937   4.087   0.663   4.292 -0.4230 -0.5620 -0.4779
 3434SOL    HW121938   4.074   0.756   4.309 -1.7471 -0.7228 -0.6659
 3434SOL    HW221939   4.036   0.623   4.362 -1.3157  0.0751 -0.7736
 3435SOL     OW21940   0.388   2.550   2.103  0.2074  0.0119  0.6852
 3435SOL    HW121941   0.414   2.531   2.013  1.1037 -1.0861  1.1826
 3435SOL    HW221942   0.299   2.583   2.091 -0.9532 -2.7289  1.6613
 3436SOL     OW21943   1.214   0.675   8.034 -0.5349 -0.3720 -0.7693
 3436SOL    HW121944   1.249   0.638   7.953 -0.7969 -3.0178  0.3160
 3436SOL    HW221945   1.121   0.669   8.016 -1.0063  2.5251  0.6540
 3437SOL     OW21946   0.786   2.252  14.345 -0.3191  0.1274 -0.5331
 3437SOL    HW121947   0.795   2.346  14.329  2.9309  0.3361  2.4955
 3437SOL    HW221948   0.765   2.256  14.438 -0.4695 -2.9943 -0.4166
 3438SOL     OW21949   3.733   3.632  12.625 -0.3644  0.4059  0.1788
 3438SOL    HW121950   3.773   3.555  12.582  0.1357 -0.8210  2.8367
 3438SOL    HW221951   3.728   3.600  12.715  1.0331  1.1365  0.5200
 3439SOL     OW21952   4.697   1.719   6.614  0.1875 -0.0267 -0.3410
 3439SOL    HW121953   4.642   1.778   6.562 -0.3720 -1.6209 -1.5948
 3439SOL    HW221954   4.656   1.724   6.700 -1.1348  0.7166 -1.0170
 3440SOL     OW21955   1.223   4.242   6.820 -0.0035  0.5927  0.3369
 3440SOL    HW121956   1.228   4.332   6.788  0.2769 -0.1118 -1.5696
 3440SOL    HW221957   1.253   4.244   6.911  2.0165 -2.1231 -0.2915
 3441SOL     OW21958   0.598   4.081  14.948 -0.3168  0.0151 -0.2699
 3441SOL    HW121959   0.630   4.165  14.915 -2.2262  0.3236 -1.2947
 3441SOL    HW221960   0.546   4.120  15.019 -0.8446 -2.0229  0.4541
 3442SOL     OW21961   2.295   1.523   5.767 -0.4344  0.2007  0.1740
 3442SOL    HW121962   2.343   1.476   5.835 -1.5304  1.3339  1.7204
 3442SOL    HW221963   2.234   1.452   5.747 -0.8002  0.2294  1.1629
 3443SOL     OW21964   0.189   2.908   5.118  0.2964 -0.2427 -0.6168
 3443SOL    HW121965   0.256   2.949   5.173  0.3331  1.6995 -2.0784
 3443SOL    HW221966   0.115   2.960   5.152  2.2673  2.0967  0.0811
 3444SOL     OW21967   0.838   2.690  10.217  0.7193 -0.4815 -0.7451
 3444SOL    HW121968   0.822   2.609  10.265 -2.3191 -0.4698 -1.7030
 3444SOL    HW221969   0.751   2.725  10.238  1.2036 -0.9810  2.0990
 3445SOL     OW21970   0.278   2.873  10.261 -0.3949  0.0651  0.2821
 3445SOL    HW121971   0.190   2.836  10.266 -0.9500  1.2292 -0.8152
 3445SOL    HW221972   0.322   2.837  10.338 -1.2201  1.1775  1.2640
 3446SOL     OW21973   3.986   0.417   2.684 -0.2389 -0.1692 -0.4304
 3446SOL    HW121974   4.007   0.352   2.617  1.1690 -0.6825  0.5038
 3446SOL    HW221975   3.973   0.364   2.762  1.0338  0.7253  0.3811
 3447SOL     OW21976   0.386   3.130   7.331  0.2622 -0.3496 -0.0036
 3447SOL    HW121977   0.319   3.193   7.356 -0.1280 -0.4333 -0.8559
 3447SOL    HW221978   0.445   3.188   7.282 -0.2171 -0.4914 -0.7341
 3448SOL     OW21979   4.348   0.294  12.230 -0.5065 -0.2593 -0.2253
 3448SOL    HW121980   4.258   0.312  12.204 -0.4624  2.2740  1.3023
 3448SOL    HW221981   4.341   0.302  12.325  1.4434  0.9194 -0.1890
 3449SOL     OW21982   3.263   1.875   6.320  0.9194 -0.5107 -0.1046
 3449SOL    HW121983   3.220   1.881   6.406  1.2008 -1.5589  0.0992
 3449SOL    HW221984   3.247   1.784   6.296 -2.8523  0.5083 -1.5348
 3450SOL     OW21985   1.972   3.044   9.500  0.3739  0.6537  0.0192
 3450SOL    HW121986   1.965   3.035   9.405 -0.0776  0.5017  0.0661
 3450SOL    HW221987   1.911   3.115   9.517  0.9501  0.4944  2.8799
 3451SOL     OW21988   1.534   2.651   4.813  0.1950  0.8529 -0.0920
 3451SOL    HW121989   1.479   2.627   4.738  0.6357 -1.9114  0.4462
 3451SOL    HW221990   1.621   2.645   4.775 -0.6432 -0.9760 -1.7232
 3452SOL     OW21991   4.518   2.988   5.070 -0.3505 -0.1808 -0.7064
 3452SOL    HW121992   4.574   3.065   5.058  1.4172 -1.0718  1.9337
 3452SOL    HW221993   4.541   2.969   5.160  0.5999 -0.8275 -1.0946
 3453SOL     OW21994   1.606   1.966   8.893 -0.4901  0.2627  0.4418
 3453SOL    HW121995   1.631   1.998   8.807  1.1594  4.0522  2.3312
 3453SOL    HW221996   1.682   1.991   8.945 -0.7120 -1.0543  1.3983
 3454SOL     OW21997   4.463   3.672   6.132  0.1092  0.0947  0.1950
 3454SOL    HW121998   4.434   3.604   6.192  0.9519 -0.7619 -0.3591
 3454SOL    HW221999   4.405   3.653   6.059  0.6705 -2.4526  0.3979
 3455SOL     OW22000   2.650   1.817   3.829 -0.3342 -0.2583  0.4824
 3455SOL    HW122001   2.659   1.786   3.738  4.1489  2.3615  0.0116
 3455SOL    HW222002   2.739   1.839   3.856 -0.3116  1.0529 -0.6688
 3456SOL     OW22003   3.404   4.020   5.612  0.5484 -0.0318 -0.3248
 3456SOL    HW122004   3.381   4.100   5.565 -1.0793 -1.4614 -1.9366
 3456SOL    HW222005   3.337   4.031   5.680  0.4218  1.5584 -0.7099
 3457SOL     OW22006   3.595   0.289   2.164 -0.0174  0.0386 -0.2531
 3457SOL    HW122007   3.564   0.377   2.141 -0.7658 -0.2388 -0.3012
 3457SOL    HW222008   3.586   0.282   2.259  1.6638 -1.2073 -0.1898
 3458SOL     OW22009   3.159   4.348   6.320 -0.3190  0.8683 -0.2684
 3458SOL    HW122010   3.085   4.406   6.308  0.3671  1.5767 -1.0548
 3458SOL    HW222011   3.225   4.395   6.371 -0.0010 -1.6558  1.6331
 3459SOL     OW22012   0.569   3.259   9.318 -0.4388  0.7572 -0.6590
 3459SOL    HW122013   0.628   3.230   9.389 -0.8761  0.8258 -0.2677
 3459SOL    HW222014   0.487   3.286   9.360  0.3193  1.2063  0.5504
 3460SOL     OW22015   4.557   0.268  14.532  0.0157  0.1194 -0.3019
 3460SOL    HW122016   4.618   0.195  14.546 -0.7141 -0.3704  0.3668
 3460SOL    HW222017   4.571   0.289  14.440  0.4831  0.8545 -0.0697
 3461SOL     OW22018   2.463   0.203   5.503  0.2136  0.0244  0.3302
 3461SOL    HW122019   2.386   0.188   5.448  2.5418 -0.2859 -2.8757
 3461SOL    HW222020   2.442   0.285   5.547 -3.0578 -0.2636 -0.6985
 3462SOL     OW22021   3.213   2.205  12.483 -0.1991  0.3552  0.0373
 3462SOL    HW122022   3.131   2.218  12.530  0.6691 -0.7865  1.8489
 3462SOL    HW222023   3.198   2.272  12.416  0.4008 -0.8948 -1.3625
 3463SOL     OW22024   2.471   1.599   8.071 -0.3552  0.0344  0.2123
 3463SOL    HW122025   2.477   1.641   7.985 -0.3251  0.7502  0.5609
 3463SOL    HW222026   2.396   1.541   8.059 -0.0016  0.0299 -1.9940
 3464SOL     OW22027   1.915   3.188  12.105 -0.1638  0.4176 -0.1410
 3464SOL    HW122028   1.873   3.105  12.081  0.0702  0.6785 -1.4626
 3464SOL    HW222029   1.996   3.187  12.053  0.0258 -1.5332  0.1992
 3465SOL     OW22030   0.109   0.965   1.653 -0.0420  0.5309  0.1648
 3465SOL    HW122031   0.175   0.902   1.682 -2.0515 -1.2265  0.8741
 3465SOL    HW222032   0.105   0.950   1.558  0.7700  0.6712  0.1073
 3466SOL     OW22033   3.194   3.031   7.946  0.3901  0.0975  0.4126
 3466SOL    HW122034   3.249   3.109   7.953  0.5352  0.0413 -0.1305
 3466SOL    HW222035   3.108   3.064   7.974  0.2684  0.9483 -0.9540
 3467SOL     OW22036   4.476   0.059   4.290  0.4358  0.4413  0.6421
 3467SOL    HW122037   4.492   0.106   4.208 -0.9143  1.1760  0.7957
 3467SOL    HW222038   4.511   0.116   4.359  0.7088  0.8655  0.1508
 3468SOL     OW22039   1.676   4.525   4.639 -0.2971  0.1870  0.2325
 3468SOL    HW122040   1.619   4.557   4.569  0.3378 -3.5526 -2.0275
 3468SOL    HW222041   1.607   4.518   4.705 -0.5293  1.2226  0.0864
 3469SOL     OW22042   2.540   1.546   7.478 -0.7686  0.3273  0.0264
 3469SOL    HW122043   2.481   1.529   7.552  0.9635  0.2905  1.3787
 3469SOL    HW222044   2.625   1.552   7.521 -0.2558 -0.5510 -0.8674
 3470SOL     OW22045   4.233   4.644   2.583  0.3497  0.1143 -0.0063
 3470SOL    HW122046   4.141   4.624   2.604  1.1119 -0.6182  2.6465
 3470SOL    HW222047   4.259   4.714   2.642  0.0098 -0.5381  0.9160
 3471SOL     OW22048   4.382   3.160  13.792  0.0170  0.5332  0.5114
 3471SOL    HW122049   4.451   3.135  13.730 -1.2370  1.4304 -1.2576
 3471SOL    HW222050   4.324   3.084  13.798  1.8508 -1.1624 -3.3314
 3472SOL     OW22051   2.435   0.255   2.646  0.1588 -0.4459  0.1302
 3472SOL    HW122052   2.400   0.287   2.729  0.5691 -2.2902  1.0238
 3472SOL    HW222053   2.394   0.170   2.628  0.9520 -0.5442 -1.2178
 3473SOL     OW22054   4.699   0.643   7.787 -0.1419  0.4882 -0.0893
 3473SOL    HW122055   0.034   0.670   7.843  0.1746  1.2345 -0.8507
 3473SOL    HW222056   4.631   0.668   7.850  0.1235 -0.3523  0.5213
 3474SOL     OW22057   3.669   0.919   7.050  0.0583 -0.2593  0.5965
 3474SOL    HW122058   3.762   0.897   7.058  0.7869  2.2026 -1.3142
 3474SOL    HW222059   3.637   0.875   7.129  1.1327 -1.3329  0.4334
 3475SOL     OW22060   4.731   2.326  14.675  0.4158  0.0830  0.1123
 3475SOL    HW122061   4.722   2.295  14.586 -0.9290 -0.9687  0.6205
 3475SOL    HW222062   0.030   2.414  14.662  1.4863 -0.2634  0.7272
 3476SOL     OW22063   2.501   3.084  13.622 -0.0156  0.5078 -0.3823
 3476SOL    HW122064   2.540   3.108  13.706  1.5069  2.6551 -1.6884
 3476SOL    HW222065   2.581   3.073  13.571  0.7281 -1.3135  1.2045
 3477SOL     OW22066   3.798   3.174  15.976  0.0327  0.1304  0.3156
 3477SOL    HW122067   3.753   3.126  15.907  0.3220 -0.1969  0.3543
 3477SOL    HW222068   3.825   3.104  16.034  0.3955  1.5536  1.8725
 3478SOL     OW22069   0.415   3.701   9.994 -0.4098 -1.2010  0.4182
 3478SOL    HW122070   0.430   3.626  10.052  1.0760  0.2863  1.9671
 3478SOL    HW222071   0.428   3.653   9.912 -1.4408 -0.2203 -0.3158
 3479SOL     OW22072   2.886   3.874   6.175 -0.2786  0.3245 -0.4081
 3479SOL    HW122073   2.823   3.946   6.181  2.5824  2.7775  0.2434
 3479SOL    HW222074   2.862   3.827   6.255 -1.8095 -1.2740 -1.8048
 3480SOL     OW22075   1.383   4.030  15.751  0.1366  0.2751  0.0207
 3480SOL    HW122076   1.354   3.940  15.735  0.1524  0.2901 -0.0957
 3480SOL    HW222077   1.351   4.064  15.667  4.2356  0.9258 -1.2510
 3481SOL     OW22078   0.617   1.922  11.028 -0.3670  0.0431  0.1082
 3481SOL    HW122079   0.610   1.830  11.052 -1.2972 -0.4559 -2.0952
 3481SOL    HW222080   0.712   1.921  11.019 -0.4270 -1.8735 -0.2734
 3482SOL     OW22081   0.678   0.189   4.981  0.0051  0.5136  0.2846
 3482SOL    HW122082   0.697   0.095   4.983  1.9875  0.9285  1.2263
 3482SOL    HW222083   0.762   0.218   4.945 -1.1653  0.9554 -2.0641
 3483SOL     OW22084   3.884   2.027   6.657  0.2739 -0.3203  0.6164
 3483SOL    HW122085   3.919   1.970   6.589  1.7691  0.6533  0.5605
 3483SOL    HW222086   3.965   2.034   6.706  0.0833  0.1411  0.8736
 3484SOL     OW22087   3.368   2.095   1.253  0.6765  0.2930 -0.2799
 3484SOL    HW122088   3.363   2.187   1.282  3.1983  0.3001  0.0756
 3484SOL    HW222089   3.419   2.103   1.173  3.6535 -1.5636  1.4470
 3485SOL     OW22090   2.443   0.744   5.756 -0.0323 -0.0069  0.0980
 3485SOL    HW122091   2.418   0.742   5.663  0.1387 -2.8393  0.1229
 3485SOL    HW222092   2.438   0.654   5.787 -3.5612 -0.0506 -0.5448
 3486SOL     OW22093   2.190   2.950   4.924 -0.0016  0.1100 -0.2918
 3486SOL    HW122094   2.104   2.991   4.915 -0.4785 -0.8392 -0.1459
 3486SOL    HW222095   2.253   3.018   4.901  0.4103 -0.2843 -0.3301
 3487SOL     OW22096   4.685   0.016   6.895 -0.5985 -0.5334 -0.3916
 3487SOL    HW122097   4.697   0.111   6.895 -1.8716 -0.3726  0.8678
 3487SOL    HW222098   4.685   0.000   6.801 -2.6736  2.2786 -0.8602
 3488SOL     OW22099   0.564   0.742  12.237  0.5451 -0.3980 -0.6456
 3488SOL    HW122100   0.586   0.660  12.281 -1.7706 -0.6878 -0.0527
 3488SOL    HW222101   0.480   0.763  12.277  0.2048  0.0045 -1.5705
 3489SOL     OW22102   3.558   3.552   7.762 -0.6739  0.4079  0.8900
 3489SOL    HW122103   3.604   3.528   7.681 -0.6560  0.7819  0.7867
 3489SOL    HW222104   3.586   3.500   7.837 -0.3998  0.3878  0.7729
 3490SOL     OW22105   0.514   0.519  11.443 -0.8084 -0.4187 -0.0167
 3490SOL    HW122106   0.598   0.554  11.414 -1.6269  0.7964 -0.8948
 3490SOL    HW222107   0.463   0.600  11.439 -0.1576 -0.0845 -1.2701
 3491SOL     OW22108   0.649   0.891   2.820  0.2649 -0.3024  0.1827
 3491SOL    HW122109   0.662   0.797   2.805 -1.6912 -0.0653 -2.9134
 3491SOL    HW222110   0.740   0.919   2.813  0.2556 -0.3570 -0.1322
 3492SOL     OW22111   1.330   2.803  16.798  0.0709  0.2299 -0.2614
 3492SOL    HW122112   1.358   2.765  16.881 -3.8449 -1.1697  0.4225
 3492SOL    HW222113   1.322   2.728  16.740 -0.8415 -1.1106  1.6091
 3493SOL     OW22114   3.901   0.935   4.949 -0.7427 -0.1689 -0.4236
 3493SOL    HW122115   3.873   0.994   4.880 -0.8228  3.8299  3.0537
 3493SOL    HW222116   3.866   0.983   5.024  0.3917  0.0800 -0.0549
 3494SOL     OW22117   4.001   1.923   6.434 -0.2156 -0.4442 -0.6616
 3494SOL    HW122118   3.986   1.989   6.366 -0.0694  0.3028  0.0317
 3494SOL    HW222119   4.096   1.924   6.429 -0.0746  1.1574  1.8293
 3495SOL     OW22120   1.588   2.153   1.449 -0.0820 -0.9416 -0.0604
 3495SOL    HW122121   1.599   2.059   1.438  1.4046 -0.8897  0.9813
 3495SOL    HW222122   1.531   2.166   1.373 -0.9541  0.7249  0.8798
 3496SOL     OW22123   2.288   1.821   4.562 -0.2097 -0.0865 -0.0747
 3496SOL    HW122124   2.261   1.808   4.653  1.9591  0.5656  0.6581
 3496SOL    HW222125   2.218   1.882   4.536  1.4181  0.8770 -2.1479
 3497SOL     OW22126   0.002   2.800  10.308  0.2942  0.1605 -0.0137
 3497SOL    HW122127   4.687   2.877  10.288  0.4652  0.1787 -0.3897
 3497SOL    HW222128   4.682   2.739  10.354  0.6527  0.0056  0.2322
 3498SOL     OW22129   4.136   2.594   8.008  0.1666  0.2126 -0.0704
 3498SOL    HW122130   4.198   2.602   8.081  0.7232 -0.7953 -0.4329
 3498SOL    HW222131   4.103   2.507   8.031 -0.9844  0.8033  0.5151
 3499SOL     OW22132   4.018   2.023   1.901 -0.1274  0.6229 -0.1874
 3499SOL    HW122133   4.093   2.070   1.863 -1.8497  2.2796 -1.5269
 3499SOL    HW222134   3.954   2.017   1.831 -0.5206  2.2395  0.0262
 3500SOL     OW22135   4.211   2.064   4.015 -0.2735  0.4631 -0.0609
 3500SOL    HW122136   4.160   2.010   4.075  2.6732 -1.3711  0.8086
 3500SOL    HW222137   4.156   2.142   4.007 -2.0067 -0.7965 -0.2805
 3501SOL     OW22138   3.302   3.445   1.069 -0.4467 -0.2094 -0.3159
 3501SOL    HW122139   3.268   3.514   1.012  0.3214  0.3330 -0.1134
 3501SOL    HW222140   3.221   3.421   1.115  1.3321 -1.8218  1.9822
 3502SOL     OW22141   4.136   4.039   2.488  0.0934 -0.4346  0.1100
 3502SOL    HW122142   4.226   4.065   2.504 -0.4561  2.0137 -0.7263
 3502SOL    HW222143   4.097   4.123   2.463 -1.3423 -0.8932  0.7638
 3503SOL     OW22144   3.368   4.524  12.789 -0.6776 -0.6751 -0.6015
 3503SOL    HW122145   3.334   4.593  12.732  0.1618 -0.4773 -0.8513
 3503SOL    HW222146   3.444   4.563  12.833 -0.4284 -0.2509 -1.4184
 3504SOL     OW22147   4.677   1.090   2.090  0.2006 -0.5021  0.4003
 3504SOL    HW122148   0.005   1.022   2.069  1.6219  0.6473  1.0933
 3504SOL    HW222149   4.727   1.171   2.077  0.3623 -0.6707 -0.0478
 3505SOL     OW22150   2.794   0.215   8.034  0.2931  0.4048 -0.1056
 3505SOL    HW122151   2.745   0.263   8.101  0.3309 -0.5181  0.5971
 3505SOL    HW222152   2.878   0.213   8.079 -0.2274  0.5680  0.8982
 3506SOL     OW22153   2.009   2.816   5.506 -0.8444 -0.3451 -0.2389
 3506SOL    HW122154   2.054   2.734   5.487  0.1533  0.4542 -1.3132
 3506SOL    HW222155   1.929   2.818   5.454 -2.2103  0.7824  1.8645
 3507SOL     OW22156   3.993   1.725   7.638  0.3287 -0.1236  0.0267
 3507SOL    HW122157   3.899   1.717   7.657  0.7043 -0.4357  1.7482
 3507SOL    HW222158   4.019   1.635   7.619  0.1996  0.0953 -1.2096
 3508SOL     OW22159   1.545   4.440   2.788 -0.3111 -0.2465 -0.0874
 3508SOL    HW122160   1.625   4.424   2.838  0.2109  1.1864 -0.4786
 3508SOL    HW222161   1.539   4.363   2.731  2.6940 -0.3405 -0.2951
 3509SOL     OW22162   1.444   2.043   9.387  0.3606 -0.1108 -0.1901
 3509SOL    HW122163   1.482   1.957   9.407 -0.6335 -0.3414  0.6738
 3509SOL    HW222164   1.469   2.057   9.296  0.6292 -1.1514 -0.2809
 3510SOL     OW22165   2.668   2.564   3.708  0.2969  0.2883  0.2472
 3510SOL    HW122166   2.629   2.486   3.747 -0.0375  2.2372  3.8722
 3510SOL    HW222167   2.721   2.526   3.638 -0.4507  2.3182 -1.4090
 3511SOL     OW22168   4.330   2.365   2.588  0.4406  0.1240 -0.1982
 3511SOL    HW122169   4.313   2.459   2.592  0.8042  0.1756  0.1916
 3511SOL    HW222170   4.388   2.366   2.511  0.4776  1.4184 -0.1599
 3512SOL     OW22171   1.220   1.216   1.574  0.2070 -0.0949 -0.0844
 3512SOL    HW122172   1.131   1.210   1.538  1.0256  1.1674 -2.3199
 3512SOL    HW222173   1.216   1.194   1.667 -0.5453  1.2268  0.1904
 3513SOL     OW22174   3.583   2.566   5.807 -0.6243  0.0554  0.3807
 3513SOL    HW122175   3.515   2.561   5.740  0.0271 -0.4486 -0.2415
 3513SOL    HW222176   3.627   2.484   5.788  1.0853  0.7120  1.5238
 3514SOL     OW22177   2.543   2.608   6.447 -0.1199  0.0813 -0.4578
 3514SOL    HW122178   2.551   2.560   6.364  0.6827 -1.7692  0.6885
 3514SOL    HW222179   2.590   2.542   6.498 -0.5403 -1.1034 -1.6071
 3515SOL     OW22180   0.555   1.835   0.922 -0.3150  0.2431  0.0826
 3515SOL    HW122181   0.634   1.785   0.938  0.6465  1.3404 -1.1884
 3515SOL    HW222182   0.499   1.758   0.926  1.4845 -1.0610 -0.0632
 3516SOL     OW22183   3.014   1.307   9.202  0.0496 -0.7704 -0.1418
 3516SOL    HW122184   3.016   1.402   9.189 -0.3749 -0.9356 -1.4582
 3516SOL    HW222185   2.982   1.291   9.291 -0.2753  1.7739  0.2082
 3517SOL     OW22186   0.941   1.525  17.665 -0.5668  0.4521 -0.3984
 3517SOL    HW122187   0.886   1.558  17.594 -1.4596  0.0363  0.1026
 3517SOL    HW222188   0.881   1.540  17.738  1.6247  1.5317  1.1878
 3518SOL     OW22189   2.396   4.064   7.408  0.4491 -0.0006  0.4373
 3518SOL    HW122190   2.436   4.046   7.493 -0.0389 -1.1787  0.4230
 3518SOL    HW222191   2.323   4.003   7.407  1.3380 -1.0414 -0.8622
 3519SOL     OW22192   1.940   4.632   6.321 -0.2243 -0.2503  0.0595
 3519SOL    HW122193   1.961   4.550   6.366  0.6330  0.5626  1.1503
 3519SOL    HW222194   2.009   4.687   6.360  0.3870 -1.8573  1.2620
 3520SOL     OW22195   0.800   2.140   4.964 -0.4696 -0.0694 -0.1811
 3520SOL    HW122196   0.873   2.155   5.024 -1.6014 -2.1230  1.7051
 3520SOL    HW222197   0.723   2.180   5.004 -1.1472  0.9654 -2.5134
 3521SOL     OW22198   0.724   0.015  13.413 -0.0917  0.0155 -0.4080
 3521SOL    HW122199   0.814   0.024  13.381  0.3136 -2.7666 -0.0844
 3521SOL    HW222200   0.697   0.106  13.428 -0.2195 -0.4391  2.1840
 3522SOL     OW22201   4.148   4.711   5.563 -0.2664  0.3685 -0.1191
 3522SOL    HW122202   4.070   0.023   5.589 -0.4846  0.3721 -0.7684
 3522SOL    HW222203   4.189   0.050   5.521  2.3915 -0.0514  1.7009
 3523SOL     OW22204   0.996   3.776   7.765  0.1449 -0.3863  0.2640
 3523SOL    HW122205   0.911   3.818   7.775  0.8571  1.0549  0.3010
 3523SOL    HW222206   0.972   3.687   7.792 -0.3886 -0.1564  0.5390
 3524SOL     OW22207   0.129   0.689  16.608 -0.2815  0.1744 -0.8060
 3524SOL    HW122208   0.060   0.654  16.664 -0.0257  1.1181  0.0934
 3524SOL    HW222209   0.177   0.740  16.673  1.2466 -0.2739 -1.5928
 3525SOL     OW22210   2.759   1.162  12.982  0.3319  0.0289 -0.4200
 3525SOL    HW122211   2.777   1.256  12.983  0.2702  0.0512 -2.1008
 3525SOL    HW222212   2.805   1.120  12.909  1.0013  1.5094 -0.8662
 3526SOL     OW22213   1.862   0.798   8.212  0.4418 -0.0284 -0.0501
 3526SOL    HW122214   1.931   0.837   8.266  0.7767  0.5531 -0.8959
 3526SOL    HW222215   1.838   0.714   8.251 -0.7013 -1.6190 -4.2536
 3527SOL     OW22216   2.633   4.346   0.650 -0.0832 -0.3571 -0.7158
 3527SOL    HW122217   2.612   4.311   0.737  1.2993  2.9900  0.9754
 3527SOL    HW222218   2.581   4.426   0.653  0.1348 -0.2285 -0.3518
 3528SOL     OW22219   2.908   2.017   5.546  0.0247 -0.4522  0.5944
 3528SOL    HW122220   2.985   2.064   5.578  2.1064 -2.2912 -1.7743
 3528SOL    HW222221   2.847   2.090   5.552  0.8139  0.2251  0.4541
 3529SOL     OW22222   2.764   3.494   8.244  0.4073 -0.0026 -1.3526
 3529SOL    HW122223   2.762   3.579   8.288  1.4644 -1.0385  0.6598
 3529SOL    HW222224   2.846   3.459   8.280  0.2295  0.9786  0.0127
 3530SOL     OW22225   3.164   2.758   8.108  0.4898  0.2077 -0.1815
 3530SOL    HW122226   3.171   2.706   8.029 -0.0650 -1.4995  0.8933
 3530SOL    HW222227   3.210   2.840   8.090  0.3611  0.6557  1.4968
 3531SOL     OW22228   1.610   1.241   7.759 -0.0708 -0.0472 -0.4948
 3531SOL    HW122229   1.643   1.177   7.821  1.1843  1.4837  0.4182
 3531SOL    HW222230   1.557   1.285   7.826 -1.0303 -3.8073  1.2110
 3532SOL     OW22231   2.351   0.209   4.376  0.2706  1.0051 -0.3882
 3532SOL    HW122232   2.306   0.241   4.454 -1.3489 -0.5763 -0.6551
 3532SOL    HW222233   2.438   0.248   4.388  1.5933 -2.1166  0.2586
 3533SOL     OW22234   2.301   0.707   6.017 -0.0382 -0.0056 -0.0840
 3533SOL    HW122235   2.358   0.752   5.955 -1.7631 -1.5952 -2.8170
 3533SOL    HW222236   2.250   0.650   5.958 -1.1042  0.4972  0.3539
 3534SOL     OW22237   1.089   1.774   1.416 -0.3733 -0.1524  0.1048
 3534SOL    HW122238   1.180   1.800   1.424  0.0254 -0.8587 -2.3219
 3534SOL    HW222239   1.101   1.684   1.446 -1.0905 -0.0727  0.6382
 3535SOL     OW22240   3.130   1.016   3.482 -0.1466 -0.1868  0.0813
 3535SOL    HW122241   3.150   0.923   3.485  0.3478 -0.1042 -0.6492
 3535SOL    HW222242   3.036   1.018   3.499  0.1340  1.2232  1.5482
 3536SOL     OW22243   0.604   4.019   5.483 -0.5453 -0.0781  0.3374
 3536SOL    HW122244   0.556   4.036   5.564 -1.5320 -1.0131 -0.0523
 3536SOL    HW222245   0.638   3.937   5.520 -1.2940 -1.9264 -3.0957
 3537SOL     OW22246   1.958   3.294   3.715  0.1090 -0.1465  0.0978
 3537SOL    HW122247   1.971   3.267   3.625  0.2444 -2.8328  0.9449
 3537SOL    HW222248   1.968   3.214   3.765  2.7463 -0.1410 -0.4164
 3538SOL     OW22249   0.926   0.943   2.812 -0.0849 -0.0693  0.7761
 3538SOL    HW122250   0.929   1.034   2.841  0.4919  0.0652  0.2996
 3538SOL    HW222251   0.979   0.953   2.733 -0.7655  0.3132  0.3689
 3539SOL     OW22252   4.603   3.057   4.194  0.0089 -0.4619  0.3303
 3539SOL    HW122253   4.514   3.022   4.189 -0.3031  0.6185 -1.7629
 3539SOL    HW222254   4.630   3.043   4.103  0.3755  1.4617  0.1423
 3540SOL     OW22255   0.390   3.123   0.150 -0.4215 -0.2751  0.0280
 3540SOL    HW122256   0.358   3.035   0.171  0.6350 -1.0417 -1.5448
 3540SOL    HW222257   0.409   3.120   0.056 -1.5962  0.5207 -0.2371
 3541SOL     OW22258   2.346   3.354   5.556  0.1872  0.2687  0.0966
 3541SOL    HW122259   2.288   3.352   5.480 -0.2674  1.9395  0.3977
 3541SOL    HW222260   2.296   3.299   5.617  0.4951  1.8394  1.7724
 3542SOL     OW22261   2.141   3.528   7.187 -0.9872 -0.0299  0.4676
 3542SOL    HW122262   2.230   3.493   7.183 -1.5381 -1.2305 -1.5816
 3542SOL    HW222263   2.127   3.527   7.092 -4.9413 -0.8015  1.0510
 3543SOL     OW22264   1.500   2.692   2.394  0.1001  0.1865  0.1250
 3543SOL    HW122265   1.431   2.692   2.460  1.1874 -1.2750  1.2479
 3543SOL    HW222266   1.574   2.722   2.447 -0.9247  1.4616  0.8304
 3544SOL     OW22267   0.878   1.540   7.411  0.0441 -0.5525  0.2941
 3544SOL    HW122268   0.883   1.626   7.451  0.6398 -1.1246  1.4697
 3544SOL    HW222269   0.969   1.522   7.387 -0.6826 -1.9743 -1.4227
 3545SOL     OW22270   4.706   2.813  17.051 -0.1444 -0.0355  0.7610
 3545SOL    HW122271   4.690   2.906  17.067 -0.6164 -0.0736  0.5027
 3545SOL    HW222272   0.033   2.786  17.117 -1.1517 -1.7580  1.0421
 3546SOL     OW22273   1.905   3.868   7.481 -0.5877 -0.0063 -0.8722
 3546SOL    HW122274   1.920   3.881   7.574 -0.0367  1.2949 -1.1477
 3546SOL    HW222275   1.908   3.772   7.473 -0.9125 -0.0817 -0.0562
 3547SOL     OW22276   1.819   4.407  11.445  0.5509  0.2251 -0.1761
 3547SOL    HW122277   1.822   4.315  11.420 -1.6792 -0.1357  0.9367
 3547SOL    HW222278   1.782   4.405  11.533 -0.2078 -2.1362 -0.5529
 3548SOL     OW22279   1.858   2.898   7.910 -0.5339  0.8823 -0.3508
 3548SOL    HW122280   1.788   2.885   7.973  0.5780 -0.7430  0.5394
 3548SOL    HW222281   1.823   2.832   7.851 -0.6009  0.6402 -0.0372
 3549SOL     OW22282   2.660   3.923   2.003 -0.9072 -0.2151 -1.1303
 3549SOL    HW122283   2.646   4.018   1.996 -0.1540  0.0453  0.7496
 3549SOL    HW222284   2.625   3.896   1.918 -0.7073  2.1147 -1.9716
 3550SOL     OW22285   0.551   1.747   9.814 -0.2133 -0.1367  0.1466
 3550SOL    HW122286   0.498   1.776   9.740  0.8140 -0.2787 -0.6430
 3550SOL    HW222287   0.535   1.824   9.869  0.4673 -0.3914  0.6996
 3551SOL     OW22288   3.240   0.893  17.311  0.3040 -0.2544  0.1202
 3551SOL    HW122289   3.293   0.848  17.245 -0.3139 -1.4732  0.4588
 3551SOL    HW222290   3.267   0.984  17.297  0.4131 -0.9752 -4.2885
 3552SOL     OW22291   2.044   4.315   6.791 -0.0396  0.1743  0.0268
 3552SOL    HW122292   2.115   4.268   6.835  0.6240  2.2046  1.1580
 3552SOL    HW222293   1.977   4.270   6.843 -0.2387  0.5883  0.1252
 3553SOL     OW22294   4.375   0.042   0.376 -0.0913 -0.1638 -0.1768
 3553SOL    HW122295   4.306   0.083   0.429 -0.4202 -0.1860 -0.5900
 3553SOL    HW222296   4.432   0.002   0.441  0.1038  1.3251  0.5752
 3554SOL     OW22297   3.173   0.782   9.123 -0.2990  0.4837  0.1630
 3554SOL    HW122298   3.227   0.818   9.193  0.5138 -2.2474  0.9042
 3554SOL    HW222299   3.099   0.834   9.156  1.1721  1.1887  2.3550
 3555SOL     OW22300   1.574   3.525  14.058  0.3813  0.0983 -0.0173
 3555SOL    HW122301   1.571   3.608  14.106 -1.1150  0.8096 -1.3241
 3555SOL    HW222302   1.668   3.518  14.045  0.0755  0.9913 -2.7912
 3556SOL     OW22303   4.348   2.796   2.985 -0.6516  0.2739  0.5302
 3556SOL    HW122304   4.332   2.701   2.986  2.5704 -0.2523  0.1920
 3556SOL    HW222305   4.300   2.819   3.065 -0.2437 -0.2348  0.9267
 3557SOL     OW22306   3.927   1.105   7.849  0.5714 -0.2774 -0.5136
 3557SOL    HW122307   3.908   1.046   7.776 -0.7510  0.5624 -0.8326
 3557SOL    HW222308   3.912   1.192   7.813  1.7991  0.7579  1.4928
 3558SOL     OW22309   2.511   3.332   6.032  0.1862 -0.0774 -0.1411
 3558SOL    HW122310   2.561   3.279   6.095  0.4419  0.9282  0.5128
 3558SOL    HW222311   2.576   3.340   5.962 -1.6362  2.4795 -1.5255
 3559SOL     OW22312   0.947   0.456   2.231  1.0474 -0.0859  0.0086
 3559SOL    HW122313   1.015   0.396   2.200  0.3561 -0.0183 -1.6642
 3559SOL    HW222314   0.941   0.446   2.326  1.4785  1.1183  0.1594
 3560SOL     OW22315   2.189   4.194   5.881 -0.0846 -0.2975  0.3213
 3560SOL    HW122316   2.268   4.202   5.827 -0.1386 -2.1446 -0.0487
 3560SOL    HW222317   2.122   4.197   5.813  0.7046  1.6975 -0.3684
 3561SOL     OW22318   3.018   0.792   8.373 -0.3984 -0.2837 -0.5233
 3561SOL    HW122319   3.016   0.763   8.464  0.0960  2.1973  0.2772
 3561SOL    HW222320   3.107   0.770   8.345 -0.1887 -0.4684  0.3031
 3562SOL     OW22321   3.838   2.685   4.298  0.0871  0.4765 -0.1399
 3562SOL    HW122322   3.922   2.725   4.321 -0.2543 -0.4345  2.6463
 3562SOL    HW222323   3.809   2.648   4.381  0.5053  0.1916 -0.1232
 3563SOL     OW22324   4.103   2.000   8.160 -0.4922  0.0910 -0.0346
 3563SOL    HW122325   4.167   2.038   8.220 -0.3159  0.9149 -0.7309
 3563SOL    HW222326   4.127   1.908   8.157  1.3576  0.6415 -1.8260
 3564SOL     OW22327   2.931   2.137   3.251  0.1120  0.2043  0.4525
 3564SOL    HW122328   2.965   2.073   3.313 -2.7870 -0.9237  0.8707
 3564SOL    HW222329   2.846   2.104   3.222 -0.1942  0.0874  1.4832
 3565SOL     OW22330   4.567   3.256   1.944 -0.3558 -0.6368  0.6960
 3565SOL    HW122331   4.536   3.260   2.035  1.5004  0.8469  1.2489
 3565SOL    HW222332   4.485   3.242   1.896 -0.7685  2.5439  0.4407
 3566SOL     OW22333   3.583   4.512   3.504  0.1584  0.0129  0.4569
 3566SOL    HW122334   3.549   4.534   3.417  2.4945 -0.1602 -0.4972
 3566SOL    HW222335   3.658   4.460   3.473  0.7857  1.9070 -1.2250
 3567SOL     OW22336   0.516   3.096   6.930 -0.1575  0.4029  0.5818
 3567SOL    HW122337   0.432   3.120   6.969 -0.3540  0.3146  0.2164
 3567SOL    HW222338   0.510   3.000   6.935  1.3488  0.1852 -1.8981
 3568SOL     OW22339   2.458   2.356   1.128  0.1466  0.1567  0.0708
 3568SOL    HW122340   2.383   2.300   1.148  1.7812 -2.6793 -1.7317
 3568SOL    HW222341   2.441   2.430   1.186 -2.1482  0.7084 -1.2770
 3569SOL     OW22342   4.169   3.283  11.688  0.2806  0.1195  0.0839
 3569SOL    HW122343   4.245   3.336  11.713  1.5076 -1.9377  0.7781
 3569SOL    HW222344   4.141   3.327  11.608 -1.7854  1.3289  1.4663
 3570SOL     OW22345   0.425   0.948  13.030  0.4805  0.2874 -0.0668
 3570SOL    HW122346   0.341   0.983  13.000  0.8622  1.1151 -0.2034
 3570SOL    HW222347   0.391   0.875  13.080 -3.0125  1.3365 -0.8970
 3571SOL     OW22348   0.862   3.366  16.523 -0.1301 -0.1593  0.4717
 3571SOL    HW122349   0.834   3.307  16.453  0.0271  1.1251 -0.6745
 3571SOL    HW222350   0.941   3.319  16.550  1.0322  1.5999  0.1354
 3572SOL     OW22351   3.319   1.823  13.118  0.6529  0.6283 -0.5021
 3572SOL    HW122352   3.242   1.766  13.119  0.9709  0.1946 -1.5045
 3572SOL    HW222353   3.370   1.771  13.057  0.1740 -0.0134 -0.3571
 3573SOL     OW22354   2.403   4.597   6.484  0.0882 -0.0587 -0.6582
 3573SOL    HW122355   2.431   4.561   6.399 -0.3272  1.6530 -1.5115
 3573SOL    HW222356   2.397   4.515   6.534  2.0179  0.4703  0.4559
 3574SOL     OW22357   2.553   0.362   6.360  0.6805  0.0560  0.4639
 3574SOL    HW122358   2.578   0.294   6.298  0.8755 -1.1190  1.8176
 3574SOL    HW222359   2.568   0.326   6.448 -0.6537 -0.8208  0.3293
 3575SOL     OW22360   0.540   3.166  13.197  0.4559  0.1462  0.1148
 3575SOL    HW122361   0.604   3.142  13.262 -0.6597  0.9859  1.5239
 3575SOL    HW222362   0.552   3.260  13.185 -3.0591  0.7050  0.8313
 3576SOL     OW22363   1.106   4.360   4.030 -0.4867  0.3631 -0.3737
 3576SOL    HW122364   1.135   4.356   4.121 -0.6303 -3.2273 -0.4954
 3576SOL    HW222365   1.180   4.384   3.974  1.4521  0.0083  2.0589
 3577SOL     OW22366   4.643   4.044   6.921  0.1069  0.2897  0.4927
 3577SOL    HW122367   4.617   3.992   6.997  1.0139 -1.7697 -0.6019
 3577SOL    HW222368   4.647   4.135   6.949 -0.8223  0.6034 -0.3784
 3578SOL     OW22369   0.651   3.160  15.493 -0.3946 -0.2573 -0.0347
 3578SOL    HW122370   0.609   3.199  15.416  1.0361 -0.6760 -1.0148
 3578SOL    HW222371   0.602   3.201  15.564  3.2601  2.7389  0.7426
 3579SOL     OW22372   4.390   4.033   5.281  0.2614  0.3774 -0.3570
 3579SOL    HW122373   4.392   4.117   5.327 -2.5731  1.2085 -1.7859
 3579SOL    HW222374   4.379   3.976   5.357 -0.7749 -0.0121 -0.8050
 3580SOL     OW22375   0.933   2.040   0.618  0.1928 -0.9409 -0.1868
 3580SOL    HW122376   0.887   2.110   0.664  0.4699 -0.2059 -1.0206
 3580SOL    HW222377   0.947   2.088   0.536 -0.1206  0.3836  0.5400
 3581SOL     OW22378   4.211   2.008   4.933  0.1142  0.7491  0.6830
 3581SOL    HW122379   4.241   2.046   4.851  0.3722  0.2127  0.5240
 3581SOL    HW222380   4.160   1.934   4.900 -1.5991  1.7978  1.0107
 3582SOL     OW22381   0.486   3.504  14.831  0.0375  0.3218 -0.1540
 3582SOL    HW122382   0.504   3.479  14.921 -3.1386  0.7520  0.5854
 3582SOL    HW222383   0.407   3.557  14.839 -0.7395 -0.1647 -4.2713
 3583SOL     OW22384   2.767   4.201  13.576 -0.0066 -0.0261  0.6968
 3583SOL    HW122385   2.695   4.145  13.606 -3.0745  2.7451 -1.5466
 3583SOL    HW222386   2.839   4.160  13.624  0.3617 -0.0168  0.1497
 3584SOL     OW22387   0.412   2.037  11.179  0.3307 -0.3496  0.5991
 3584SOL    HW122388   0.468   2.006  11.107 -0.2625  1.5112 -0.6517
 3584SOL    HW222389   0.330   2.055  11.135  0.0985  0.0148  1.1812
 3585SOL     OW22390   2.353   1.606  15.384 -0.1780 -0.5175 -0.4360
 3585SOL    HW122391   2.372   1.605  15.290  1.2738  1.3777 -0.1600
 3585SOL    HW222392   2.407   1.678  15.417  0.0709 -0.7098 -0.4279
 3586SOL     OW22393   3.498   0.681   4.509 -0.2916 -0.2771  0.7527
 3586SOL    HW122394   3.475   0.702   4.600 -0.4778 -1.8049  1.0479
 3586SOL    HW222395   3.541   0.596   4.516 -1.7962 -1.1924 -1.0347
 3587SOL     OW22396   1.110   2.790   4.029 -0.2856 -0.1484 -0.0803
 3587SOL    HW122397   1.036   2.730   4.040 -1.6874  1.6400  0.1544
 3587SOL    HW222398   1.157   2.767   4.109 -1.1472  1.6333  0.9406
 3588SOL     OW22399   4.419   2.781   7.071  0.5266 -0.1824  0.4063
 3588SOL    HW122400   4.329   2.750   7.077 -0.1596  1.6629 -0.3675
 3588SOL    HW222401   4.438   2.820   7.156  0.5895  2.0392 -0.6227
 3589SOL     OW22402   1.390   0.736  12.979 -0.0475  0.1940 -0.2970
 3589SOL    HW122403   1.406   0.719  12.886 -0.4836  1.3403 -0.5831
 3589SOL    HW222404   1.295   0.739  12.984  0.0927  1.6043  1.3667
 3590SOL     OW22405   1.068   3.579   2.826 -0.3733  0.4391  0.2812
 3590SOL    HW122406   0.987   3.548   2.866 -0.4438  0.1302 -0.1063
 3590SOL    HW222407   1.088   3.652   2.885 -1.8453  0.1080  1.1968
 3591SOL     OW22408   1.744   2.772  14.180 -0.3477 -0.4771 -0.1326
 3591SOL    HW122409   1.723   2.807  14.093 -0.9602 -0.8950 -0.1581
 3591SOL    HW222410   1.693   2.836  14.230 -0.4334 -1.7872  1.4572
 3592SOL     OW22411   0.568   1.195  10.176  0.1722 -0.6046 -0.5770
 3592SOL    HW122412   0.503   1.210  10.107  1.9605 -3.4232 -2.8934
 3592SOL    HW222413   0.536   1.115  10.219  0.7669  0.5974  2.0730
 3593SOL     OW22414   2.482   0.979   3.620 -0.2823  0.5702  0.0650
 3593SOL    HW122415   2.566   1.013   3.648 -0.8516  2.5367 -0.6127
 3593SOL    HW222416   2.511   0.897   3.580  0.8058  0.5822  0.8578
 3594SOL     OW22417   3.157   3.523   4.030  0.1420  0.1316  0.3087
 3594SOL    HW122418   3.168   3.465   4.106  0.5229 -0.2644 -0.0511
 3594SOL    HW222419   3.108   3.588   4.080 -0.2588 -0.6842  0.9973
 3595SOL     OW22420   1.393   1.476   2.044 -0.3169 -0.1937  0.3529
 3595SOL    HW122421   1.332   1.544   2.073  1.0399  0.5570  1.4413
 3595SOL    HW222422   1.349   1.400   2.083 -0.8392 -0.0297  0.0783
 3596SOL     OW22423   0.920   3.426  11.630  0.3477 -0.0896  0.3829
 3596SOL    HW122424   0.824   3.424  11.634  0.2804 -0.9649 -1.8977
 3596SOL    HW222425   0.936   3.350  11.687  3.6859 -1.3968 -2.3490
 3597SOL     OW22426   4.225   1.187  10.924  0.9082  0.9216 -0.2111
 3597SOL    HW122427   4.204   1.279  10.940 -0.7780  0.5053  0.0216
 3597SOL    HW222428   4.314   1.191  10.960  0.7496 -2.2710  0.4782
 3598SOL     OW22429   0.110   4.134   5.801  0.1530 -0.2216  0.4475
 3598SOL    HW122430   0.155   4.213   5.770 -3.2087  0.4863 -2.6305
 3598SOL    HW222431   0.021   4.160   5.776 -0.2424 -1.5976  0.4172
 3599SOL     OW22432   1.588   3.796  14.200 -0.0267 -0.1429 -0.0334
 3599SOL    HW122433   1.603   3.841  14.117 -0.1561 -0.0123  0.0142
 3599SOL    HW222434   1.612   3.867  14.260 -1.4035  0.3949 -0.1381
 3600SOL     OW22435   0.403   1.532   6.170 -0.7879  0.2604  0.3243
 3600SOL    HW122436   0.482   1.572   6.135 -1.0797  2.3565  2.0441
 3600SOL    HW222437   0.415   1.443   6.138 -1.9798  0.4287 -0.5900
 3601SOL     OW22438   2.255   1.706  12.001 -0.1323 -0.3411  0.5210
 3601SOL    HW122439   2.295   1.658  11.929 -2.1805 -1.0165 -0.1669
 3601SOL    HW222440   2.208   1.776  11.955 -1.0105 -1.0946  0.2701
 3602SOL     OW22441   0.146   2.120  11.130 -0.3986 -0.5261 -0.0086
 3602SOL    HW122442   0.116   2.175  11.203  2.6695  1.5291 -0.3222
 3602SOL    HW222443   0.092   2.041  11.131  0.4545 -1.1148 -1.9023
 3603SOL     OW22444   3.708   0.403   6.275 -0.6292  0.2505 -0.2571
 3603SOL    HW122445   3.755   0.461   6.335  1.5005 -1.9446  0.2003
 3603SOL    HW222446   3.777   0.380   6.212 -1.2393 -1.3735 -0.3277
 3604SOL     OW22447   3.535   2.987   3.199  0.1521 -0.2663  0.2469
 3604SOL    HW122448   3.545   3.044   3.123 -2.1000 -1.5770 -1.0222
 3604SOL    HW222449   3.473   3.046   3.242  1.3760 -0.9379  2.9605
 3605SOL     OW22450   0.450   3.558   3.902 -0.0049  0.1515 -0.6651
 3605SOL    HW122451   0.497   3.474   3.906 -0.2265  0.0545 -0.0878
 3605SOL    HW222452   0.367   3.524   3.869  1.6555 -3.6060 -1.0326
 3606SOL     OW22453   1.852   0.590   3.411 -0.0867 -0.5211  0.2576
 3606SOL    HW122454   1.940   0.629   3.407 -0.3117  0.3032  3.2451
 3606SOL    HW222455   1.866   0.551   3.497  0.8229 -1.6299 -0.3821
 3607SOL     OW22456   1.396   2.186   1.197  0.7131 -0.0286 -0.0055
 3607SOL    HW122457   1.381   2.218   1.108 -1.0954 -0.7015  0.0438
 3607SOL    HW222458   1.308   2.213   1.222  0.4105 -0.6122 -0.4342
 3608SOL     OW22459   3.066   1.469  14.678 -0.0438 -0.0518  0.1783
 3608SOL    HW122460   3.136   1.405  14.668 -0.2152  0.0191 -1.4979
 3608SOL    HW222461   2.995   1.413  14.711  0.7370 -0.0039  1.9509
 3609SOL     OW22462   0.718   0.933   0.180  0.2079  0.0499 -0.3006
 3609SOL    HW122463   0.735   0.932   0.274 -0.8369  1.4830 -0.0847
 3609SOL    HW222464   0.706   1.028   0.178  1.9492  0.2851  0.5113
 3610SOL     OW22465   3.401   0.062   4.989  0.3140 -0.3943  0.5822
 3610SOL    HW122466   3.353   0.119   5.048  1.4294  1.2012 -0.0672
 3610SOL    HW222467   3.341   4.724   4.982 -1.6287  1.2947 -0.8020
 3611SOL     OW22468   4.105   1.865  12.207  0.2659 -0.0870 -0.0179
 3611SOL    HW122469   4.052   1.933  12.250  0.9985  0.5331 -0.0930
 3611SOL    HW222470   4.082   1.785  12.254  1.5029 -0.4281 -0.0162
 3612SOL     OW22471   1.830   3.623   5.691 -0.2636  0.5506  0.7517
 3612SOL    HW122472   1.905   3.613   5.750  1.1322  0.4839 -1.0102
 3612SOL    HW222473   1.781   3.678   5.751  1.3634  1.7272  0.9968
 3613SOL     OW22474   3.420   3.385   8.212 -0.0519 -0.0995  0.1332
 3613SOL    HW122475   3.509   3.366   8.241 -0.0039  0.2811  0.2324
 3613SOL    HW222476   3.438   3.451   8.145  0.3774 -0.8897 -0.5370
 3614SOL     OW22477   1.491   4.531  12.241 -0.0110  0.0783  0.1625
 3614SOL    HW122478   1.429   4.601  12.219  0.8632  0.4307 -1.1981
 3614SOL    HW222479   1.446   4.450  12.216 -0.8240  0.0331  1.8042
 3615SOL     OW22480   3.091   3.543  12.930  0.4180  0.1681  0.8737
 3615SOL    HW122481   3.130   3.607  12.869 -1.1898 -0.2901 -0.6409
 3615SOL    HW222482   3.169   3.504  12.969 -1.0877 -1.3753  2.3166
 3616SOL     OW22483   1.356   4.651   0.120  0.3232 -0.7599  0.0402
 3616SOL    HW122484   1.401   4.592   0.180  1.8548 -0.3842 -0.7315
 3616SOL    HW222485   1.339   4.599   0.041 -1.2240 -1.2175  0.6829
 3617SOL     OW22486   1.596   3.655  10.642  0.1748 -0.3417 -0.4299
 3617SOL    HW122487   1.588   3.726  10.705  0.4111 -2.3451  1.8596
 3617SOL    HW222488   1.666   3.603  10.681  1.9038  1.6639 -0.8539
 3618SOL     OW22489   3.347   4.233   8.228  0.6137  0.7539  0.5721
 3618SOL    HW122490   3.343   4.174   8.303  0.4749 -2.3525 -1.9016
 3618SOL    HW222491   3.287   4.297   8.266 -1.3763 -2.4110  2.7658
 3619SOL     OW22492   4.124   3.167   3.218 -0.1659  0.2829  0.6572
 3619SOL    HW122493   4.050   3.224   3.197  0.0784 -0.2865 -1.7317
 3619SOL    HW222494   4.100   3.132   3.303  2.0219 -0.9219  0.7981
 3620SOL     OW22495   1.407   0.862  15.387 -0.2968 -0.2647  0.0975
 3620SOL    HW122496   1.390   0.775  15.423  2.7528  0.1588  2.5368
 3620SOL    HW222497   1.456   0.906  15.457 -0.2922 -0.0760 -0.0220
 3621SOL     OW22498   0.321   2.918   9.740 -0.0415  0.1446  0.1335
 3621SOL    HW122499   0.374   2.848   9.702 -0.7742 -1.5493  2.2109
 3621SOL    HW222500   0.245   2.873   9.778 -0.2496  0.3901  0.0020
 3622SOL     OW22501   0.242   3.442   3.764  0.1296 -0.0539 -0.0433
 3622SOL    HW122502   0.199   3.425   3.847  0.2771  4.1366  0.8914
 3622SOL    HW222503   0.248   3.352   3.733 -0.8572  0.6524 -2.3143
 3623SOL     OW22504   3.759   3.342   2.850  0.1034 -0.2081  0.0960
 3623SOL    HW122505   3.836   3.389   2.883 -0.7604  0.2488  1.4617
 3623SOL    HW222506   3.784   3.307   2.765  1.2042 -0.8726  0.6949
 3624SOL     OW22507   1.044   1.165  10.060 -0.1755 -0.1039  0.3864
 3624SOL    HW122508   1.034   1.167  10.155 -0.9392  2.8501  0.2451
 3624SOL    HW222509   0.968   1.113  10.033  0.8075 -1.4847  0.2843
 3625SOL     OW22510   0.191   0.469   3.306 -0.0381  0.3923 -0.1029
 3625SOL    HW122511   0.221   0.460   3.396  0.5329  0.0294 -0.3327
 3625SOL    HW222512   0.274   0.451   3.262  0.1118  1.9928 -0.4906
 3626SOL     OW22513   4.477   3.123   5.597  0.3231  0.0953 -0.1074
 3626SOL    HW122514   4.439   3.056   5.654  0.0364  0.3762  0.0293
 3626SOL    HW222515   4.423   3.200   5.615  1.0015  0.5379  0.0330
 3627SOL     OW22516   3.666   3.723   4.688  0.5534  0.2759 -0.4240
 3627SOL    HW122517   3.736   3.757   4.633  0.2021 -0.0525 -1.0678
 3627SOL    HW222518   3.699   3.639   4.722 -0.5071 -1.0361 -2.6614
 3628SOL     OW22519   2.209   0.241   6.999  0.4415  0.1136  0.3906
 3628SOL    HW122520   2.260   0.232   7.080  1.1960  1.1668  0.0351
 3628SOL    HW222521   2.267   0.303   6.955  0.8340  0.8621  1.9509
 3629SOL     OW22522   2.038   4.630   7.064  0.2283 -0.5638 -0.3618
 3629SOL    HW122523   2.051   4.696   7.133 -0.8676  0.1438 -0.8431
 3629SOL    HW222524   1.987   4.562   7.109 -1.4902  0.1879 -1.1652
 3630SOL     OW22525   0.486   2.435   1.889 -0.1292  0.4905  0.1612
 3630SOL    HW122526   0.476   2.428   1.793 -0.2394 -0.7841  0.2669
 3630SOL    HW222527   0.575   2.404   1.902  0.4568  1.6855 -0.9996
 3631SOL     OW22528   3.325   4.228   1.559  0.1584  0.5115  0.3775
 3631SOL    HW122529   3.333   4.161   1.627  0.7661  0.6489  0.4401
 3631SOL    HW222530   3.338   4.310   1.607 -0.8576  1.4410 -0.9492
 3632SOL     OW22531   3.030   4.131   3.228 -0.2513  0.1928  0.1201
 3632SOL    HW122532   2.978   4.136   3.308 -0.1545  0.5586  0.1615
 3632SOL    HW222533   2.964   4.154   3.162  0.2984 -1.3945 -0.9826
 3633SOL     OW22534   2.096   4.138   7.672 -0.0002  0.0001  0.3563
 3633SOL    HW122535   2.040   4.065   7.698  2.6975 -1.7239  1.3489
 3633SOL    HW222536   2.064   4.166   7.586 -1.7547  1.1819  1.3939
 3634SOL     OW22537   2.198   3.636   2.346  0.7188 -0.1007 -0.3337
 3634SOL    HW122538   2.135   3.625   2.274 -0.7730 -0.1286  0.9847
 3634SOL    HW222539   2.223   3.544   2.351 -1.3929 -0.7224 -1.0313
 3635SOL     OW22540   0.745   4.399   4.135  1.0697 -0.0234 -0.2056
 3635SOL    HW122541   0.780   4.394   4.047 -0.1437  0.3462 -0.7146
 3635SOL    HW222542   0.655   4.369   4.122  0.8173  0.2710  0.8433
 3636SOL     OW22543   3.860   1.006  13.307  0.2160 -0.0582  0.6522
 3636SOL    HW122544   3.890   1.017  13.397  0.0752 -0.5673  0.7592
 3636SOL    HW222545   3.865   0.911  13.306  0.1991 -0.0656  1.3546
 3637SOL     OW22546   1.970   3.589   6.674 -0.3345 -0.0780  0.0319
 3637SOL    HW122547   1.994   3.629   6.590  2.0950  0.5723  1.0386
 3637SOL    HW222548   1.970   3.497   6.649  1.0691  0.5238 -2.2035
 3638SOL     OW22549   3.537   3.104   4.160  0.1877 -0.4089 -0.0919
 3638SOL    HW122550   3.608   3.156   4.196 -0.2670  1.6732 -2.2026
 3638SOL    HW222551   3.479   3.115   4.235  1.3945  0.2999  0.7158
 3639SOL     OW22552   2.812   3.565   6.382  0.6127  0.2506  0.4843
 3639SOL    HW122553   2.855   3.551   6.298 -0.3260  2.6759 -0.4057
 3639SOL    HW222554   2.873   3.625   6.425 -0.6687  0.8871  1.4213
 3640SOL     OW22555   3.409   2.100   6.727  0.0562 -0.2880 -0.6549
 3640SOL    HW122556   3.370   2.118   6.812 -2.2896 -1.1988 -1.5299
 3640SOL    HW222557   3.493   2.063   6.753  0.8371  2.7519  1.1588
 3641SOL     OW22558   3.972   1.240   0.264  0.0045 -0.4201  0.0529
 3641SOL    HW122559   3.968   1.251   0.359 -1.1953 -1.8840  0.1677
 3641SOL    HW222560   4.067   1.240   0.250  0.1796  0.5062  1.1973
 3642SOL     OW22561   2.198   2.038   2.711  0.1986  0.1917  0.2913
 3642SOL    HW122562   2.214   1.944   2.698  1.2877  0.4677 -0.3734
 3642SOL    HW222563   2.286   2.063   2.739  0.1149 -0.9117  1.5228
 3643SOL     OW22564   0.065   4.613   7.229  0.7146 -0.0419  0.5956
 3643SOL    HW122565   0.099   4.584   7.144  0.4241  0.2773  0.3718
 3643SOL    HW222566   4.719   4.657   7.210  0.4116 -1.3956 -1.2716
 3644SOL     OW22567   0.167   0.446   1.938  0.1972 -0.2642  0.2799
 3644SOL    HW122568   0.261   0.426   1.931  0.8119  2.8408 -0.4700
 3644SOL    HW222569   0.159   0.459   1.844  0.7204  1.7902  0.5086
 3645SOL     OW22570   1.267   1.061   5.676  0.2562  0.1245  0.1379
 3645SOL    HW122571   1.361   1.049   5.670  0.4659  0.5954  2.4572
 3645SOL    HW222572   1.255   1.030   5.765  0.1955  1.2765  0.5335
 3646SOL     OW22573   4.290   2.162  17.288  0.0003  0.2600 -0.0164
 3646SOL    HW122574   4.384   2.146  17.294  0.2515  2.3108  1.2211
 3646SOL    HW222575   4.271   2.147  17.380  1.2663 -1.5860 -0.0484
 3647SOL     OW22576   4.552   1.702  11.731 -0.4282  0.6572 -0.0160
 3647SOL    HW122577   4.517   1.767  11.670 -1.1220  1.6415  1.4254
 3647SOL    HW222578   4.475   1.647  11.717  0.1213 -0.5323  1.7471
 3648SOL     OW22579   3.840   2.943   6.796 -0.4650 -0.8471  0.1757
 3648SOL    HW122580   3.917   2.955   6.851 -1.3536 -2.2314  1.7186
 3648SOL    HW222581   3.880   2.973   6.715 -1.7897 -2.2877 -0.9978
 3649SOL     OW22582   1.178   3.422   7.993 -0.0408  0.8747  0.1906
 3649SOL    HW122583   1.179   3.496   7.932 -1.1207 -0.1050 -1.0090
 3649SOL    HW222584   1.103   3.368   7.970  0.5516  0.1387  0.0041
 3650SOL     OW22585   4.480   2.592   2.387  1.0588  0.0622 -0.0916
 3650SOL    HW122586   4.554   2.611   2.445  0.2143  1.5611  0.4849
 3650SOL    HW222587   4.504   2.503   2.359 -0.3571 -0.1292 -0.7176
 3651SOL     OW22588   3.376   1.409   8.062 -0.1329 -0.0281  0.3124
 3651SOL    HW122589   3.394   1.411   8.156 -1.9854 -0.8811  0.6913
 3651SOL    HW222590   3.281   1.411   8.058 -0.0627  2.2198 -0.2838
 3652SOL     OW22591   0.381   4.606   2.963 -0.5476  0.3565  0.1975
 3652SOL    HW122592   0.464   4.652   2.974 -0.4759  0.8694 -2.5919
 3652SOL    HW222593   0.314   4.672   2.985  1.7323  3.4258 -2.0569
 3653SOL     OW22594   0.788   1.925   2.846 -0.2049 -0.2198 -0.0304
 3653SOL    HW122595   0.859   1.989   2.844  1.3834 -1.9123  3.2928
 3653SOL    HW222596   0.806   1.883   2.762 -0.9063 -0.5032 -0.0365
 3654SOL     OW22597   4.622   2.989   3.314 -0.2836  0.3199  0.1006
 3654SOL    HW122598   4.561   2.940   3.369 -0.9288  1.7688  0.6737
 3654SOL    HW222599   4.657   2.921   3.256 -1.8501  1.1026 -1.7746
 3655SOL     OW22600   1.953   1.376   5.890 -0.2996  0.6107  0.2686
 3655SOL    HW122601   1.956   1.454   5.944  0.6105  0.0922  0.9650
 3655SOL    HW222602   1.989   1.401   5.804 -0.6673 -0.1582 -0.1086
 3656SOL     OW22603   1.158   3.826   4.601  0.2371  0.1591  0.0081
 3656SOL    HW122604   1.219   3.856   4.534 -1.8592  2.6295 -0.8140
 3656SOL    HW222605   1.079   3.818   4.547  0.4390  0.8573 -0.3924
 3657SOL     OW22606   1.387   2.720   7.341 -0.3225 -0.3941 -0.8481
 3657SOL    HW122607   1.344   2.638   7.317  0.2462 -0.5859 -1.1990
 3657SOL    HW222608   1.469   2.716   7.292 -0.0706 -1.9533 -0.3019
 3658SOL     OW22609   1.023   2.914   2.911  0.3221 -0.3649 -0.5519
 3658SOL    HW122610   1.045   3.001   2.945 -0.3370 -0.3572 -0.1464
 3658SOL    HW222611   1.107   2.883   2.878 -1.7144 -4.3298 -1.9922
 3659SOL     OW22612   4.008   0.174   6.896 -0.7791  0.0921 -0.2689
 3659SOL    HW122613   3.914   0.168   6.917 -0.9835 -1.6728 -1.6653
 3659SOL    HW222614   4.027   0.264   6.919  0.2436  0.5708 -3.0147
 3660SOL     OW22615   0.953   2.413   7.496 -0.1309 -0.0987  0.1593
 3660SOL    HW122616   0.911   2.328   7.496  0.8828 -0.5841 -3.3873
 3660SOL    HW222617   0.917   2.446   7.579  0.5768  1.0146  0.0210
 3661SOL     OW22618   0.150   1.875   6.410 -0.4755 -0.7815 -0.3746
 3661SOL    HW122619   0.168   1.782   6.426  0.6232 -0.5296 -0.1838
 3661SOL    HW222620   0.104   1.863   6.327  0.8039  1.3389 -1.3886
 3662SOL     OW22621   0.807   1.738   3.305 -0.2382 -0.2369  0.5359
 3662SOL    HW122622   0.812   1.701   3.393  2.1542 -0.2032  0.3889
 3662SOL    HW222623   0.719   1.776   3.307  0.5041  1.5421 -0.5002
 3663SOL     OW22624   3.567   2.986   1.505 -0.6493  0.2190 -0.3229
 3663SOL    HW122625   3.565   2.946   1.592  3.1163 -1.2600 -0.9125
 3663SOL    HW222626   3.641   3.046   1.517  0.5538 -1.0917 -1.1585
 3664SOL     OW22627   0.849   2.606   6.466 -0.5431  0.1659  0.1488
 3664SOL    HW122628   0.930   2.579   6.424 -0.2679  1.2269 -0.0098
 3664SOL    HW222629   0.823   2.523   6.507 -0.7475 -0.6370 -1.6176
 3665SOL     OW22630   1.115   3.125   9.787 -0.0628  0.3716 -0.1875
 3665SOL    HW122631   1.146   3.106   9.699 -0.5428 -0.5909 -0.1515
 3665SOL    HW222632   1.019   3.133   9.782 -0.2767 -1.2387  1.0259
 3666SOL     OW22633   0.557   2.266   4.615  1.2314  0.3462  0.4381
 3666SOL    HW122634   0.555   2.173   4.635 -0.7039  0.2212 -0.3877
 3666SOL    HW222635   0.525   2.302   4.697  1.0273 -1.9203  1.3438
 3667SOL     OW22636   3.949   4.051   6.070 -0.1186 -0.1648 -0.3357
 3667SOL    HW122637   4.043   4.069   6.068 -0.0541 -0.2728  1.6380
 3667SOL    HW222638   3.925   4.045   6.163  0.5010 -2.7140 -0.3410
 3668SOL     OW22639   0.783   2.414   1.989 -0.4469  0.5912 -0.3417
 3668SOL    HW122640   0.735   2.480   2.039 -1.7089 -0.9693  0.5262
 3668SOL    HW222641   0.872   2.436   2.017 -0.3830 -1.3801  1.0292
 3669SOL     OW22642   0.826   0.522  10.545  0.0622  0.3040  0.3040
 3669SOL    HW122643   0.919   0.537  10.563 -0.4744  3.1816  0.6853
 3669SOL    HW222644   0.802   0.490  10.632 -0.6543  0.8245  0.2930
 3670SOL     OW22645   0.202   0.638   2.286  0.1477  0.3287 -0.7066
 3670SOL    HW122646   0.193   0.623   2.380 -0.8147 -3.3084 -1.3589
 3670SOL    HW222647   0.204   0.544   2.264  0.2314  0.2434 -0.3344
 3671SOL     OW22648   1.601   4.417   1.816 -0.0034 -0.5978 -0.4908
 3671SOL    HW122649   1.648   4.499   1.797 -0.0704 -0.5491 -0.4477
 3671SOL    HW222650   1.521   4.413   1.764  0.6727 -1.9347 -1.4410
 3672SOL     OW22651   2.220   2.718   1.362 -0.4075  0.9603  0.1061
 3672SOL    HW122652   2.148   2.766   1.402  1.5955  2.9925  1.3184
 3672SOL    HW222653   2.245   2.777   1.292  1.3220  0.4845  0.3123
 3673SOL     OW22654   3.139   3.884   8.881  0.5178 -0.0518  0.0894
 3673SOL    HW122655   3.122   3.913   8.791  0.8435 -0.5648 -0.1327
 3673SOL    HW222656   3.055   3.885   8.928  0.3557 -1.1534 -0.1908
 3674SOL     OW22657   2.016   2.932   8.781 -0.4420  0.2791 -0.5850
 3674SOL    HW122658   2.073   2.856   8.793  0.6150  1.2278  0.3950
 3674SOL    HW222659   2.031   2.956   8.690 -0.5697 -0.3082 -0.7626
 3675SOL     OW22660   4.298   4.311   8.594  0.0230  0.1836 -0.4988
 3675SOL    HW122661   4.216   4.350   8.624 -0.4795 -0.3290 -1.1984
 3675SOL    HW222662   4.277   4.219   8.614 -0.0493  0.0442 -1.2202
 3676SOL     OW22663   4.617   0.550   4.188 -0.3473  0.2796  0.2640
 3676SOL    HW122664   4.680   0.566   4.258 -0.0140  3.0428 -0.6756
 3676SOL    HW222665   4.613   0.632   4.138 -1.5798 -1.7394 -3.0064
 3677SOL     OW22666   2.313   0.802  10.194 -0.0653  0.1297  0.0641
 3677SOL    HW122667   2.338   0.712  10.172  1.0348 -0.4112  3.5168
 3677SOL    HW222668   2.228   0.794  10.235 -0.0055 -0.9565 -0.0153
 3678SOL     OW22669   4.184   0.286   4.421 -0.2575 -0.0369 -0.5234
 3678SOL    HW122670   4.181   0.315   4.329 -1.9911 -2.2972 -1.1992
 3678SOL    HW222671   4.209   0.369   4.461  1.2905 -0.0294 -1.4950
 3679SOL     OW22672   1.982   2.501   0.365  0.3439 -0.0075  0.1266
 3679SOL    HW122673   1.971   2.481   0.458  1.4713 -2.3988 -0.2433
 3679SOL    HW222674   2.019   2.428   0.315  0.8408 -1.1876  2.2330
 3680SOL     OW22675   0.032   4.395  11.816 -0.2464 -0.3640 -0.6557
 3680SOL    HW122676   0.118   4.375  11.852 -0.9083  1.2448  1.8612
 3680SOL    HW222677   0.022   4.476  11.866  0.0349  0.0393 -1.2598
 3681SOL     OW22678   4.571   3.161  17.317  0.2355  0.6591  0.3130
 3681SOL    HW122679   4.509   3.125  17.380 -1.3448 -1.4471 -2.4325
 3681SOL    HW222680   4.515   3.171  17.240 -0.8947  1.7301  1.2676
 3682SOL     OW22681   0.495   4.074  16.525  0.0384  0.0641 -0.6833
 3682SOL    HW122682   0.412   4.031  16.545 -0.1315  0.7100  0.0137
 3682SOL    HW222683   0.480   4.110  16.437 -0.7609 -1.4028 -1.1403
 3683SOL     OW22684   1.371   1.469   9.630 -0.5170  0.1118  0.1528
 3683SOL    HW122685   1.392   1.556   9.662 -0.0523  0.4895 -1.1722
 3683SOL    HW222686   1.279   1.458   9.653 -0.4448 -2.0593 -0.6176
 3684SOL     OW22687   0.665   1.636  17.537  0.3031  0.1098  0.4141
 3684SOL    HW122688   0.684   1.547  17.508 -0.4995 -0.2710  1.0753
 3684SOL    HW222689   0.621   1.616  17.620  1.8497  2.1248  1.7454
 3685SOL     OW22690   2.073   2.568   9.351 -0.1725  0.3251  0.0107
 3685SOL    HW122691   2.113   2.653   9.370 -1.3148  0.4477  1.9062
 3685SOL    HW222692   2.141   2.520   9.304 -0.5885  1.7345 -2.0466
 3686SOL     OW22693   4.612   0.637   9.334  0.2147  0.4525 -0.1884
 3686SOL    HW122694   4.631   0.553   9.375  0.4476  0.1940 -0.8254
 3686SOL    HW222695   4.668   0.698   9.382  0.9153  0.4283 -0.9607
 3687SOL     OW22696   3.637   0.674  17.026 -0.4869  0.1465 -0.0452
 3687SOL    HW122697   3.591   0.590  17.028  4.1975 -2.4281  0.7723
 3687SOL    HW222698   3.658   0.685  17.119  0.8204 -0.6072 -0.2437
 3688SOL     OW22699   2.605   3.431  16.353 -0.0416 -0.9273 -0.3341
 3688SOL    HW122700   2.599   3.462  16.262 -0.1409 -0.7972 -0.2814
 3688SOL    HW222701   2.653   3.348  16.342 -0.1852 -1.0993  0.3840
 3689SOL     OW22702   2.207   4.571  15.925 -0.1130  0.1650 -0.1229
 3689SOL    HW122703   2.118   4.576  15.959 -0.4027 -1.2565 -0.6969
 3689SOL    HW222704   2.215   4.488  15.877 -0.8743  0.3903 -0.6400
 3690SOL     OW22705   4.030   0.895   1.449  0.5816  0.2574  0.4215
 3690SOL    HW122706   4.038   0.801   1.434 -0.9400 -0.0244  1.3721
 3690SOL    HW222707   4.098   0.917   1.386 -0.8182  2.0742 -0.4579
 3691SOL     OW22708   0.151   0.349   0.269 -0.3533 -0.6602  0.1014
 3691SOL    HW122709   0.073   0.296   0.256 -0.2953  0.0596 -3.0446
 3691SOL    HW222710   0.186   0.329   0.182 -1.5606  0.7698 -0.7025
 3692SOL     OW22711   3.135   3.610   1.287 -0.1606  0.1810 -0.6294
 3692SOL    HW122712   3.074   3.655   1.229 -2.2781 -2.8590 -0.7786
 3692SOL    HW222713   3.124   3.522   1.250 -0.9130  0.0564 -0.1194
 3693SOL     OW22714   1.913   4.161   3.841  0.0928  0.1458  0.3605
 3693SOL    HW122715   1.923   4.209   3.759 -0.5567 -2.2613 -1.1023
 3693SOL    HW222716   1.998   4.120   3.858  0.2959  0.1447 -0.6436
 3694SOL     OW22717   3.410   4.244   4.153  0.1986  0.2527 -0.0434
 3694SOL    HW122718   3.393   4.150   4.145  0.0177  0.1759  1.2419
 3694SOL    HW222719   3.505   4.259   4.144 -0.0310  2.0917  0.5645
 3695SOL     OW22720   3.980   0.594  12.310 -0.5506  0.0051 -0.0172
 3695SOL    HW122721   4.029   0.673  12.332 -0.5952  0.2897 -0.9494
 3695SOL    HW222722   4.051   0.564  12.254 -0.9973 -0.0863 -0.5336
 3696SOL     OW22723   2.415   3.370   8.816 -0.4456 -0.1056 -0.8804
 3696SOL    HW122724   2.339   3.312   8.816 -0.8641  0.4330 -1.8603
 3696SOL    HW222725   2.426   3.370   8.720  4.1232 -2.5635 -0.3298
 3697SOL     OW22726   4.338   3.275   3.923  0.0363  0.8717  0.2493
 3697SOL    HW122727   4.339   3.217   3.999  1.5418 -0.8620 -1.1107
 3697SOL    HW222728   4.388   3.227   3.858 -2.3510  0.2501 -1.1010
 3698SOL     OW22729   1.924   4.430   4.688  0.5256  0.2869  0.1444
 3698SOL    HW122730   1.841   4.463   4.655  0.5655 -0.1618 -0.3967
 3698SOL    HW222731   1.975   4.510   4.700 -1.3693  1.3975  0.7597
 3699SOL     OW22732   3.232   3.651   0.918 -0.2933 -0.1463 -0.2642
 3699SOL    HW122733   3.276   3.736   0.921 -2.8299  1.1261  0.4445
 3699SOL    HW222734   3.156   3.656   0.976 -0.5146  0.5433 -0.6116
 3700SOL     OW22735   4.294   3.193   6.885 -0.0686  0.3911  0.3906
 3700SOL    HW122736   4.274   3.108   6.923 -2.2114  1.3206  1.3137
 3700SOL    HW222737   4.214   3.241   6.907 -1.9353 -1.9471 -1.2175
 3701SOL     OW22738   0.931   2.187  16.726 -0.2739 -0.0582 -0.3416
 3701SOL    HW122739   0.942   2.275  16.762  1.1414  0.4990 -2.1140
 3701SOL    HW222740   0.886   2.218  16.648 -0.5543 -1.5877 -0.7734
 3702SOL     OW22741   2.213   3.871   3.558 -0.2015 -0.0504  0.4379
 3702SOL    HW122742   2.242   3.867   3.467 -1.1680  0.6798  0.0982
 3702SOL    HW222743   2.125   3.835   3.548 -0.4802  0.7799 -0.0772
 3703SOL     OW22744   3.663   2.997   8.197  0.2415  0.2129 -0.1404
 3703SOL    HW122745   3.654   2.913   8.151 -3.5916 -0.3598  1.6119
 3703SOL    HW222746   3.758   3.005   8.204  0.3943 -1.0283 -0.6958
 3704SOL     OW22747   0.797   0.177   8.467  0.1823  0.3051  0.0361
 3704SOL    HW122748   0.776   0.088   8.493  0.5111 -0.0618 -0.9411
 3704SOL    HW222749   0.713   0.199   8.426  0.6949 -0.9838 -1.7121
 3705SOL     OW22750   2.951   3.110  11.282 -0.2352 -0.0817 -0.0865
 3705SOL    HW122751   3.010   3.178  11.314 -1.8419  0.5899  1.4618
 3705SOL    HW222752   2.931   3.067  11.365  0.3435 -1.6299 -0.7551
 3706SOL     OW22753   2.881   2.347  16.407 -0.4778  0.0484  0.3897
 3706SOL    HW122754   2.803   2.402  16.408 -1.0239 -0.7321  0.7457
 3706SOL    HW222755   2.851   2.257  16.415 -0.2196 -0.3710 -3.3687
 3707SOL     OW22756   2.518   1.050  16.378  0.0988  0.1277  0.2717
 3707SOL    HW122757   2.467   1.122  16.416  1.2433  1.0701  0.0395
 3707SOL    HW222758   2.605   1.082  16.401 -0.0767 -0.3166  1.5708
 3708SOL     OW22759   3.232   3.203   5.347  0.3986 -0.3233  0.2332
 3708SOL    HW122760   3.238   3.194   5.251  0.9156 -1.7193  0.3993
 3708SOL    HW222761   3.321   3.226   5.375  1.0620 -2.4958 -0.1044
 3709SOL     OW22762   2.799   2.367   2.559  0.2549 -0.1595  0.3004
 3709SOL    HW122763   2.831   2.279   2.537  0.6574  0.4603 -1.6313
 3709SOL    HW222764   2.802   2.419   2.478  0.0697 -1.5675 -0.6154
 3710SOL     OW22765   4.287   0.598   2.741 -0.6293  0.1953  0.2156
 3710SOL    HW122766   4.259   0.575   2.830  0.6918 -2.6915 -0.1130
 3710SOL    HW222767   4.291   0.692   2.755 -0.9048  0.5686 -2.2929
 3711SOL     OW22768   3.893   3.049   5.979 -0.1476 -0.4026  0.5125
 3711SOL    HW122769   3.938   2.969   5.952 -0.8754 -0.8154  0.5111
 3711SOL    HW222770   3.810   3.054   5.931  0.7253 -0.0773 -0.9773
 3712SOL     OW22771   2.904   3.174   4.199 -0.0694  0.5640 -0.1051
 3712SOL    HW122772   2.962   3.104   4.231 -2.0222 -1.0499 -0.0985
 3712SOL    HW222773   2.916   3.246   4.260 -0.1932 -2.0468  3.0249
 3713SOL     OW22774   3.718   3.449   4.763  0.3560  0.1112  0.1073
 3713SOL    HW122775   3.788   3.400   4.720 -0.4378 -0.7585 -0.1886
 3713SOL    HW222776   3.766   3.487   4.837  2.0073  1.8372 -1.8664
 3714SOL     OW22777   4.431   3.029   3.101 -0.3137 -0.3491 -0.2316
 3714SOL    HW122778   4.509   3.026   3.156 -0.7858 -0.3857  0.4330
 3714SOL    HW222779   4.443   2.976   3.022  0.7330 -0.2384 -0.1441
 3715SOL     OW22780   2.696   1.221   1.494 -0.1913 -0.1011 -0.4496
 3715SOL    HW122781   2.722   1.165   1.567 -0.9206  0.0556 -0.0731
 3715SOL    HW222782   2.602   1.207   1.479 -0.2300 -0.7579  0.4146
 3716SOL     OW22783   0.050   3.173   8.652  0.1361  0.5205 -0.5180
 3716SOL    HW122784   4.733   3.179   8.573  2.1353 -0.2537 -1.9327
 3716SOL    HW222785   0.051   3.078   8.663 -2.1650  0.5806  0.2775
 3717SOL     OW22786   1.602   2.738  15.505 -0.6137 -0.6083 -0.4389
 3717SOL    HW122787   1.666   2.691  15.558 -0.0939  0.8821  0.2442
 3717SOL    HW222788   1.628   2.826  15.532 -0.4727 -0.9484  0.5420
 3718SOL     OW22789   0.350   2.565   7.820  0.2528  0.2653 -0.1604
 3718SOL    HW122790   0.259   2.549   7.792  0.3301  1.0480 -0.8283
 3718SOL    HW222791   0.386   2.595   7.737 -0.0560  0.2697 -0.2959
 3719SOL     OW22792   3.958   2.664  17.312 -0.9293 -0.5275  0.1508
 3719SOL    HW122793   3.905   2.650  17.391  0.3968 -3.1655  0.5858
 3719SOL    HW222794   4.026   2.599  17.332  0.2923  0.3002 -1.3654
 3720SOL     OW22795   4.226   1.067   4.395 -0.6422  0.4929  0.5303
 3720SOL    HW122796   4.226   1.114   4.312 -0.8689 -0.8592 -0.2324
 3720SOL    HW222797   4.151   1.011   4.376 -0.2807  0.2531 -0.1648
 3721SOL     OW22798   2.288   0.025   2.590  0.2220 -0.8218 -0.3401
 3721SOL    HW122799   2.225   0.039   2.520 -1.1761 -0.2371  1.0289
 3721SOL    HW222800   2.349   4.711   2.538  0.9104 -0.2148 -0.1364
 3722SOL     OW22801   4.017   2.360   8.078  0.2485  0.3102  0.0234
 3722SOL    HW122802   3.958   2.320   8.014  0.6369 -0.1403 -0.0537
 3722SOL    HW222803   3.976   2.328   8.158 -0.6411  0.6893 -0.2816
 3723SOL     OW22804   0.312   2.121   9.250  0.0908  0.2686 -0.1376
 3723SOL    HW122805   0.391   2.090   9.205 -2.0457 -3.3219 -1.4251
 3723SOL    HW222806   0.291   2.040   9.296  0.4286  0.6403  0.6714
 3724SOL     OW22807   1.151   3.648   1.503  0.6562 -0.8542  0.6304
 3724SOL    HW122808   1.201   3.681   1.577  0.5530 -1.9668  1.1915
 3724SOL    HW222809   1.105   3.728   1.477  3.8567 -0.2045 -3.0576
 3725SOL     OW22810   1.296   3.164   3.472  0.0596  0.3424  0.0466
 3725SOL    HW122811   1.356   3.226   3.430 -0.2026  2.2401  2.5166
 3725SOL    HW222812   1.237   3.230   3.508 -2.4809 -1.4493 -0.8034
 3726SOL     OW22813   1.889   2.920  13.171 -0.1966  0.1928  0.7015
 3726SOL    HW122814   1.949   2.876  13.111  0.4858 -0.8034  2.1064
 3726SOL    HW222815   1.935   2.999  13.198  0.2166 -0.5347  2.0977
 3727SOL     OW22816   2.306   1.997   5.391  0.1534  0.8779  0.1254
 3727SOL    HW122817   2.335   1.927   5.449  2.4394  0.2416 -1.7944
 3727SOL    HW222818   2.375   2.063   5.387  2.0315 -1.0718  1.0196
 3728SOL     OW22819   3.803   4.358   2.570  0.3247 -0.3319 -0.1130
 3728SOL    HW122820   3.740   4.287   2.568 -0.4745  0.3608  0.3955
 3728SOL    HW222821   3.768   4.380   2.656 -0.5970 -0.5104 -0.4485
 3729SOL     OW22822   2.537   1.608   9.930  0.0953 -0.4494 -0.3476
 3729SOL    HW122823   2.515   1.677   9.993 -0.1415  1.3778 -2.4237
 3729SOL    HW222824   2.615   1.574   9.974 -0.3714  0.7801  1.4065
 3730SOL     OW22825   4.451   3.439   9.908 -0.1155  0.0039  0.3451
 3730SOL    HW122826   4.472   3.512   9.966  2.9007  1.4221 -2.5132
 3730SOL    HW222827   4.367   3.469   9.874  0.2062  2.1551  1.4542
 3731SOL     OW22828   4.156   2.050  14.253  0.0249  0.2869 -0.2615
 3731SOL    HW122829   4.066   2.063  14.283  0.4746  1.7763  0.4421
 3731SOL    HW222830   4.197   2.130  14.285 -0.7580  0.1629  1.0432
 3732SOL     OW22831   4.151   0.945  15.407 -0.4539  0.2555  0.3505
 3732SOL    HW122832   4.118   0.961  15.495  0.8310  3.9058  0.1706
 3732SOL    HW222833   4.241   0.932  15.438 -0.2663 -0.2633 -0.4049
 3733SOL     OW22834   3.953   2.191   2.711 -0.1677 -0.1345  0.4779
 3733SOL    HW122835   3.914   2.194   2.798 -0.0076  1.2053  0.5100
 3733SOL    HW222836   3.882   2.195   2.646  1.0564  0.0251 -0.8494
 3734SOL     OW22837   1.999   1.734  11.756  0.6701 -0.3808 -0.0067
 3734SOL    HW122838   1.950   1.781  11.689 -0.1197 -0.3515  0.5993
 3734SOL    HW222839   2.031   1.814  11.798  2.4857 -0.5620 -1.0460
 3735SOL     OW22840   2.857   2.926   5.569  0.1708 -0.8400 -0.1409
 3735SOL    HW122841   2.903   2.990   5.514 -0.3590  0.2661  0.6879
 3735SOL    HW222842   2.763   2.940   5.560  0.1838 -0.5110  0.2136
 3736SOL     OW22843   2.425   1.865   2.930 -0.4222 -0.1435  0.1249
 3736SOL    HW122844   2.476   1.788   2.953  1.7888  1.0538 -0.7377
 3736SOL    HW222845   2.335   1.841   2.954 -0.8556  1.1924 -0.1459
 3737SOL     OW22846   1.545   4.543   1.066  0.8832  0.1233 -0.2015
 3737SOL    HW122847   1.581   4.628   1.038  3.3681 -0.4005  1.3824
 3737SOL    HW222848   1.631   4.502   1.070  0.4938 -0.7125 -0.6535
 3738SOL     OW22849   2.374   4.103   0.874 -0.1609  0.5661 -0.3810
 3738SOL    HW122850   2.378   4.198   0.875  0.9434  0.5350 -1.6064
 3738SOL    HW222851   2.358   4.093   0.780 -2.9924  0.0334  0.1631
 3739SOL     OW22852   1.712   0.663   6.868 -0.3755  0.3418  0.2236
 3739SOL    HW122853   1.709   0.567   6.866 -3.1786  0.4269  0.5151
 3739SOL    HW222854   1.623   0.696   6.875 -0.1350  0.7016  1.6882
 3740SOL     OW22855   2.214   3.730   7.632  0.4143 -0.3414 -0.1919
 3740SOL    HW122856   2.214   3.635   7.650 -0.4000 -0.4829 -0.9688
 3740SOL    HW222857   2.283   3.764   7.690  0.4699  1.7308 -1.5126
 3741SOL     OW22858   2.672   2.544   6.809  0.3462 -0.2690 -0.0285
 3741SOL    HW122859   2.645   2.490   6.883  1.6043  3.1116  2.8462
 3741SOL    HW222860   2.611   2.618   6.811  0.1959 -0.4069  0.4869
 3742SOL     OW22861   3.971   4.346   6.599 -0.0246 -0.3194 -0.0580
 3742SOL    HW122862   3.951   4.253   6.606 -2.2635  0.0337 -2.0812
 3742SOL    HW222863   3.969   4.373   6.691 -1.9531 -2.7262  0.5758
 3743SOL     OW22864   1.262   0.523   7.799  0.0784 -0.2875 -0.4577
 3743SOL    HW122865   1.355   0.518   7.778 -0.4799 -0.2722 -2.8576
 3743SOL    HW222866   1.221   0.553   7.719  0.0153  0.6352 -0.0869
 3744SOL     OW22867   1.112   3.741   8.126  0.0972 -0.8212  0.0961
 3744SOL    HW122868   1.187   3.719   8.071  0.2536 -0.8775  0.3317
 3744SOL    HW222869   1.148   3.815   8.175  0.4161  1.0517 -2.9441
 3745SOL     OW22870   3.742   1.435   8.588  0.3115  0.1275 -0.1510
 3745SOL    HW122871   3.784   1.414   8.672 -1.7881  0.0000  0.8736
 3745SOL    HW222872   3.711   1.526   8.594 -1.0415 -0.4606  1.8971
 3746SOL     OW22873   3.742   2.363   9.282 -1.0094  0.6683  0.6460
 3746SOL    HW122874   3.735   2.431   9.349  0.8303  1.3025  0.1964
 3746SOL    HW222875   3.715   2.293   9.342  0.0502 -1.2366 -1.0900
 3747SOL     OW22876   3.541   3.985  12.030 -0.1839  0.0993  0.1315
 3747SOL    HW122877   3.529   4.054  11.964  1.8425 -0.9386 -1.3250
 3747SOL    HW222878   3.522   4.036  12.108 -0.1485 -0.4583  0.5042
 3748SOL     OW22879   3.516   1.553   2.289  0.2307 -0.3631  0.2967
 3748SOL    HW122880   3.467   1.626   2.250 -0.0016  0.4006  2.0204
 3748SOL    HW222881   3.590   1.533   2.233 -1.0133 -1.4500 -0.9701
 3749SOL     OW22882   2.524   3.483   4.611 -0.7867  0.3085 -0.0993
 3749SOL    HW122883   2.579   3.530   4.674 -1.1334  0.3854  0.1429
 3749SOL    HW222884   2.530   3.533   4.530 -0.6251 -0.3873 -0.5207
 3750SOL     OW22885   0.993   2.118  10.966 -0.3472 -0.4958  0.2798
 3750SOL    HW122886   1.024   2.167  10.890 -0.3466 -1.8784 -0.6005
 3750SOL    HW222887   1.015   2.032  10.931 -0.8743  0.1562 -1.6168
 3751SOL     OW22888   0.525   2.441  10.866  0.0335  0.1033  0.5990
 3751SOL    HW122889   0.552   2.436  10.958  1.5345 -2.4265  0.0219
 3751SOL    HW222890   0.512   2.349  10.845 -2.9068  0.4185  1.0654
 3752SOL     OW22891   1.912   2.620   2.977 -0.4457 -0.2197 -0.3018
 3752SOL    HW122892   1.962   2.687   2.929  1.7324 -0.2483  1.9267
 3752SOL    HW222893   1.831   2.664   3.003 -1.3772 -1.7893 -0.5586
 3753SOL     OW22894   4.227   2.404  12.368  0.0072 -0.1280  0.7576
 3753SOL    HW122895   4.259   2.478  12.317  1.5271 -0.3805  1.3264
 3753SOL    HW222896   4.306   2.370  12.411  0.4903 -0.3125 -0.2765
 3754SOL     OW22897   2.058   3.349   4.542  0.1842 -0.7967 -0.6138
 3754SOL    HW122898   2.089   3.439   4.555 -0.1669 -1.1129  2.4301
 3754SOL    HW222899   2.072   3.292   4.618  0.9867  0.8400  0.4606
 3755SOL     OW22900   3.894   1.408   5.619  0.6082  0.2657  0.0953
 3755SOL    HW122901   3.841   1.480   5.652  0.7021  1.0188 -1.4112
 3755SOL    HW222902   3.926   1.434   5.533 -2.9671 -0.7762 -1.5506
 3756SOL     OW22903   2.031   2.356   1.866 -0.2061 -0.0934 -0.4097
 3756SOL    HW122904   1.954   2.412   1.857 -0.9011 -1.2169 -1.4778
 3756SOL    HW222905   2.051   2.356   1.960 -3.0467  0.0194  0.1939
 3757SOL     OW22906   1.231   2.395   8.851 -0.3536  0.5968  0.1592
 3757SOL    HW122907   1.271   2.317   8.890 -0.5784  0.7583  0.7084
 3757SOL    HW222908   1.141   2.370   8.874 -0.9429  2.3210 -0.2769
 3758SOL     OW22909   3.621   3.775  15.200 -0.0465  0.3722 -0.2319
 3758SOL    HW122910   3.667   3.743  15.123 -0.6846 -0.3085 -0.3231
 3758SOL    HW222911   3.601   3.691  15.241 -1.0323  1.3934  1.3831
 3759SOL     OW22912   1.518   4.580  10.258 -0.1801 -0.0674  0.0258
 3759SOL    HW122913   1.574   4.658  10.248 -0.0664 -0.3617 -1.4830
 3759SOL    HW222914   1.470   4.605  10.337 -1.2543  0.9889 -0.9600
 3760SOL     OW22915   3.158   3.373   3.264  0.1918 -0.1644  0.0186
 3760SOL    HW122916   3.146   3.441   3.198  0.3158 -0.6536 -0.4981
 3760SOL    HW222917   3.080   3.399   3.315 -0.0746  1.0300 -1.0008
 3761SOL     OW22918   1.374   4.531  15.512 -0.0197 -0.2926 -0.6301
 3761SOL    HW122919   1.437   4.489  15.571  1.0115  0.4082 -1.2460
 3761SOL    HW222920   1.294   4.533  15.566 -0.7883 -1.8043 -1.7123
 3762SOL     OW22921   2.530   2.390   4.165 -0.2470  0.1063  0.2402
 3762SOL    HW122922   2.509   2.301   4.192 -0.9330  0.2709  0.2364
 3762SOL    HW222923   2.451   2.439   4.187 -1.8742 -1.5353 -2.0717
 3763SOL     OW22924   1.666   1.223  12.605 -0.0733 -0.0591 -0.0860
 3763SOL    HW122925   1.634   1.313  12.597 -1.3284 -0.4497  0.5579
 3763SOL    HW222926   1.633   1.193  12.520  0.5281 -0.8405 -0.0410
 3764SOL     OW22927   3.206   1.050   8.902  0.1009 -0.0644  0.1546
 3764SOL    HW122928   3.220   1.076   8.993 -1.7721  1.5950 -0.0229
 3764SOL    HW222929   3.152   1.120   8.865  0.7116 -0.7423 -1.9750
 3765SOL     OW22930   1.706   2.731   2.553  0.0207 -0.3875  0.1680
 3765SOL    HW122931   1.691   2.777   2.636 -2.2550 -1.1861  0.2016
 3765SOL    HW222932   1.798   2.751   2.533  0.5159 -2.6667  0.0975
 3766SOL     OW22933   0.147   1.506  17.310 -0.2542 -1.1288  0.9190
 3766SOL    HW122934   0.094   1.583  17.291 -1.1788 -1.9349  0.2263
 3766SOL    HW222935   0.210   1.549  17.368 -0.7344 -1.9718  2.0613
 3767SOL     OW22936   3.036   2.441   4.429  0.0888  0.1257  0.2726
 3767SOL    HW122937   3.130   2.448   4.413 -0.6310  0.8011 -3.5081
 3767SOL    HW222938   3.020   2.369   4.368  1.3995  0.3787 -0.3603
 3768SOL     OW22939   0.226   4.634   9.151 -0.2174  0.1320 -0.3111
 3768SOL    HW122940   0.247   4.553   9.104 -3.3040 -0.3516 -0.8550
 3768SOL    HW222941   0.278   4.611   9.228 -2.2183 -0.7017  0.7822
 3769SOL     OW22942   2.621   3.681  10.261 -0.3194  0.2191  0.5169
 3769SOL    HW122943   2.714   3.659  10.249 -0.2388  1.4031 -1.0346
 3769SOL    HW222944   2.584   3.666  10.174 -1.1182 -0.9208  1.0556
 3770SOL     OW22945   2.537   2.454  12.598  0.0161  0.6089 -0.2009
 3770SOL    HW122946   2.577   2.368  12.613 -0.6506  0.3621  0.1917
 3770SOL    HW222947   2.455   2.426  12.639  0.4937  0.4699  0.6564
 3771SOL     OW22948   3.207   0.395  13.478 -0.3785  0.1202 -0.2003
 3771SOL    HW122949   3.113   0.411  13.486 -0.2850 -0.6706  2.7044
 3771SOL    HW222950   3.210   0.301  13.497 -0.6253  0.5867  2.1385
 3772SOL     OW22951   2.071   3.050   5.606 -0.0426  0.0170  0.5437
 3772SOL    HW122952   2.061   3.038   5.701 -0.4005 -3.5293  0.0842
 3772SOL    HW222953   2.072   2.961   5.570  0.7084  0.6968 -1.0818
 3773SOL     OW22954   2.975   0.958  13.201 -0.2984  0.1249 -0.7407
 3773SOL    HW122955   3.046   0.965  13.266  0.5757 -0.1204 -1.6641
 3773SOL    HW222956   2.943   0.873  13.230 -0.5769  0.4532 -0.0915
 3774SOL     OW22957   2.483   0.626   2.085  0.1199 -0.0561  0.2582
 3774SOL    HW122958   2.503   0.709   2.042  2.8109 -0.6436  0.3801
 3774SOL    HW222959   2.417   0.579   2.033  1.9479 -2.1542 -0.1616
 3775SOL     OW22960   3.250   0.601   2.411  0.2442  0.9753 -0.0672
 3775SOL    HW122961   3.193   0.670   2.444 -1.7236 -0.6893 -0.0044
 3775SOL    HW222962   3.217   0.522   2.452  1.2716  0.5909  0.0348
 3776SOL     OW22963   4.685   1.385   3.096  0.2748 -0.1611  0.2070
 3776SOL    HW122964   4.708   1.304   3.050 -1.1693 -1.0888  1.1391
 3776SOL    HW222965   0.005   1.441   3.044 -0.9072  0.5971 -0.2715
 3777SOL     OW22966   4.179   2.053   9.053 -0.2460 -0.0165  0.4677
 3777SOL    HW122967   4.159   2.081   9.143  0.4793  2.1513 -0.0377
 3777SOL    HW222968   4.145   1.964   9.058  1.7486 -0.6385  2.8920
 3778SOL     OW22969   0.962   2.941   4.769  0.4700 -0.4921  0.3668
 3778SOL    HW122970   0.931   2.918   4.857  1.1371  0.6111  0.8862
 3778SOL    HW222971   1.055   2.933   4.788  0.9198  0.5260 -1.3982
 3779SOL     OW22972   2.828   0.265   1.235  0.0548  0.5518 -0.7583
 3779SOL    HW122973   2.886   0.341   1.236  0.1277  0.4785  0.3715
 3779SOL    HW222974   2.858   0.222   1.315  1.0526 -1.5441 -2.2537
 3780SOL     OW22975   0.041   3.386   1.576 -0.2028 -0.7339 -0.3594
 3780SOL    HW122976   4.734   3.307   1.546 -3.7718  0.9436  0.5111
 3780SOL    HW222977   0.123   3.368   1.531  0.0303  2.0002 -1.0410
 3781SOL     OW22978   3.526   1.960  12.622 -0.0687  0.3676 -0.3872
 3781SOL    HW122979   3.467   2.031  12.649 -1.3485 -1.1050  0.7027
 3781SOL    HW222980   3.472   1.914  12.557 -2.3849  0.4370  1.4550
 3782SOL     OW22981   3.890   4.608  13.174 -0.1108  0.0584 -0.1127
 3782SOL    HW122982   3.815   4.587  13.118  1.5092  0.4800 -2.4254
 3782SOL    HW222983   3.852   4.625  13.260  1.3726 -1.4110  0.8396
 3783SOL     OW22984   4.227   2.401  11.071  0.3930  0.4137 -0.6146
 3783SOL    HW122985   4.319   2.374  11.069  1.3488  3.6507 -0.2525
 3783SOL    HW222986   4.216   2.448  11.154 -0.3863  2.3366 -1.8096
 3784SOL     OW22987   1.818   1.145  15.765  0.3637 -0.2709  0.0854
 3784SOL    HW122988   1.913   1.160  15.770  0.1300  1.0622  0.5978
 3784SOL    HW222989   1.814   1.060  15.808 -0.6772 -0.1761  0.1580
 3785SOL     OW22990   4.216   3.321  13.631  0.1623 -0.3066 -0.3133
 3785SOL    HW122991   4.245   3.273  13.553  0.2556 -1.1005  0.2114
 3785SOL    HW222992   4.248   3.276  13.709  1.3462  2.0850  0.5923
 3786SOL     OW22993   2.033   2.884  17.732 -0.0893  0.2519  0.1257
 3786SOL    HW122994   2.052   2.919   0.073 -0.9531  1.8697 -0.3194
 3786SOL    HW222995   1.966   2.820   0.010 -0.3945  0.6205  0.2715
 3787SOL     OW22996   2.217   1.685  14.834  0.3983 -0.1622  0.0701
 3787SOL    HW122997   2.293   1.740  14.815 -0.7345  1.3623 -0.0267
 3787SOL    HW222998   2.248   1.594  14.838 -2.7282 -1.2147  0.3054
 3788SOL     OW22999   4.342   4.267  15.571 -0.2429  0.1472 -0.3110
 3788SOL    HW123000   4.379   4.345  15.610  0.8453 -0.8703  0.6917
 3788SOL    HW223001   4.256   4.307  15.561 -0.2592 -0.1415 -1.4062
 3789SOL     OW23002   1.207   4.525   7.293 -0.0728 -0.1329  0.5699
 3789SOL    HW123003   1.296   4.522   7.259  0.1027  1.7680  0.8642
 3789SOL    HW223004   1.190   4.431   7.300  2.3490 -0.4208  2.3013
 3790SOL     OW23005   1.130   0.825   5.505  0.1970  0.4107  0.1721
 3790SOL    HW123006   1.083   0.908   5.501  0.6221  0.5978 -1.0955
 3790SOL    HW223007   1.146   0.808   5.598 -0.3032  0.8464  0.3355
 3791SOL     OW23008   3.096   1.891   7.156 -0.0635 -0.4806 -0.2491
 3791SOL    HW123009   3.086   1.796   7.155 -2.9087 -0.1757 -0.7658
 3791SOL    HW223010   3.133   1.893   7.244  1.3695 -1.0036 -0.8380
 3792SOL     OW23011   3.525   1.521   2.899  0.5257  0.0466  0.3890
 3792SOL    HW123012   3.535   1.434   2.937  2.1995  0.1324  0.1448
 3792SOL    HW223013   3.430   1.522   2.887  0.4240  0.7978  1.2438
 3793SOL     OW23014   1.012   3.844   5.885 -0.0870  0.1090 -0.0213
 3793SOL    HW123015   1.098   3.864   5.921 -0.4742  1.7513 -0.0325
 3793SOL    HW223016   1.028   3.761   5.840  0.5550  0.7018 -0.8733
 3794SOL     OW23017   1.783   0.282   2.702 -0.2292  0.1514  0.1253
 3794SOL    HW123018   1.866   0.298   2.657 -0.2256  2.6806  1.0219
 3794SOL    HW223019   1.784   0.331   2.784  0.0115  1.0211 -0.3944
 3795SOL     OW23020   0.862   1.769   6.756  0.1131 -0.4001  0.0757
 3795SOL    HW123021   0.822   1.852   6.778 -3.9176 -2.2925 -0.0721
 3795SOL    HW223022   0.795   1.722   6.706 -0.1553 -1.0233  1.0398
 3796SOL     OW23023   2.931   0.153   4.644 -0.4066  0.0433  0.8246
 3796SOL    HW123024   2.920   0.197   4.728 -0.2282 -0.0955  0.9214
 3796SOL    HW223025   3.009   0.098   4.654 -1.3632 -1.7475 -1.6962
 3797SOL     OW23026   4.327   2.217  10.392 -0.4060  0.1827  0.4172
 3797SOL    HW123027   4.310   2.296  10.341 -3.4879  0.1743  1.4376
 3797SOL    HW223028   4.351   2.161  10.318 -4.0247 -1.2076  0.2999
 3798SOL     OW23029   2.753   0.459   3.089 -0.1806 -0.0374 -0.3800
 3798SOL    HW123030   2.803   0.418   3.159 -1.1313  0.4243  0.5704
 3798SOL    HW223031   2.672   0.494   3.126  0.0720  0.3433 -0.1866
 3799SOL     OW23032   4.413   3.314  14.014 -0.2288 -0.0398  0.2856
 3799SOL    HW123033   4.478   3.382  13.997  1.6546 -1.6792  1.0072
 3799SOL    HW223034   4.415   3.263  13.933 -0.5159  0.8264 -0.2729
 3800SOL     OW23035   1.732   2.844  16.378 -0.6279 -0.2893 -0.1290
 3800SOL    HW123036   1.724   2.933  16.411  0.8639 -0.5377  0.8609
 3800SOL    HW223037   1.658   2.833  16.317 -0.1401 -2.4412 -0.3314
 3801SOL     OW23038   4.732   2.307   7.651  0.2227 -0.3421  0.1307
 3801SOL    HW123039   4.721   2.235   7.712  0.9646  0.6953  1.4848
 3801SOL    HW223040   4.642   2.331   7.626 -0.6535 -2.7076  1.0608
 3802SOL     OW23041   1.931   4.224   4.874  0.6738 -0.2036 -0.1221
 3802SOL    HW123042   2.006   4.244   4.930 -0.6567  0.1310  1.5636
 3802SOL    HW223043   1.934   4.302   4.819 -0.0549  0.6214  0.9992
 3803SOL     OW23044   1.679   1.684   7.847  0.5578  0.8441  0.0674
 3803SOL    HW123045   1.774   1.700   7.853  1.2286 -3.1782  0.1669
 3803SOL    HW223046   1.666   1.675   7.942 -1.0687 -1.4944 -0.3964
 3804SOL     OW23047   4.364   3.955   0.366 -0.6137  0.5457  0.1970
 3804SOL    HW123048   4.324   3.919   0.445 -1.7125  0.5339 -0.3667
 3804SOL    HW223049   4.371   4.048   0.388  2.0091  0.6000 -0.8367
 3805SOL     OW23050   1.219   3.188   7.185  0.4687 -0.0516 -0.0262
 3805SOL    HW123051   1.126   3.200   7.201  1.0895  0.8681  2.9480
 3805SOL    HW223052   1.223   3.231   7.100 -0.7327  0.1867  0.0437
 3806SOL     OW23053   1.977   1.048   4.317 -0.0220 -0.0741 -0.4891
 3806SOL    HW123054   1.926   1.017   4.392  0.5704 -0.7557 -0.3675
 3806SOL    HW223055   1.906   1.101   4.281  0.1239  0.6470  0.3095
 3807SOL     OW23056   0.920   1.283   8.818  0.4179  0.6943 -0.4247
 3807SOL    HW123057   0.994   1.318   8.867 -0.3831 -0.9477  1.9377
 3807SOL    HW223058   0.854   1.297   8.885  0.4026 -2.4260  0.2217
 3808SOL     OW23059   1.197   0.212  11.323 -0.1026  0.3478 -0.2389
 3808SOL    HW123060   1.249   0.255  11.392  1.5929 -0.7298 -0.8464
 3808SOL    HW223061   1.203   0.124  11.360 -1.5250  0.9441  1.4529
 3809SOL     OW23062   0.816   2.253   6.797 -0.1801 -0.1470  0.0773
 3809SOL    HW123063   0.744   2.299   6.840 -1.8570 -3.0890  0.4113
 3809SOL    HW223064   0.885   2.292   6.850 -0.7320 -1.4795  1.7630
 3810SOL     OW23065   1.301   1.699   8.386 -0.2779  0.1779  0.3036
 3810SOL    HW123066   1.304   1.606   8.366  1.0017  0.1771  0.4849
 3810SOL    HW223067   1.211   1.714   8.416 -0.8846  0.9320 -1.9526
 3811SOL     OW23068   2.046   2.316   0.881 -0.0195 -0.5416  0.6841
 3811SOL    HW123069   2.034   2.411   0.876  0.1569 -0.5746 -0.2611
 3811SOL    HW223070   2.133   2.320   0.842 -0.6688 -2.0354 -0.8777
 3812SOL     OW23071   2.690   4.308  10.027  0.4222  0.2472  0.2888
 3812SOL    HW123072   2.636   4.304  10.106  1.7993  1.2532  1.2804
 3812SOL    HW223073   2.627   4.288   9.958  1.3082  0.6277 -0.6178
 3813SOL     OW23074   0.404   1.356   9.355  0.2318 -0.3244  0.2184
 3813SOL    HW123075   0.422   1.363   9.449 -1.4311 -2.5325  0.7246
 3813SOL    HW223076   0.487   1.364   9.309  0.1166  0.2570  0.1112
 3814SOL     OW23077   3.812   3.367  12.593 -0.2273 -0.0233  0.8162
 3814SOL    HW123078   3.772   3.283  12.572  1.0059 -0.8693  1.8521
 3814SOL    HW223079   3.877   3.346  12.660  0.2500  1.6238  0.8839
 3815SOL     OW23080   4.604   1.368   6.578 -0.0211  0.0687 -0.2210
 3815SOL    HW123081   4.546   1.416   6.638 -0.6954 -0.8984 -0.0874
 3815SOL    HW223082   4.605   1.425   6.502  2.6570  1.8851  1.1616
 3816SOL     OW23083   3.200   4.014   8.045 -0.2779 -0.2052 -0.3480
 3816SOL    HW123084   3.140   4.075   8.088  0.0637 -1.2779  1.6585
 3816SOL    HW223085   3.235   3.966   8.119  0.1289  1.5302  0.5709
 3817SOL     OW23086   4.163   4.374   9.029  0.2051  0.3106 -1.0165
 3817SOL    HW123087   4.251   4.402   9.051 -1.3827  1.4129  4.1503
 3817SOL    HW223088   4.162   4.292   9.080  1.0444 -0.4755 -2.2847
 3818SOL     OW23089   4.078   2.357  14.134  0.0887  0.0842  0.6790
 3818SOL    HW123090   4.156   2.410  14.149  1.0023 -0.5928 -1.6697
 3818SOL    HW223091   4.090   2.276  14.183 -1.2984 -1.9238 -2.2507
 3819SOL     OW23092   0.679   2.190   7.274 -0.4591  0.1906 -0.0211
 3819SOL    HW123093   0.669   2.215   7.366  1.1007  0.5501  0.0360
 3819SOL    HW223094   0.687   2.095   7.264  0.6251  0.4013 -1.0929
 3820SOL     OW23095   0.870   2.970   9.653  0.8803  0.0818  0.2957
 3820SOL    HW123096   0.953   2.924   9.639  0.0639 -0.7339 -1.9260
 3820SOL    HW223097   0.811   2.895   9.661  0.9882  0.0814  1.1146
 3821SOL     OW23098   1.629   2.843   5.139 -0.4773 -0.5192  0.1248
 3821SOL    HW123099   1.592   2.920   5.096 -0.2696 -1.7655 -2.2748
 3821SOL    HW223100   1.693   2.804   5.081  1.1423  2.1590  0.1032
 3822SOL     OW23101   2.722   4.098   6.190 -0.8242  0.2662 -0.4349
 3822SOL    HW123102   2.711   4.141   6.275 -0.4615  1.0722 -0.7926
 3822SOL    HW223103   2.629   4.098   6.166 -0.2154 -1.5368 -2.7857
 3823SOL     OW23104   2.956   4.059   5.586 -0.3908  0.5206  0.1248
 3823SOL    HW123105   2.977   4.033   5.496 -0.1200 -1.0370  0.6358
 3823SOL    HW223106   2.919   4.146   5.569  2.4965  1.7460  0.1262
 3824SOL     OW23107   1.427   0.416   6.837  0.0431  0.0619  0.4765
 3824SOL    HW123108   1.484   0.395   6.762 -0.4133 -1.3666  0.5177
 3824SOL    HW223109   1.451   0.345   6.897  1.5622 -0.5243 -0.8145
 3825SOL     OW23110   2.127   1.545   7.195 -0.1301 -0.4405 -0.5162
 3825SOL    HW123111   2.191   1.477   7.217 -1.7401 -1.6855  0.3149
 3825SOL    HW223112   2.045   1.513   7.233 -0.0539  0.4559  0.4157
 3826SOL     OW23113   2.104   0.177  13.585  0.6050 -0.0065  0.2676
 3826SOL    HW123114   2.131   0.163  13.495  1.8567  0.4563  0.5646
 3826SOL    HW223115   2.009   0.168  13.586  0.6501 -0.4328  0.7216
 3827SOL     OW23116   4.107   3.529  11.193  0.0386  0.4643 -0.2433
 3827SOL    HW123117   4.021   3.527  11.237  0.5229 -0.9901  0.6196
 3827SOL    HW223118   4.115   3.437  11.170  0.2059  0.0188  1.5716
 3828SOL     OW23119   0.659   0.802  16.202  0.0025 -0.4426 -0.0321
 3828SOL    HW123120   0.599   0.862  16.158  0.3811  0.7183  1.0126
 3828SOL    HW223121   0.743   0.831  16.166  0.0665 -0.0606  0.4272
 3829SOL     OW23122   1.650   3.871   7.399 -0.8460 -0.3250  0.0198
 3829SOL    HW123123   1.652   3.921   7.317  1.0034 -1.8505 -0.8729
 3829SOL    HW223124   1.739   3.889   7.428 -0.9957  3.2655 -1.7899
 3830SOL     OW23125   4.241   3.391   3.599  0.1236 -0.3167 -0.5202
 3830SOL    HW123126   4.197   3.399   3.514  1.5005 -0.8983 -1.2960
 3830SOL    HW223127   4.306   3.462   3.598 -1.0067  0.7515  1.6625
 3831SOL     OW23128   1.448   3.093   0.720 -0.0990 -0.2071  0.0966
 3831SOL    HW123129   1.459   3.003   0.753 -0.7722 -0.2588  0.1714
 3831SOL    HW223130   1.519   3.136   0.769 -0.3440  0.3931 -0.0900
 3832SOL     OW23131   0.331   1.297   5.560  0.2860  0.8136  0.2279
 3832SOL    HW123132   0.300   1.375   5.607  0.4200 -0.0838  1.8234
 3832SOL    HW223133   0.406   1.267   5.611 -0.7770  0.1252  1.4004
 3833SOL     OW23134   3.958   3.650   0.496  0.3529 -0.0733  0.1840
 3833SOL    HW123135   4.023   3.597   0.450 -0.0175 -0.9559  0.6865
 3833SOL    HW223136   4.004   3.642   0.579  0.8770 -0.7735 -0.1765
 3834SOL     OW23137   2.962   3.347   5.124  0.2921  0.2847 -0.2817
 3834SOL    HW123138   3.042   3.294   5.121 -0.9230 -1.6331  1.5032
 3834SOL    HW223139   2.906   3.289   5.074  1.6623  0.4509 -1.9880
 3835SOL     OW23140   2.390   1.224   4.029  0.2494  0.6797  0.3346
 3835SOL    HW123141   2.360   1.185   3.947 -0.8425 -0.5828  1.3177
 3835SOL    HW223142   2.386   1.153   4.093  0.4677  0.9965  0.6995
 3836SOL     OW23143   2.149   0.202   3.926 -0.0433 -0.3440 -0.3102
 3836SOL    HW123144   2.233   0.239   3.953  0.7459 -1.5506 -1.1363
 3836SOL    HW223145   2.150   0.119   3.973 -1.6179  1.6269  3.2168
 3837SOL     OW23146   3.124   2.447   5.549 -0.0370  0.0196  0.2386
 3837SOL    HW123147   3.061   2.377   5.534 -0.5545  0.3319  0.9912
 3837SOL    HW223148   3.080   2.502   5.484 -0.6586 -1.4981 -0.6292
 3838SOL     OW23149   3.522   2.992   5.575  0.5713 -0.1154 -0.2517
 3838SOL    HW123150   3.437   2.975   5.616 -0.4906  2.3600 -1.4116
 3838SOL    HW223151   3.552   2.909   5.538  0.2746 -0.9211  1.3170
 3839SOL     OW23152   4.635   0.664   4.658 -0.5288 -0.2741  0.2898
 3839SOL    HW123153   4.583   0.714   4.721 -0.4824 -0.4954  0.5010
 3839SOL    HW223154   4.648   0.585   4.711 -0.2309  0.5002  1.3770
 3840SOL     OW23155   0.310   3.888   8.871  0.2877 -0.2113 -0.1019
 3840SOL    HW123156   0.258   3.812   8.845  0.2639  0.3648 -1.7492
 3840SOL    HW223157   0.381   3.844   8.917  0.1245 -1.6095 -1.1770
 3841SOL     OW23158   1.362   0.594   9.975  0.2731  0.1296  0.2057
 3841SOL    HW123159   1.309   0.582  10.054 -0.0245 -1.0266 -0.1596
 3841SOL    HW223160   1.434   0.534   9.995 -0.4223 -0.8363 -0.1641
 3842SOL     OW23161   2.557   2.957   4.996 -0.2384  0.3179  0.7116
 3842SOL    HW123162   2.538   2.947   4.903 -1.8059  0.3792  1.0279
 3842SOL    HW223163   2.645   2.995   4.989 -0.6901  1.1198 -0.6885
 3843SOL     OW23164   1.870   4.095   8.986 -0.7549 -0.4107 -0.0508
 3843SOL    HW123165   1.895   4.185   9.008  2.0025 -0.6893 -1.9860
 3843SOL    HW223166   1.812   4.109   8.910 -0.8647  1.9733  0.4552
 3844SOL     OW23167   2.958   2.602   5.408 -0.4107 -0.0481 -0.5502
 3844SOL    HW123168   2.981   2.620   5.317 -1.1543 -0.1413 -0.7596
 3844SOL    HW223169   2.864   2.616   5.400 -0.2996  0.9139 -0.1812
 3845SOL     OW23170   4.179   2.712  15.028 -0.2350  0.1927  0.4761
 3845SOL    HW123171   4.125   2.633  15.019 -1.5378  1.4311 -2.5351
 3845SOL    HW223172   4.129   2.779  14.982 -1.7424 -0.5631  1.0180
 3846SOL     OW23173   1.535   2.139   4.151 -0.0605  0.4819  0.3087
 3846SOL    HW123174   1.630   2.139   4.151 -0.0614 -0.7560  0.4872
 3846SOL    HW223175   1.515   2.143   4.058  1.1119  0.3996  0.0570
 3847SOL     OW23176   3.927   3.888   1.819 -0.0070  0.7511 -0.1658
 3847SOL    HW123177   4.003   3.925   1.776  0.0268 -0.7962 -1.4358
 3847SOL    HW223178   3.856   3.928   1.770 -0.5637 -1.1186 -0.8900
 3848SOL     OW23179   4.329   4.313   8.258  0.1594  0.0599  0.4092
 3848SOL    HW123180   4.356   4.300   8.349  0.8405 -1.4282 -0.0051
 3848SOL    HW223181   4.276   4.238   8.232  0.0266 -0.4861  2.2620
 3849SOL     OW23182   4.518   0.191  13.143 -0.0226  0.5989  0.0050
 3849SOL    HW123183   4.487   0.113  13.188  0.5640  0.4180  0.0976
 3849SOL    HW223184   4.572   0.146  13.078  1.1675  0.6425  0.9431
 3850SOL     OW23185   0.932   0.192   8.870  0.4591  0.2904 -0.9261
 3850SOL    HW123186   0.940   0.232   8.783  0.5322 -1.9725 -1.9685
 3850SOL    HW223187   0.911   0.275   8.911  0.1810 -0.6427  0.8282
 3851SOL     OW23188   0.312   2.698  10.027 -0.2755  0.6129  0.5246
 3851SOL    HW123189   0.277   2.758  10.093  0.1699  2.0909 -0.5593
 3851SOL    HW223190   0.245   2.701   9.959  0.1124  0.5923  0.1425
 3852SOL     OW23191   1.348   2.096   7.955 -0.4429 -0.1157  0.0825
 3852SOL    HW123192   1.366   2.190   7.949 -2.2231  0.1752 -0.8604
 3852SOL    HW223193   1.430   2.069   7.913 -0.6124 -3.0228  1.6310
 3853SOL     OW23194   2.035   0.228   3.666 -0.0241  0.2713  0.3436
 3853SOL    HW123195   2.062   0.209   3.756  0.9348  0.4039  0.0865
 3853SOL    HW223196   2.015   0.322   3.670  1.8654  0.7884 -2.3412
 3854SOL     OW23197   4.303   1.714   5.455 -0.7071 -0.2957  0.0179
 3854SOL    HW123198   4.333   1.789   5.507  0.7107 -1.4507  0.8614
 3854SOL    HW223199   4.377   1.694   5.398  0.1825  0.5150  0.8795
 3855SOL     OW23200   0.176   3.963   6.323  0.4035 -0.2790 -0.0657
 3855SOL    HW123201   0.221   4.048   6.321  0.1398 -0.1919 -3.0088
 3855SOL    HW223202   0.113   3.971   6.251 -1.1683 -0.4596  1.2833
 3856SOL     OW23203   0.429   0.403   1.910  0.0875  0.2136 -0.4511
 3856SOL    HW123204   0.436   0.441   1.823  0.5433 -0.2084 -0.5970
 3856SOL    HW223205   0.520   0.400   1.941  1.0018  1.9862 -2.9737
 3857SOL     OW23206   4.442   4.592   8.888 -0.5632  0.3803  0.1053
 3857SOL    HW123207   4.422   4.564   8.978  0.6875  0.5466  0.4266
 3857SOL    HW223208   4.488   4.514   8.859  1.5729  1.8612 -0.4672
 3858SOL     OW23209   2.889   1.645   2.632 -0.1990  0.0958 -0.3044
 3858SOL    HW123210   2.835   1.570   2.609  0.7923 -1.0454  1.0468
 3858SOL    HW223211   2.933   1.658   2.549 -0.3896  0.5750 -0.3326
 3859SOL     OW23212   3.653   3.949   1.701 -0.2982 -0.0893  0.1344
 3859SOL    HW123213   3.619   3.860   1.691  0.7643 -0.5867  0.9642
 3859SOL    HW223214   3.582   4.012   1.705  1.1391  1.1473  7.0049
 3860SOL     OW23215   1.591   2.567   8.562  0.4002  0.0742  0.1335
 3860SOL    HW123216   1.563   2.587   8.651 -0.3999 -1.2328  0.1620
 3860SOL    HW223217   1.513   2.569   8.507  0.3688 -0.8948  0.1432
 3861SOL     OW23218   4.071   4.714  17.121  0.4374 -0.0286  0.5402
 3861SOL    HW123219   4.162   4.709  17.093  0.6158 -2.1984  1.4839
 3861SOL    HW223220   4.029   0.017  17.045 -1.1027 -0.3452  1.2189
 3862SOL     OW23221   0.468   3.144   9.714 -0.3965 -0.1368 -0.2707
 3862SOL    HW123222   0.420   3.062   9.718  0.6664 -0.7376 -0.0480
 3862SOL    HW223223   0.462   3.168   9.807 -2.0032 -1.1432 -0.1182
 3863SOL     OW23224   0.615   0.638   2.062 -0.3350 -0.0286 -0.3098
 3863SOL    HW123225   0.632   0.551   2.100  3.3685  1.0802  0.5673
 3863SOL    HW223226   0.522   0.644   2.082  0.1409  1.9157  1.2680
 3864SOL     OW23227   2.273   0.810   4.490  0.0488  0.1465 -0.1038
 3864SOL    HW123228   2.344   0.775   4.435 -1.6881 -0.4020 -2.0009
 3864SOL    HW223229   2.278   0.901   4.461  0.4557 -0.6981 -2.6975
 3865SOL     OW23230   3.642   4.184   1.389  0.4265 -0.4857 -0.0928
 3865SOL    HW123231   3.704   4.171   1.460  1.0126 -1.8161 -0.8472
 3865SOL    HW223232   3.605   4.096   1.385 -0.0528 -0.3616  1.6612
 3866SOL     OW23233   0.326   0.296   6.121 -0.4903 -0.4874 -0.0234
 3866SOL    HW123234   0.267   0.367   6.094  0.8953 -0.1974 -2.2631
 3866SOL    HW223235   0.266   0.241   6.172 -0.9503  0.0957  0.0633
 3867SOL     OW23236   0.052   1.728   9.399 -0.3680  0.1481  0.3409
 3867SOL    HW123237   0.095   1.678   9.330 -0.7297  1.9531 -1.1606
 3867SOL    HW223238   0.124   1.774   9.442  0.3739 -0.9668  0.2852
 3868SOL     OW23239   2.531   2.121   5.860 -0.0599  0.3241  0.0492
 3868SOL    HW123240   2.555   2.213   5.858  1.2254 -0.0540 -1.8891
 3868SOL    HW223241   2.572   2.085   5.939 -0.9962  0.9289  0.8052
 3869SOL     OW23242   4.156   3.388  14.572 -0.0848 -0.2621  0.1080
 3869SOL    HW123243   4.108   3.344  14.501 -1.4871  0.3409  0.6757
 3869SOL    HW223244   4.241   3.345  14.559 -0.1973 -0.6401  0.6125
 3870SOL     OW23245   3.913   3.979  14.611  0.1207  0.3257  0.2210
 3870SOL    HW123246   3.902   3.903  14.667  2.1462 -0.2461 -0.1596
 3870SOL    HW223247   3.884   4.047  14.672  0.6992  0.2840  0.5317
 3871SOL     OW23248   4.260   1.363   3.858  0.2444 -0.3502 -0.2748
 3871SOL    HW123249   4.334   1.342   3.915 -0.5943 -0.2905  0.8374
 3871SOL    HW223250   4.227   1.445   3.895  0.8311 -0.4034  0.3750
 3872SOL     OW23251   2.199   1.240  16.696 -0.4724 -0.5145 -0.9006
 3872SOL    HW123252   2.130   1.234  16.763  1.9097 -1.5673  1.4722
 3872SOL    HW223253   2.230   1.150  16.687 -0.5968 -0.8807  2.0604
 3873SOL     OW23254   3.732   4.050  17.279  0.2575  0.6851 -0.4609
 3873SOL    HW123255   3.777   4.111  17.338  1.8199 -0.9651  0.0609
 3873SOL    HW223256   3.810   4.009  17.241  1.2680  2.1119  0.0639
 3874SOL     OW23257   0.136   3.854   7.063  0.0663  0.4013 -0.1673
 3874SOL    HW123258   0.185   3.909   7.002  0.7091  1.8987  1.7362
 3874SOL    HW223259   0.054   3.903   7.063 -0.6523 -0.7691 -2.2962
 3875SOL     OW23260   1.415   3.066   7.329  0.0581 -0.2354 -0.4392
 3875SOL    HW123261   1.344   3.125   7.305  0.0045 -0.0222  0.2438
 3875SOL    HW223262   1.469   3.075   7.251  0.0463 -0.4077 -0.4678
 3876SOL     OW23263   1.429   4.627   2.359  0.6345 -0.9571  0.1848
 3876SOL    HW123264   1.493   4.698   2.362 -1.0714  0.5737  0.2490
 3876SOL    HW223265   1.394   4.635   2.448  0.7874  1.6587  0.0005
 3877SOL     OW23266   4.203   3.001  17.398 -0.6529  0.5624  0.3279
 3877SOL    HW123267   4.145   2.983  17.324 -1.0429  2.2835  0.1992
 3877SOL    HW223268   4.277   2.943  17.380 -0.8949  0.8035 -1.4469
 3878SOL     OW23269   0.895   2.303   8.493  0.2390  0.3198 -0.3600
 3878SOL    HW123270   0.935   2.381   8.455 -1.1254  0.6335 -1.1409
 3878SOL    HW223271   0.857   2.257   8.418  0.9787 -0.4463 -0.2677
 3879SOL     OW23272   2.184   3.872   7.401  0.5283  0.2999 -0.0500
 3879SOL    HW123273   2.234   3.804   7.446 -0.1901  0.4398  0.9640
 3879SOL    HW223274   2.106   3.860   7.456  0.5671 -1.9826 -0.5176
 3880SOL     OW23275   0.067   0.470  16.918  0.6646 -0.1918 -0.1867
 3880SOL    HW123276   0.038   0.399  16.861  0.4118 -1.2703  1.2700
 3880SOL    HW223277   0.162   0.464  16.909  0.7676  0.4926  0.4366
 3881SOL     OW23278   2.145   1.523  10.592 -0.1339  0.9355  0.2549
 3881SOL    HW123279   2.123   1.516  10.499  0.2097 -1.0908  0.3097
 3881SOL    HW223280   2.204   1.451  10.614 -0.8068  0.0197 -0.8893
 3882SOL     OW23281   1.348   0.384  11.167  0.4053 -0.4320 -0.5920
 3882SOL    HW123282   1.394   0.322  11.223  0.4256  2.1913  2.2923
 3882SOL    HW223283   1.261   0.365  11.200 -0.1814  1.9526 -0.8139
 3883SOL     OW23284   1.574   2.357   6.638 -0.0988  0.0938  0.2658
 3883SOL    HW123285   1.503   2.296   6.618  0.6082 -0.6222 -0.0896
 3883SOL    HW223286   1.575   2.357   6.733 -1.2640  1.5461  0.2689
 3884SOL     OW23287   3.936   4.462   8.410 -0.1967  0.1019 -1.1688
 3884SOL    HW123288   4.014   4.506   8.375 -0.1072  1.0259  0.1719
 3884SOL    HW223289   3.954   4.371   8.389  1.0436  0.5061 -1.8415
 3885SOL     OW23290   0.417   0.007   9.579 -0.1189 -0.0554  0.4981
 3885SOL    HW123291   0.459   0.093   9.577 -0.0412 -0.0783  1.0160
 3885SOL    HW223292   0.383   0.016   9.668 -0.6416  0.3706  0.2577
 3886SOL     OW23293   2.542   4.187   6.650 -0.9702  0.8281 -0.5371
 3886SOL    HW123294   2.502   4.102   6.672  1.0204  0.4096  1.4475
 3886SOL    HW223295   2.576   4.214   6.735 -3.7202  1.8525  0.2635
 3887SOL     OW23296   4.353   4.324  13.519 -0.0262 -0.1345  0.2776
 3887SOL    HW123297   4.268   4.343  13.479 -1.6580 -0.8699  3.4380
 3887SOL    HW223298   4.326   4.320  13.610 -2.3200  4.0221 -0.2201
 3888SOL     OW23299   3.534   2.525   4.898  0.1113  0.0526 -0.1607
 3888SOL    HW123300   3.472   2.483   4.958 -0.3164  1.9263  0.6979
 3888SOL    HW223301   3.474   2.514   4.824  0.2810  1.0267 -0.4487
 3889SOL     OW23302   0.738   2.101  15.460 -0.3537  0.1346 -1.0072
 3889SOL    HW123303   0.801   2.112  15.532 -0.9798 -0.1351 -0.4166
 3889SOL    HW223304   0.802   2.090  15.390 -0.6616  0.5040 -1.3454
 3890SOL     OW23305   3.413   0.015  13.811 -0.0185  0.1144 -0.5007
 3890SOL    HW123306   3.377   0.009  13.899 -1.1987  2.4483 -0.8368
 3890SOL    HW223307   3.407   0.107  13.786  2.7218  0.2754 -0.5871
 3891SOL     OW23308   0.479   2.675   9.362  0.2310 -0.5473  0.1898
 3891SOL    HW123309   0.404   2.676   9.303  0.3282  0.3308  0.0928
 3891SOL    HW223310   0.512   2.591   9.330 -1.6722 -1.5697  0.8764
 3892SOL     OW23311   2.462   1.575   4.642  0.2967  0.2734 -0.2202
 3892SOL    HW123312   2.417   1.651   4.605 -1.6584 -1.1023 -0.6790
 3892SOL    HW223313   2.500   1.533   4.564 -0.3823 -0.4222 -0.1776
 3893SOL     OW23314   3.954   3.225  12.790 -0.8048  0.3391 -0.2216
 3893SOL    HW123315   3.994   3.312  12.798  3.1322 -1.2228 -2.8718
 3893SOL    HW223316   4.027   3.169  12.765 -0.1860  1.0097  0.0780
 3894SOL     OW23317   0.274   2.085   0.099 -0.5931  0.0065  0.4205
 3894SOL    HW123318   0.306   2.021   0.036 -1.2473  1.7128 -1.6476
 3894SOL    HW223319   0.182   2.102   0.078 -0.2823  1.3245  0.1102
 3895SOL     OW23320   3.786   2.789   1.803  0.1478 -0.3356  0.1768
 3895SOL    HW123321   3.754   2.748   1.883 -1.5133  0.9436  0.1730
 3895SOL    HW223322   3.704   2.788   1.753  0.7915 -1.5746 -0.8596
 3896SOL     OW23323   0.925   0.940   3.741 -0.1357  0.3380 -0.1733
 3896SOL    HW123324   1.018   0.943   3.720 -0.3151 -0.5686 -1.1151
 3896SOL    HW223325   0.902   0.867   3.684  0.2281  0.3852 -0.3816
 3897SOL     OW23326   1.686   2.820   2.174 -0.3837  0.2628  0.3117
 3897SOL    HW123327   1.599   2.804   2.211 -1.0488  1.9211 -0.4997
 3897SOL    HW223328   1.708   2.890   2.235  0.1585 -0.5840  1.0914
 3898SOL     OW23329   2.935   3.573   8.544  0.7262  0.6995  0.1373
 3898SOL    HW123330   2.950   3.496   8.489 -1.4605 -0.1623  0.7535
 3898SOL    HW223331   2.855   3.543   8.586  1.2213 -3.0379 -1.6341
 3899SOL     OW23332   4.251   2.311   6.643 -0.4135  0.1232  0.5529
 3899SOL    HW123333   4.306   2.271   6.710 -0.4052  0.7539  0.9218
 3899SOL    HW223334   4.321   2.357   6.597 -0.1998 -0.5549  0.2144
 3900SOL     OW23335   2.312   0.212   8.673  0.1381 -0.4533 -0.4270
 3900SOL    HW123336   2.322   0.232   8.766 -1.7511  1.3748 -0.6424
 3900SOL    HW223337   2.359   0.288   8.640 -0.7919 -0.0583 -0.8447
 3901SOL     OW23338   2.599   2.078   3.927 -0.3773  0.2720  0.0571
 3901SOL    HW123339   2.609   2.008   3.863  0.3665  2.2179 -1.9461
 3901SOL    HW223340   2.648   2.050   4.005  0.0458  0.1399 -0.2589
 3902SOL     OW23341   0.194   2.964   6.074  0.3706  1.1106  0.0834
 3902SOL    HW123342   0.164   3.010   5.995  0.9914  1.7812  0.2389
 3902SOL    HW223343   0.264   2.905   6.047  0.8314  1.4491  0.5369
 3903SOL     OW23344   2.258   1.174   7.009 -0.1806  0.3171  0.3254
 3903SOL    HW123345   2.288   1.099   7.060  1.5644  0.2568 -0.8106
 3903SOL    HW223346   2.169   1.150   6.983 -0.4243 -0.5834  1.9504
 3904SOL     OW23347   0.273   2.180   1.749  0.4462 -0.7062  0.5463
 3904SOL    HW123348   0.288   2.086   1.756 -0.7181 -1.1564 -3.6587
 3904SOL    HW223349   0.356   2.211   1.712  1.9024 -2.9978  1.8857
 3905SOL     OW23350   2.896   3.174   4.526  0.3801  0.3946  0.0116
 3905SOL    HW123351   2.991   3.185   4.524  0.3879  0.8430  2.5261
 3905SOL    HW223352   2.874   3.234   4.597 -0.9396 -2.3542  1.9228
 3906SOL     OW23353   1.204   2.943  16.231  0.2564 -0.2970 -0.5271
 3906SOL    HW123354   1.189   2.928  16.324 -1.1762 -0.3884 -0.7763
 3906SOL    HW223355   1.252   2.863  16.209  2.0474 -0.0816  2.6192
 3907SOL     OW23356   2.947   4.332  16.308  0.0215  0.3296 -0.1307
 3907SOL    HW123357   2.862   4.358  16.343 -0.1544  1.1504 -1.1614
 3907SOL    HW223358   2.995   4.414  16.315  0.4439  0.0165  0.6474
 3908SOL     OW23359   3.494   4.434  17.341 -0.4674 -0.3206  0.1284
 3908SOL    HW123360   3.540   4.377  17.280  2.4028  1.3270  0.7269
 3908SOL    HW223361   3.405   4.428  17.307 -0.1425  1.0933 -0.9606
 3909SOL     OW23362   0.563   0.772  14.826 -0.6632 -0.0168 -0.0429
 3909SOL    HW123363   0.560   0.684  14.788  0.8529 -0.0316 -0.1367
 3909SOL    HW223364   0.502   0.807  14.761 -0.1370  0.1678 -0.4384
 3910SOL     OW23365   3.561   4.644   0.786  0.1874 -0.3428 -0.3384
 3910SOL    HW123366   3.548   4.550   0.772 -1.1174 -0.3388  0.8200
 3910SOL    HW223367   3.535   4.648   0.878 -2.2511 -1.0164 -0.9807
 3911SOL     OW23368   1.310   2.128   2.187  0.0251 -0.2394  0.3837
 3911SOL    HW123369   1.358   2.157   2.265  3.0664 -3.7722 -0.1918
 3911SOL    HW223370   1.222   2.139   2.223 -0.7585 -2.1502 -0.9437
 3912SOL     OW23371   0.445   1.935   9.988 -0.1099  0.1218 -0.4580
 3912SOL    HW123372   0.383   1.902  10.054  0.7871  1.6137  1.1120
 3912SOL    HW223373   0.474   2.008  10.041 -1.0320 -1.0784  1.6931
 3913SOL     OW23374   1.954   3.257   8.191  0.6866 -0.5822  0.3671
 3913SOL    HW123375   2.040   3.298   8.194  0.9319 -1.1746  1.2169
 3913SOL    HW223376   1.940   3.226   8.101 -1.1704 -0.5373  0.6335
 3914SOL     OW23377   4.453   0.427   3.332 -0.0469  0.7102 -0.2133
 3914SOL    HW123378   4.529   0.482   3.314 -0.0441  1.1422  1.1178
 3914SOL    HW223379   4.423   0.415   3.242 -2.2446 -0.5648  0.6867
 3915SOL     OW23380   2.063   0.722   5.618 -0.2185  0.1638  0.3481
 3915SOL    HW123381   2.058   0.788   5.549  0.0993 -0.2657 -0.0880
 3915SOL    HW223382   2.036   0.642   5.573 -2.0787  0.3102  1.1917
 3916SOL     OW23383   3.327   0.593   3.511  0.3178  0.5122 -0.3811
 3916SOL    HW123384   3.342   0.552   3.596  0.6596  1.2372 -0.0952
 3916SOL    HW223385   3.318   0.516   3.455  0.9814  0.1589  0.0107
 3917SOL     OW23386   1.043   1.807  11.177  0.4176 -0.0928  0.7293
 3917SOL    HW123387   1.129   1.769  11.193  0.4458  0.2309  1.3665
 3917SOL    HW223388   1.005   1.799  11.265  1.6151 -0.1845  1.2441
 3918SOL     OW23389   0.541   2.891  16.235  0.6233  0.2178  0.3730
 3918SOL    HW123390   0.496   2.856  16.312 -0.0839 -1.0180 -0.6046
 3918SOL    HW223391   0.509   2.825  16.174  2.7315 -1.1823  0.7975
 3919SOL     OW23392   2.239   2.306  12.386 -0.2760 -0.7554 -0.0615
 3919SOL    HW123393   2.238   2.388  12.436 -0.4246 -1.5929  1.2846
 3919SOL    HW223394   2.329   2.272  12.382  0.4581  1.2478 -0.7875
 3920SOL     OW23395   4.604   1.008   8.861  0.0608  1.1232 -0.7944
 3920SOL    HW123396   4.692   1.030   8.893  1.1663 -0.3617 -2.8602
 3920SOL    HW223397   4.572   0.951   8.932  2.1719 -0.5713 -1.1845
 3921SOL     OW23398   2.062   1.037  11.191  0.3373 -0.0742  0.0510
 3921SOL    HW123399   1.969   1.057  11.196  0.4429 -0.2614  2.8489
 3921SOL    HW223400   2.071   0.965  11.254 -0.9560 -1.4536 -1.3421
 3922SOL     OW23401   3.161   2.125  11.785 -0.0864 -0.3270  0.3786
 3922SOL    HW123402   3.230   2.064  11.758  0.8710  2.1211 -2.7831
 3922SOL    HW223403   3.206   2.203  11.817  1.4141 -0.9563 -0.1911
 3923SOL     OW23404   1.627   0.135  10.221 -0.2774  0.2122 -0.5483
 3923SOL    HW123405   1.675   0.185  10.155  0.7733  1.2454  1.0023
 3923SOL    HW223406   1.540   0.169  10.198 -0.6962  1.1391  2.3352
 3924SOL     OW23407   1.185   0.846   3.674  0.4719 -0.3954 -0.3048
 3924SOL    HW123408   1.267   0.802   3.696  0.2671 -1.2709 -1.2775
 3924SOL    HW223409   1.209   0.860   3.582 -0.9246 -0.8121 -0.7462
 3925SOL     OW23410   0.748   3.510  13.408 -0.4410  0.5403  0.1216
 3925SOL    HW123411   0.670   3.512  13.464  0.5761  0.0868  1.5451
 3925SOL    HW223412   0.715   3.516  13.318 -1.7310  0.6477  0.6038
 3926SOL     OW23413   2.615   3.383   1.782  0.8318  0.2001  0.1016
 3926SOL    HW123414   2.630   3.470   1.745  0.0910  0.0516 -0.5536
 3926SOL    HW223415   2.541   3.400   1.840 -0.2969 -2.4577 -0.5748
 3927SOL     OW23416   2.517   2.611   2.127  0.0868  0.3469 -0.3610
 3927SOL    HW123417   2.571   2.564   2.063 -0.7191  1.0101 -1.5210
 3927SOL    HW223418   2.528   2.555   2.204  0.9898  0.8898 -0.0953
 3928SOL     OW23419   2.287   0.930   2.679 -0.2715 -0.4871  0.0607
 3928SOL    HW123420   2.381   0.943   2.666 -0.1301 -0.5069  1.0578
 3928SOL    HW223421   2.262   0.855   2.625 -0.1726 -1.9721  2.0487
 3929SOL     OW23422   3.476   2.527   1.978  0.3488 -0.3517  0.3035
 3929SOL    HW123423   3.565   2.514   2.009 -0.2118 -0.4087  1.8471
 3929SOL    HW223424   3.434   2.441   1.974  0.1446 -0.1838 -1.5716
 3930SOL     OW23425   2.484   0.998   2.177  0.3813  0.4900 -0.1618
 3930SOL    HW123426   2.404   1.013   2.228  0.6309  0.9826  0.0816
 3930SOL    HW223427   2.451   1.004   2.087 -1.2364 -4.4772  0.0830
 3931SOL     OW23428   1.419   4.638   4.617 -0.0459 -0.0273 -0.0152
 3931SOL    HW123429   1.462   4.688   4.686  0.2113 -1.0695  0.5689
 3931SOL    HW223430   1.455   4.691   4.546  2.4774 -0.5483  0.8898
 3932SOL     OW23431   3.112   1.859   4.944 -1.1327 -0.0753 -0.4031
 3932SOL    HW123432   3.040   1.798   4.958 -0.9533 -0.0801  0.4950
 3932SOL    HW223433   3.180   1.794   4.959 -0.6263  0.9896  1.9688
 3933SOL     OW23434   3.293   3.927   3.438  0.2922 -0.0338 -0.4347
 3933SOL    HW123435   3.312   3.842   3.478  1.2148  0.0738 -0.6516
 3933SOL    HW223436   3.223   3.964   3.491  0.6297 -0.5675  0.3785
 3934SOL     OW23437   2.861   3.794  11.949 -0.6947  0.3592  0.1491
 3934SOL    HW123438   2.841   3.881  11.984 -0.6881 -0.2485  1.6626
 3934SOL    HW223439   2.903   3.751  12.023 -1.4297  0.7639  0.7948
 3935SOL     OW23440   2.435   1.735  13.410 -0.1310 -0.1360  0.2962
 3935SOL    HW123441   2.356   1.729  13.464 -0.1341 -0.1751  0.2874
 3935SOL    HW223442   2.498   1.765  13.476  0.6350  1.8618 -1.3581
 3936SOL     OW23443   2.715   1.487  17.173 -0.0273 -0.5434  0.0617
 3936SOL    HW123444   2.781   1.534  17.124 -0.5182  0.1380  0.0544
 3936SOL    HW223445   2.757   1.425  17.233  1.0139 -0.8964 -1.0515
 3937SOL     OW23446   0.366   4.107   4.659  0.2757  0.2021 -0.2895
 3937SOL    HW123447   0.341   4.037   4.719  1.4312 -0.2400 -0.3275
 3937SOL    HW223448   0.461   4.093   4.658  0.2750  0.1947 -0.1501
 3938SOL     OW23449   2.893   3.769   1.473  0.0152 -0.6390 -0.0302
 3938SOL    HW123450   2.953   3.818   1.417 -2.1976  1.5938 -0.4283
 3938SOL    HW223451   2.950   3.739   1.544 -1.6292  1.3842  2.1098
 3939SOL     OW23452   0.247   1.597   6.866 -0.1568  0.1363 -0.5167
 3939SOL    HW123453   0.340   1.613   6.874 -0.0425  0.5644 -2.5918
 3939SOL    HW223454   0.247   1.563   6.776  2.5291 -0.6393 -0.2135
 3940SOL     OW23455   2.431   3.400   3.768  0.3749  0.4321 -0.4122
 3940SOL    HW123456   2.428   3.304   3.763 -0.0348  0.3692  0.8920
 3940SOL    HW223457   2.338   3.422   3.763  0.0706 -0.6321  0.4355
 3941SOL     OW23458   1.667   2.497   7.592 -0.2194 -0.3539 -0.0638
 3941SOL    HW123459   1.582   2.456   7.608 -0.0930 -0.3499  0.6210
 3941SOL    HW223460   1.670   2.470   7.500  1.0833 -0.2700 -0.0448
 3942SOL     OW23461   2.795   0.427   4.361 -0.4910  0.1735 -0.3859
 3942SOL    HW123462   2.842   0.510   4.357  0.5609 -0.5081 -2.0968
 3942SOL    HW223463   2.868   0.366   4.368 -2.4900 -2.0636  1.0063
 3943SOL     OW23464   1.097   0.700  10.841  0.0695  0.0792 -0.1732
 3943SOL    HW123465   1.028   0.767  10.831  0.9507  0.6002 -2.6802
 3943SOL    HW223466   1.090   0.685  10.935 -0.4860  1.6234  0.0342
 3944SOL     OW23467   2.649   3.622   7.891 -0.1258 -0.1827 -0.1265
 3944SOL    HW123468   2.612   3.710   7.894  3.2717  1.2581 -0.5262
 3944SOL    HW223469   2.733   3.643   7.932 -0.4789  0.9774 -0.0084
 3945SOL     OW23470   2.288   2.894   1.850  0.3731 -0.2094  0.5062
 3945SOL    HW123471   2.361   2.956   1.843 -1.1265  1.5590  0.6609
 3945SOL    HW223472   2.213   2.947   1.876 -0.6049 -1.5582  0.4126
 3946SOL     OW23473   0.171   1.528   6.625  0.4916 -0.1800  0.2775
 3946SOL    HW123474   0.107   1.588   6.587 -0.9452 -2.1064 -0.3383
 3946SOL    HW223475   0.204   1.486   6.545  1.6318  0.0156  0.6413
 3947SOL     OW23476   2.046   0.509   2.038  0.0116 -0.2138 -0.8455
 3947SOL    HW123477   1.972   0.452   2.019 -0.3309 -0.2038  0.4466
 3947SOL    HW223478   2.000   0.593   2.044 -3.0891 -1.9305 -0.7144
 3948SOL     OW23479   3.529   3.574   8.716  0.0322 -0.3049  0.2194
 3948SOL    HW123480   3.504   3.624   8.638 -2.3086 -1.4027  0.2792
 3948SOL    HW223481   3.453   3.601   8.768  1.6116  0.3058  2.2042
 3949SOL     OW23482   3.078   4.360   0.554  0.7040 -0.4236  0.5569
 3949SOL    HW123483   3.042   4.374   0.642 -1.1614  1.8514 -0.5731
 3949SOL    HW223484   3.100   4.450   0.531 -1.0293  0.1885  1.3359
 3950SOL     OW23485   3.373   0.271   1.457  0.0350  0.5894 -0.4765
 3950SOL    HW123486   3.444   0.232   1.508 -1.2306  0.8854  1.5277
 3950SOL    HW223487   3.362   0.209   1.386 -2.6087  0.1493  0.3378
 3951SOL     OW23488   2.859   3.651  16.951 -0.1063 -0.0327  0.3723
 3951SOL    HW123489   2.829   3.566  16.982  2.2306 -1.3610 -0.9733
 3951SOL    HW223490   2.952   3.635  16.931 -0.2870  0.4823 -0.8997
 3952SOL     OW23491   1.521   0.200   4.103  0.4207 -0.0442  0.2049
 3952SOL    HW123492   1.607   0.227   4.133 -0.0734  1.5538  0.1574
 3952SOL    HW223493   1.468   0.177   4.179  3.6421 -2.8278  1.6214
 3953SOL     OW23494   1.028   2.078   4.550  0.3977  0.3294  0.0995
 3953SOL    HW123495   1.103   2.136   4.566 -0.8960  1.4610  1.9962
 3953SOL    HW223496   1.047   2.047   4.461  1.8516  1.7510 -0.0817
 3954SOL     OW23497   0.670   0.195   8.789  0.0577 -0.0542 -0.1652
 3954SOL    HW123498   0.628   0.114   8.818  0.0903  0.1869  0.5518
 3954SOL    HW223499   0.757   0.182   8.825  1.1998  1.4807 -2.4052
 3955SOL     OW23500   3.943   2.801   9.813 -0.2807  0.7768  0.9098
 3955SOL    HW123501   3.873   2.761   9.865  0.3483 -0.8060  0.5575
 3955SOL    HW223502   3.945   2.743   9.737  0.4542 -1.4126  2.5838
 3956SOL     OW23503   3.391   1.745  10.491 -0.2507  0.0868  0.5480
 3956SOL    HW123504   3.462   1.703  10.443  0.3536  1.3121  0.3657
 3956SOL    HW223505   3.361   1.672  10.545  1.1777 -1.7739 -1.1751
 3957SOL     OW23506   2.051   4.712   1.616  0.4844 -0.0137 -0.4002
 3957SOL    HW123507   2.126   0.034   1.627 -2.3925  3.0003  2.8309
 3957SOL    HW223508   2.039   4.729   1.522 -0.5863  0.3130 -0.1986
 3958SOL     OW23509   2.868   2.392   4.621  0.4392  0.6494  0.0034
 3958SOL    HW123510   2.798   2.342   4.580  0.8889 -0.3236  0.4225
 3958SOL    HW223511   2.940   2.400   4.559 -0.1920 -3.2273 -1.1631
 3959SOL     OW23512   2.955   3.629   9.759  0.1132 -0.4460  0.0544
 3959SOL    HW123513   2.931   3.711   9.801 -0.6460  0.1169 -1.4532
 3959SOL    HW223514   2.873   3.580   9.766 -0.6533  0.1825 -4.4776
 3960SOL     OW23515   1.152   1.540   1.810 -0.0568  0.3147 -0.1038
 3960SOL    HW123516   1.084   1.474   1.815 -0.9363  1.0922 -1.8287
 3960SOL    HW223517   1.230   1.501   1.849  0.6427  1.5124 -0.3052
 3961SOL     OW23518   4.119   3.662   7.944 -0.3500  0.1199 -0.0272
 3961SOL    HW123519   4.125   3.754   7.968 -0.0889  0.1351 -0.1544
 3961SOL    HW223520   4.038   3.654   7.894 -1.2191 -0.6374  1.4988
 3962SOL     OW23521   2.063   3.106  12.996  0.2441  0.3481 -0.2046
 3962SOL    HW123522   2.139   3.075  13.047  0.8224  0.4525 -1.0106
 3962SOL    HW223523   2.084   3.120  12.904  0.6843 -1.0464 -0.3253
 3963SOL     OW23524   0.928   0.524  16.345 -0.0160  0.7842 -0.0525
 3963SOL    HW123525   0.837   0.550  16.333 -0.2338  0.8662  1.7312
 3963SOL    HW223526   0.936   0.595  16.409 -1.1846  1.2530 -0.4444
 3964SOL     OW23527   3.187   1.298   1.793  0.1170 -0.7110  0.2599
 3964SOL    HW123528   3.131   1.309   1.870 -0.8752  1.7370 -0.7982
 3964SOL    HW223529   3.117   1.327   1.735  0.0981 -3.0345 -0.8936
 3965SOL     OW23530   3.946   4.333   1.048 -0.0777 -0.1360  0.6500
 3965SOL    HW123531   3.866   4.355   1.002  0.1468  2.6314  1.6369
 3965SOL    HW223532   3.925   4.256   1.101 -1.6015 -0.6800 -0.7830
 3966SOL     OW23533   0.833   2.195   2.516 -0.5316 -0.1692 -0.2877
 3966SOL    HW123534   0.865   2.267   2.462 -1.6684  1.6422  1.4579
 3966SOL    HW223535   0.900   2.174   2.581 -0.7792 -0.5891 -0.1665
 3967SOL     OW23536   3.689   2.168   4.060 -0.2490 -0.3200  0.0921
 3967SOL    HW123537   3.663   2.260   4.053 -0.5349 -0.2965  1.4896
 3967SOL    HW223538   3.612   2.136   4.106 -0.6247  1.1237  0.4796
 3968SOL     OW23539   4.617   2.887   6.922  0.2131  0.1485  0.4584
 3968SOL    HW123540   4.543   2.843   6.962 -1.4511  2.4208 -0.1340
 3968SOL    HW223541   4.626   2.826   6.849 -0.1869 -0.1745  0.6820
 3969SOL     OW23542   1.316   3.949   2.182 -0.4925  0.3509  0.3277
 3969SOL    HW123543   1.269   3.901   2.250  1.7904 -0.2347  1.5247
 3969SOL    HW223544   1.311   4.039   2.213  1.1539  0.7413 -0.4912
 3970SOL     OW23545   3.224   0.188   5.136  0.2146 -0.2442 -0.6244
 3970SOL    HW123546   3.153   0.125   5.120  0.4950 -0.7816  0.2231
 3970SOL    HW223547   3.212   0.200   5.230 -3.8861  1.3394 -1.3708
 3971SOL     OW23548   2.059   3.466   0.551 -0.2279 -0.5261 -0.2494
 3971SOL    HW123549   2.098   3.532   0.608 -1.6848 -1.3311  1.6828
 3971SOL    HW223550   2.135   3.463   0.492  0.3962 -1.2797  0.5764
 3972SOL     OW23551   1.158   4.646  15.817  0.6378  0.5093 -0.0763
 3972SOL    HW123552   1.135   4.734  15.788  0.2099  0.5292  0.3329
 3972SOL    HW223553   1.138   4.594  15.738 -3.1137 -0.3594  1.4404
 3973SOL     OW23554   4.205   4.126  16.068 -0.2099 -1.2616 -0.0305
 3973SOL    HW123555   4.141   4.185  16.109 -0.0999 -1.1390 -0.0334
 3973SOL    HW223556   4.137   4.084  16.015  0.4598  0.8155 -2.5545
 3974SOL     OW23557   0.422   2.829   2.153 -0.2537 -0.4222 -0.0466
 3974SOL    HW123558   0.387   2.743   2.132  0.4488 -0.7607  0.1683
 3974SOL    HW223559   0.516   2.814   2.158 -0.2154 -1.0832 -3.2457
 3975SOL     OW23560   1.549   4.164   6.498  0.3858  0.6028  0.1650
 3975SOL    HW123561   1.509   4.243   6.533 -1.4748 -1.0490  1.7942
 3975SOL    HW223562   1.510   4.173   6.411 -1.6939  1.7311  1.2093
 3976SOL     OW23563   3.910   2.974  14.372 -0.1735 -0.2843 -0.4367
 3976SOL    HW123564   3.820   2.941  14.364 -1.0576  2.0683 -0.0365
 3976SOL    HW223565   3.904   3.028  14.293  3.8764 -0.3992 -0.7977
 3977SOL     OW23566   3.229   4.515   7.842 -0.2991 -0.3507  0.5276
 3977SOL    HW123567   3.269   4.514   7.929  0.2028 -1.3364  0.2753
 3977SOL    HW223568   3.232   4.610   7.827  1.5894 -0.5555 -0.3650
 3978SOL     OW23569   0.502   2.331   1.604  0.0165  0.3664 -0.3727
 3978SOL    HW123570   0.546   2.416   1.593  0.2494  0.4253  1.0612
 3978SOL    HW223571   0.513   2.301   1.514 -0.8217  2.2782 -1.1296
 3979SOL     OW23572   0.373   0.164   8.894 -0.3561  0.2659  0.0443
 3979SOL    HW123573   0.466   0.180   8.913 -0.2458  0.9020 -1.0471
 3979SOL    HW223574   0.318   0.238   8.919 -0.1874 -0.1798  1.7580
 3980SOL     OW23575   4.141   1.121   5.079  0.0861 -0.0801 -0.3503
 3980SOL    HW123576   4.213   1.164   5.034 -0.7765 -0.4755 -2.0920
 3980SOL    HW223577   4.069   1.167   5.035 -0.8740  1.0016  2.2976
 3981SOL     OW23578   1.578   0.360   6.626  0.6708 -0.0493  0.0630
 3981SOL    HW123579   1.585   0.410   6.545  0.6466  2.4547  1.6151
 3981SOL    HW223580   1.660   0.312   6.625  1.1547  0.7875  0.1396
 3982SOL     OW23581   2.060   1.097   4.660  0.8641 -0.2880 -0.1476
 3982SOL    HW123582   2.013   1.088   4.742 -0.8676  2.0295 -0.9079
 3982SOL    HW223583   1.996   1.052   4.606 -0.5337  1.3040  0.1830
 3983SOL     OW23584   2.541   2.212   2.562  0.6107 -0.3861  0.0610
 3983SOL    HW123585   2.499   2.187   2.644 -0.8717  1.7302 -0.0494
 3983SOL    HW223586   2.632   2.230   2.583 -0.0600  0.9402  1.8724
 3984SOL     OW23587   1.235   4.008  16.824  0.0412 -0.8010  0.1688
 3984SOL    HW123588   1.190   4.015  16.908 -1.6022 -0.3724 -0.7620
 3984SOL    HW223589   1.220   3.917  16.801 -0.6429 -0.5200 -0.5023
 3985SOL     OW23590   0.271   3.301   7.893 -0.0346 -0.3489  0.2084
 3985SOL    HW123591   0.302   3.253   7.970  0.2392  0.8128  0.8089
 3985SOL    HW223592   0.190   3.343   7.923 -0.0718 -0.6950  0.5969
 3986SOL     OW23593   3.726   0.483   5.774  0.0453 -0.7191 -0.0612
 3986SOL    HW123594   3.680   0.428   5.711 -0.3159 -0.4534 -0.0305
 3986SOL    HW223595   3.777   0.420   5.824  2.8747  0.7119 -1.1188
 3987SOL     OW23596   1.043   1.937   6.411  0.3505 -0.1555 -0.3426
 3987SOL    HW123597   0.998   1.980   6.484 -1.6859 -0.2022 -1.5782
 3987SOL    HW223598   1.005   1.992   6.343  1.3235  1.4972  0.4367
 3988SOL     OW23599   0.616   2.033   5.592 -0.0504  0.2764  0.1700
 3988SOL    HW123600   0.576   1.954   5.629  3.9082 -1.5698  0.5355
 3988SOL    HW223601   0.665   2.067   5.667 -0.3350 -0.6475  0.7698
 3989SOL     OW23602   3.580   1.793  13.257 -0.1666  0.6708 -0.4705
 3989SOL    HW123603   3.507   1.821  13.201 -0.3998 -0.9644 -0.9654
 3989SOL    HW223604   3.529   1.760  13.331 -0.4402  0.1881 -0.8845
 3990SOL     OW23605   0.521   3.572   2.845 -0.0052 -0.1161  0.2135
 3990SOL    HW123606   0.584   3.530   2.903  1.3124  0.2506 -0.9389
 3990SOL    HW223607   0.587   3.621   2.796 -1.0064 -1.4789 -2.4979
 3991SOL     OW23608   0.996   4.471   2.562  0.3273 -0.5922  0.5107
 3991SOL    HW123609   0.955   4.486   2.477  0.4895  0.9124  0.6944
 3991SOL    HW223610   1.041   4.555   2.569  0.3550 -0.8000  2.7510
 3992SOL     OW23611   0.377   1.729   2.567  0.1540 -0.0440 -0.2278
 3992SOL    HW123612   0.434   1.682   2.628  1.7993  0.1506 -1.6133
 3992SOL    HW223613   0.298   1.676   2.575 -0.7830  1.7630  2.5360
 3993SOL     OW23614   3.197   1.845   3.146  0.0694 -0.5978  0.0311
 3993SOL    HW123615   3.269   1.820   3.205  1.5992  0.4702 -1.3645
 3993SOL    HW223616   3.182   1.939   3.161  0.2835 -0.5878  0.1947
 3994SOL     OW23617   2.955   3.154  17.004  0.4871 -0.1243  0.0041
 3994SOL    HW123618   2.993   3.160  17.092  2.1313 -0.4994 -0.6922
 3994SOL    HW223619   2.969   3.063  16.978 -1.7315  0.2701 -2.5456
 3995SOL     OW23620   3.023   1.018   6.447 -0.1112  0.1211 -0.4533
 3995SOL    HW123621   3.031   1.060   6.533 -0.1203 -0.2418 -0.2772
 3995SOL    HW223622   2.929   1.027   6.432 -0.0863  0.8980 -0.1402
 3996SOL     OW23623   0.735   0.270   5.874 -0.8011 -0.5614  0.2486
 3996SOL    HW123624   0.646   0.305   5.884 -0.5438  0.4295 -0.9648
 3996SOL    HW223625   0.774   0.303   5.955  0.2931  2.0417 -1.3769
 3997SOL     OW23626   2.001   0.769   8.491  0.0888 -0.1465 -0.1392
 3997SOL    HW123627   2.092   0.743   8.504 -0.4649 -1.1132  1.7818
 3997SOL    HW223628   1.981   0.792   8.582 -2.1553 -0.0860 -0.6549
 3998SOL     OW23629   3.047   0.928  15.053 -0.1402 -0.0728  0.2928
 3998SOL    HW123630   3.023   1.009  15.010  0.3610  0.1032  0.3451
 3998SOL    HW223631   3.125   0.975  15.082  0.2311 -0.5058 -0.0057
 3999SOL     OW23632   2.504   0.938   7.008  0.0419 -0.1764 -0.1011
 3999SOL    HW123633   2.439   0.918   6.940  0.8952  2.1232 -1.6020
 3999SOL    HW223634   2.452   0.931   7.088  0.1017  3.4529  0.2662
 4000SOL     OW23635   2.976   3.758  15.063  0.4737 -0.0584  0.1170
 4000SOL    HW123636   2.995   3.847  15.033  1.0849  0.0637  0.8606
 4000SOL    HW223637   2.905   3.736  15.003  0.8461  2.3104 -1.2079
 4001SOL     OW23638   0.898   1.141   5.634  0.1733 -0.1755 -0.0424
 4001SOL    HW123639   0.942   1.147   5.719 -1.3027  2.6999  0.5103
 4001SOL    HW223640   0.963   1.165   5.569 -1.2945  1.4335 -0.9288
 4002SOL     OW23641   0.052   2.625  14.125 -0.4155 -0.0954 -0.0484
 4002SOL    HW123642   4.732   2.593  14.196 -1.5042  1.2658 -0.3225
 4002SOL    HW223643   0.019   2.712  14.104  1.2988  0.6301  0.2698
 4003SOL     OW23644   3.578   2.745   3.366 -0.6262 -0.2659  0.0549
 4003SOL    HW123645   3.578   2.814   3.300  1.2294 -2.1804 -1.9469
 4003SOL    HW223646   3.553   2.795   3.444  0.8744 -1.0350  1.0151
 4004SOL     OW23647   1.253   4.220   4.861  0.2211 -0.0713 -0.7556
 4004SOL    HW123648   1.313   4.165   4.811  0.5528 -1.0387  0.6973
 4004SOL    HW223649   1.172   4.170   4.856 -1.2007  2.2648 -1.3580
 4005SOL     OW23650   1.309   3.021   8.532 -0.3608 -0.5209  0.2053
 4005SOL    HW123651   1.309   2.926   8.517 -1.5505 -0.1470 -2.1121
 4005SOL    HW223652   1.388   3.035   8.481 -0.0679  4.0083  1.8995
 4006SOL     OW23653   3.734   3.615  17.360 -0.0999  0.0362  0.1937
 4006SOL    HW123654   3.800   3.646  17.298 -2.3524  0.2037 -2.0917
 4006SOL    HW223655   3.691   3.694  17.391 -0.6921  0.4165 -1.6322
 4007SOL     OW23656   3.735   3.523  10.503 -0.4394  0.0194 -0.0467
 4007SOL    HW123657   3.720   3.603  10.452 -3.1501 -1.7572 -2.0068
 4007SOL    HW223658   3.647   3.489  10.520  0.3075 -2.1935 -0.6187
 4008SOL     OW23659   0.518   4.649   1.817  0.3973  0.2325 -0.4830
 4008SOL    HW123660   0.496   4.557   1.831  0.5795  0.1617 -0.6683
 4008SOL    HW223661   0.523   4.667   1.911 -1.7960 -2.2220  0.0855
 4009SOL     OW23662   2.631   4.215  16.443 -0.3140 -0.2537 -0.0042
 4009SOL    HW123663   2.564   4.220  16.375 -1.1981 -0.6567  0.8469
 4009SOL    HW223664   2.653   4.308  16.457 -2.5127  0.1705  0.6103
 4010SOL     OW23665   3.787   1.251   5.363 -0.0423  0.1269  0.4237
 4010SOL    HW123666   3.881   1.265   5.363  0.0485 -0.4439 -1.2976
 4010SOL    HW223667   3.783   1.184   5.432  2.0565 -0.1194  0.3059
 4011SOL     OW23668   4.204   1.200  11.843 -0.5016 -0.0415  0.5267
 4011SOL    HW123669   4.255   1.279  11.861  1.5132 -1.0973 -0.4674
 4011SOL    HW223670   4.134   1.222  11.904  1.2432  0.8302  2.2184
 4012SOL     OW23671   0.774   2.460   5.250 -0.1771  0.1400 -0.4588
 4012SOL    HW123672   0.738   2.545   5.274 -1.1458  0.2184 -2.1846
 4012SOL    HW223673   0.840   2.482   5.184 -1.0383  3.1080 -0.3133
 4013SOL     OW23674   1.712   2.212   9.708 -0.1468 -0.0092  0.3897
 4013SOL    HW123675   1.637   2.260   9.673 -1.4036 -3.6871 -1.9091
 4013SOL    HW223676   1.749   2.277   9.769  0.7624 -0.5409  0.4038
 4014SOL     OW23677   4.254   1.562   7.422 -0.2639 -0.3793 -0.1651
 4014SOL    HW123678   4.205   1.488   7.457 -1.2948  0.1300 -0.5371
 4014SOL    HW223679   4.304   1.524   7.349  1.4492  0.5621  0.4971
 4015SOL     OW23680   3.454   3.664   1.265  0.4346 -0.4290 -0.1193
 4015SOL    HW123681   3.359   3.655   1.253  0.5246 -0.7144 -0.6389
 4015SOL    HW223682   3.494   3.638   1.182 -1.1263 -1.3242 -0.6078
 4016SOL     OW23683   4.156   0.693  14.881 -0.2074 -0.0704 -0.6611
 4016SOL    HW123684   4.218   0.626  14.909 -0.8354 -0.2456  0.3049
 4016SOL    HW223685   4.076   0.660  14.920 -0.7412  0.2719 -1.4624
 4017SOL     OW23686   2.490   0.832   1.923 -0.2880 -0.0955 -0.1175
 4017SOL    HW123687   2.548   0.759   1.901 -0.7325 -0.5511  0.2068
 4017SOL    HW223688   2.484   0.865   1.833 -4.3419  0.2471  0.2946
 4018SOL     OW23689   3.030   0.768   3.974 -0.0013 -0.3470 -0.2515
 4018SOL    HW123690   2.993   0.733   3.893 -3.9476 -0.4794  1.6280
 4018SOL    HW223691   3.095   0.702   3.998 -2.0000 -2.1785  0.0745
 4019SOL     OW23692   1.742   1.556   9.674 -0.2438 -0.1516  0.0581
 4019SOL    HW123693   1.766   1.648   9.684  1.7541 -0.5259 -1.2762
 4019SOL    HW223694   1.824   1.516   9.646  1.6210  2.8046  1.3133
 4020SOL     OW23695   3.225   3.194   0.253  0.2579 -0.1333  0.0153
 4020SOL    HW123696   3.137   3.194   0.215 -0.3555  4.4331  1.3991
 4020SOL    HW223697   3.243   3.105   0.284  0.8220  0.8693  2.5155
 4021SOL     OW23698   1.679   0.857   4.363 -0.2569 -0.6224 -0.2247
 4021SOL    HW123699   1.588   0.827   4.370 -0.4425  0.1980  0.7975
 4021SOL    HW223700   1.660   0.911   4.286 -2.6859  1.1898  1.6511
 4022SOL     OW23701   1.722   2.098   4.498  0.0215 -0.3395  0.8193
 4022SOL    HW123702   1.758   2.166   4.556 -1.2843 -0.1671  1.4435
 4022SOL    HW223703   1.627   2.110   4.507  0.0281 -0.7978  1.5350
 4023SOL     OW23704   1.528   0.583   2.255  0.3280 -0.1579 -0.3917
 4023SOL    HW123705   1.473   0.583   2.176 -0.2564  0.3901  0.0142
 4023SOL    HW223706   1.589   0.648   2.222  0.3940 -0.4383 -0.8266
 4024SOL     OW23707   0.982   1.181  15.319 -0.4845 -0.2205 -0.0792
 4024SOL    HW123708   1.046   1.111  15.306 -2.0472 -1.5542 -0.6245
 4024SOL    HW223709   0.998   1.195  15.412  1.7291 -1.0187 -0.3304
 4025SOL     OW23710   2.684   4.020   3.545  0.3718 -0.0677 -0.5164
 4025SOL    HW123711   2.714   3.989   3.630 -1.0458  0.8266  0.3161
 4025SOL    HW223712   2.629   4.091   3.578  2.4645  1.4955 -0.3507
 4026SOL     OW23713   3.002   3.838   5.012 -0.1992  0.4542 -0.6462
 4026SOL    HW123714   2.956   3.795   5.083 -1.4806  1.8643 -0.6289
 4026SOL    HW223715   3.069   3.884   5.063 -0.6889 -0.5416  0.8960
 4027SOL     OW23716   2.514   1.143  16.842  0.7348  0.7096  0.5124
 4027SOL    HW123717   2.453   1.201  16.888 -1.1886 -0.1487 -0.9476
 4027SOL    HW223718   2.594   1.168  16.888  1.7140  0.5824 -1.1237
 4028SOL     OW23719   1.612   4.362  15.989  0.4389 -0.2815  0.0738
 4028SOL    HW123720   1.631   4.448  16.027 -1.2593  0.2271 -0.2048
 4028SOL    HW223721   1.656   4.388  15.907  0.7168  1.7021  0.8395
 4029SOL     OW23722   0.214   0.051  11.324 -0.2443  0.0124 -0.7158
 4029SOL    HW123723   0.269   4.717  11.293 -2.0592 -0.6840 -2.3259
 4029SOL    HW223724   0.266   0.131  11.315  0.2865 -0.0705  1.5299
 4030SOL     OW23725   4.477   2.807  15.035  0.7332 -0.1423  0.5507
 4030SOL    HW123726   4.476   2.723  15.080 -0.7737 -0.1569  0.4974
 4030SOL    HW223727   4.383   2.823  15.042  0.8456  1.2365 -1.2221
 4031SOL     OW23728   1.375   2.107  16.411  0.1776 -0.2059  0.1331
 4031SOL    HW123729   1.388   2.141  16.500  0.1959  0.3247 -0.0739
 4031SOL    HW223730   1.294   2.060  16.430  0.2195 -0.7422 -1.0185
 4032SOL     OW23731   2.395   4.007   5.243 -0.5044  0.1509 -0.2178
 4032SOL    HW123732   2.347   3.974   5.319  0.7246 -1.9575 -0.3630
 4032SOL    HW223733   2.343   3.980   5.167 -0.6999 -0.0454 -0.0141
 4033SOL     OW23734   4.735   1.203   7.466  0.1571 -0.6570  0.2521
 4033SOL    HW123735   4.687   1.121   7.456  1.0257 -1.1737  0.3435
 4033SOL    HW223736   4.689   1.237   7.542 -1.2562  0.7982 -1.2721
 4034SOL     OW23737   0.739   3.363  13.174  0.2140 -0.4832  0.0791
 4034SOL    HW123738   0.818   3.372  13.120 -1.0401 -0.2726 -1.7531
 4034SOL    HW223739   0.690   3.436  13.135 -1.7915 -2.1370 -0.5173
 4035SOL     OW23740   2.971   2.660   6.555 -0.0735 -0.1388  0.2595
 4035SOL    HW123741   3.046   2.633   6.502  0.6891  1.2434  0.6356
 4035SOL    HW223742   2.981   2.596   6.626 -0.5498  1.0299  1.3718
 4036SOL     OW23743   4.097   0.173   2.575 -0.1702 -0.1158  0.0630
 4036SOL    HW123744   4.155   0.212   2.640  3.6320 -2.5585 -1.8557
 4036SOL    HW223745   4.154   0.189   2.500 -1.6851  3.4238 -0.3395
 4037SOL     OW23746   2.799   0.761   5.318  0.9177  0.1361 -0.2091
 4037SOL    HW123747   2.821   0.681   5.270  0.3650 -0.2121  0.1183
 4037SOL    HW223748   2.814   0.734   5.408 -2.2432  1.0171  0.5675
 4038SOL     OW23749   0.608   4.010  15.821  0.4421 -0.1981  0.2939
 4038SOL    HW123750   0.675   3.957  15.776 -0.0687 -1.0311  0.5198
 4038SOL    HW223751   0.543   3.945  15.849 -0.1465  0.3358  0.1675
 4039SOL     OW23752   1.973   3.544   3.319 -0.0194  0.2768  0.0930
 4039SOL    HW123753   2.006   3.598   3.246  1.0469 -0.3953  0.0757
 4039SOL    HW223754   2.034   3.470   3.319 -0.8002 -0.3821 -1.3282
 4040SOL     OW23755   4.141   1.379   6.246 -0.0238 -0.0627 -0.1534
 4040SOL    HW123756   4.059   1.330   6.241  1.0143 -1.6851 -1.0326
 4040SOL    HW223757   4.129   1.427   6.164  1.3196  0.0563 -0.2831
 4041SOL     OW23758   1.491   1.584   6.113  0.5903 -0.1052  0.1737
 4041SOL    HW123759   1.551   1.638   6.165  2.6855 -0.3429 -2.0101
 4041SOL    HW223760   1.536   1.502   6.092 -0.4474 -0.1733 -1.7592
 4042SOL     OW23761   2.115   4.582   6.673 -0.1246 -0.6220 -0.1059
 4042SOL    HW123762   2.099   4.488   6.681 -1.9013 -0.4211 -1.4134
 4042SOL    HW223763   2.208   4.587   6.698  0.6852 -0.2372 -3.2018
 4043SOL     OW23764   1.392   0.804   6.063  0.0428 -0.2214 -0.2201
 4043SOL    HW123765   1.382   0.709   6.061 -1.4085 -0.0796  0.2515
 4043SOL    HW223766   1.484   0.810   6.089  0.0251 -0.0172 -0.2014
 4044SOL     OW23767   3.699   0.099  13.612 -0.1054  0.2327  0.1742
 4044SOL    HW123768   3.732   0.105  13.701  1.1618 -3.5914 -0.0374
 4044SOL    HW223769   3.618   0.149  13.621 -0.0736  0.1649  0.8556
 4045SOL     OW23770   1.526   0.850   2.860  0.0931  0.3446  0.2976
 4045SOL    HW123771   1.566   0.814   2.939  0.6546  0.3084 -0.0079
 4045SOL    HW223772   1.462   0.893   2.917  0.9492  1.4317  0.4178
 4046SOL     OW23773   0.539   3.239  16.389 -0.2815 -0.1899 -0.6401
 4046SOL    HW123774   0.447   3.265  16.383  0.6096  3.1167 -0.0491
 4046SOL    HW223775   0.544   3.153  16.432  1.3928 -0.7140 -1.8978
 4047SOL     OW23776   1.795   1.973   9.621 -0.3047  0.6600 -0.2975
 4047SOL    HW123777   1.884   2.001   9.601  0.3668 -1.7077 -0.6418
 4047SOL    HW223778   1.753   2.056   9.644 -0.4521  0.4313  0.2541
 4048SOL     OW23779   0.768   2.543   0.013 -0.2847 -0.1628  0.5978
 4048SOL    HW123780   0.822   2.606   0.060  2.2432  0.1816 -2.7489
 4048SOL    HW223781   0.773   2.477   0.082  0.4209 -1.1314 -0.3897
 4049SOL     OW23782   2.537   4.598   1.364 -0.5146  0.5989  0.1620
 4049SOL    HW123783   2.616   4.544   1.353 -1.5629 -0.8958  0.0339
 4049SOL    HW223784   2.555   4.666   1.299  1.6131  1.6926  1.8872
 4050SOL     OW23785   3.815   0.340   3.387 -0.4690 -0.1481 -0.2193
 4050SOL    HW123786   3.787   0.250   3.376  0.8772 -0.4287 -1.3956
 4050SOL    HW223787   3.804   0.335   3.481  0.2135 -1.5138 -0.2176
 4051SOL     OW23788   2.436   1.483   7.207  0.3683 -0.0904 -0.1766
 4051SOL    HW123789   2.451   1.390   7.186 -0.4144  0.0049 -1.1766
 4051SOL    HW223790   2.469   1.479   7.297 -1.2866  1.5521  0.4991
 4052SOL     OW23791   2.156   0.423   8.419  0.3538 -0.3773  0.6268
 4052SOL    HW123792   2.115   0.434   8.505  0.9025  5.5806  0.1652
 4052SOL    HW223793   2.140   0.330   8.406 -3.1094  0.2766  0.0322
 4053SOL     OW23794   3.107   0.356   6.574  0.1854 -0.2504  0.3543
 4053SOL    HW123795   3.096   0.262   6.586 -1.1905 -0.3812 -1.9650
 4053SOL    HW223796   3.034   0.381   6.632  2.0278 -0.2322  2.6852
 4054SOL     OW23797   0.317   0.539   8.084  0.7056  0.5738  0.1963
 4054SOL    HW123798   0.381   0.494   8.139 -0.3411 -0.8398  0.2338
 4054SOL    HW223799   0.268   0.469   8.041 -0.7408  1.9901 -0.4654
 4055SOL     OW23800   0.157   3.981   6.038  0.5952  0.2753 -0.0245
 4055SOL    HW123801   0.120   3.894   6.025  2.0493 -0.3444  0.0194
 4055SOL    HW223802   0.132   4.023   5.955 -2.5249  2.0567  1.8259
 4056SOL     OW23803   4.060   4.604  13.988 -0.1793  0.5286  0.4510
 4056SOL    HW123804   4.086   4.628  14.077 -2.2707 -0.0428  1.2223
 4056SOL    HW223805   4.014   4.520  13.998 -0.8326  0.7034 -1.1095
 4057SOL     OW23806   0.320   3.455   7.248  0.2274 -0.0021  0.9159
 4057SOL    HW123807   0.364   3.513   7.310  3.4240  0.2555 -1.5768
 4057SOL    HW223808   0.231   3.489   7.235  0.0750 -1.1076 -1.0543
 4058SOL     OW23809   0.847   4.248   3.337 -0.1501 -0.1106 -0.5966
 4058SOL    HW123810   0.936   4.215   3.347  0.7273  1.2625 -3.8258
 4058SOL    HW223811   0.809   4.229   3.423 -2.5619  0.7281 -1.4795
 4059SOL     OW23812   1.741   2.346   8.554 -0.5478  0.4904  0.5186
 4059SOL    HW123813   1.687   2.423   8.573 -0.3538  0.7378  0.0557
 4059SOL    HW223814   1.737   2.338   8.459 -0.0270  1.3566  0.4226
 4060SOL     OW23815   1.986   2.451   5.716  0.9400 -0.4620 -0.3142
 4060SOL    HW123816   2.050   2.421   5.781  1.2806 -0.6903 -0.7507
 4060SOL    HW223817   1.915   2.390   5.737  0.5197  0.1172 -0.0611
 4061SOL     OW23818   0.410   2.878   4.866 -0.1316 -0.0285  0.5191
 4061SOL    HW123819   0.423   2.848   4.956  2.3153 -0.0871  0.1470
 4061SOL    HW223820   0.315   2.874   4.855 -0.0720 -1.3504  0.5063
 4062SOL     OW23821   1.032   3.993  17.010 -0.0496 -0.2054 -0.0406
 4062SOL    HW123822   0.982   3.912  17.016 -0.8195  0.2959  0.3369
 4062SOL    HW223823   0.979   4.038  17.076 -0.0161 -1.7800  1.0512
 4063SOL     OW23824   2.708   0.752   6.116 -0.5128  0.3492 -0.3508
 4063SOL    HW123825   2.801   0.735   6.133 -0.4837  1.5763  0.6726
 4063SOL    HW223826   2.707   0.846   6.132 -1.0742  0.2419  0.2360
 4064SOL     OW23827   3.566   3.194   4.892 -0.1703  0.4623 -0.3146
 4064SOL    HW123828   3.544   3.159   4.978 -1.3776  1.6424 -0.1473
 4064SOL    HW223829   3.578   3.285   4.921  0.4352  0.7251 -1.4147
 4065SOL     OW23830   2.983   4.732   2.960 -0.0523 -0.0274 -0.3147
 4065SOL    HW123831   3.059   4.732   2.903  1.1340 -0.7459  1.2533
 4065SOL    HW223832   2.914   0.009   2.896 -2.1026 -2.6607  1.2915
 4066SOL     OW23833   4.491   3.457   4.808 -0.2076 -0.1685  0.2230
 4066SOL    HW123834   4.477   3.552   4.800  0.4717 -0.0294  0.6952
 4066SOL    HW223835   4.579   3.447   4.770 -1.0050  0.6081 -1.8341
 4067SOL     OW23836   2.072   2.884   3.843 -0.0429 -0.1653 -0.0144
 4067SOL    HW123837   2.089   2.822   3.913 -0.4020  1.2040  1.2827
 4067SOL    HW223838   2.153   2.882   3.792 -1.2294 -0.0664 -1.9072
 4068SOL     OW23839   4.072   2.272  13.015 -0.2876  0.5971 -0.0086
 4068SOL    HW123840   4.112   2.267  13.102  0.0794 -1.1160 -0.2712
 4068SOL    HW223841   4.101   2.359  12.987  0.3490  0.6084  0.6706
 4069SOL     OW23842   3.227   2.682   3.474 -0.3934 -0.0848 -0.2776
 4069SOL    HW123843   3.173   2.637   3.409 -1.2235 -0.2294  0.5249
 4069SOL    HW223844   3.220   2.769   3.433 -3.3495 -0.1997 -0.0085
 4070SOL     OW23845   1.297   1.909   1.748 -0.7990 -0.2443 -0.6689
 4070SOL    HW123846   1.355   1.930   1.821  0.8917 -0.6561 -1.8868
 4070SOL    HW223847   1.213   1.884   1.786 -1.2113  0.9564 -0.8011
 4071SOL     OW23848   3.752   2.705   2.063 -0.3083  0.6200 -0.5669
 4071SOL    HW123849   3.836   2.703   2.017 -0.4637 -4.0557 -0.5925
 4071SOL    HW223850   3.734   2.616   2.092  2.3245  0.1040 -0.5427
 4072SOL     OW23851   4.520   3.604  10.361 -0.4928  0.4104 -0.2000
 4072SOL    HW123852   4.502   3.514  10.386 -0.7648  0.4295 -0.3215
 4072SOL    HW223853   4.556   3.638  10.442  0.3811  0.7830 -0.7451
 4073SOL     OW23854   4.364   2.135   6.826  0.5470  0.1156  0.0679
 4073SOL    HW123855   4.397   2.132   6.916 -0.4566  0.2291  0.4343
 4073SOL    HW223856   4.441   2.113   6.773 -1.0084 -1.2076 -1.6591
 4074SOL     OW23857   1.138   4.709   2.563  0.1210 -0.0987  0.2443
 4074SOL    HW123858   1.229   4.695   2.590 -0.8874 -1.7198  2.8586
 4074SOL    HW223859   1.113   4.730   2.653  1.4926  1.0055  0.3748
 4075SOL     OW23860   3.307   2.438   4.215  0.5600 -0.3498  0.5519
 4075SOL    HW123861   3.235   2.454   4.153  0.1039  0.1730  1.2224
 4075SOL    HW223862   3.379   2.458   4.155  2.5708 -0.1038  3.0879
 4076SOL     OW23863   1.690   3.964  11.378  0.0278  0.1591  0.0478
 4076SOL    HW123864   1.627   3.965  11.305  0.0011  0.8394  0.0802
 4076SOL    HW223865   1.657   4.034  11.435 -0.8497 -0.2707  0.0668
 4077SOL     OW23866   2.308   1.721   8.281 -0.4097  0.0738 -0.6148
 4077SOL    HW123867   2.326   1.664   8.206  1.3870  0.8821 -0.8013
 4077SOL    HW223868   2.286   1.655   8.346 -0.0379 -0.5492 -1.1196
 4078SOL     OW23869   3.817   4.451  17.315  0.5826 -0.6066 -0.0269
 4078SOL    HW123870   3.865   4.376  17.351 -0.6786 -0.5653  1.7203
 4078SOL    HW223871   3.748   4.409  17.263 -0.2365 -0.1378  0.6870
 4079SOL     OW23872   4.453   3.644   8.924 -0.4927  0.1177  0.0434
 4079SOL    HW123873   4.528   3.697   8.950 -1.3119  1.6449 -0.6962
 4079SOL    HW223874   4.383   3.676   8.981 -1.6215  1.7356 -2.2412
 4080SOL     OW23875   2.632   3.164   6.203  0.8162  0.1067 -0.6694
 4080SOL    HW123876   2.711   3.197   6.161  1.5821  0.9676  1.4593
 4080SOL    HW223877   2.671   3.176   6.289  1.6273 -1.4169 -0.8273
 4081SOL     OW23878   2.098   0.437   5.525 -0.7485 -0.1566 -0.1454
 4081SOL    HW123879   2.191   0.440   5.507 -1.1492  0.2340 -2.1420
 4081SOL    HW223880   2.093   0.385   5.606  2.1261  0.8986  0.7030
 4082SOL     OW23881   0.902   1.730  17.309  0.0307 -0.0014 -0.1614
 4082SOL    HW123882   0.896   1.654  17.252  1.2362 -1.1525  1.2432
 4082SOL    HW223883   0.845   1.785  17.255 -1.2513 -1.8375 -0.6818
 4083SOL     OW23884   4.205   3.293  15.473  0.1097  0.0825  0.6813
 4083SOL    HW123885   4.222   3.359  15.540 -0.4558 -0.1263  1.0353
 4083SOL    HW223886   4.121   3.316  15.432  1.1468  1.2214 -0.8238
 4084SOL     OW23887   4.552   0.502   5.779 -0.1897 -0.6710  0.3325
 4084SOL    HW123888   4.564   0.524   5.872 -0.5123  0.4059  0.1169
 4084SOL    HW223889   4.457   0.490   5.783 -0.1504 -0.9118  0.5770
 4085SOL     OW23890   2.207   1.921   5.098  0.3136 -0.2943  0.5534
 4085SOL    HW123891   2.232   1.960   5.182 -2.8637  1.2186  0.7817
 4085SOL    HW223892   2.250   1.839   5.119  1.1472  0.4181  1.6464
 4086SOL     OW23893   1.844   3.325   0.701 -0.3152  0.0886  0.3313
 4086SOL    HW123894   1.801   3.306   0.618 -0.4068  1.1530  0.1379
 4086SOL    HW223895   1.905   3.395   0.679 -2.0271  1.2192 -0.7797
 4087SOL     OW23896   3.006   2.189   6.701  0.3284  0.1502 -0.5649
 4087SOL    HW123897   2.955   2.219   6.776  0.0791 -0.5224 -0.4649
 4087SOL    HW223898   3.063   2.263   6.681  1.2634 -0.8387 -1.5515
 4088SOL     OW23899   2.367   3.310   2.849 -0.5894  0.7485  0.0944
 4088SOL    HW123900   2.330   3.376   2.790 -0.5682  0.8282  0.1693
 4088SOL    HW223901   2.432   3.268   2.792 -0.5539 -1.2953  1.6282
 4089SOL     OW23902   3.417   2.959   4.825  0.3534  0.5384 -0.2185
 4089SOL    HW123903   3.443   3.051   4.829 -1.2294  0.9713  0.1980
 4089SOL    HW223904   3.489   2.905   4.856 -1.4021 -1.5282  0.2377
 4090SOL     OW23905   3.896   0.793   9.510  0.3262 -1.0296  0.3250
 4090SOL    HW123906   3.907   0.711   9.558  3.9370 -1.1374 -0.6245
 4090SOL    HW223907   3.812   0.820   9.545  0.2967  1.3117 -1.5466
 4091SOL     OW23908   2.509   4.151   3.744 -0.2339 -0.1407 -0.6040
 4091SOL    HW123909   2.482   4.087   3.809  1.7728 -1.1257 -0.7559
 4091SOL    HW223910   2.594   4.182   3.775 -0.9742  1.2239  0.0736
 4092SOL     OW23911   2.758   0.194   1.719 -0.0681 -0.5534  0.2961
 4092SOL    HW123912   2.843   0.219   1.682  0.1480 -1.5280  0.1181
 4092SOL    HW223913   2.798   0.133   1.782 -1.0502 -1.8263 -0.3056
 4093SOL     OW23914   3.830   3.511   4.328 -0.0997  0.0521  0.4941
 4093SOL    HW123915   3.836   3.533   4.234 -2.9345 -0.8687  0.1093
 4093SOL    HW223916   3.922   3.513   4.356  0.1142  0.1474 -0.2028
 4094SOL     OW23917   2.955   3.914   8.465 -0.0688 -0.1006  0.3612
 4094SOL    HW123918   2.958   3.818   8.463  1.5322 -0.0302 -0.2290
 4094SOL    HW223919   2.861   3.925   8.450 -0.0204  1.6323  1.3777
 4095SOL     OW23920   2.818   0.968   7.357  0.9076  0.6148  0.1875
 4095SOL    HW123921   2.726   0.961   7.382  1.3449 -0.4180  1.5057
 4095SOL    HW223922   2.834   0.875   7.344 -1.7888  0.0853  0.7521
 4096SOL     OW23923   1.912   2.123  14.754 -0.5541  0.0840 -0.2250
 4096SOL    HW123924   1.943   2.161  14.672  1.7835 -0.9764  0.1641
 4096SOL    HW223925   1.839   2.178  14.782 -1.1676 -1.0891  0.4708
 4097SOL     OW23926   0.355   1.718   3.333  0.2154 -0.7670 -0.3206
 4097SOL    HW123927   0.433   1.774   3.335  1.3793 -2.4312  0.9536
 4097SOL    HW223928   0.377   1.651   3.397  0.9508  1.4940  1.8150
 4098SOL     OW23929   4.731   1.243   0.124  0.1472  0.6630 -0.5543
 4098SOL    HW123930   4.720   1.297   0.046  2.0283  0.6183 -0.8380
 4098SOL    HW223931   4.642   1.208   0.136  0.2727  0.3324 -0.5821
 4099SOL     OW23932   1.168   4.608   9.139 -0.2864 -0.2917  1.0095
 4099SOL    HW123933   1.198   4.522   9.109 -1.1458 -0.6256  1.0976
 4099SOL    HW223934   1.254   4.649   9.131 -0.9942  1.0355  0.2518
 4100SOL     OW23935   0.367   0.352   7.072 -0.1133 -0.6187 -0.2735
 4100SOL    HW123936   0.438   0.313   7.020  0.3666 -1.4671  1.0035
 4100SOL    HW223937   0.350   0.279   7.132 -2.0270  0.5093  0.5465
 4101SOL     OW23938   2.961   0.178  16.869 -0.3461 -0.3703  0.0187
 4101SOL    HW123939   2.929   0.259  16.831  0.2325 -0.1834 -0.0737
 4101SOL    HW223940   3.056   0.193  16.871 -0.3526 -0.4326  0.9658
 4102SOL     OW23941   0.140   4.657   5.915  0.3723  0.2081 -0.0865
 4102SOL    HW123942   0.062   4.694   5.874 -0.7791 -2.8963 -0.7301
 4102SOL    HW223943   0.125   4.646   6.009  2.3295  1.4166  0.3744
 4103SOL     OW23944   2.901   4.678   8.283  0.3159 -0.3610 -0.2145
 4103SOL    HW123945   2.859   4.611   8.338  2.5165 -2.1120 -0.6640
 4103SOL    HW223946   2.993   4.668   8.306  0.3491 -1.2181 -0.7124
 4104SOL     OW23947   0.586   1.379   6.508 -0.4337  0.0277  0.6129
 4104SOL    HW123948   0.556   1.313   6.570 -0.8764 -0.6317 -0.3084
 4104SOL    HW223949   0.637   1.320   6.452 -2.0230 -1.5309  0.8113
 4105SOL     OW23950   0.188   0.233   9.917 -0.7560 -0.5045  0.0797
 4105SOL    HW123951   0.241   0.302   9.876  0.2107 -0.5341  1.2792
 4105SOL    HW223952   0.194   0.267  10.006 -3.0611  0.0819 -0.0147
 4106SOL     OW23953   2.458   0.001   4.035  0.1329  0.1390  0.2108
 4106SOL    HW123954   2.548   4.707   4.045  0.5127  1.7678  1.8859
 4106SOL    HW223955   2.427   4.649   4.024 -0.9741  0.3028  2.1919
 4107SOL     OW23956   0.062   2.170   6.875 -0.2954  0.3544 -0.5096
 4107SOL    HW123957   0.109   2.086   6.878 -0.8404  0.1185  1.8303
 4107SOL    HW223958   4.717   2.129   6.848  0.4685  0.0149 -2.3261
 4108SOL     OW23959   3.552   0.802  15.802 -0.0531 -0.0914  0.2096
 4108SOL    HW123960   3.486   0.762  15.745  0.6183 -1.3100  0.2656
 4108SOL    HW223961   3.484   0.848  15.851  0.1226 -0.7682  1.0918
 4109SOL     OW23962   3.866   3.557  14.529  0.0516  0.1016 -0.0265
 4109SOL    HW123963   3.788   3.580  14.579  0.4033  2.6411 -0.6393
 4109SOL    HW223964   3.911   3.502  14.593  0.4879 -0.0385 -0.4546
 4110SOL     OW23965   2.245   1.134  14.942  0.1608  0.0536 -0.4186
 4110SOL    HW123966   2.255   1.105  14.852 -0.3417  0.2595 -0.5362
 4110SOL    HW223967   2.282   1.059  14.988 -0.1185  0.4632  0.4826
 4111SOL     OW23968   2.554   1.750   9.519 -0.0454 -0.1745 -0.1640
 4111SOL    HW123969   2.602   1.688   9.575  1.9541  0.2799 -1.3892
 4111SOL    HW223970   2.533   1.696   9.443 -0.4669  0.6481 -0.6286
 4112SOL     OW23971   0.210   1.636   6.312  0.0967 -0.0958 -0.1426
 4112SOL    HW123972   0.284   1.604   6.260 -0.3104 -1.5524  0.1862
 4112SOL    HW223973   0.159   1.663   6.236 -1.3508  0.9495  1.2111
 4113SOL     OW23974   3.422   2.483   9.202 -0.6283 -0.1026  0.1470
 4113SOL    HW123975   3.350   2.423   9.222 -1.1382  1.1345  2.0881
 4113SOL    HW223976   3.459   2.437   9.127 -0.0900 -0.9054  0.9064
 4114SOL     OW23977   1.488   2.327   7.895  0.2664  0.1806  0.0853
 4114SOL    HW123978   1.480   2.342   7.801  1.1046  1.3446  0.2087
 4114SOL    HW223979   1.575   2.336   7.934  0.7148 -0.3112 -0.8083
 4115SOL     OW23980   3.469   2.164   5.577 -0.8994  0.3004  0.1995
 4115SOL    HW123981   3.415   2.091   5.608  1.5247 -1.3530  0.4634
 4115SOL    HW223982   3.414   2.198   5.506  0.2626 -0.9253 -1.2627
 4116SOL     OW23983   2.220   4.204   8.717  0.3413 -0.2030  1.2040
 4116SOL    HW123984   2.254   4.286   8.681  1.2427 -0.6896  0.9389
 4116SOL    HW223985   2.234   4.141   8.647 -0.9036  1.0239 -0.1514
 4117SOL     OW23986   4.630   3.892  16.863 -0.2231  0.5403 -0.4853
 4117SOL    HW123987   4.723   3.900  16.886 -0.0917 -0.8827 -0.5610
 4117SOL    HW223988   4.589   3.916  16.945 -0.9806  0.4537 -0.8403
 4118SOL     OW23989   2.579   0.948  13.123  0.0312 -0.0722 -0.0814
 4118SOL    HW123990   2.642   1.012  13.089 -2.2234  2.5913  0.7334
 4118SOL    HW223991   2.546   0.935  13.034  0.7283 -1.3731 -0.1517
 4119SOL     OW23992   4.504   4.105   8.018 -0.4186  0.4017 -0.0111
 4119SOL    HW123993   4.483   4.193   8.050  1.0732  0.2481  1.3587
 4119SOL    HW223994   4.512   4.068   8.106  0.1937 -0.5218 -0.4541
 4120SOL     OW23995   0.224   0.679  11.250  0.3436 -0.3411  0.6113
 4120SOL    HW123996   0.216   0.597  11.298 -0.7040  0.7605  2.3008
 4120SOL    HW223997   0.285   0.731  11.303  0.5510  0.0069  0.0301
 4121SOL     OW23998   0.142   2.167   4.907 -0.3174  0.3218 -0.1801
 4121SOL    HW123999   0.046   2.175   4.901 -0.1332  1.1289 -2.0342
 4121SOL    HW224000   0.159   2.261   4.917 -2.4800  0.6060  0.9255
 4122SOL     OW24001   2.285   1.273   8.212 -0.3445  0.1231 -0.0018
 4122SOL    HW124002   2.287   1.248   8.304 -1.3787 -0.7830 -0.2194
 4122SOL    HW224003   2.193   1.252   8.194 -0.5003  2.3955 -1.8857
 4123SOL     OW24004   3.182   2.311   4.799 -0.0243  0.0440 -0.5298
 4123SOL    HW124005   3.151   2.248   4.734 -2.7624 -1.3247  2.0988
 4123SOL    HW224006   3.246   2.363   4.749 -0.4412  1.1030  0.0206
 4124SOL     OW24007   3.498   4.239   8.011  0.0966 -0.1194  0.1200
 4124SOL    HW124008   3.475   4.175   7.943  1.2571  1.7189 -2.0189
 4124SOL    HW224009   3.429   4.232   8.077  0.4552  0.7424  0.5934
 4125SOL     OW24010   4.642   0.977   2.344 -0.2454 -0.1441  0.0286
 4125SOL    HW124011   4.559   1.018   2.370  0.9562  1.0567  1.9980
 4125SOL    HW224012   4.642   1.015   2.256 -0.2722 -0.3634 -0.0648
 4126SOL     OW24013   0.438   0.427   2.900  0.1127  0.1630 -0.3035
 4126SOL    HW124014   0.491   0.352   2.928  0.3854  0.2039 -0.7097
 4126SOL    HW224015   0.436   0.470   2.985  0.5671 -0.6757  0.1300
 4127SOL     OW24016   2.304   3.079   6.272  0.0163 -0.3488 -0.2016
 4127SOL    HW124017   2.354   2.999   6.287  0.8910  0.2392  0.0492
 4127SOL    HW224018   2.375   3.142   6.258  1.1554 -1.7831 -0.9289
 4128SOL     OW24019   1.850   0.728   6.243  0.1703 -0.3381 -0.3019
 4128SOL    HW124020   1.764   0.761   6.272 -0.0880 -1.3716  0.1200
 4128SOL    HW224021   1.855   0.766   6.156  1.1000 -0.5151 -0.3204
 4129SOL     OW24022   2.058   3.545   2.812 -0.8528  0.0313  0.3973
 4129SOL    HW124023   2.038   3.587   2.729  2.5858  2.1525  0.6122
 4129SOL    HW224024   2.148   3.576   2.826 -0.9996  2.3495 -3.8128
 4130SOL     OW24025   3.369   3.171  10.376  0.4213 -0.6201  0.3136
 4130SOL    HW124026   3.442   3.206  10.324  1.1451 -0.3814  1.4730
 4130SOL    HW224027   3.415   3.164  10.459  0.6086  2.0706  0.4320
 4131SOL     OW24028   0.110   1.892   0.775 -0.6975  0.0388  0.2436
 4131SOL    HW124029   0.159   1.974   0.769  0.0240 -0.3530  0.7419
 4131SOL    HW224030   0.058   1.903   0.854  0.7942 -0.2187  1.2666
 4132SOL     OW24031   3.707   1.604   3.813 -0.6489  0.4318 -0.2216
 4132SOL    HW124032   3.796   1.621   3.845 -0.4432 -1.3691  0.1439
 4132SOL    HW224033   3.712   1.632   3.722 -2.1901  0.1320 -0.4016
 4133SOL     OW24034   3.232   3.381   4.844  0.1540  0.2706  0.1026
 4133SOL    HW124035   3.173   3.456   4.851 -1.7130 -1.4404  2.6203
 4133SOL    HW224036   3.309   3.424   4.808 -1.3858  1.9040 -1.1861
 4134SOL     OW24037   3.573   3.744   0.121  0.2795  0.6379 -0.4603
 4134SOL    HW124038   3.536   3.664   0.158 -2.8174  0.9857 -2.7624
 4134SOL    HW224039   3.640   3.772   0.183  0.0782  0.7804 -0.3081
 4135SOL     OW24040   0.577   2.986   8.769 -0.4753  0.0468 -0.1283
 4135SOL    HW124041   0.665   2.967   8.737 -0.2525  0.5750  0.1636
 4135SOL    HW224042   0.526   2.982   8.688 -2.8282  0.4044  1.3556
 4136SOL     OW24043   4.725   2.509   9.019 -0.5599 -0.7595 -0.5126
 4136SOL    HW124044   4.674   2.525   9.098  0.7754  1.6921 -0.1381
 4136SOL    HW224045   0.081   2.500   9.042 -0.6987 -1.2046 -0.1288
 4137SOL     OW24046   0.779   0.993   7.740  0.9541 -0.4478  0.2425
 4137SOL    HW124047   0.700   0.945   7.716  0.9894 -0.5648  0.3555
 4137SOL    HW224048   0.843   0.922   7.733  1.2012 -0.2120  0.1364
 4138SOL     OW24049   1.951   4.581  10.685  0.3800  0.1193 -0.0551
 4138SOL    HW124050   1.880   4.628  10.642  0.5091 -0.3016 -0.7375
 4138SOL    HW224051   2.013   4.648  10.713 -2.4365  1.0187  3.8609
 4139SOL     OW24052   0.360   0.812  13.531 -0.7462 -0.2437  0.0066
 4139SOL    HW124053   0.280   0.784  13.576  0.5999 -0.8421  2.0330
 4139SOL    HW224054   0.355   0.800  13.436 -0.3331  0.6697 -0.1309
 4140SOL     OW24055   3.777   4.092   0.498 -0.5248 -0.0322 -0.0085
 4140SOL    HW124056   3.743   4.167   0.546 -2.7878 -1.2191  0.2486
 4140SOL    HW224057   3.756   4.017   0.554  0.1437  0.4189  0.8576
 4141SOL     OW24058   4.473   3.941  10.586 -0.0658  0.1213  0.2962
 4141SOL    HW124059   4.541   4.006  10.565 -0.3664 -0.0035 -1.0575
 4141SOL    HW224060   4.527   3.863  10.595 -0.2773 -0.1252 -0.5620
 4142SOL     OW24061   1.426   0.952  12.555  0.0490 -0.4872  0.9681
 4142SOL    HW124062   1.400   1.042  12.537  0.2055 -0.0132  3.0686
 4142SOL    HW224063   1.516   0.952  12.523 -0.9946  1.6814 -1.9375
 4143SOL     OW24064   0.569   2.156  12.173  0.3245 -0.8494 -0.1421
 4143SOL    HW124065   0.593   2.065  12.191 -1.7047 -2.0608 -3.5357
 4143SOL    HW224066   0.531   2.148  12.086 -1.0807  1.9418  0.2241
 4144SOL     OW24067   0.124   3.728  16.308 -0.0469 -0.2122  0.4327
 4144SOL    HW124068   0.183   3.674  16.361 -1.1155 -2.9953 -1.2038
 4144SOL    HW224069   0.043   3.722  16.358 -0.8322 -0.6023 -0.8953
 4145SOL     OW24070   0.256   1.246   9.747  0.0475  0.2766  0.0124
 4145SOL    HW124071   0.210   1.186   9.688 -1.2010 -0.0315  1.3283
 4145SOL    HW224072   0.177   1.276   9.792 -1.2693 -0.8573 -1.5551
 4146SOL     OW24073   2.175   3.244  13.710 -0.3374  0.0905 -0.4607
 4146SOL    HW124074   2.244   3.309  13.699  1.6426 -1.6926  1.3303
 4146SOL    HW224075   2.153   3.267  13.800  0.0962  0.8766 -0.5616
 4147SOL     OW24076   3.000   0.294   1.620  0.4230  0.3054  0.1306
 4147SOL    HW124077   3.023   0.213   1.573  0.0044 -0.0598  0.5646
 4147SOL    HW224078   3.090   0.328   1.623  0.9153 -0.9857  0.1085
 4148SOL     OW24079   4.616   2.804   4.827 -0.3491  0.7581  0.7524
 4148SOL    HW124080   4.544   2.848   4.872 -1.4500  0.5639 -0.8047
 4148SOL    HW224081   4.606   2.812   4.732 -1.2437 -0.5815  0.7284
 4149SOL     OW24082   3.912   3.209   2.150 -0.3828  0.0785  0.0071
 4149SOL    HW124083   3.864   3.279   2.193 -1.1414 -0.7319  0.4768
 4149SOL    HW224084   3.854   3.183   2.079 -0.6420 -0.6220  0.4793
 4150SOL     OW24085   0.038   3.694   3.940 -0.8598 -0.4592  0.3441
 4150SOL    HW124086   0.091   3.674   3.863  0.0316 -0.0878  0.8548
 4150SOL    HW224087   0.064   3.610   3.976  4.8925  0.0111 -2.6646
 4151SOL     OW24088   0.691   3.130  12.240  0.3534  0.4282 -0.1498
 4151SOL    HW124089   0.616   3.076  12.216 -1.2189  2.0712  1.1177
 4151SOL    HW224090   0.726   3.080  12.314 -0.6322 -1.7619 -1.1607
 4152SOL     OW24091   2.654   1.806   6.561 -0.3074 -0.0149  0.1880
 4152SOL    HW124092   2.606   1.866   6.504  2.1279  0.4362 -1.4073
 4152SOL    HW224093   2.681   1.857   6.637  1.1637 -0.4917 -0.0114
 4153SOL     OW24094   4.043   2.808  10.528 -0.3923  0.3285  0.5771
 4153SOL    HW124095   4.031   2.724  10.572 -1.6348 -1.1112 -2.5401
 4153SOL    HW224096   4.122   2.788  10.478  0.0392  1.6715  0.7135
 4154SOL     OW24097   4.507   1.668   5.271  0.3455  0.0683  0.3076
 4154SOL    HW124098   4.533   1.745   5.221 -1.5487 -0.2149 -1.1191
 4154SOL    HW224099   4.470   1.620   5.197  1.9833 -0.2600 -0.2883
 4155SOL     OW24100   0.328   0.568   5.157  0.0799  0.0397  0.2335
 4155SOL    HW124101   0.392   0.513   5.113 -0.5050 -1.3312  1.0736
 4155SOL    HW224102   0.363   0.654   5.182  0.0983  0.5997 -1.7322
 4156SOL     OW24103   1.251   1.362  14.444  0.2183  0.5443  0.2039
 4156SOL    HW124104   1.271   1.382  14.353  1.7876 -0.1190  0.4130
 4156SOL    HW224105   1.291   1.428  14.500 -0.6342  0.1346  1.3180
 4157SOL     OW24106   2.923   1.557  10.855  0.8126  0.4348  0.2843
 4157SOL    HW124107   2.891   1.645  10.875 -1.1952 -0.4250  0.8027
 4157SOL    HW224108   3.016   1.567  10.877  0.7135  2.4508 -0.1744
 4158SOL     OW24109   4.245   2.996  11.837 -0.1879  0.5231  0.0758
 4158SOL    HW124110   4.306   2.977  11.766 -1.0852 -0.6856 -0.3828
 4158SOL    HW224111   4.185   3.051  11.786  0.6584  1.8261  0.4962
 4159SOL     OW24112   0.115   3.762  16.663  0.1237 -0.4183 -0.2010
 4159SOL    HW124113   0.136   3.755  16.757  0.9150 -0.9785 -0.4192
 4159SOL    HW224114   0.167   3.694  16.621 -1.1981 -0.3651 -1.9211
 4160SOL     OW24115   3.472   0.551   5.304  0.0197 -0.2957  0.1642
 4160SOL    HW124116   3.515   0.550   5.390  0.7813  2.0425 -0.1866
 4160SOL    HW224117   3.383   0.527   5.329 -0.1674 -0.8866 -1.0799
 4161SOL     OW24118   0.554   3.634   7.025 -0.2035  0.2373 -0.2507
 4161SOL    HW124119   0.557   3.727   7.044 -0.3865  0.0638  0.6246
 4161SOL    HW224120   0.462   3.624   6.998  0.5159 -1.3350 -2.1866
 4162SOL     OW24121   1.598   1.903   0.736 -0.2676  0.4124  0.2725
 4162SOL    HW124122   1.533   1.834   0.723 -1.0003  0.8166  1.8336
 4162SOL    HW224123   1.613   1.924   0.644 -1.1304 -1.2156 -0.2327
 4163SOL     OW24124   1.567   3.881  13.927 -0.2127 -0.2117 -0.0993
 4163SOL    HW124125   1.540   3.801  13.881  2.3798 -1.4441  0.5313
 4163SOL    HW224126   1.653   3.885  13.885  0.2060 -0.9067  0.6840
 4164SOL     OW24127   0.942   3.803   4.418 -0.5193 -0.6705  0.3146
 4164SOL    HW124128   0.957   3.719   4.374  0.8242  0.2345 -0.9430
 4164SOL    HW224129   0.963   3.863   4.348  1.2731 -0.8541  0.7026
 4165SOL     OW24130   2.924   1.517   8.929 -0.3064 -0.0339  0.7936
 4165SOL    HW124131   2.995   1.551   8.983 -0.1651  3.3931 -1.5663
 4165SOL    HW224132   2.861   1.506   9.001 -1.2470  2.4271  0.3091
 4166SOL     OW24133   2.806   4.306  11.289  0.1413  0.3928  0.2791
 4166SOL    HW124134   2.795   4.232  11.348 -2.3997 -0.2881 -1.0164
 4166SOL    HW224135   2.785   4.379  11.347  1.8873  1.7035 -0.7708
 4167SOL     OW24136   3.776   2.631   5.091  0.2445 -0.4704  0.0003
 4167SOL    HW124137   3.732   2.568   5.148 -1.0588  0.7069  0.3074
 4167SOL    HW224138   3.851   2.637   5.150 -0.0396  0.8279  0.2434
 4168SOL     OW24139   3.157   2.076   8.704 -0.3802  0.2268  0.4070
 4168SOL    HW124140   3.166   2.006   8.769  1.1018 -1.4324 -1.5745
 4168SOL    HW224141   3.243   2.117   8.709 -0.6264  0.5907  1.5152
 4169SOL     OW24142   0.435   3.625   9.245  0.4349  0.4282  0.0615
 4169SOL    HW124143   0.485   3.592   9.320 -0.6084 -2.0842 -0.3718
 4169SOL    HW224144   0.361   3.670   9.287 -0.2967 -3.6935  3.1539
 4170SOL     OW24145   3.229   3.400   9.274 -0.2078  0.1040 -0.2666
 4170SOL    HW124146   3.175   3.469   9.236 -0.3384 -0.0554 -0.3693
 4170SOL    HW224147   3.174   3.324   9.257 -0.5397  0.1914  0.3955
 4171SOL     OW24148   0.423   3.980   4.315  0.7610  0.6432 -0.4291
 4171SOL    HW124149   0.495   3.953   4.371  0.9731  1.8702 -0.1019
 4171SOL    HW224150   0.384   4.055   4.362 -0.8750  0.6737 -1.8265
 4172SOL     OW24151   2.206   2.649   1.742  0.3737 -0.2263  0.1711
 4172SOL    HW124152   2.223   2.645   1.836 -1.6926 -0.9873  0.5043
 4172SOL    HW224153   2.232   2.741   1.731  2.4147 -0.8593 -0.2821
 4173SOL     OW24154   2.819   4.090  11.463 -0.6698 -0.6673 -0.1943
 4173SOL    HW124155   2.900   4.067  11.508  0.0295 -0.3127 -1.2720
 4173SOL    HW224156   2.772   4.007  11.478  0.6900 -1.1393  1.3912
 4174SOL     OW24157   3.826   4.660   2.186 -0.0236 -0.1215 -0.0530
 4174SOL    HW124158   3.905   4.704   2.217  0.3026 -0.5582 -0.2787
 4174SOL    HW224159   3.855   4.622   2.104  0.0539 -0.7756  0.2751
 4175SOL     OW24160   3.196   1.327   3.081  0.1323  0.0367  0.1687
 4175SOL    HW124161   3.153   1.251   3.120 -1.7429  1.0574  0.1181
 4175SOL    HW224162   3.287   1.300   3.070  0.2267  0.7512 -0.8060
 4176SOL     OW24163   4.185   2.415   9.012 -0.2891 -0.4346 -0.4154
 4176SOL    HW124164   4.111   2.399   8.955  0.5115 -0.8448 -1.3405
 4176SOL    HW224165   4.133   2.437   9.089  1.0290 -2.4127  1.0637
 4177SOL     OW24166   4.290   4.637   7.446 -0.1442  0.3731  0.6036
 4177SOL    HW124167   4.299   4.600   7.359 -0.1183  0.4496  0.5742
 4177SOL    HW224168   4.206   4.597   7.469 -1.4781  3.3686  0.8717
 4178SOL     OW24169   2.738   1.560   7.091  0.0075  0.2879  0.1599
 4178SOL    HW124170   2.646   1.586   7.080  0.2068  1.0805  0.3375
 4178SOL    HW224171   2.741   1.502   7.167  1.5933  2.2708  1.6285
 4179SOL     OW24172   2.752   4.239  17.023  0.2281 -0.5301  0.2927
 4179SOL    HW124173   2.688   4.308  17.041 -0.7940 -1.6630  1.0240
 4179SOL    HW224174   2.690   4.168  17.008  0.6728 -0.5192 -1.5450
 4180SOL     OW24175   2.617   3.906   5.354  0.4872  0.3101  0.2201
 4180SOL    HW124176   2.651   3.983   5.399  1.0667  0.4911 -0.5375
 4180SOL    HW224177   2.540   3.934   5.305  0.7715 -0.5879 -0.7359
 4181SOL     OW24178   3.934   2.430   5.646 -0.5935 -0.2586 -0.1754
 4181SOL    HW124179   3.952   2.363   5.580  1.4275  2.1857 -2.1332
 4181SOL    HW224180   3.841   2.427   5.665 -0.7053  0.7034 -0.5401
 4182SOL     OW24181   2.445   1.808  14.483 -0.9447  0.3954 -0.3129
 4182SOL    HW124182   2.519   1.856  14.520  0.0243 -0.9469 -0.5106
 4182SOL    HW224183   2.376   1.861  14.523 -0.9422  1.4436 -1.6952
 4183SOL     OW24184   3.783   2.923   7.261 -0.4220 -0.1397  0.4693
 4183SOL    HW124185   3.781   2.828   7.250 -0.2792 -0.2139  1.1298
 4183SOL    HW224186   3.737   2.948   7.180  1.3564  2.2806  0.1929
 4184SOL     OW24187   0.163   2.177   7.454 -0.0816 -0.1567 -1.1915
 4184SOL    HW124188   0.119   2.210   7.533 -0.7713 -0.6700 -1.3628
 4184SOL    HW224189   0.228   2.245   7.437  0.0550 -0.3794 -1.5612
 4185SOL     OW24190   2.626   0.037   5.353 -0.1959  0.1913 -0.0163
 4185SOL    HW124191   2.583   4.693   5.378  2.6836 -0.9017  1.4188
 4185SOL    HW224192   2.591   0.092   5.423  0.0875  0.5116 -0.1282
 4186SOL     OW24193   0.632   2.322   5.516  0.3010 -0.0794 -0.1502
 4186SOL    HW124194   0.593   2.257   5.573 -0.2086  0.5556  0.2222
 4186SOL    HW224195   0.552   2.358   5.477  1.5659  2.7870 -0.1572
 4187SOL     OW24196   2.124   2.162   8.404 -0.0876  0.1683 -0.1309
 4187SOL    HW124197   2.146   2.099   8.473 -2.4268 -1.9830 -1.3524
 4187SOL    HW224198   2.034   2.180   8.432  0.1295  2.5346 -0.9164
 4188SOL     OW24199   1.236   4.493   4.894 -0.3201 -0.2729 -0.0738
 4188SOL    HW124200   1.235   4.398   4.900  0.1770 -0.2178  0.8313
 4188SOL    HW224201   1.303   4.504   4.826  0.9198 -3.1579  0.6684
 4189SOL     OW24202   4.007   3.728  17.315 -0.4377 -0.2329 -0.3993
 4189SOL    HW124203   4.005   3.776  17.232  0.4704 -0.2771 -0.4461
 4189SOL    HW224204   4.045   3.641  17.299 -2.1117 -1.0295 -0.0460
 4190SOL     OW24205   4.726   1.869   7.617  0.2070  0.4218 -0.0598
 4190SOL    HW124206   4.722   1.931   7.544 -1.7597  1.0904  0.6297
 4190SOL    HW224207   0.043   1.796   7.588  0.7852  1.1782 -0.8837
 4191SOL     OW24208   4.344   1.517   6.959  0.1153 -0.0141  0.2495
 4191SOL    HW124209   4.429   1.475   6.952  1.3469  2.3718  0.8346
 4191SOL    HW224210   4.298   1.454   7.015 -0.7431  0.0424 -0.3877
 4192SOL     OW24211   3.793   0.906  15.760  0.0923 -0.1750  0.1988
 4192SOL    HW124212   3.836   0.825  15.788  0.8066 -0.1063 -0.6896
 4192SOL    HW224213   3.701   0.880  15.760  0.1530 -0.3255 -2.9061
 4193SOL     OW24214   2.387   0.168   1.937 -0.5044 -0.0902 -0.5100
 4193SOL    HW124215   2.437   0.108   1.993 -0.5555 -1.4363 -1.9057
 4193SOL    HW224216   2.448   0.192   1.868  0.5373 -0.1417  0.4018
 4194SOL     OW24217   1.147   0.173   4.519  0.1211 -0.0796  0.4171
 4194SOL    HW124218   1.057   0.144   4.500  1.2821 -3.2801 -0.2603
 4194SOL    HW224219   1.160   0.117   4.596 -1.2907 -0.5214  0.3432
 4195SOL     OW24220   4.503   1.017  10.488  0.0786  0.0531  0.5024
 4195SOL    HW124221   4.447   1.060  10.423 -1.6546  0.3406  2.1796
 4195SOL    HW224222   4.451   0.954  10.537  1.1941  0.1688  1.8130
 4196SOL     OW24223   4.106   0.976  13.495  0.1075  0.8129  0.1425
 4196SOL    HW124224   4.187   0.930  13.471  0.0160  0.0136  1.3446
 4196SOL    HW224225   4.104   0.949  13.587  1.2438  0.3525  0.0419
 4197SOL     OW24226   2.510   4.686   2.109  0.1756  0.3097 -0.3475
 4197SOL    HW124227   2.598   4.714   2.082  0.3751 -1.2689 -1.3738
 4197SOL    HW224228   2.504   4.603   2.062 -0.4143  0.3328 -0.3127
 4198SOL     OW24229   0.449   1.557  14.724 -0.0121 -0.3174 -0.5064
 4198SOL    HW124230   0.448   1.628  14.660  0.7931 -0.1276 -0.3088
 4198SOL    HW224231   0.535   1.573  14.763 -0.4067  1.3073 -0.2871
 4199SOL     OW24232   2.256   4.386   7.139 -0.3705 -0.0915 -0.1118
 4199SOL    HW124233   2.214   4.332   7.072  0.2279 -1.0251  0.2699
 4199SOL    HW224234   2.230   4.475   7.113 -2.0094 -0.5230  0.0259
 4200SOL     OW24235   1.118   3.262   1.716 -0.1651  0.0185  0.0662
 4200SOL    HW124236   1.153   3.316   1.786  0.8428  3.6763 -3.3124
 4200SOL    HW224237   1.119   3.175   1.757  1.2820 -0.3730 -0.8377
 4201SOL     OW24238   1.094   4.309   3.051 -0.2892 -0.4077  0.5549
 4201SOL    HW124239   1.154   4.384   3.048 -1.0806  0.1523 -1.1166
 4201SOL    HW224240   1.010   4.355   3.058 -0.5868 -0.9632  0.6148
 4202SOL     OW24241   3.742   3.203   6.582 -0.2538 -0.2179  0.0915
 4202SOL    HW124242   3.700   3.125   6.545 -0.1931  0.4496 -1.3554
 4202SOL    HW224243   3.702   3.271   6.529  0.2565  0.3001  0.3776
 4203SOL     OW24244   3.326   4.165   8.699  0.3802  0.2146  0.4857
 4203SOL    HW124245   3.238   4.134   8.677 -0.3138  1.8701  0.9293
 4203SOL    HW224246   3.334   4.121   8.784 -1.6307  2.0843  1.6414
 4204SOL     OW24247   0.601   0.872   5.518 -0.0218 -0.5439  0.5115
 4204SOL    HW124248   0.506   0.858   5.518 -0.0175 -0.5597  0.8097
 4204SOL    HW224249   0.600   0.951   5.463  0.1440  0.2868  1.7125
 4205SOL     OW24250   3.094   1.453   3.792  0.1037  0.1998  0.8451
 4205SOL    HW124251   3.182   1.414   3.795  0.1223  0.2036  0.3509
 4205SOL    HW224252   3.109   1.535   3.840 -1.2515  1.7787 -1.4321
 4206SOL     OW24253   2.177   1.348   4.756 -0.4577  0.4301  0.2646
 4206SOL    HW124254   2.198   1.268   4.709  0.7057  1.3420 -0.7621
 4206SOL    HW224255   2.158   1.315   4.844  1.4344 -0.6713  0.2529
 4207SOL     OW24256   4.428   2.115   5.090  0.1907  0.1739  0.3826
 4207SOL    HW124257   4.341   2.108   5.050  0.2695  1.3829  0.0108
 4207SOL    HW224258   4.400   2.130   5.180  0.2522  2.1771  0.0591
 4208SOL     OW24259   1.330   1.064   9.393  0.2134 -0.5145  0.3407
 4208SOL    HW124260   1.409   1.033   9.349  0.4441  1.0014 -0.3029
 4208SOL    HW224261   1.372   1.078   9.478  1.5781 -1.4311 -0.1785
 4209SOL     OW24262   1.829   1.112   5.853  0.8381  0.0800 -0.0301
 4209SOL    HW124263   1.879   1.188   5.881  0.5195  0.6571 -1.0405
 4209SOL    HW224264   1.883   1.041   5.887 -0.0566  0.8815  3.1437
 4210SOL     OW24265   4.289   1.366   5.556  0.4899 -0.6447 -0.4116
 4210SOL    HW124266   4.253   1.352   5.643  2.8808 -0.0147  0.6798
 4210SOL    HW224267   4.324   1.280   5.532  0.9146 -0.3945 -0.6962
 4211SOL     OW24268   3.245   3.184   5.061 -0.9273 -0.2426  0.1421
 4211SOL    HW124269   3.233   3.251   4.993 -0.8577 -0.8395 -0.4617
 4211SOL    HW224270   3.235   3.099   5.019  0.2742  0.3912 -1.4194
 4212SOL     OW24271   1.277   4.005  16.006  0.2786 -0.3018 -0.2135
 4212SOL    HW124272   1.329   4.017  15.927 -1.6462 -0.9058 -1.5644
 4212SOL    HW224273   1.302   3.917  16.034 -0.2433 -0.1820  0.6339
 4213SOL     OW24274   2.465   3.988   3.965 -0.2047 -0.4496 -0.1399
 4213SOL    HW124275   2.434   3.911   3.917  0.1732 -2.7189  3.2957
 4213SOL    HW224276   2.529   3.949   4.024 -0.3229 -1.8414 -0.9269
 4214SOL     OW24277   1.638   0.280   4.390  0.6772 -0.4343  0.2706
 4214SOL    HW124278   1.697   0.309   4.320  0.3299  0.9039  0.5214
 4214SOL    HW224279   1.597   0.359   4.425 -1.1668 -0.8544 -0.9566
 4215SOL     OW24280   4.293   3.093  12.214  0.0603 -0.0246 -0.8219
 4215SOL    HW124281   4.362   3.158  12.202 -0.2689  0.2098 -1.4285
 4215SOL    HW224282   4.226   3.150  12.175 -0.9837 -1.4774 -1.1699
 4216SOL     OW24283   4.373   1.527   3.064 -0.3689  0.2500 -0.0285
 4216SOL    HW124284   4.467   1.522   3.080  0.1199  2.7193 -1.9534
 4216SOL    HW224285   4.361   1.432   3.064  0.6355  0.1261 -2.4730
 4217SOL     OW24286   2.797   0.319   3.784  0.7341  0.3977  0.4105
 4217SOL    HW124287   2.846   0.376   3.843  0.9810  0.0463  0.5407
 4217SOL    HW224288   2.789   0.239   3.836  0.5368  1.0565  1.4075
 4218SOL     OW24289   1.801   3.656  12.204 -0.4073 -0.1551 -0.1092
 4218SOL    HW124290   1.777   3.566  12.226 -0.5750 -0.0252  0.2412
 4218SOL    HW224291   1.734   3.701  12.256  2.0558 -0.2617  3.1328
 4219SOL     OW24292   0.723   1.900  17.174  0.4141  0.6775  0.1217
 4219SOL    HW124293   0.643   1.914  17.224  0.1184  0.6239 -0.3424
 4219SOL    HW224294   0.735   1.983  17.128  2.0001  0.3976  0.0018
 4220SOL     OW24295   3.657   3.266   8.050 -0.4039 -0.6301 -0.6045
 4220SOL    HW124296   3.729   3.329   8.054 -1.7016  0.6984  2.0851
 4220SOL    HW224297   3.697   3.202   8.108  0.3584  0.6297  0.2677
 4221SOL     OW24298   1.094   3.937   3.992 -0.2590 -1.0465 -0.5277
 4221SOL    HW124299   1.099   3.845   3.967 -0.5561 -1.8262  2.2905
 4221SOL    HW224300   1.163   3.936   4.059 -0.6537  0.0215 -0.1078
 4222SOL     OW24301   3.651   4.412   4.861  0.1416  0.2815  0.0045
 4222SOL    HW124302   3.619   4.502   4.857  1.3188  0.6340 -1.3750
 4222SOL    HW224303   3.576   4.355   4.877  0.1214 -0.3463 -2.4129
 4223SOL     OW24304   4.559   4.188   3.102  0.1259  0.3725 -0.2174
 4223SOL    HW124305   4.536   4.151   3.016 -0.5229  0.5774 -0.1308
 4223SOL    HW224306   4.653   4.169   3.097  0.0613 -0.1481  0.7662
 4224SOL     OW24307   3.576   1.314   6.675 -0.6588  0.0156  1.0770
 4224SOL    HW124308   3.482   1.298   6.666 -0.4325  0.8700 -3.0867
 4224SOL    HW224309   3.596   1.221   6.685 -0.3539 -0.3538 -2.7231
 4225SOL     OW24310   0.414   0.761  11.423  0.3035  0.8422  0.1702
 4225SOL    HW124311   0.350   0.793  11.486  0.3701  0.0170  0.6610
 4225SOL    HW224312   0.493   0.813  11.437  0.5495  0.5093  0.0190
 4226SOL     OW24313   1.937   2.200   8.910 -0.3171  0.4727  0.0454
 4226SOL    HW124314   1.963   2.257   8.838  2.0019 -0.0013  0.5069
 4226SOL    HW224315   1.928   2.270   8.974  1.6534 -0.5755  1.4945
 4227SOL     OW24316   4.420   4.355   6.183  0.8914  0.1014 -0.3008
 4227SOL    HW124317   4.417   4.448   6.159  1.9466  0.3830  0.6604
 4227SOL    HW224318   4.464   4.320   6.105 -2.8763 -2.9828 -1.0262
 4228SOL     OW24319   0.124   3.746  10.069  0.2296 -0.1870  0.6269
 4228SOL    HW124320   0.094   3.766   9.980  1.2571 -0.6547  0.1669
 4228SOL    HW224321   0.219   3.751  10.052  0.0976 -0.3627 -0.1759
 4229SOL     OW24322   2.930   4.620   6.693 -0.3848 -0.3259  0.3725
 4229SOL    HW124323   2.961   4.529   6.692 -2.0867 -0.8985  0.4166
 4229SOL    HW224324   2.996   4.654   6.754  0.2657 -0.0689 -0.4800
 4230SOL     OW24325   1.633   3.007   7.116 -0.5659 -0.4959  1.0163
 4230SOL    HW124326   1.708   3.033   7.170  0.3255 -2.5281  0.7685
 4230SOL    HW224327   1.651   3.051   7.033  1.3152 -1.0258  1.1342
 4231SOL     OW24328   0.986   1.769   2.998 -0.2470  0.6292 -0.2101
 4231SOL    HW124329   0.940   1.853   3.006  0.4893  1.0435 -0.2788
 4231SOL    HW224330   0.920   1.708   3.032 -2.3299  3.7775  1.4185
 4232SOL     OW24331   4.526   4.417  11.649  0.3949  0.1829  0.1674
 4232SOL    HW124332   4.534   4.410  11.553 -2.3722 -1.2315  0.0504
 4232SOL    HW224333   4.616   4.441  11.670  0.3439  0.4489  0.0880
 4233SOL     OW24334   3.469   2.978   2.424  0.5317 -0.3914  0.2852
 4233SOL    HW124335   3.415   3.044   2.381  1.0306 -0.2487 -0.1177
 4233SOL    HW224336   3.446   2.994   2.516 -1.8017 -0.2035 -0.3506
 4234SOL     OW24337   2.318   1.844   2.442 -0.1105  0.3662  0.2349
 4234SOL    HW124338   2.288   1.795   2.366 -3.2832  0.0745  1.6327
 4234SOL    HW224339   2.277   1.793   2.513  0.8632  0.7949  1.1076
 4235SOL     OW24340   4.122   3.761   0.982 -0.5993 -0.2174 -0.1028
 4235SOL    HW124341   4.169   3.679   0.996  0.5552  0.6424  1.0538
 4235SOL    HW224342   4.039   3.740   1.025 -0.5067 -1.1533 -0.3781
 4236SOL     OW24343   1.269   3.758   7.183  0.2562 -0.2415 -0.1706
 4236SOL    HW124344   1.225   3.684   7.143  0.1498  0.4867 -1.3892
 4236SOL    HW224345   1.330   3.711   7.239 -1.8323 -2.3481  0.3435
 4237SOL     OW24346   0.747   1.132   3.535  0.3768  0.0551 -0.0886
 4237SOL    HW124347   0.693   1.054   3.521 -1.1866  1.1510 -0.1700
 4237SOL    HW224348   0.786   1.147   3.448  0.0166  1.1229 -0.0578
 4238SOL     OW24349   2.954   0.785  16.123 -0.3707 -0.2346 -0.2729
 4238SOL    HW124350   3.036   0.745  16.094  0.4824  1.0864  0.3191
 4238SOL    HW224351   2.894   0.734  16.068  0.3487 -0.5516 -0.7700
 4239SOL     OW24352   3.799   3.239   2.595  0.4327  0.4168  0.8569
 4239SOL    HW124353   3.858   3.163   2.595 -0.0136  0.0582 -1.4206
 4239SOL    HW224354   3.823   3.269   2.507  0.5576 -0.4503  0.5971
 4240SOL     OW24355   1.887   1.517   8.366 -0.0180  0.1284 -0.5588
 4240SOL    HW124356   1.947   1.549   8.433 -2.9648 -2.3865  3.3006
 4240SOL    HW224357   1.949   1.465   8.315  0.0890  0.2550 -0.5572
 4241SOL     OW24358   0.124   1.776  15.445  0.2122 -0.5158  0.0013
 4241SOL    HW124359   0.183   1.738  15.510  0.7631 -1.2744 -0.9292
 4241SOL    HW224360   0.078   1.699  15.413  0.7665 -0.1312 -1.7806
 4242SOL     OW24361   0.889   1.179   9.460 -0.2458 -0.0932 -0.9935
 4242SOL    HW124362   0.834   1.134   9.525 -0.1419 -0.2658 -1.0233
 4242SOL    HW224363   0.855   1.268   9.468 -1.4584 -0.5134 -1.4436
 4243SOL     OW24364   0.493   0.784   8.546  0.2050  0.5444  0.2790
 4243SOL    HW124365   0.468   0.758   8.634 -0.0515 -2.1420 -0.5954
 4243SOL    HW224366   0.551   0.712   8.522 -0.7106  0.4749 -1.7170
 4244SOL     OW24367   3.479   4.735   3.665  0.8260 -0.0096 -0.0249
 4244SOL    HW124368   3.507   4.712   3.753  2.5447 -0.1153 -0.5883
 4244SOL    HW224369   3.532   4.671   3.617 -0.9944 -1.8742  0.4954
 4245SOL     OW24370   3.527   4.695  11.284 -0.7567 -1.0106 -0.1858
 4245SOL    HW124371   3.584   4.690  11.207 -1.2562 -0.9423 -0.5532
 4245SOL    HW224372   3.462   4.629  11.261 -0.3867 -0.6891 -2.1438
 4246SOL     OW24373   1.980   1.440   0.053  0.1835 -0.0668 -0.1411
 4246SOL    HW124374   1.957   1.424  17.709 -0.5314 -1.4580  0.2875
 4246SOL    HW224375   1.929   1.520   0.065 -1.3723 -0.8903 -1.3634
 4247SOL     OW24376   3.774   2.969  11.869 -0.0116 -0.3820  0.8545
 4247SOL    HW124377   3.838   3.040  11.879  1.1975 -1.3250 -0.1218
 4247SOL    HW224378   3.816   2.892  11.906  0.8375  0.6767  2.1034
 4248SOL     OW24379   1.920   4.580   8.223  0.1370  0.4594  0.7454
 4248SOL    HW124380   2.001   4.568   8.274 -0.1763  0.5243  1.2553
 4248SOL    HW224381   1.871   4.505   8.254 -1.9883  1.8268  0.6692
 4249SOL     OW24382   3.620   1.537   5.648  0.1084  0.0183 -0.3295
 4249SOL    HW124383   3.651   1.555   5.559  0.0630  1.5628 -0.0344
 4249SOL    HW224384   3.628   1.443   5.663  0.4765 -0.3216 -2.7703
 4250SOL     OW24385   1.960   2.418   6.269 -0.3012 -0.1444  0.1021
 4250SOL    HW124386   2.015   2.364   6.325 -1.0466 -0.5865  0.4067
 4250SOL    HW224387   2.022   2.438   6.199 -0.1701 -1.0606 -0.0453
 4251SOL     OW24388   0.056   1.818  16.252 -0.7657  0.0560  0.2773
 4251SOL    HW124389   4.732   1.856  16.189 -0.5301  0.2591  0.1692
 4251SOL    HW224390   0.132   1.803  16.196 -0.4742  2.1479  0.1120
 4252SOL     OW24391   1.384   2.296   5.790 -0.0893 -0.4525  0.2013
 4252SOL    HW124392   1.428   2.254   5.865 -0.7600 -1.6444 -0.0762
 4252SOL    HW224393   1.308   2.239   5.787 -0.9366  0.7598 -1.1732
 4253SOL     OW24394   3.944   2.475  14.491 -0.6067  0.1906 -0.3583
 4253SOL    HW124395   3.911   2.504  14.576  1.3015  1.0085  0.1133
 4253SOL    HW224396   3.931   2.557  14.442  1.0425  0.8339  0.2725
 4254SOL     OW24397   4.091   1.423  13.897  0.4348  0.3908  0.0405
 4254SOL    HW124398   4.062   1.502  13.943  1.0521  1.0631 -0.7216
 4254SOL    HW224399   4.077   1.356  13.963 -0.8852 -0.0620 -0.6961
 4255SOL     OW24400   2.559   2.021   0.594 -0.6124 -0.0207  0.1679
 4255SOL    HW124401   2.559   1.932   0.630 -1.7569 -0.2767 -0.4581
 4255SOL    HW224402   2.590   2.069   0.671  0.5404 -1.8112  0.8117
 4256SOL     OW24403   0.206   0.156  14.753  0.0999 -0.2741 -0.1193
 4256SOL    HW124404   0.139   0.118  14.697  0.0127  0.2510 -0.3800
 4256SOL    HW224405   0.233   0.229  14.696 -2.7183 -0.0433 -1.1533
 4257SOL     OW24406   3.787   3.758   8.854  0.2798 -0.3430 -0.0433
 4257SOL    HW124407   3.738   3.794   8.780  1.5538  0.5018 -0.4542
 4257SOL    HW224408   3.826   3.838   8.888 -0.5546  0.6773 -1.4871
 4258SOL     OW24409   4.308   1.780   6.595 -0.4734 -0.7821  0.2923
 4258SOL    HW124410   4.304   1.794   6.690  0.8469 -0.1107  0.2419
 4258SOL    HW224411   4.228   1.727   6.584 -0.6435 -0.8087  1.5896
 4259SOL     OW24412   3.512   0.692   5.709  0.0309  0.4296  0.0543
 4259SOL    HW124413   3.483   0.632   5.639 -1.3379  1.7937 -0.5560
 4259SOL    HW224414   3.554   0.617   5.752  0.5730 -0.2200 -1.6020
 4260SOL     OW24415   2.138   1.905   1.989 -0.0729 -0.9562  0.3503
 4260SOL    HW124416   2.054   1.908   1.944  1.3818  1.3165 -2.1830
 4260SOL    HW224417   2.111   1.903   2.081 -1.9143 -0.1645 -0.1776
 4261SOL     OW24418   3.121   1.603  13.064  0.4673 -0.1777 -0.1243
 4261SOL    HW124419   3.129   1.555  13.147  1.9966  1.6063  0.7586
 4261SOL    HW224420   3.145   1.536  13.001  1.4291 -1.2022  1.3291
 4262SOL     OW24421   4.556   2.521  14.282  0.3488  0.0736  0.3516
 4262SOL    HW124422   4.519   2.459  14.344 -0.3601  1.5732  1.4154
 4262SOL    HW224423   4.492   2.590  14.265  2.1327  1.7682  0.4581
 4263SOL     OW24424   4.680   2.628   3.787  0.3440 -0.5574  0.6123
 4263SOL    HW124425   4.609   2.606   3.847 -0.8977  2.9341  0.3800
 4263SOL    HW224426   4.697   2.558   3.723 -1.8137 -0.3457 -0.1919
 4264SOL     OW24427   1.849   2.458   1.533 -0.1307 -0.5346  0.0319
 4264SOL    HW124428   1.944   2.459   1.526  0.0539 -1.4901  2.3557
 4264SOL    HW224429   1.831   2.406   1.455 -0.8553  0.8179 -0.7077
 4265SOL     OW24430   3.255   0.138   8.550  0.1381 -0.2096 -0.1752
 4265SOL    HW124431   3.209   0.214   8.515 -0.8185 -1.6397 -2.0494
 4265SOL    HW224432   3.221   0.143   8.640  0.1671 -1.7212 -0.0788
 4266SOL     OW24433   4.269   2.025   7.586  0.2944  0.2302  0.4014
 4266SOL    HW124434   4.359   2.013   7.616  0.6631  3.6366  0.6367
 4266SOL    HW224435   4.241   2.100   7.639 -0.1412  0.1653  0.2590
 4267SOL     OW24436   4.072   3.006   2.993 -0.1562  0.4015 -0.1644
 4267SOL    HW124437   4.049   3.091   2.954 -1.9726  0.0414  0.1513
 4267SOL    HW224438   4.111   3.034   3.076  0.0888 -1.5400  0.3571
 4268SOL     OW24439   3.988   4.038   6.632  0.4880 -0.2028 -0.3141
 4268SOL    HW124440   3.925   4.054   6.702  0.8361 -3.5113  0.7710
 4268SOL    HW224441   4.074   4.032   6.674 -0.0464  1.0016  0.9280
 4269SOL     OW24442   2.364   1.235   2.295 -0.1009 -0.3039 -0.0462
 4269SOL    HW124443   2.434   1.216   2.357 -1.8999 -0.7456  1.8423
 4269SOL    HW224444   2.304   1.289   2.347  0.1449  1.0285 -1.1419
 4270SOL     OW24445   3.948   4.453   8.003 -0.0020 -0.3711  0.3055
 4270SOL    HW124446   3.893   4.394   8.054 -0.1398 -1.9959 -1.6941
 4270SOL    HW224447   3.912   4.437   7.915  2.2957 -1.4810 -0.4396
 4271SOL     OW24448   2.945   4.516   4.834 -0.5397  0.0025  0.3805
 4271SOL    HW124449   2.953   4.540   4.742  0.8042  1.4639  0.8766
 4271SOL    HW224450   2.870   4.569   4.860 -1.1792  0.2181 -1.9007
 4272SOL     OW24451   2.709   3.513   9.767 -0.7044  0.0912 -0.0045
 4272SOL    HW124452   2.697   3.439   9.708  0.0867  0.9912 -1.2829
 4272SOL    HW224453   2.683   3.476   9.851 -0.7488  1.1126  0.4333
 4273SOL     OW24454   3.060   3.784  15.385 -0.2195 -0.2499  0.2924
 4273SOL    HW124455   2.989   3.776  15.320  0.3788  1.9045 -0.6202
 4273SOL    HW224456   3.005   3.780  15.464  1.3218  0.2735  1.3762
 4274SOL     OW24457   3.121   1.578  16.029  0.3964  0.1491  0.2348
 4274SOL    HW124458   3.102   1.491  16.065  0.4091 -0.6172 -1.5755
 4274SOL    HW224459   3.214   1.566  16.010  0.8526 -1.5499  3.6819
 4275SOL     OW24460   1.912   3.181   1.459 -0.4616  0.2326 -0.1011
 4275SOL    HW124461   1.876   3.165   1.372 -0.2139 -2.7529  0.3421
 4275SOL    HW224462   1.838   3.164   1.517  2.3346 -1.7218  2.8821
 4276SOL     OW24463   3.597   0.949   9.435 -0.3990 -0.0864 -0.8449
 4276SOL    HW124464   3.576   0.914   9.521 -0.4060  2.8415  0.3407
 4276SOL    HW224465   3.528   1.014   9.437 -0.7380 -0.5334  1.2377
 4277SOL     OW24466   4.570   0.638   3.884  0.4835 -0.0721  0.2003
 4277SOL    HW124467   4.543   0.674   3.800 -2.1857  0.1096  1.1581
 4277SOL    HW224468   4.610   0.711   3.931  0.5827  1.1204 -1.7355
 4278SOL     OW24469   3.681   3.890  11.734 -0.6971 -0.2497 -0.0468
 4278SOL    HW124470   3.613   3.956  11.740  0.1650  0.4937  1.3076
 4278SOL    HW224471   3.632   3.808  11.737 -1.3416  0.1798  0.7264
 4279SOL     OW24472   2.361   2.896   6.624 -0.1591  0.1629  0.0736
 4279SOL    HW124473   2.266   2.895   6.630 -0.1552 -0.3175  0.0398
 4279SOL    HW224474   2.371   2.923   6.533 -2.3892 -2.6498 -1.0069
 4280SOL     OW24475   0.335   2.557  12.340  0.0186  0.2320 -0.2449
 4280SOL    HW124476   0.274   2.501  12.292  2.4205 -2.6105  0.0264
 4280SOL    HW224477   0.396   2.583  12.271 -0.7250  2.2106 -0.1692
 4281SOL     OW24478   1.072   3.766   8.447  0.0205 -0.0845 -0.3054
 4281SOL    HW124479   1.054   3.855   8.478 -0.4164  0.3232 -1.7082
 4281SOL    HW224480   0.986   3.727   8.438 -0.1980  0.2559  0.3592
 4282SOL     OW24481   3.857   1.411   3.500  0.2654  0.1535  0.8960
 4282SOL    HW124482   3.765   1.402   3.528  0.1152  0.0781  0.3811
 4282SOL    HW224483   3.851   1.507   3.492 -0.0250  0.1776  1.3973
 4283SOL     OW24484   4.069   4.376   5.555  0.2201 -0.1412 -0.2817
 4283SOL    HW124485   3.996   4.344   5.608  0.4831 -0.9379 -0.3963
 4283SOL    HW224486   4.099   4.450   5.608  0.2184  0.2528 -0.8333
 4284SOL     OW24487   0.242   1.712   4.746  0.5477  0.3105 -0.0094
 4284SOL    HW124488   0.180   1.754   4.687  0.9208 -0.2884 -0.8329
 4284SOL    HW224489   0.205   1.731   4.832 -0.2527 -2.4375  0.2480
 4285SOL     OW24490   2.281   0.401   9.814 -0.4904  0.5485 -0.6340
 4285SOL    HW124491   2.223   0.455   9.867  0.4601 -0.0142  0.9735
 4285SOL    HW224492   2.249   0.314   9.839 -0.1631  0.7250  0.3822
 4286SOL     OW24493   1.810   3.087   5.224  0.7711 -0.1176  0.0290
 4286SOL    HW124494   1.763   3.011   5.257  1.7076 -0.8126 -0.2580
 4286SOL    HW224495   1.868   3.123   5.292  0.5518 -0.7057  0.5247
 4287SOL     OW24496   0.674   0.330   1.965  0.2386  0.4007  0.1219
 4287SOL    HW124497   0.753   0.345   1.912 -1.3071  0.6706 -2.1406
 4287SOL    HW224498   0.698   0.272   2.036  0.2352  0.5895  0.2773
 4288SOL     OW24499   1.054   3.724  13.473  0.3069  0.1313  0.0283
 4288SOL    HW124500   0.983   3.721  13.409  0.6749  0.7628 -0.3996
 4288SOL    HW224501   1.020   3.658  13.534 -1.3431  0.5290 -0.4511
 4289SOL     OW24502   1.947   0.989   4.887 -0.2173 -0.3936 -0.0505
 4289SOL    HW124503   1.859   1.027   4.884  0.1278  0.2455 -2.1427
 4289SOL    HW224504   1.930   0.931   4.961  1.5432  1.4743  1.8404
 4290SOL     OW24505   0.583   4.591   1.273  0.1219 -0.9406 -0.1072
 4290SOL    HW124506   0.580   4.634   1.359  0.6481 -1.2287  0.0514
 4290SOL    HW224507   0.496   4.550   1.279 -0.3403  0.2127  1.2991
 4291SOL     OW24508   2.805   0.499  15.250  0.0647  0.3532  0.0436
 4291SOL    HW124509   2.761   0.568  15.201  1.4226  1.0001 -0.2712
 4291SOL    HW224510   2.891   0.537  15.266  0.8007 -0.4457 -2.0131
 4292SOL     OW24511   0.471   3.028   3.053  0.1581  0.0895  0.2359
 4292SOL    HW124512   0.392   3.023   2.999 -0.2074  0.1362  0.7634
 4292SOL    HW224513   0.517   3.099   3.007  1.7748  0.9565  3.1985
 4293SOL     OW24514   2.408   4.565   7.930 -0.2829 -0.0569 -0.3532
 4293SOL    HW124515   2.433   4.647   7.888 -1.0909 -1.2033 -3.0863
 4293SOL    HW224516   2.314   4.564   7.914 -0.4184 -2.1409  0.6244
 4294SOL     OW24517   0.599   1.121   6.260  0.0013  0.6550  0.2585
 4294SOL    HW124518   0.677   1.172   6.238  0.3079 -0.1590 -0.5666
 4294SOL    HW224519   0.618   1.029   6.240  1.1432  1.3174 -1.7024
 4295SOL     OW24520   2.467   1.734   4.855 -0.2694 -0.1822 -0.2739
 4295SOL    HW124521   2.376   1.766   4.855  0.1191  0.9023 -1.0629
 4295SOL    HW224522   2.448   1.659   4.798  0.1645 -0.3469 -0.2041
 4296SOL     OW24523   2.662   3.280   3.572  0.1539  0.8405 -0.1658
 4296SOL    HW124524   2.644   3.187   3.581  1.2432  0.6042 -0.4537
 4296SOL    HW224525   2.636   3.294   3.481 -3.0619  1.6877  0.8832
 4297SOL     OW24526   4.315   2.102   8.739 -0.1639 -0.8523  0.4256
 4297SOL    HW124527   4.358   2.030   8.692  0.6570 -0.6632  0.8957
 4297SOL    HW224528   4.380   2.171   8.729 -1.2549 -0.1254 -1.5759
 4298SOL     OW24529   4.318   0.179   1.727  0.4437  0.0531 -0.3019
 4298SOL    HW124530   4.386   0.241   1.754 -1.0186  1.0332  1.1981
 4298SOL    HW224531   4.234   0.216   1.753  0.3814  0.7130 -1.4327
 4299SOL     OW24532   0.173   3.558  14.868 -0.2204  0.4051  0.3531
 4299SOL    HW124533   0.100   3.582  14.924  1.2049  3.3336  0.9485
 4299SOL    HW224534   0.217   3.642  14.855  0.0730  0.0394 -1.0347
 4300SOL     OW24535   3.484   0.827   9.734  0.1766  0.2219 -0.7539
 4300SOL    HW124536   3.443   0.911   9.756  1.8050  1.0841 -1.0465
 4300SOL    HW224537   3.429   0.780   9.797  2.1168  0.5507  1.1667
 4301SOL     OW24538   3.825   0.484   5.217  0.6901 -0.3290  0.0328
 4301SOL    HW124539   3.734   0.497   5.192  0.8058  0.7657  0.2187
 4301SOL    HW224540   3.814   0.438   5.300 -5.8324  1.2043  0.0000
 4302SOL     OW24541   0.512   0.041   8.341 -0.2260 -0.0262 -0.4897
 4302SOL    HW124542   0.565   4.713   8.386  0.4344  0.6754 -0.2551
 4302SOL    HW224543   0.486   0.106   8.406  1.1570  0.3497 -0.3294
 4303SOL     OW24544   3.047   4.679   1.887 -0.0271  0.3570 -0.2562
 4303SOL    HW124545   3.066   4.590   1.858 -1.2751  0.6069 -1.8527
 4303SOL    HW224546   3.103   4.722   1.823  1.0272  0.9917  1.0877
 4304SOL     OW24547   2.243   1.544  10.931  0.3423  0.0023 -0.2316
 4304SOL    HW124548   2.326   1.529  10.976  0.3618  0.6597 -0.0471
 4304SOL    HW224549   2.273   1.593  10.855  2.5270  0.1069  0.6965
 4305SOL     OW24550   0.155   4.237   1.852 -0.5302  0.2837 -0.0093
 4305SOL    HW124551   0.146   4.201   1.940  1.8479 -0.0315  0.0908
 4305SOL    HW224552   0.088   4.306   1.859  0.8125  1.5255  0.6954
 4306SOL     OW24553   3.642   1.105   8.587  0.1427 -0.1763  0.0706
 4306SOL    HW124554   3.609   1.157   8.514  0.5236  0.2513  0.2087
 4306SOL    HW224555   3.561   1.082   8.633 -0.0137  0.5704  0.1655
 4307SOL     OW24556   1.634   1.372   6.430 -0.3474 -0.2817 -0.0306
 4307SOL    HW124557   1.639   1.467   6.420 -0.4370 -0.2447  0.2715
 4307SOL    HW224558   1.713   1.349   6.382 -0.3536  1.4486 -0.8579
 4308SOL     OW24559   1.969   0.113   5.299 -0.5032  0.2913  0.2815
 4308SOL    HW124560   2.059   0.122   5.330 -0.3189  1.2019 -0.5046
 4308SOL    HW224561   1.917   0.089   5.375  0.4931 -1.3997  0.4258
 4309SOL     OW24562   0.719   1.116  11.109 -0.3216  0.4565 -0.0551
 4309SOL    HW124563   0.684   1.108  11.198 -2.8521  1.0576 -0.9878
 4309SOL    HW224564   0.809   1.107  11.139 -1.4771 -1.3472  2.8650
 4310SOL     OW24565   1.349   2.616   7.810  0.3373  0.3362 -0.4107
 4310SOL    HW124566   1.443   2.622   7.792  0.1632  0.7230 -1.1671
 4310SOL    HW224567   1.324   2.685   7.748  0.4935  0.8347  0.0778
 4311SOL     OW24568   0.616   1.093   9.277 -0.2255  0.2721 -0.4105
 4311SOL    HW124569   0.564   1.035   9.222  1.6618 -1.7389 -0.0587
 4311SOL    HW224570   0.579   1.083   9.364 -3.0448  2.7379 -1.3411
 4312SOL     OW24571   1.642   3.166  15.972  0.2786 -0.5245 -0.5933
 4312SOL    HW124572   1.693   3.244  15.948 -0.2196 -0.5446 -1.7370
 4312SOL    HW224573   1.579   3.164  15.901  1.1656 -1.3638 -1.3536
 4313SOL     OW24574   3.376   4.576   4.031  0.4280 -0.0245  0.6404
 4313SOL    HW124575   3.460   4.606   3.995 -0.5651  1.7205 -0.2188
 4313SOL    HW224576   3.375   4.489   3.992 -2.2104  0.2316  0.1271
 4314SOL     OW24577   2.221   1.892   6.664 -0.0031  0.5823 -0.1838
 4314SOL    HW124578   2.300   1.881   6.716 -0.0898 -0.4091 -0.2599
 4314SOL    HW224579   2.223   1.803   6.628  1.9468  0.7734 -0.5325
 4315SOL     OW24580   0.460   0.486  12.725  0.3532 -0.1824 -0.6070
 4315SOL    HW124581   0.410   0.449  12.797 -1.5137 -1.0902 -2.3731
 4315SOL    HW224582   0.549   0.500  12.758  0.3298 -0.5999 -0.3701
 4316SOL     OW24583   1.040   4.379  16.049  0.1481  0.3312 -0.0831
 4316SOL    HW124584   0.944   4.380  16.050  0.1761 -1.8959  3.5463
 4316SOL    HW224585   1.059   4.294  16.088 -0.2133  0.2675 -0.0382
 4317SOL     OW24586   3.503   1.203   7.741 -0.6410 -0.3285 -0.0203
 4317SOL    HW124587   3.545   1.264   7.802 -0.3331 -3.4057  2.8332
 4317SOL    HW224588   3.420   1.186   7.786  0.0906  1.9135  2.1702
 4318SOL     OW24589   0.839   0.438   9.141 -0.2800 -0.3137  0.4088
 4318SOL    HW124590   0.799   0.525   9.146  0.1964 -0.1557  1.6029
 4318SOL    HW224591   0.769   0.386   9.180 -0.8503  0.5374  0.5211
 4319SOL     OW24592   2.956   0.905  10.758 -0.3044 -0.5643  0.2813
 4319SOL    HW124593   2.918   0.917  10.672 -0.1364  0.0188  0.2865
 4319SOL    HW224594   2.882   0.924  10.815 -1.5709 -1.3955 -1.1194
 4320SOL     OW24595   1.750   2.173   9.217 -0.2799  0.3091 -0.1304
 4320SOL    HW124596   1.781   2.228   9.144  0.6192 -0.4039 -0.2864
 4320SOL    HW224597   1.725   2.238   9.282 -0.3467  0.4660 -0.3109
 4321SOL     OW24598   2.430   4.629   2.384 -0.5734 -0.1586  1.2078
 4321SOL    HW124599   2.444   4.684   2.307 -2.7553  0.6894  1.4055
 4321SOL    HW224600   2.484   4.551   2.371  0.7113  0.6257  1.8174
 4322SOL     OW24601   4.010   0.556   5.948  0.2861  0.0678 -0.3569
 4322SOL    HW124602   4.070   0.589   6.014 -0.3903  1.0472 -0.2318
 4322SOL    HW224603   4.045   0.596   5.869  1.5933  0.4422  0.4153
 4323SOL     OW24604   0.287   3.045   3.364 -0.1442  0.4380 -0.0426
 4323SOL    HW124605   0.238   2.971   3.327 -0.3156  0.0917  0.8793
 4323SOL    HW224606   0.217   3.091   3.410  1.4078  2.3082  0.4572
 4324SOL     OW24607   1.334   0.770   5.322 -0.0465 -0.2025  0.1938
 4324SOL    HW124608   1.268   0.775   5.391  0.9272 -1.7086  1.2399
 4324SOL    HW224609   1.300   0.836   5.263  0.7279 -0.0649 -0.0996
 4325SOL     OW24610   2.927   2.211  12.493  0.5084  0.1753 -0.3828
 4325SOL    HW124611   2.832   2.200  12.490  0.6446 -0.6262 -1.9684
 4325SOL    HW224612   2.922   2.299  12.530  1.5004 -0.2308  0.6817
 4326SOL     OW24613   1.285   0.762  12.239 -0.3048 -0.0494 -0.7316
 4326SOL    HW124614   1.255   0.834  12.184 -0.6192 -1.3506 -2.2555
 4326SOL    HW224615   1.232   0.776  12.318 -0.5779 -1.6758 -0.6388
 4327SOL     OW24616   4.715   2.064   1.741 -0.0929 -0.4331 -0.3925
 4327SOL    HW124617   4.719   2.158   1.725  0.1524 -0.2106  0.9250
 4327SOL    HW224618   0.069   2.040   1.757  0.6078  2.0533 -0.5857
 4328SOL     OW24619   4.517   3.146   1.260  0.2240  0.2503  0.3474
 4328SOL    HW124620   4.611   3.145   1.282  0.5461  0.5527 -1.0481
 4328SOL    HW224621   4.531   3.185   1.174 -1.0356  0.9146  0.4516
 4329SOL     OW24622   0.062   0.676   5.801 -0.2409 -0.2983  0.4652
 4329SOL    HW124623   0.104   0.593   5.821  1.2072 -0.2203 -2.3307
 4329SOL    HW224624   4.711   0.654   5.771  0.2492 -1.6581  0.0500
 4330SOL     OW24625   0.320   1.276   6.978  0.6743 -0.1538  0.1515
 4330SOL    HW124626   0.263   1.350   6.997  0.2757 -0.1933 -0.8800
 4330SOL    HW224627   0.343   1.238   7.063 -1.0170 -0.4558  0.4772
 4331SOL     OW24628   0.887   2.417  11.523 -0.1389  0.0138  0.5566
 4331SOL    HW124629   0.900   2.509  11.503  3.6941 -0.4678  0.7414
 4331SOL    HW224630   0.976   2.382  11.525 -0.3177 -0.5838 -2.1766
 4332SOL     OW24631   4.055   3.924   8.011  0.2457  0.5507 -0.7965
 4332SOL    HW124632   4.099   3.980   7.947  0.8845  1.7217  0.6551
 4332SOL    HW224633   3.973   3.973   8.014  1.1345  2.0453 -0.7765
 4333SOL     OW24634   2.123   1.955   7.019 -0.6445  0.4203 -0.0715
 4333SOL    HW124635   2.084   1.960   7.107  0.8481  2.9441  0.4794
 4333SOL    HW224636   2.134   1.861   7.006 -3.2755  0.3452 -1.5656
 4334SOL     OW24637   3.498   1.623   2.558  0.0777 -0.4806 -0.2311
 4334SOL    HW124638   3.524   1.593   2.471  0.0017  2.5867 -1.2942
 4334SOL    HW224639   3.502   1.541   2.607  1.0621 -0.4205 -0.2075
 4335SOL     OW24640   2.633   4.510   6.787  0.5840 -0.2395  0.3202
 4335SOL    HW124641   2.647   4.416   6.782 -0.4658 -0.4964  2.4555
 4335SOL    HW224642   2.709   4.555   6.751  2.2515 -2.6506  0.8416
 4336SOL     OW24643   1.881   3.969   2.647  0.6626  0.2235 -0.2887
 4336SOL    HW124644   1.974   3.955   2.667  1.3835  2.0433 -2.3875
 4336SOL    HW224645   1.886   4.048   2.593  0.9065  0.0740 -0.4853
 4337SOL     OW24646   3.652   2.457   4.033  0.3763 -0.2903 -0.1764
 4337SOL    HW124647   3.731   2.449   3.979 -0.1564 -0.8949 -0.8584
 4337SOL    HW224648   3.646   2.552   4.042  2.0642 -0.1303 -0.6566
 4338SOL     OW24649   2.554   4.083  13.746 -0.0879 -0.0976  0.4756
 4338SOL    HW124650   2.507   3.999  13.748 -1.3148  0.5321 -1.8472
 4338SOL    HW224651   2.512   4.123  13.670 -2.0272 -0.2275  1.4697
 4339SOL     OW24652   4.061   2.834   4.372  0.3438  0.2963  0.1678
 4339SOL    HW124653   4.079   2.854   4.464 -0.6123 -1.3239  0.7104
 4339SOL    HW224654   4.003   2.908   4.354 -0.2755  0.4089  2.5358
 4340SOL     OW24655   3.847   2.182   2.069  0.5737 -0.1700  0.2906
 4340SOL    HW124656   3.763   2.135   2.061  0.0318  1.0319 -1.1038
 4340SOL    HW224657   3.910   2.131   2.018  1.8416  0.7056  0.9823
 4341SOL     OW24658   1.666   4.260   7.588  0.6401  0.3959 -0.1890
 4341SOL    HW124659   1.651   4.222   7.675  0.0505  0.9448 -0.0524
 4341SOL    HW224660   1.760   4.240   7.583  1.2097  3.0730 -0.2861
 4342SOL     OW24661   4.214   3.346   9.003  0.1810 -0.3417 -0.9311
 4342SOL    HW124662   4.220   3.331   8.909  0.5081 -0.9150 -0.8187
 4342SOL    HW224663   4.151   3.417   9.017  0.1986 -0.8699  1.9440
 4343SOL     OW24664   2.181   2.177   4.243  0.1283 -0.5208 -0.5670
 4343SOL    HW124665   2.235   2.195   4.165 -1.8399  2.5062 -1.2126
 4343SOL    HW224666   2.188   2.082   4.256 -1.5970 -0.5279  0.2555
 4344SOL     OW24667   0.432   2.178  14.775  0.4788 -0.1327 -0.0083
 4344SOL    HW124668   0.442   2.262  14.731 -2.4525  1.0517  1.5050
 4344SOL    HW224669   0.470   2.193  14.862  3.0741  1.3893 -1.4382
 4345SOL     OW24670   3.359   3.978  11.253  0.0634 -0.0910 -0.4854
 4345SOL    HW124671   3.300   3.972  11.178 -0.4974 -0.2402 -0.0320
 4345SOL    HW224672   3.352   3.888  11.284  2.8889  0.3942  1.5470
 4346SOL     OW24673   2.898   2.273  16.092 -0.4636 -0.5750  0.2677
 4346SOL    HW124674   2.866   2.249  16.179 -1.2436  0.7271  0.3326
 4346SOL    HW224675   2.816   2.315  16.067 -0.5521 -0.1563  1.2842
 4347SOL     OW24676   4.223   0.061  14.847 -0.7403  0.0595 -0.4532
 4347SOL    HW124677   4.290   0.107  14.795  0.2046 -1.1276 -0.2819
 4347SOL    HW224678   4.257   4.709  14.837  0.4535  0.2465  1.8941
 4348SOL     OW24679   1.749   2.672   5.632 -0.6214 -0.1440 -0.4890
 4348SOL    HW124680   1.701   2.591   5.619 -0.6337 -0.0415 -1.0970
 4348SOL    HW224681   1.825   2.643   5.682 -0.0337  0.5812 -0.9597
 4349SOL     OW24682   0.931   2.537  13.268  0.4855  0.6030 -0.1364
 4349SOL    HW124683   0.838   2.517  13.262  1.0001 -1.4445 -1.6142
 4349SOL    HW224684   0.950   2.602  13.200  0.6995  0.7905  0.1073
 4350SOL     OW24685   3.884   1.601   7.960 -0.0951 -0.0029 -0.6294
 4350SOL    HW124686   3.857   1.573   7.873 -2.4546 -0.5124  0.2626
 4350SOL    HW224687   3.867   1.695   7.956  0.9290  0.2487  0.7644
 4351SOL     OW24688   4.442   1.555  15.328  0.3629 -0.0902 -0.2347
 4351SOL    HW124689   4.355   1.581  15.358  0.4125  0.2396 -0.3850
 4351SOL    HW224690   4.448   1.459  15.324  3.6026  0.1553 -0.7226
 4352SOL     OW24691   0.578   3.814   0.857 -0.4008  0.8679  0.4325
 4352SOL    HW124692   0.526   3.814   0.777  0.9954 -0.4558 -0.4852
 4352SOL    HW224693   0.507   3.798   0.918  1.0349 -0.7830  1.6750
 4353SOL     OW24694   0.939   4.499   2.293  0.5370 -0.2110  0.2698
 4353SOL    HW124695   0.875   4.567   2.276  0.3709  0.1916  2.5684
 4353SOL    HW224696   1.001   4.533   2.227  1.3095  0.6046  1.4156
 4354SOL     OW24697   3.280   1.044   3.072 -0.4089  0.0422  0.2326
 4354SOL    HW124698   3.295   1.077   3.161 -0.2076 -0.5989  0.4341
 4354SOL    HW224699   3.296   0.950   3.084  0.7423  0.1059 -0.8215
 4355SOL     OW24700   2.236   3.220   5.772 -0.6950 -0.1985 -0.1881
 4355SOL    HW124701   2.286   3.152   5.818 -1.2835  0.5775  1.5970
 4355SOL    HW224702   2.182   3.261   5.840  2.2761  3.1541  0.1471
 4356SOL     OW24703   1.462   1.583   7.062 -0.2873 -0.1041 -0.2035
 4356SOL    HW124704   1.484   1.545   6.977  2.4007  1.7661 -0.3465
 4356SOL    HW224705   1.449   1.671   7.028 -2.0914 -0.5420 -0.6524
 4357SOL     OW24706   3.578   0.404   4.528  0.2203  0.5020  0.1285
 4357SOL    HW124707   3.577   0.423   4.434  0.1015  1.7661  0.3818
 4357SOL    HW224708   3.650   0.341   4.532 -0.2075  0.0090  0.0870
 4358SOL     OW24709   0.024   0.432   7.365 -0.5230  0.0046 -0.0830
 4358SOL    HW124710   0.058   0.396   7.447  0.4166 -3.8671 -2.1476
 4358SOL    HW224711   4.734   0.352   7.319  1.9915  0.2445 -1.9845
 4359SOL     OW24712   3.785   2.943  15.765  0.1304 -0.0236 -0.2853
 4359SOL    HW124713   3.710   2.889  15.740  1.5822 -2.0073 -0.4239
 4359SOL    HW224714   3.860   2.887  15.744 -0.0453 -0.9950  1.6410
 4360SOL     OW24715   2.091   0.745   8.049 -0.8007 -0.6559  0.3418
 4360SOL    HW124716   2.145   0.676   8.089 -0.2468 -0.8681 -0.7544
 4360SOL    HW224717   2.015   0.753   8.106 -0.6635 -1.2063  0.6040
 4361SOL     OW24718   2.055   2.612   6.668  0.0128 -0.2889 -0.6668
 4361SOL    HW124719   2.126   2.554   6.693 -0.6201 -0.9928 -0.5134
 4361SOL    HW224720   1.981   2.552   6.657 -2.9041  3.0229  0.8929
 4362SOL     OW24721   1.282   2.435   9.703  0.0037  0.2255  0.0326
 4362SOL    HW124722   1.303   2.434   9.797  1.2935  1.9443 -0.2523
 4362SOL    HW224723   1.186   2.441   9.704 -0.0511 -0.5535 -0.6725
 4363SOL     OW24724   0.022   1.990   7.146 -0.1289 -0.6461  0.1459
 4363SOL    HW124725   0.040   1.909   7.194  0.0028 -0.8689 -0.2815
 4363SOL    HW224726   0.095   1.991   7.085 -1.5555  3.1958 -1.5048
 4364SOL     OW24727   2.441   1.523  13.882  0.4331 -0.9607 -0.1800
 4364SOL    HW124728   2.458   1.614  13.906 -0.8882 -0.8205  0.2115
 4364SOL    HW224729   2.467   1.524  13.790  4.6524 -0.3401  1.0169
 4365SOL     OW24730   1.243   0.781   2.677 -0.1736 -0.1753  0.3062
 4365SOL    HW124731   1.166   0.769   2.621 -0.2400 -0.6182  0.4944
 4365SOL    HW224732   1.313   0.751   2.619 -1.1055 -0.5033 -0.6602
 4366SOL     OW24733   0.626   2.703   5.518 -0.6810  0.3700 -0.2932
 4366SOL    HW124734   0.664   2.761   5.452  1.1801  0.9215  1.2736
 4366SOL    HW224735   0.635   2.766   5.589  1.4498  0.7253 -0.8853
 4367SOL     OW24736   3.059   4.152   7.823 -0.5350 -0.1277  0.1705
 4367SOL    HW124737   3.002   4.131   7.897  0.5494 -2.1601  0.4615
 4367SOL    HW224738   3.136   4.114   7.866 -2.6995 -3.5584  0.9952
 4368SOL     OW24739   2.701   4.116  12.619 -0.5990 -0.3625  0.1952
 4368SOL    HW124740   2.739   4.130  12.532  0.7054 -2.3820  0.4321
 4368SOL    HW224741   2.699   4.208  12.642  0.2962 -0.1464 -0.5994
 4369SOL     OW24742   2.722   4.632  14.458 -0.8638 -0.0977 -0.3737
 4369SOL    HW124743   2.795   4.583  14.421  0.6357 -0.2075  2.6841
 4369SOL    HW224744   2.754   4.681  14.534  0.4318  1.1123 -1.7048
 4370SOL     OW24745   4.350   0.201   3.439  0.1427  0.1994  0.0717
 4370SOL    HW124746   4.341   0.144   3.363  0.2157 -2.7225  2.2550
 4370SOL    HW224747   4.356   0.290   3.404 -0.7855  1.4481  3.0978
 4371SOL     OW24748   0.166   0.814   4.324 -0.5490  0.3600 -0.2675
 4371SOL    HW124749   0.197   0.827   4.414 -1.8707 -0.2500  0.2715
 4371SOL    HW224750   0.236   0.768   4.277 -1.0465 -0.2349 -0.4244
 4372SOL     OW24751   1.347   4.717  10.431 -0.4313  0.0892  0.4552
 4372SOL    HW124752   1.344   0.075  10.428 -1.5834  0.0387  0.2538
 4372SOL    HW224753   1.357   4.702  10.525  1.6592  0.3118  0.2690
 4373SOL     OW24754   1.994   1.328   8.147 -0.0635 -0.5176 -0.1486
 4373SOL    HW124755   1.958   1.351   8.061 -2.8621 -2.7110  0.4572
 4373SOL    HW224756   1.943   1.249   8.163  0.7134 -0.7738  1.0378
 4374SOL     OW24757   3.897   3.606   7.798  0.1847 -0.3610 -0.1903
 4374SOL    HW124758   3.902   3.544   7.726 -1.0088  0.8147 -1.2838
 4374SOL    HW224759   3.890   3.685   7.745 -1.8090  0.3317  1.1148
 4375SOL     OW24760   1.016   1.079  11.968 -0.1004  0.0285 -0.7102
 4375SOL    HW124761   1.030   1.055  11.876 -1.3854 -1.3047 -0.5607
 4375SOL    HW224762   1.049   1.168  11.956  1.0654  0.1155  3.2967
 4376SOL     OW24763   4.113   3.684  10.155  0.3449  0.2805 -0.3108
 4376SOL    HW124764   4.105   3.589  10.165 -0.4649  0.4886  1.1146
 4376SOL    HW224765   4.031   3.713  10.197  0.3960  1.1024 -0.7771
 4377SOL     OW24766   1.211   0.037   8.412  0.5762  0.4978  0.6868
 4377SOL    HW124767   1.224   0.112   8.470  1.7730  0.5555  0.3358
 4377SOL    HW224768   1.294   4.728   8.421  0.6245  0.5494  0.5000
 4378SOL     OW24769   2.945   3.396   0.335  0.5254 -0.6057 -0.1626
 4378SOL    HW124770   2.940   3.329   0.403  0.8266  0.2170  0.6778
 4378SOL    HW224771   2.967   3.346   0.256  0.6461 -0.4140 -0.2510
 4379SOL     OW24772   3.939   4.229   5.275  0.3573 -0.4548 -0.3796
 4379SOL    HW124773   3.905   4.142   5.254  0.4536 -0.6235  0.1496
 4379SOL    HW224774   3.923   4.227   5.369 -1.1099 -1.4400 -0.6562
 4380SOL     OW24775   0.108   2.860   2.241  0.1018  0.3891  0.0453
 4380SOL    HW124776   0.117   2.799   2.167 -0.6976  0.5300 -0.1730
 4380SOL    HW224777   0.151   2.818   2.316 -0.3463  2.0706  1.2275
 4381SOL     OW24778   4.116   0.325   6.052 -0.3603 -0.5293  0.1025
 4381SOL    HW124779   4.165   0.272   5.989  0.7290  0.9196 -0.2520
 4381SOL    HW224780   4.061   0.375   5.992  0.2080  0.2535  0.2385
 4382SOL     OW24781   3.772   3.352   2.345 -0.2837  0.3152 -0.0157
 4382SOL    HW124782   3.832   3.421   2.374  0.8259 -0.5821 -0.1291
 4382SOL    HW224783   3.687   3.390   2.365 -0.2623  0.1420  0.4072
 4383SOL     OW24784   1.585   1.529   3.139 -0.5029  0.2968 -0.1943
 4383SOL    HW124785   1.629   1.451   3.174  0.6049  0.5539 -1.0299
 4383SOL    HW224786   1.493   1.504   3.134 -0.4401 -0.6576  3.6199
 4384SOL     OW24787   2.800   4.389  11.648 -0.0337  0.4531 -0.0382
 4384SOL    HW124788   2.890   4.360  11.630 -0.6147 -2.7755  2.1259
 4384SOL    HW224789   2.782   4.467  11.597  0.2877  0.3139 -0.3610
 4385SOL     OW24790   0.086   2.158  15.243 -0.0003 -0.3325 -0.0171
 4385SOL    HW124791   0.074   2.135  15.151  1.2538 -1.2199  0.0391
 4385SOL    HW224792   0.029   2.234  15.243  0.9627  0.3932  0.1824
 4386SOL     OW24793   2.724   0.476  12.092 -0.2263  0.1200 -0.0134
 4386SOL    HW124794   2.647   0.525  12.062  0.3993  0.1852 -1.5153
 4386SOL    HW224795   2.690   0.390  12.116  1.4926 -0.6889 -0.4996
 4387SOL     OW24796   2.126   3.120   1.737  0.5050 -0.9029 -0.3302
 4387SOL    HW124797   2.162   3.131   1.649 -1.7019 -1.5883 -1.3201
 4387SOL    HW224798   2.072   3.041   1.726 -6.2267  3.4003  1.6037
 4388SOL     OW24799   3.922   4.386   7.408  0.1906  0.4161 -0.1699
 4388SOL    HW124800   3.836   4.411   7.374 -0.1975  0.5120  0.8872
 4388SOL    HW224801   3.905   4.292   7.401 -0.3019  0.5168 -0.3268
 4389SOL     OW24802   4.157   0.788   0.981  0.6379  0.0177  0.0713
 4389SOL    HW124803   4.202   0.872   0.989  0.1572  0.4331 -1.5947
 4389SOL    HW224804   4.142   0.790   0.887 -1.0299 -1.0447  0.3115
 4390SOL     OW24805   3.990   1.528   2.836 -0.4106 -0.3284  0.3083
 4390SOL    HW124806   3.980   1.622   2.823  1.7776 -0.4146 -1.9692
 4390SOL    HW224807   3.942   1.522   2.919 -0.0536  0.3549  0.5678
 4391SOL     OW24808   2.773   1.432   4.197  0.1625  0.2608 -0.0877
 4391SOL    HW124809   2.708   1.491   4.159  0.7830  0.5246 -0.7443
 4391SOL    HW224810   2.849   1.486   4.176 -0.2864  0.3992 -1.4154
 4392SOL     OW24811   1.927   0.727   6.739  0.2961  0.1903 -0.2123
 4392SOL    HW124812   1.850   0.726   6.795  1.5188  1.8378  1.4841
 4392SOL    HW224813   1.895   0.762   6.655 -0.4350 -1.1450 -0.4914
 4393SOL     OW24814   2.094   2.143   6.503 -0.1874 -0.5867 -0.0074
 4393SOL    HW124815   2.146   2.217   6.534 -0.9492  0.0842 -0.3289
 4393SOL    HW224816   2.075   2.102   6.588  2.1569  2.0166  1.7735
 4394SOL     OW24817   2.766   3.165   1.748  0.4355 -0.7882 -0.0517
 4394SOL    HW124818   2.768   3.179   1.653  0.1944 -0.5392 -0.0188
 4394SOL    HW224819   2.727   3.244   1.785  0.9273 -0.0473 -1.1176
 4395SOL     OW24820   4.014   0.383   5.677  0.1220  0.0219 -0.1384
 4395SOL    HW124821   3.963   0.352   5.752 -1.7504  1.2662 -0.8979
 4395SOL    HW224822   4.004   0.478   5.688 -0.3624 -0.0579  0.1195
 4396SOL     OW24823   1.079   0.322   5.909  0.6738  0.3226 -0.5918
 4396SOL    HW124824   1.139   0.266   5.959 -0.2910  1.0666  1.3680
 4396SOL    HW224825   1.012   0.257   5.888  1.0892  0.3615 -2.0356
 4397SOL     OW24826   1.088   1.313   0.837 -0.2801 -0.0876  0.1988
 4397SOL    HW124827   1.131   1.309   0.752 -0.4851  0.3457  0.0749
 4397SOL    HW224828   1.080   1.408   0.837 -1.1288 -0.1618  0.5933
 4398SOL     OW24829   4.083   2.465   2.801 -0.3182  0.3362 -0.7878
 4398SOL    HW124830   4.009   2.452   2.742 -0.6263 -1.6892  0.0265
 4398SOL    HW224831   4.097   2.377   2.835  2.3376  0.9256 -0.4063
 4399SOL     OW24832   4.044   1.017   5.518 -0.2477 -0.5227 -0.2768
 4399SOL    HW124833   4.117   1.053   5.467  0.2019 -0.7101  0.2392
 4399SOL    HW224834   4.089   0.996   5.600 -0.4715  0.4472  0.0947
 4400SOL     OW24835   4.711   1.469   8.825 -0.5050  0.4234 -1.1331
 4400SOL    HW124836   0.024   1.536   8.778 -1.4237  1.6865 -0.3059
 4400SOL    HW224837   0.036   1.399   8.846 -0.4384  1.0800  0.8299
 4401SOL     OW24838   4.736   3.872   6.501 -0.4069  0.0396 -0.2992
 4401SOL    HW124839   0.028   3.937   6.565 -0.5193 -2.5303  2.3401
 4401SOL    HW224840   0.066   3.872   6.433  0.8846 -0.4760  0.9960
 4402SOL     OW24841   1.721   3.860  16.520 -0.0116  0.9559  0.2922
 4402SOL    HW124842   1.701   3.909  16.600 -0.8970  2.1147 -0.6333
 4402SOL    HW224843   1.788   3.920  16.487 -0.4416 -0.0408 -2.3943
 4403SOL     OW24844   0.253   0.143   5.748 -0.3245 -0.1510  0.7345
 4403SOL    HW124845   0.253   0.147   5.652  0.2771 -0.2127  0.7295
 4403SOL    HW224846   0.174   0.195   5.762 -0.2545  0.5760 -1.5948
 4404SOL     OW24847   2.492   2.330   1.447 -0.2593 -0.3915  0.0946
 4404SOL    HW124848   2.461   2.420   1.458 -3.9418 -1.6177 -0.2018
 4404SOL    HW224849   2.409   2.283   1.441  0.7258 -2.2055  0.9211
 4405SOL     OW24850   2.341   0.271  13.736 -0.3249 -0.1415 -0.6068
 4405SOL    HW124851   2.261   0.252  13.686 -0.2979 -0.5615 -0.4894
 4405SOL    HW224852   2.415   0.229  13.694  0.5441  0.9500 -0.1622
 4406SOL     OW24853   4.077   4.466   5.283 -0.2347 -0.0756 -0.6456
 4406SOL    HW124854   4.025   4.387   5.268  0.6224 -1.3317  3.2140
 4406SOL    HW224855   4.103   4.452   5.374  0.6647 -1.7297 -1.1580
 4407SOL     OW24856   2.276   0.226   4.828 -0.3983 -0.7490 -0.5059
 4407SOL    HW124857   2.270   0.263   4.916  1.3716  0.3257 -0.8411
 4407SOL    HW224858   2.345   0.161   4.843 -1.2852 -1.5610  0.0658
 4408SOL     OW24859   1.909   0.482   5.759 -0.1394 -0.1351  0.1934
 4408SOL    HW124860   1.868   0.452   5.678  1.7366  1.7479 -1.4361
 4408SOL    HW224861   1.851   0.550   5.796 -0.6249  0.0591 -0.9290
 4409SOL     OW24862   1.430   1.994   4.331  0.2649  0.1483 -0.1975
 4409SOL    HW124863   1.466   2.054   4.265 -1.4934  0.6652 -0.7001
 4409SOL    HW224864   1.375   1.939   4.274  0.2409  0.9415 -0.9528
 4410SOL     OW24865   1.059   0.857   1.953 -0.1215 -0.0788  0.0449
 4410SOL    HW124866   0.995   0.794   1.988 -1.3893  0.8371 -0.6430
 4410SOL    HW224867   1.058   0.921   2.024  0.8217  0.2781 -0.2654
 4411SOL     OW24868   0.272   0.468  15.114 -0.2891  0.7323  0.4329
 4411SOL    HW124869   0.218   0.452  15.037  0.6656 -0.9751  0.1383
 4411SOL    HW224870   0.353   0.420  15.098  0.8948  2.2055  1.9504
 4412SOL     OW24871   3.138   4.692   2.720  0.1256  0.2398  0.5173
 4412SOL    HW124872   3.233   4.693   2.710  0.0849  1.3673  0.3056
 4412SOL    HW224873   3.126   4.607   2.676  0.1060  0.0200  0.9464
 4413SOL     OW24874   4.649   1.580   1.630  0.0344  1.0486 -0.3320
 4413SOL    HW124875   4.721   1.634   1.663 -2.0870  1.7284  3.1878
 4413SOL    HW224876   4.692   1.496   1.646  2.0075  2.2183  0.6137
 4414SOL     OW24877   3.126   4.220   6.946 -0.0818  0.1743  0.3493
 4414SOL    HW124878   3.111   4.245   7.037  0.2199  0.9677  0.1827
 4414SOL    HW224879   3.148   4.130   6.970 -1.9924 -0.4797 -0.3914
 4415SOL     OW24880   0.725   0.634  11.342  0.0376 -0.4293 -0.3071
 4415SOL    HW124881   0.747   0.675  11.259  2.3426 -2.9843 -0.9715
 4415SOL    HW224882   0.787   0.674  11.402 -1.7062 -0.3448  1.4462
 4416SOL     OW24883   1.961   3.070   2.150  0.3667  0.6552 -0.6784
 4416SOL    HW124884   2.014   2.992   2.165  0.3975  1.1310  1.7753
 4416SOL    HW224885   2.024   3.111   2.091  0.1164 -0.5583 -1.7874
 4417SOL     OW24886   0.991   2.125   7.333  0.3981 -0.2057 -0.1822
 4417SOL    HW124887   0.926   2.118   7.402  0.9453 -0.6398  0.2923
 4417SOL    HW224888   1.054   2.068   7.377 -0.5039 -1.5602 -0.6781
 4418SOL     OW24889   2.875   0.187   6.952 -0.5766 -0.2995  0.5081
 4418SOL    HW124890   2.791   0.194   6.907  1.9335  1.1954 -3.9136
 4418SOL    HW224891   2.935   0.205   6.879  0.5815  1.9484  2.0115
 4419SOL     OW24892   2.361   2.408   5.625 -0.0764 -0.2495 -0.0165
 4419SOL    HW124893   2.295   2.477   5.613  2.6328  2.6282  1.6706
 4419SOL    HW224894   2.369   2.385   5.532  1.5871  1.0472 -0.1845
 4420SOL     OW24895   3.966   4.683   7.259 -0.1685  0.4912  0.2364
 4420SOL    HW124896   3.922   4.630   7.326 -1.9702  0.9059 -0.6051
 4420SOL    HW224897   3.966   4.618   7.187  0.5389  1.4455 -0.6258
 4421SOL     OW24898   0.231   3.555  16.482 -0.1691 -0.6338  0.2797
 4421SOL    HW124899   0.306   3.613  16.482 -1.5662  1.1567  0.7890
 4421SOL    HW224900   0.269   3.467  16.488 -1.9139 -1.3865  0.2078
 4422SOL     OW24901   1.698   2.856   8.346  0.3002  0.4043  0.0665
 4422SOL    HW124902   1.636   2.926   8.366  1.1101  0.8557  0.9699
 4422SOL    HW224903   1.779   2.905   8.338 -1.2883  2.9939 -0.1207
 4423SOL     OW24904   1.087   0.570  10.616 -0.4224  0.0419  0.2783
 4423SOL    HW124905   1.123   0.620  10.689 -1.4405 -0.0599  0.8558
 4423SOL    HW224906   1.154   0.503  10.622 -1.1377 -0.5258  2.0142
 4424SOL     OW24907   4.467   2.514   5.869 -0.1594 -0.0472  0.3649
 4424SOL    HW124908   4.524   2.496   5.795  0.4688  0.7662  0.6519
 4424SOL    HW224909   4.384   2.492   5.826 -0.4555 -0.6641  1.2552
 4425SOL     OW24910   4.454   2.727   7.860  0.1383 -0.1498 -0.6893
 4425SOL    HW124911   4.410   2.810   7.877 -0.0615 -0.7612  1.8695
 4425SOL    HW224912   4.499   2.705   7.942  2.5582  1.2443 -1.6622
 4426SOL     OW24913   2.761   2.861   7.823 -0.7843 -0.0012  0.1857
 4426SOL    HW124914   2.818   2.839   7.749  0.2084 -2.0512  1.5550
 4426SOL    HW224915   2.780   2.786   7.879  1.8052  1.3745  1.1594
 4427SOL     OW24916   2.145   4.152  12.158 -0.4363 -0.3930  0.0767
 4427SOL    HW124917   2.187   4.155  12.072  1.4633  3.0771  1.0888
 4427SOL    HW224918   2.089   4.229  12.166  0.0907  0.2546 -2.3900
 4428SOL     OW24919   1.622   4.152  15.761  0.4670 -0.6890  0.5634
 4428SOL    HW124920   1.529   4.129  15.759  0.4171 -0.3215 -1.7609
 4428SOL    HW224921   1.669   4.077  15.798  1.1778 -0.2420  0.5588
 4429SOL     OW24922   3.844   2.634   4.811 -0.3587  0.0828 -0.5749
 4429SOL    HW124923   3.846   2.673   4.898 -0.4749  0.1680 -0.6085
 4429SOL    HW224924   3.851   2.541   4.833 -0.6790 -0.0587 -1.0470
 4430SOL     OW24925   4.522   4.292   2.372 -0.8083 -0.1046 -0.0008
 4430SOL    HW124926   4.478   4.240   2.439  0.1131  0.6331  1.1763
 4430SOL    HW224927   4.502   4.256   2.285  0.8087  2.1181 -1.3110
 4431SOL     OW24928   3.947   0.503  16.560  0.3140 -0.4569 -0.2309
 4431SOL    HW124929   3.949   0.584  16.611  3.3143 -0.9178  0.3914
 4431SOL    HW224930   3.883   0.446  16.602  0.3293 -0.6064 -0.4074
 4432SOL     OW24931   3.601   4.091  16.402  0.0665  0.0325 -0.2792
 4432SOL    HW124932   3.545   4.015  16.384 -0.0675 -0.4797  2.2165
 4432SOL    HW224933   3.669   4.045  16.451  0.7531  0.3174 -0.9802
 4433SOL     OW24934   1.569   2.123   4.793  0.0843  0.0261  0.2501
 4433SOL    HW124935   1.586   2.215   4.815 -0.8769  0.1253  0.5937
 4433SOL    HW224936   1.520   2.141   4.713  0.4890  1.3402  0.2947
 4434SOL     OW24937   1.753   4.200   4.569 -0.6689  0.1020  0.0937
 4434SOL    HW124938   1.708   4.188   4.652  0.3019  0.3124  0.6518
 4434SOL    HW224939   1.830   4.250   4.597  0.0023 -0.8470 -0.0290
 4435SOL     OW24940   3.342   4.203  15.615 -0.3321 -0.0224  0.0664
 4435SOL    HW124941   3.271   4.217  15.679 -1.3412  1.5861 -1.3997
 4435SOL    HW224942   3.345   4.283  15.562 -1.7097  0.0887  0.1416
 4436SOL     OW24943   2.808   3.910   9.646 -0.2258  0.0143  0.0405
 4436SOL    HW124944   2.727   3.921   9.697 -0.5701  2.6774 -1.0611
 4436SOL    HW224945   2.803   3.985   9.586 -1.6315 -0.5463 -0.5282
 4437SOL     OW24946   0.249   2.950   2.919 -0.5666  0.3020  0.0179
 4437SOL    HW124947   0.193   2.878   2.947  0.9185 -0.0629  2.1093
 4437SOL    HW224948   0.206   2.982   2.840 -0.1418  0.5601 -0.1104
 4438SOL     OW24949   4.500   0.674  14.925  0.3665 -0.7866 -0.0488
 4438SOL    HW124950   4.503   0.686  14.830  1.7653  0.1993  0.1163
 4438SOL    HW224951   4.588   0.704  14.948  0.6876 -0.9757 -1.0273
 4439SOL     OW24952   0.796   1.142   7.972 -0.1116 -0.4114 -0.6092
 4439SOL    HW124953   0.755   1.212   7.921  0.6663  0.0334 -0.6264
 4439SOL    HW224954   0.801   1.072   7.907 -0.4151 -0.5941 -0.4328
 4440SOL     OW24955   4.467   2.844   3.662  0.9395  0.5698  0.2453
 4440SOL    HW124956   4.440   2.839   3.571  0.3677  2.0470  0.3421
 4440SOL    HW224957   4.559   2.819   3.668  0.7254 -0.1091  0.7801
 4441SOL     OW24958   3.195   2.810   7.158 -0.1016 -0.3505  0.1686
 4441SOL    HW124959   3.258   2.882   7.154  2.0164 -2.1714  0.9363
 4441SOL    HW224960   3.173   2.794   7.066 -1.3804  1.4088  0.1720
 4442SOL     OW24961   0.253   3.086   9.201  0.5682  0.1946 -0.4359
 4442SOL    HW124962   0.241   3.024   9.273  1.6479  0.3912 -0.0935
 4442SOL    HW224963   0.179   3.145   9.219  0.7196 -0.5874  2.8459
 4443SOL     OW24964   3.825   0.182   7.964  0.3633  0.5940  0.4922
 4443SOL    HW124965   3.747   0.127   7.969  0.7411 -0.3163 -3.6420
 4443SOL    HW224966   3.881   0.143   8.031  0.5324 -1.8437 -1.0507
 4444SOL     OW24967   4.237   3.547   2.933  0.3115  0.5087 -0.5559
 4444SOL    HW124968   4.324   3.571   2.963  0.6627  1.7148 -2.5677
 4444SOL    HW224969   4.189   3.629   2.944  0.4941  0.3990  1.1682
 4445SOL     OW24970   1.395   4.713   9.046  0.5635  0.1048 -0.6828
 4445SOL    HW124971   1.381   4.735   8.954 -1.7914 -1.5082 -0.6978
 4445SOL    HW224972   1.383   0.056   9.098 -1.2834  0.7201 -2.0196
 4446SOL     OW24973   3.279   1.352   4.458 -0.1696 -0.2411  0.6129
 4446SOL    HW124974   3.306   1.312   4.376  0.5767 -0.2745  0.8755
 4446SOL    HW224975   3.300   1.281   4.519 -0.2997 -0.4903  0.3699
 4447SOL     OW24976   1.559   0.966  15.590  0.3625  0.6802  0.1541
 4447SOL    HW124977   1.637   0.911  15.584 -0.5470 -0.6206  0.3220
 4447SOL    HW224978   1.561   1.007  15.676  1.3947 -0.8968  0.8970
 4448SOL     OW24979   1.319   2.921   2.938  0.1909  0.6731  0.3047
 4448SOL    HW124980   1.315   3.005   2.985  1.6698 -0.2908  2.1301
 4448SOL    HW224981   1.324   2.860   3.012  1.1171 -1.0085 -1.1569
 4449SOL     OW24982   4.574   3.349   3.218 -0.2686 -0.1091 -0.2838
 4449SOL    HW124983   4.483   3.345   3.247 -0.2101  0.0460 -0.0857
 4449SOL    HW224984   4.573   3.418   3.151  0.7023 -1.1110 -1.3439
 4450SOL     OW24985   3.676   2.391   5.350  1.1896  0.3647 -0.2750
 4450SOL    HW124986   3.686   2.339   5.271 -1.5123  2.4531 -1.9932
 4450SOL    HW224987   3.751   2.347   5.391  2.0185  1.7523 -0.2842
 4451SOL     OW24988   1.611   0.330   2.135 -0.8026  0.3781 -0.6619
 4451SOL    HW124989   1.585   0.249   2.179  2.8454  0.1182  1.0711
 4451SOL    HW224990   1.594   0.389   2.208  0.9119 -2.0386  1.7240
 4452SOL     OW24991   1.097   4.513   3.313  0.2362 -0.4758 -0.0360
 4452SOL    HW124992   1.190   4.493   3.302  0.6880  0.4651  1.9593
 4452SOL    HW224993   1.064   4.470   3.392  1.1973 -0.9698  0.0960
 4453SOL     OW24994   1.920   2.428   9.039 -0.4882 -0.2537 -0.2991
 4453SOL    HW124995   1.845   2.488   9.035 -0.4784 -0.1060  1.8523
 4453SOL    HW224996   1.991   2.491   9.051 -1.6791  0.9725  0.3166
 4454SOL     OW24997   1.301   1.177  10.006 -0.4200 -0.5971  0.1981
 4454SOL    HW124998   1.317   1.118  10.080 -0.6094 -0.2001  0.5562
 4454SOL    HW224999   1.207   1.183  10.021 -0.4972  1.0480 -1.0452
 4455SOL     OW25000   3.842   0.180   7.386  0.2403  0.2104  0.2247
 4455SOL    HW125001   3.920   0.226   7.417  0.0765 -0.3195  1.4391
 4455SOL    HW225002   3.881   0.109   7.336 -0.2768 -0.5217  0.8580
 4456SOL     OW25003   2.483   0.946   8.832  0.2960 -0.1134  0.5444
 4456SOL    HW125004   2.489   1.042   8.825  0.9062 -0.1344  0.7914
 4456SOL    HW225005   2.539   0.912   8.762 -0.4903  0.7210 -0.4965
 4457SOL     OW25006   1.450   1.053  12.847 -0.0837  0.5636  0.1501
 4457SOL    HW125007   1.441   1.017  12.759 -0.0266  1.7200 -0.3226
 4457SOL    HW225008   1.534   1.012  12.868 -0.5263 -0.0732  0.6800
 4458SOL     OW25009   3.749   2.665   9.409 -0.0301 -0.4640  0.0992
 4458SOL    HW125010   3.739   2.756   9.436 -1.1627 -0.3437 -0.7160
 4458SOL    HW225011   3.681   2.622   9.461  0.7071 -2.0590 -0.2500
 4459SOL     OW25012   3.486   1.443   7.578 -0.3505  0.1321 -0.2243
 4459SOL    HW125013   3.436   1.447   7.497  0.5440  0.8002 -0.7475
 4459SOL    HW225014   3.499   1.348   7.580  1.9552  0.4501  0.9993
 4460SOL     OW25015   4.375   1.022   2.747 -0.2982 -0.3662  0.1567
 4460SOL    HW125016   4.326   0.955   2.700  1.2233 -0.2117 -1.6540
 4460SOL    HW225017   4.338   1.099   2.703  0.5109 -0.9570 -1.5515
 4461SOL     OW25018   0.566   4.225   7.067  0.2070 -0.0043 -0.4466
 4461SOL    HW125019   0.607   4.142   7.045  0.1452 -0.6131  1.7233
 4461SOL    HW225020   0.630   4.257   7.130  0.3217 -1.5250  0.2061
 4462SOL     OW25021   1.593   0.818  13.413 -0.1933  0.4592  0.1024
 4462SOL    HW125022   1.567   0.869  13.337 -1.3697  0.8969  0.7926
 4462SOL    HW225023   1.511   0.793  13.456  0.9800 -0.4836  1.8269
 4463SOL     OW25024   0.572   4.495   7.844 -0.6337  0.5801  0.0478
 4463SOL    HW125025   0.573   4.568   7.782  1.5055 -1.3829 -2.2155
 4463SOL    HW225026   0.624   4.526   7.917 -2.1893  2.3825  0.3855
 4464SOL     OW25027   3.186   1.603   4.007 -0.1083 -0.1085  0.2604
 4464SOL    HW125028   3.224   1.684   3.972  1.6023 -0.8263  0.4576
 4464SOL    HW225029   3.171   1.624   4.099 -1.0525 -0.8180  0.2565
 4465SOL     OW25030   0.981   0.195   1.965  0.1646 -0.1712  0.5186
 4465SOL    HW125031   1.044   0.209   2.036 -0.9679  1.2188  1.2359
 4465SOL    HW225032   0.983   0.276   1.914 -0.4580 -1.2104 -1.1626
 4466SOL     OW25033   2.471   2.438   8.144 -0.0652 -0.6322 -0.1641
 4466SOL    HW125034   2.481   2.532   8.129 -2.0947 -0.3695  0.1924
 4466SOL    HW225035   2.381   2.420   8.116  0.3340 -1.9678 -0.5822
 4467SOL     OW25036   3.159   2.736   9.258 -0.2704  0.1682  0.1487
 4467SOL    HW125037   3.253   2.743   9.243  0.0560  1.2040  2.6036
 4467SOL    HW225038   3.125   2.755   9.171 -0.6104 -1.3285 -0.0471
 4468SOL     OW25039   0.224   3.562   5.697  0.3724  0.2671  0.6155
 4468SOL    HW125040   0.223   3.630   5.629  0.1384  1.4537  1.8120
 4468SOL    HW225041   0.303   3.582   5.748  1.5643 -0.0130 -1.1219
 4469SOL     OW25042   1.196   2.908   7.411 -0.2916  0.4452  0.4101
 4469SOL    HW125043   1.276   2.857   7.398 -0.2331  0.1314  2.0608
 4469SOL    HW225044   1.227   2.988   7.368 -1.6210  0.3371 -0.7268
 4470SOL     OW25045   3.462   0.606   7.430 -0.5321 -0.1856 -0.7065
 4470SOL    HW125046   3.510   0.565   7.502  1.1888  0.2027 -1.6377
 4470SOL    HW225047   3.371   0.602   7.461 -0.3630  0.7929 -0.0616
 4471SOL     OW25048   2.217   0.152   9.101 -0.3348  0.3176  0.2235
 4471SOL    HW125049   2.140   0.101   9.076  1.4018 -2.8105  1.1328
 4471SOL    HW225050   2.239   0.098   9.177 -1.6436 -0.5183  0.0112
 4472SOL     OW25051   1.142   0.142   5.050  0.2766  0.2776  0.4301
 4472SOL    HW125052   1.112   0.197   5.123  0.0298  0.4685  0.1852
 4472SOL    HW225053   1.110   0.054   5.073 -0.5184  0.2559 -0.7369
 4473SOL     OW25054   0.600   1.076   6.832 -0.5842 -0.0388 -0.2646
 4473SOL    HW125055   0.546   1.023   6.890  0.1938 -2.5356 -1.8044
 4473SOL    HW225056   0.663   1.124   6.886 -1.8562  2.9083 -1.3939
 4474SOL     OW25057   3.124   3.908   3.126 -0.2946  0.1618 -0.0122
 4474SOL    HW125058   3.095   3.983   3.178  0.1425  0.5384 -0.3045
 4474SOL    HW225059   3.047   3.854   3.107 -1.4856  1.3156  1.5342
 4475SOL     OW25060   0.786   4.735   1.956  0.3164  0.7775 -0.3269
 4475SOL    HW125061   0.831   4.665   1.908 -0.0304 -0.4584  1.1351
 4475SOL    HW225062   0.858   0.060   1.968 -0.6234  1.8172 -0.0567
 4476SOL     OW25063   4.160   0.710   4.844 -0.1472  0.6033 -0.2511
 4476SOL    HW125064   4.192   0.672   4.926 -0.2046  0.4191 -0.3151
 4476SOL    HW225065   4.076   0.666   4.837 -1.0699  2.1102  1.2072
 4477SOL     OW25066   4.120   3.803   6.506 -0.4034 -0.2664 -0.1825
 4477SOL    HW125067   4.114   3.744   6.581  1.6717  2.2062  1.9066
 4477SOL    HW225068   4.102   3.886   6.549 -3.7212 -2.3318  2.3757
 4478SOL     OW25069   0.235   0.615   7.329 -0.1292 -0.2837 -0.6240
 4478SOL    HW125070   0.306   0.558   7.360  1.7427  1.8540 -0.9757
 4478SOL    HW225071   0.167   0.547   7.327 -1.4308  0.9583  1.1837
 4479SOL     OW25072   4.600   4.438   2.798  0.2866  0.2609 -0.1536
 4479SOL    HW125073   4.647   4.513   2.762  1.1434  0.1458  0.7289
 4479SOL    HW225074   4.533   4.450   2.730 -0.6759 -1.1374  0.5554
 4480SOL     OW25075   4.217   3.224   2.423 -0.2832  0.4560  0.0022
 4480SOL    HW125076   4.207   3.231   2.518 -0.0489  0.3258  0.0341
 4480SOL    HW225077   4.249   3.309   2.392 -2.8230  1.2194 -0.5930
 4481SOL     OW25078   2.456   3.900   9.395  0.5775  0.1222 -0.5312
 4481SOL    HW125079   2.455   3.830   9.328  0.5669 -2.3162  2.0244
 4481SOL    HW225080   2.378   3.875   9.444  0.1771  0.8853 -0.7852
 4482SOL     OW25081   1.552   1.194   0.248  0.1250  0.0419  0.0178
 4482SOL    HW125082   1.643   1.194   0.218 -0.9592  0.3991 -3.2654
 4482SOL    HW225083   1.561   1.150   0.332 -0.2504 -0.4468 -0.2012
 4483SOL     OW25084   2.759   0.504   2.820  0.6765  0.0817 -0.1762
 4483SOL    HW125085   2.740   0.594   2.844  0.7135  0.1354 -0.3443
 4483SOL    HW225086   2.746   0.464   2.906  0.0154 -0.7995 -0.6781
 4484SOL     OW25087   0.759   1.085  12.576  0.0489  0.1730  0.1665
 4484SOL    HW125088   0.790   1.153  12.516  2.7519  0.1362  1.5364
 4484SOL    HW225089   0.683   1.136  12.605  0.5112  0.6175  0.6080
 4485SOL     OW25090   3.823   3.110   9.186  0.1394  0.0181  0.2003
 4485SOL    HW125091   3.899   3.168   9.178 -0.7377  0.8445 -2.0867
 4485SOL    HW225092   3.755   3.165   9.147 -1.6299 -3.7939 -2.1331
 4486SOL     OW25093   4.277   0.171   5.404  0.2440 -0.1031  0.0107
 4486SOL    HW125094   4.371   0.186   5.400  0.3314  0.8456  5.1873
 4486SOL    HW225095   4.250   0.258   5.435  1.3711  0.5645 -0.8893
 4487SOL     OW25096   1.798   2.541   2.206 -0.4924  0.1939 -0.1186
 4487SOL    HW125097   1.879   2.570   2.164 -1.3137 -0.2293 -1.9993
 4487SOL    HW225098   1.761   2.625   2.232 -0.3026  0.9398 -2.3046
 4488SOL     OW25099   2.156   3.327   3.302 -0.9052 -0.6450 -0.0523
 4488SOL    HW125100   2.171   3.235   3.323 -0.4105 -0.7031 -0.6531
 4488SOL    HW225101   2.172   3.341   3.209  2.1367  1.9970  0.8674
 4489SOL     OW25102   0.755   0.950   0.694 -0.0684 -0.3377 -0.0990
 4489SOL    HW125103   0.714   0.940   0.779 -1.4386  0.5410 -0.6637
 4489SOL    HW225104   0.832   1.000   0.719 -0.5313 -1.4235  3.4005
 4490SOL     OW25105   3.576   1.197   5.681  0.0977 -0.2775  0.5939
 4490SOL    HW125106   3.659   1.153   5.663 -0.7690 -1.2347 -1.1046
 4490SOL    HW225107   3.538   1.142   5.749  0.3755 -0.0458  0.9341
 4491SOL     OW25108   0.412   4.453   3.709 -0.5272 -0.1827 -0.3466
 4491SOL    HW125109   0.363   4.377   3.676 -0.7547  0.8449 -2.3528
 4491SOL    HW225110   0.449   4.414   3.789 -0.9017 -1.1770 -0.6484
 4492SOL     OW25111   0.455   1.126   5.783  0.3148  0.2744  0.5545
 4492SOL    HW125112   0.520   1.117   5.853  2.7731 -1.3707 -1.8847
 4492SOL    HW225113   0.511   1.166   5.716  0.7059  0.2781  0.8802
 4493SOL     OW25114   3.285   0.595  14.073 -0.5127 -0.4510  0.0889
 4493SOL    HW125115   3.228   0.672  14.074  0.7860  0.5079 -0.8517
 4493SOL    HW225116   3.262   0.568  13.985 -1.0219 -1.1774  0.4407
 4494SOL     OW25117   0.343   0.522   3.987  0.1257 -0.1282  0.5011
 4494SOL    HW125118   0.317   0.460   4.055 -0.9850 -0.1815  0.0323
 4494SOL    HW225119   0.284   0.502   3.914  0.0791 -4.2416  1.6903
 4495SOL     OW25120   0.751   4.143   7.875 -0.3511  0.3166  0.3644
 4495SOL    HW125121   0.711   4.193   7.946  1.9499  2.4593  0.1586
 4495SOL    HW225122   0.842   4.134   7.905  0.3148  0.6105 -1.5688
 4496SOL     OW25123   4.103   4.699   3.009  0.5457 -0.2778  0.1744
 4496SOL    HW125124   4.017   4.686   3.048  0.9807  1.4943  1.7383
 4496SOL    HW225125   4.161   4.707   3.085  0.6608 -0.2777  0.0869
 4497SOL     OW25126   2.723   1.496   2.481 -0.1539  0.2405  0.2733
 4497SOL    HW125127   2.694   1.495   2.390 -0.9921 -2.8364  0.5529
 4497SOL    HW225128   2.658   1.558   2.513 -0.6667  0.3286 -0.9380
 4498SOL     OW25129   4.246   4.540   8.005  0.7362  0.2653  0.3652
 4498SOL    HW125130   4.198   4.458   7.991 -2.2442  1.8947  1.1539
 4498SOL    HW225131   4.210   4.600   7.939 -0.0940  1.3260  1.7944
 4499SOL     OW25132   4.102   3.693  12.048 -0.1599 -0.6003  0.2281
 4499SOL    HW125133   4.188   3.733  12.042 -0.4369  0.3445  2.7892
 4499SOL    HW225134   4.064   3.710  11.961  0.1079 -2.0049 -0.1744
 4500SOL     OW25135   2.086   1.050   9.423 -0.5032  0.4879  0.2814
 4500SOL    HW125136   2.005   1.100   9.422 -0.4136  0.6534  1.0273
 4500SOL    HW225137   2.068   0.963   9.387 -0.9444  0.4611  0.5640
 4501SOL     OW25138   3.815   0.170   8.419 -0.0456  0.3601 -0.4285
 4501SOL    HW125139   3.760   0.116   8.361 -0.6778 -0.2168  0.7192
 4501SOL    HW225140   3.905   0.139   8.409  0.1465  0.2395  1.7511
 4502SOL     OW25141   3.679   4.411   8.373  0.0433 -0.1832  0.1915
 4502SOL    HW125142   3.637   4.389   8.456  0.5114  1.0663  0.7634
 4502SOL    HW225143   3.769   4.423   8.405  0.0598  0.0824  0.0490
 4503SOL     OW25144   1.010   2.910   3.359 -0.0030 -0.2528 -0.0861
 4503SOL    HW125145   0.950   2.864   3.299  1.0087 -1.6823  0.0127
 4503SOL    HW225146   0.950   2.954   3.418  1.9362  0.0584  1.6339
 4504SOL     OW25147   2.974   2.208   6.343 -0.5838  0.1462  0.4738
 4504SOL    HW125148   3.009   2.296   6.330 -0.3392 -0.2695 -1.5865
 4504SOL    HW225149   3.024   2.153   6.283 -0.6624  0.2769  0.2901
 4505SOL     OW25150   2.183   2.969   5.250 -0.3287 -0.1931 -0.2281
 4505SOL    HW125151   2.122   2.900   5.225  0.1416 -0.7961  0.3067
 4505SOL    HW225152   2.119   3.034   5.278  0.7247  0.9844 -0.5111
 4506SOL     OW25153   0.552   1.227  12.619 -0.2291  0.4679  0.8208
 4506SOL    HW125154   0.507   1.302  12.658 -1.9911  0.1170 -0.5232
 4506SOL    HW225155   0.480   1.166  12.605  0.8290 -0.6821  0.3489
 4507SOL     OW25156   1.504   1.308   2.494  1.3938  0.4423  0.3964
 4507SOL    HW125157   1.525   1.362   2.569  0.4994 -0.1134  1.0503
 4507SOL    HW225158   1.595   1.285   2.472  0.5493 -2.3205 -0.2591
 4508SOL     OW25159   1.164   0.212   9.310  0.1576 -0.2613 -0.0045
 4508SOL    HW125160   1.094   0.162   9.353  0.9237 -0.0812  1.4822
 4508SOL    HW225161   1.110   0.274   9.261  0.0087 -0.2313  0.1977
 4509SOL     OW25162   0.824   1.192   7.088  0.5267  0.1096  0.0665
 4509SOL    HW125163   0.819   1.287   7.086  0.7815  0.1217  0.0270
 4509SOL    HW225164   0.917   1.174   7.102  0.5170  1.0299  1.3314
 4510SOL     OW25165   0.264   4.251  10.516  0.0828  0.2525 -0.3195
 4510SOL    HW125166   0.184   4.235  10.566  1.2105  0.6892  1.6612
 4510SOL    HW225167   0.326   4.230  10.586  0.8723  0.1963 -1.0345
 4511SOL     OW25168   1.890   3.228   7.905  0.0005  0.2773 -0.0242
 4511SOL    HW125169   1.963   3.234   7.843  1.4597 -3.2290  1.3806
 4511SOL    HW225170   1.831   3.163   7.866 -3.3697  3.9088 -0.9482
 4512SOL     OW25171   3.793   2.636   7.179 -0.1239  0.5540  0.8104
 4512SOL    HW125172   3.823   2.644   7.270 -0.1447  1.0663  0.7758
 4512SOL    HW225173   3.825   2.548   7.158  0.4200  0.9037  0.1612
 4513SOL     OW25174   4.104   4.190   7.714 -0.3050 -0.3576 -0.3630
 4513SOL    HW125175   4.157   4.139   7.775 -0.2505  1.9467  1.5338
 4513SOL    HW225176   4.012   4.167   7.731  0.1051 -1.5527  0.2283
 4514SOL     OW25177   2.655   4.205   8.738  0.7782 -0.0167  1.0123
 4514SOL    HW125178   2.671   4.115   8.766  0.9280  0.5642  2.7591
 4514SOL    HW225179   2.605   4.198   8.656  0.4998 -1.7738  1.3159
 4515SOL     OW25180   4.669   1.367   9.186 -0.3667 -0.4046  0.0294
 4515SOL    HW125181   4.619   1.305   9.132  0.2128  0.2384 -1.2479
 4515SOL    HW225182   4.650   1.337   9.275 -1.3520 -0.5025 -0.2056
 4516SOL     OW25183   1.804   0.898   2.809  0.2905  0.1593 -0.8585
 4516SOL    HW125184   1.714   0.868   2.824  0.9679 -0.9862  0.8485
 4516SOL    HW225185   1.797   0.983   2.765  0.7170  0.6612  0.0517
 4517SOL     OW25186   2.268   1.362  14.646 -0.7802 -0.4892 -0.5658
 4517SOL    HW125187   2.186   1.356  14.597 -2.3089 -1.3396  2.1116
 4517SOL    HW225188   2.270   1.267  14.661  2.9951 -0.3324  0.0137
 4518SOL     OW25189   2.244   3.784   8.818 -0.1197 -0.1896  0.0300
 4518SOL    HW125190   2.298   3.840   8.874 -1.9970  0.0604  1.5716
 4518SOL    HW225191   2.174   3.847   8.803 -0.3143 -0.3025  0.4643
 4519SOL     OW25192   0.463   4.356   2.891 -0.6215  0.2709  0.6759
 4519SOL    HW125193   0.418   4.433   2.925 -1.0014  0.2270  0.2600
 4519SOL    HW225194   0.414   4.335   2.812 -1.2645  0.5362  0.9988
 4520SOL     OW25195   4.257   0.598   3.859 -0.0974  0.6352  0.2475
 4520SOL    HW125196   4.309   0.636   3.930  1.3534 -0.0191 -0.4581
 4520SOL    HW225197   4.303   0.514   3.853 -2.4113 -0.7261  1.6369
 4521SOL     OW25198   2.799   1.772   2.846 -0.0560 -0.4175 -0.2409
 4521SOL    HW125199   2.845   1.729   2.918  0.2063 -0.6910 -0.5723
 4521SOL    HW225200   2.843   1.730   2.772 -1.9059 -0.9587 -1.0237
 4522SOL     OW25201   1.708   1.118   4.914  0.0292 -0.1405 -0.0936
 4522SOL    HW125202   1.665   1.127   5.000  0.3150  2.1306 -0.1835
 4522SOL    HW225203   1.636   1.153   4.862 -0.7545  0.8565  1.6429
 4523SOL     OW25204   1.671   2.122   3.034 -0.0540 -0.2103  0.7182
 4523SOL    HW125205   1.593   2.147   2.986 -0.5633 -1.4749  0.8624
 4523SOL    HW225206   1.682   2.206   3.079 -1.1165  0.1050  0.3860
 4524SOL     OW25207   4.507   2.847   9.800  0.2154  0.1825  0.7462
 4524SOL    HW125208   4.418   2.850   9.835 -0.4384 -1.9353 -0.7028
 4524SOL    HW225209   4.497   2.819   9.709 -0.6843  0.0252  0.8948
 4525SOL     OW25210   3.727   0.218   1.796  0.2467 -0.1242  0.0404
 4525SOL    HW125211   3.687   0.303   1.815 -0.3357  0.0103 -1.8276
 4525SOL    HW225212   3.784   0.226   1.873 -1.5470 -0.7253  1.4338
 4526SOL     OW25213   3.591   2.802   3.000 -0.0115  0.2238  0.0566
 4526SOL    HW125214   3.577   2.868   3.067 -1.2581  0.8343 -0.8118
 4526SOL    HW225215   3.601   2.859   2.923  0.8818  0.6922  0.5101
 4527SOL     OW25216   3.346   1.098   0.853  0.2875 -0.9433 -0.8134
 4527SOL    HW125217   3.368   1.015   0.896 -0.5281  0.3450  2.0959
 4527SOL    HW225218   3.268   1.074   0.803  0.1201 -1.6145 -0.2278
 4528SOL     OW25219   4.039   3.461  17.284  0.4525 -0.0989 -0.1051
 4528SOL    HW125220   3.956   3.426  17.317  0.4703 -0.8191 -0.8359
 4528SOL    HW225221   4.096   3.397  17.326 -0.0243 -0.9008 -0.6790
 4529SOL     OW25222   2.592   0.861   7.767 -0.1196 -0.2760 -0.0527
 4529SOL    HW125223   2.609   0.785   7.822  0.0766 -1.1781 -1.3546
 4529SOL    HW225224   2.544   0.919   7.826  1.0769 -0.6783  1.2967
 4530SOL     OW25225   4.195   3.325  14.836  0.2111  0.0560  0.0664
 4530SOL    HW125226   4.256   3.269  14.790  0.4588  0.5807 -0.2431
 4530SOL    HW225227   4.162   3.377  14.762  2.1788 -0.8182 -1.4059
 4531SOL     OW25228   3.523   4.424   7.043  0.3219  0.6967 -0.2375
 4531SOL    HW125229   3.539   4.513   7.015 -2.4527  0.7767 -1.4818
 4531SOL    HW225230   3.482   4.381   6.968 -0.9019  1.0107  0.2524
 4532SOL     OW25231   3.677   4.004   8.277 -0.0477 -0.6887  0.3525
 4532SOL    HW125232   3.702   3.933   8.336  1.5338 -0.3468  0.0917
 4532SOL    HW225233   3.626   4.050   8.344  0.2112  1.1600 -0.7012
 4533SOL     OW25234   2.257   3.889   5.841 -0.5856  0.3933  0.8244
 4533SOL    HW125235   2.317   3.846   5.901 -1.0398  0.6247  1.4342
 4533SOL    HW225236   2.309   3.967   5.821  2.3873 -1.6807  0.4554
 4534SOL     OW25237   1.339   0.554   3.111  0.3036  0.3044 -0.2431
 4534SOL    HW125238   1.276   0.576   3.042 -0.4295 -3.1747 -0.7099
 4534SOL    HW225239   1.404   0.500   3.067  1.8116  0.6465  1.6056
 4535SOL     OW25240   0.313   4.205   3.609 -0.6278 -0.0315  0.4833
 4535SOL    HW125241   0.275   4.195   3.697  0.6288 -1.4055  0.8632
 4535SOL    HW225242   0.243   4.185   3.547 -0.4174 -0.3616  0.3548
 4536SOL     OW25243   3.772   0.459   7.147  0.1368 -0.1401  0.4484
 4536SOL    HW125244   3.685   0.497   7.141  0.0523 -0.1337  1.6937
 4536SOL    HW225245   3.834   0.533   7.141  0.2849 -0.2820  0.2205
 4537SOL     OW25246   2.624   3.525   2.207 -0.4929  0.0744  0.5919
 4537SOL    HW125247   2.566   3.565   2.142  1.6048  2.6957  0.3427
 4537SOL    HW225248   2.561   3.470   2.253  1.2068 -0.8367  1.8335
 4538SOL     OW25249   4.239   1.142  12.781  0.2801  0.0431  0.5100
 4538SOL    HW125250   4.274   1.108  12.864 -2.2219 -1.7759  0.8013
 4538SOL    HW225251   4.289   1.222  12.764  0.0699  0.6265  2.6184
 4539SOL     OW25252   2.198   4.567  14.633  0.0999 -0.3925  0.3247
 4539SOL    HW125253   2.285   4.582  14.669  0.8146 -0.1846 -1.4950
 4539SOL    HW225254   2.217   4.538  14.544 -1.5081  2.3289 -0.8759
 4540SOL     OW25255   3.669   1.966  11.340 -0.5973 -0.5068  0.1057
 4540SOL    HW125256   3.674   1.956  11.245 -0.7322  0.4502 -0.0091
 4540SOL    HW225257   3.695   1.880  11.372 -3.1596 -2.0150 -1.8236
 4541SOL     OW25258   3.452   3.912   5.157  0.0156 -0.1965  0.4350
 4541SOL    HW125259   3.455   3.889   5.064  1.7676  2.2723 -0.1241
 4541SOL    HW225260   3.435   4.006   5.147 -3.6868 -1.2456 -3.1335
 4542SOL     OW25261   0.296   1.641   7.872  0.3217 -0.4277  0.1885
 4542SOL    HW125262   0.277   1.553   7.839  0.9331 -1.5152  2.7150
 4542SOL    HW225263   0.391   1.638   7.885  0.5657  2.0057 -1.0111
 4543SOL     OW25264   0.920   3.522   7.772  0.1391  0.5883 -0.1349
 4543SOL    HW125265   0.963   3.471   7.703  0.4875 -0.6975  1.0516
 4543SOL    HW225266   0.886   3.455   7.830  2.8787 -0.1885  0.5921
 4544SOL     OW25267   0.978   3.965   8.623  0.0450  0.1283 -0.0048
 4544SOL    HW125268   0.887   3.984   8.645  0.2769  0.3498  0.7565
 4544SOL    HW225269   1.020   3.916   8.694  0.2016 -2.0010 -1.5872
 4545SOL     OW25270   3.241   3.791   4.717 -0.2021  0.3971  0.4285
 4545SOL    HW125271   3.310   3.765   4.656  0.0124 -3.0967  2.1322
 4545SOL    HW225272   3.301   3.831   4.780 -0.3311 -1.2196  1.6096
 4546SOL     OW25273   1.196   0.742   1.569 -0.0410 -0.2470 -0.4390
 4546SOL    HW125274   1.151   0.690   1.503 -0.4545  1.5977 -1.6015
 4546SOL    HW225275   1.284   0.748   1.533 -0.7401  0.3722 -2.0438
 4547SOL     OW25276   1.433   1.357   5.719 -0.5457 -0.1478  0.3161
 4547SOL    HW125277   1.445   1.271   5.760 -0.6664  0.0831  0.8359
 4547SOL    HW225278   1.496   1.347   5.647 -1.6613  1.7760 -0.9498
 4548SOL     OW25279   1.647   3.764   4.550  0.0202  0.0016 -0.0198
 4548SOL    HW125280   1.702   3.830   4.593  1.1981  0.2181 -1.8186
 4548SOL    HW225281   1.709   3.692   4.539 -1.4742 -1.2904  0.0646
 4549SOL     OW25282   0.360   1.031   8.530  0.0523  0.6742 -0.6637
 4549SOL    HW125283   0.412   0.953   8.510  0.1189  0.7372 -0.7381
 4549SOL    HW225284   0.288   0.990   8.578 -0.0365  0.6433 -0.8221
 4550SOL     OW25285   3.138   2.286  15.265  0.0581  0.1017  0.4814
 4550SOL    HW125286   3.183   2.368  15.245 -2.5504  0.2395 -4.6621
 4550SOL    HW225287   3.052   2.316  15.295 -0.7197  0.0905 -1.8055
 4551SOL     OW25288   2.232   2.671   8.802 -0.6353  0.3485  0.1483
 4551SOL    HW125289   2.158   2.643   8.748 -0.1511  2.1666 -1.4493
 4551SOL    HW225290   2.270   2.587   8.829  0.1637  0.8472  0.5751
 4552SOL     OW25291   0.792   3.351   0.752 -0.0281  0.3738  0.2284
 4552SOL    HW125292   0.740   3.399   0.688  0.2400  0.8177  0.3455
 4552SOL    HW225293   0.756   3.382   0.835 -0.0462 -1.3449  0.8742
 4553SOL     OW25294   1.176   3.499   8.300 -0.0084  0.5653 -0.2399
 4553SOL    HW125295   1.091   3.460   8.277 -0.3586 -0.2400  2.4034
 4553SOL    HW225296   1.149   3.590   8.314 -2.3448 -0.4147  1.7560
 4554SOL     OW25297   4.093   4.259   6.304 -0.1178 -0.4901  0.1561
 4554SOL    HW125298   4.170   4.250   6.361  0.6509 -2.5070 -1.2157
 4554SOL    HW225299   4.037   4.182   6.315 -0.6333  0.1436  2.0193
 4555SOL     OW25300   3.719   1.798   8.267 -0.0089  0.1893 -0.5551
 4555SOL    HW125301   3.659   1.871   8.248  1.1334  0.9812 -1.1515
 4555SOL    HW225302   3.787   1.857   8.299 -1.3552  1.7005 -0.4571
 4556SOL     OW25303   1.170   2.879   4.951 -0.9803 -0.1713 -0.2156
 4556SOL    HW125304   1.253   2.842   4.981 -0.7890 -0.3615 -0.9753
 4556SOL    HW225305   1.115   2.822   5.005 -2.6908  0.9959 -0.6967
 4557SOL     OW25306   0.934   0.212  17.305  0.0259  0.2146  0.0192
 4557SOL    HW125307   1.013   0.244  17.349  0.0157  1.1964 -0.6714
 4557SOL    HW225308   0.927   0.272  17.231 -1.0889  0.6445  0.4813
 4558SOL     OW25309   0.045   3.146   3.478  0.4664 -0.1711 -0.2254
 4558SOL    HW125310   0.022   3.231   3.442  0.9294  0.5741  1.2605
 4558SOL    HW225311   4.715   3.090   3.438  1.3350 -1.0084 -0.5089
 4559SOL     OW25312   0.583   4.709   0.821 -0.4252 -0.5808  0.1857
 4559SOL    HW125313   0.533   0.054   0.817  1.1789  0.3969  0.3220
 4559SOL    HW225314   0.659   4.722   0.764 -0.2098  1.2751  0.8991
 4560SOL     OW25315   2.961   1.828   1.168  0.3808 -0.2385 -0.5480
 4560SOL    HW125316   2.872   1.857   1.189  0.3934 -0.7611  0.2501
 4560SOL    HW225317   3.011   1.910   1.170 -2.3920  1.4670 -0.7818
 4561SOL     OW25318   4.229   4.203   2.078  0.3455 -0.2789 -0.0785
 4561SOL    HW125319   4.144   4.171   2.048  0.3255  0.3464 -0.6693
 4561SOL    HW225320   4.247   4.255   2.000 -1.9398 -1.0382 -1.1078
 4562SOL     OW25321   3.366   4.063   0.039 -0.4753 -0.0452 -0.2355
 4562SOL    HW125322   3.417   4.144   0.032 -0.7630  0.5234  4.1202
 4562SOL    HW225323   3.358   4.016  17.703  1.2624  0.8329 -0.9054
 4563SOL     OW25324   0.969   3.531   1.850  0.1454 -0.0706  0.1596
 4563SOL    HW125325   0.971   3.512   1.944 -3.8323  0.8133  0.4163
 4563SOL    HW225326   1.063   3.525   1.837 -0.0623 -5.1529  1.1325
 4564SOL     OW25327   1.393   4.374   2.219 -0.0842 -1.1023  0.6266
 4564SOL    HW125328   1.437   4.449   2.260 -0.6914  0.1090 -0.9465
 4564SOL    HW225329   1.326   4.418   2.167  1.4607  0.7220  0.1744
 4565SOL     OW25330   1.584   1.340   9.583  0.3842  0.2798  0.1439
 4565SOL    HW125331   1.501   1.374   9.616 -0.8252 -2.3350 -0.2662
 4565SOL    HW225332   1.636   1.417   9.609  2.6242 -0.7517 -1.3519
 4566SOL     OW25333   3.300   0.315   7.565  0.3487  0.0390  0.1872
 4566SOL    HW125334   3.284   0.226   7.535  3.1237 -0.6812  0.8748
 4566SOL    HW225335   3.386   0.330   7.524  0.2985 -0.2174 -0.0132
 4567SOL     OW25336   0.080   1.405   6.277 -0.0910 -0.7663  0.4442
 4567SOL    HW125337   0.024   1.477   6.309  1.7571  0.3562  1.1333
 4567SOL    HW225338   0.158   1.416   6.330  0.8079 -1.5274 -0.7301
 4568SOL     OW25339   0.732   0.895   3.186  0.3683 -0.6858  0.0023
 4568SOL    HW125340   0.659   0.956   3.173  1.3278  0.7922  1.4372
 4568SOL    HW225341   0.716   0.864   3.275  1.4000  2.2419  1.2077
 4569SOL     OW25342   3.292   3.879   0.618  0.2038  0.0968  0.7111
 4569SOL    HW125343   3.224   3.812   0.619  0.7188 -0.4939 -2.0062
 4569SOL    HW225344   3.371   3.826   0.603 -0.7818 -1.4683  1.0346
 4570SOL     OW25345   0.635   0.447   2.276  0.4315  0.2042 -0.0155
 4570SOL    HW125346   0.565   0.383   2.288  0.6402  0.2644  1.6022
 4570SOL    HW225347   0.711   0.392   2.292  0.2344  0.3654  1.5237
 4571SOL     OW25348   4.380   0.802  10.974 -0.2365 -0.0889  0.0292
 4571SOL    HW125349   4.338   0.781  10.891 -1.2037 -1.8022  0.9597
 4571SOL    HW225350   4.312   0.786  11.039 -1.2263  2.0178 -0.5050
 4572SOL     OW25351   0.640   3.202  13.526 -0.0668 -0.7329 -0.0638
 4572SOL    HW125352   0.653   3.291  13.558 -0.1017 -1.0100  0.7349
 4572SOL    HW225353   0.708   3.194  13.459  1.4506  0.4672  1.3250
 4573SOL     OW25354   2.658   4.408   2.923 -0.6284  0.3124  0.4136
 4573SOL    HW125355   2.588   4.344   2.908 -0.6375 -0.0308  2.0011
 4573SOL    HW225356   2.696   4.412   2.835 -0.1648 -0.3476  0.5865
 4574SOL     OW25357   4.618   0.633   1.607 -0.5117 -0.7444 -0.2646
 4574SOL    HW125358   4.526   0.657   1.600 -0.4546 -0.4961 -0.1717
 4574SOL    HW225359   4.609   0.543   1.575  0.2754 -0.7797 -0.3961
 4575SOL     OW25360   2.142   1.550   4.534  0.0704 -0.1255  0.1337
 4575SOL    HW125361   2.195   1.629   4.549  0.6517  0.1602 -3.3215
 4575SOL    HW225362   2.170   1.495   4.607  0.4283  1.2292  1.0071
 4576SOL     OW25363   0.762   3.807   3.444 -0.1100 -0.1939 -0.0233
 4576SOL    HW125364   0.730   3.886   3.401  1.0937  0.4866  0.3440
 4576SOL    HW225365   0.805   3.756   3.375 -2.3955  2.2318 -3.2562
 4577SOL     OW25366   1.595   0.809   6.263  0.4489  0.1221 -0.1864
 4577SOL    HW125367   1.554   0.892   6.238  1.0634  0.5953  0.3868
 4577SOL    HW225368   1.513   0.784   6.306 -0.4650  2.7290 -0.3887
 4578SOL     OW25369   1.562   1.887   6.800 -0.1763 -0.0669 -0.2225
 4578SOL    HW125370   1.500   1.858   6.866 -0.7304  0.1880 -0.6314
 4578SOL    HW225371   1.521   1.850   6.722  0.6928 -1.6294  0.0707
 4579SOL     OW25372   2.467   3.139  13.943  0.7200  0.2475  0.2706
 4579SOL    HW125373   2.493   3.048  13.927  0.3131  0.8465 -3.9064
 4579SOL    HW225374   2.544   3.186  13.912  0.5378  0.3454 -0.0404
 4580SOL     OW25375   1.104   4.508  15.587 -0.0712 -0.1886 -0.1167
 4580SOL    HW125376   1.033   4.557  15.545  1.9299  2.1028 -0.8637
 4580SOL    HW225377   1.079   4.418  15.568 -0.9324  0.1390 -0.5098
 4581SOL     OW25378   3.963   0.867  15.047 -0.0409  0.3086  0.7648
 4581SOL    HW125379   3.970   0.774  15.070 -1.0012 -0.1734 -0.8856
 4581SOL    HW225380   4.056   0.892  15.048  0.4595 -1.4612  0.0611
 4582SOL     OW25381   4.573   3.594   6.891  0.3573 -0.1878 -0.5494
 4582SOL    HW125382   4.564   3.523   6.826 -2.3335 -0.0428 -0.3401
 4582SOL    HW225383   4.495   3.576   6.943  1.6834 -2.4080  0.6733
 4583SOL     OW25384   2.892   1.281   8.292 -0.2765  0.7275 -0.3125
 4583SOL    HW125385   2.911   1.216   8.360 -2.0350  0.2509 -0.2735
 4583SOL    HW225386   2.917   1.365   8.331  3.1304 -0.8671  0.8999
 4584SOL     OW25387   3.285   0.897   6.555 -0.1563 -0.4008 -0.3538
 4584SOL    HW125388   3.335   0.965   6.509  0.9206 -0.7053  0.3602
 4584SOL    HW225389   3.199   0.916   6.519 -0.7724 -0.0682  1.2802
 4585SOL     OW25390   1.978   3.265   1.183  0.5318 -0.2564  0.4732
 4585SOL    HW125391   1.994   3.332   1.250 -2.0510  0.2159  0.6136
 4585SOL    HW225392   2.063   3.256   1.139  0.5791 -0.5592  0.6243
 4586SOL     OW25393   0.041   3.996  11.850 -0.0243  0.0512  0.1071
 4586SOL    HW125394   0.109   3.970  11.912  0.6498  0.9702 -0.2274
 4586SOL    HW225395   4.720   4.049  11.904 -1.5274 -1.5732  0.0537
 4587SOL     OW25396   2.386   0.356   4.122 -0.0298  0.0510 -0.0542
 4587SOL    HW125397   2.479   0.364   4.143  0.1307  1.7613 -1.3932
 4587SOL    HW225398   2.354   0.327   4.207 -3.1850 -1.0468 -1.6271
 4588SOL     OW25399   3.508   2.960   3.524 -0.1235  0.1440 -0.0528
 4588SOL    HW125400   3.545   3.034   3.571 -3.0564  0.1820  2.2299
 4588SOL    HW225401   3.429   3.001   3.490  0.0286  1.6032  1.3653
 4589SOL     OW25402   1.388   4.349   8.094 -0.4869 -0.0246 -0.2514
 4589SOL    HW125403   1.452   4.377   8.029  1.1583 -0.2570  1.2729
 4589SOL    HW225404   1.434   4.378   8.173  0.0302 -0.2128 -0.4852
 4590SOL     OW25405   1.605   2.387   4.849 -0.5560 -0.2266  0.8124
 4590SOL    HW125406   1.673   2.454   4.844  0.9064 -1.7165  0.9981
 4590SOL    HW225407   1.571   2.414   4.934  2.3221  3.3673  0.8276
 4591SOL     OW25408   0.390   3.856  13.728 -0.2009 -0.3278  0.1637
 4591SOL    HW125409   0.478   3.892  13.716  0.0883 -0.7502  1.0696
 4591SOL    HW225410   0.372   3.829  13.638 -0.7349  3.3815 -0.8411
 4592SOL     OW25411   4.206   3.306   7.366  0.3796 -0.1184 -0.5887
 4592SOL    HW125412   4.296   3.301   7.332 -0.0791 -0.4477 -1.7632
 4592SOL    HW225413   4.226   3.376   7.428  1.9448 -1.2285  0.1892
 4593SOL     OW25414   3.498   3.394  10.513  0.4024 -0.2470 -0.4880
 4593SOL    HW125415   3.491   3.358  10.424  0.8053  2.0326 -1.4535
 4593SOL    HW225416   3.466   3.325  10.571  0.0393  0.0345 -0.3532
 4594SOL     OW25417   1.784   1.724  12.308 -0.0254 -0.2313 -0.1742
 4594SOL    HW125418   1.749   1.813  12.312  2.1471  0.6229 -0.0050
 4594SOL    HW225419   1.795   1.697  12.399 -0.2542 -2.0673 -0.6962
 4595SOL     OW25420   1.900   0.853   6.499  0.2342  0.4549 -0.3258
 4595SOL    HW125421   1.909   0.843   6.405 -0.7939  1.0342 -0.4853
 4595SOL    HW225422   1.957   0.926   6.523 -0.4797  1.3244 -1.2795
 4596SOL     OW25423   1.195   1.669  17.073 -0.4430  0.5094 -0.1411
 4596SOL    HW125424   1.162   1.705  16.991  0.1638  0.9164 -0.2082
 4596SOL    HW225425   1.154   1.732  17.132  2.4453  0.9213  1.4274
 4597SOL     OW25426   2.886   0.938  10.486 -0.4887 -0.3665  0.0143
 4597SOL    HW125427   2.876   1.024  10.445 -0.9584 -0.7812 -0.7333
 4597SOL    HW225428   2.805   0.902  10.451 -0.9033 -0.6230  1.2651
 4598SOL     OW25429   1.830   2.782   3.831 -0.4586  0.5945  0.1063
 4598SOL    HW125430   1.913   2.829   3.822 -0.7127  1.4192  1.9393
 4598SOL    HW225431   1.812   2.759   3.740 -2.2294 -0.3347  0.6957
 4599SOL     OW25432   1.694   0.691   3.019 -0.0464 -0.0870 -0.5901
 4599SOL    HW125433   1.784   0.688   2.986  0.3111  1.1659  0.2873
 4599SOL    HW225434   1.705   0.711   3.112  0.0110  0.5761 -0.7395
 4600SOL     OW25435   3.663   1.753   1.987 -0.0771 -0.5368 -0.1494
 4600SOL    HW125436   3.681   1.658   1.986  1.4412 -0.2361 -1.2318
 4600SOL    HW225437   3.600   1.758   1.915 -1.9325  0.8899  1.5811
 4601SOL     OW25438   1.044   1.395  15.172 -0.3785  0.2116  0.7980
 4601SOL    HW125439   1.017   1.331  15.238 -0.9712  0.7483  1.0793
 4601SOL    HW225440   1.136   1.366  15.176 -0.3003  0.3591  0.0246
 4602SOL     OW25441   2.845   0.404  11.087 -0.3085  0.1447 -0.4438
 4602SOL    HW125442   2.854   0.384  11.180 -2.2395 -0.8198 -0.4556
 4602SOL    HW225443   2.925   0.456  11.079 -1.0663  1.4738  0.7764
 4603SOL     OW25444   4.396   2.832   6.308  0.2949 -0.2391 -0.2467
 4603SOL    HW125445   4.329   2.880   6.260  1.1069  0.8964 -0.2719
 4603SOL    HW225446   4.347   2.757   6.340  0.4401  0.2350  1.1000
 4604SOL     OW25447   0.358   3.111   2.200 -0.1189  0.3422 -0.1268
 4604SOL    HW125448   0.371   3.022   2.167 -0.0571 -0.0236  0.8697
 4604SOL    HW225449   0.348   3.147   2.112 -0.1630  0.5662 -0.0305
 4605SOL     OW25450   3.069   2.431   6.248 -0.5625 -0.0331 -0.0800
 4605SOL    HW125451   3.036   2.517   6.222  3.2212  1.5127  0.3414
 4605SOL    HW225452   3.155   2.437   6.207 -0.6769  0.0524 -0.3121
 4606SOL     OW25453   1.518   3.284  10.439 -0.6429 -0.3276 -0.0565
 4606SOL    HW125454   1.584   3.328  10.387  0.5901  0.8351  2.4717
 4606SOL    HW225455   1.440   3.312  10.392  0.0244  0.1286 -0.8789
 4607SOL     OW25456   1.388   2.849   2.108 -0.4977  0.0490 -0.6232
 4607SOL    HW125457   1.447   2.844   2.033  1.8945 -3.3547  1.5070
 4607SOL    HW225458   1.351   2.761   2.113  0.6794 -0.3511  0.9501
 4608SOL     OW25459   3.284   1.841  15.966  0.4796 -0.6312 -0.3688
 4608SOL    HW125460   3.220   1.890  16.017  0.4372  2.1836 -3.1327
 4608SOL    HW225461   3.245   1.754  15.952  0.7734 -1.1561  2.1649
 4609SOL     OW25462   3.187   0.017   4.102  0.0186 -0.7892  0.0046
 4609SOL    HW125463   3.255   4.689   4.082 -0.3197 -1.9456  2.6001
 4609SOL    HW225464   3.225   0.032   4.188 -1.9288  0.3493  0.6720
 4610SOL     OW25465   1.314   2.222  13.384  0.4637 -0.1245  0.8081
 4610SOL    HW125466   1.291   2.176  13.464  0.7902  1.0178  1.5560
 4610SOL    HW225467   1.264   2.162  13.329  2.3407  0.1385 -1.2192
 4611SOL     OW25468   1.637   1.978  12.447  0.1994 -0.6336  0.4976
 4611SOL    HW125469   1.662   2.016  12.531  2.3605  1.2655 -1.0156
 4611SOL    HW225470   1.583   2.052  12.421  2.6392  1.3998  1.2395
 4612SOL     OW25471   4.555   2.101   8.003  0.0362  0.6283  0.2224
 4612SOL    HW125472   4.615   2.138   8.067  1.4197 -1.2740  0.0385
 4612SOL    HW225473   4.478   2.158   8.012 -1.5110 -1.3216 -0.5156
 4613SOL     OW25474   1.084   2.373   6.166 -0.4563  0.0530  0.2978
 4613SOL    HW125475   1.106   2.433   6.095 -0.7356  0.2017  0.3370
 4613SOL    HW225476   1.078   2.434   6.239 -0.0023  1.2687 -0.6763
 4614SOL     OW25477   3.280   1.780   2.553 -0.0638 -0.2153 -0.3327
 4614SOL    HW125478   3.328   1.697   2.559  1.3461  0.7333  1.4877
 4614SOL    HW225479   3.270   1.790   2.647  1.6467 -0.2516 -0.1460
 4615SOL     OW25480   3.711   2.252   5.959 -0.4307  0.6514  0.3228
 4615SOL    HW125481   3.639   2.193   5.979  1.0206 -1.2813 -0.1979
 4615SOL    HW225482   3.777   2.186   5.937 -0.2936  0.5846  0.9266
 4616SOL     OW25483   1.718   0.487   5.528 -0.1036 -0.4065  0.0906
 4616SOL    HW125484   1.666   0.410   5.501 -0.2698 -0.3912  0.3753
 4616SOL    HW225485   1.642   0.540   5.551 -0.3503 -0.9622  0.5434
 4617SOL     OW25486   1.965   0.773   4.026 -0.2936 -0.4134 -0.1806
 4617SOL    HW125487   2.057   0.747   4.020  0.2468  1.2735  0.8540
 4617SOL    HW225488   1.931   0.708   4.088  0.7028  0.0835  0.8746
 4618SOL     OW25489   4.595   3.400   6.265  0.0175 -0.0866 -0.4052
 4618SOL    HW125490   4.507   3.385   6.299 -0.4159 -0.0749 -1.4977
 4618SOL    HW225491   4.621   3.462   6.333  0.8588 -0.2639 -0.5656
 4619SOL     OW25492   1.814   1.105   0.558  0.4251  0.0873  0.3701
 4619SOL    HW125493   1.888   1.123   0.617  0.4799  1.3646 -0.0958
 4619SOL    HW225494   1.856   1.067   0.481 -0.6994  2.3329 -1.3662
 4620SOL     OW25495   1.207   0.968   5.947 -0.0899  0.2391  0.1618
 4620SOL    HW125496   1.152   0.903   5.903 -0.0552  0.3174  0.0012
 4620SOL    HW225497   1.277   0.909   5.977  0.3361  0.8594  0.3934
 4621SOL     OW25498   2.078   2.969   0.238 -0.3156  0.4183 -0.1142
 4621SOL    HW125499   2.086   3.035   0.306 -3.8163  2.6277 -1.8716
 4621SOL    HW225500   2.035   2.895   0.281  1.3859  1.5312  3.4449
 4622SOL     OW25501   4.107   3.714   6.778  0.3301 -0.1753 -0.2822
 4622SOL    HW125502   4.149   3.632   6.752 -1.0089 -0.7346 -0.6608
 4622SOL    HW225503   4.024   3.684   6.814  1.4796 -2.9971 -0.0273
 4623SOL     OW25504   0.250   1.316  16.973 -0.1697 -0.1224  0.3272
 4623SOL    HW125505   0.338   1.351  16.955  0.0460 -0.8145  0.0007
 4623SOL    HW225506   0.268   1.317  17.067  1.5907  0.9204 -0.0144
 4624SOL     OW25507   0.240   2.626   4.762  0.1143  0.4971  0.0103
 4624SOL    HW125508   0.202   2.712   4.780  2.2161  0.9945  2.0530
 4624SOL    HW225509   0.247   2.616   4.667  0.5809  2.5623 -0.1754
 4625SOL     OW25510   3.353   0.631   5.957  0.7003  0.0011  0.1072
 4625SOL    HW125511   3.407   0.650   5.880 -1.5168  0.4237 -1.3370
 4625SOL    HW225512   3.346   0.710   6.010 -0.7276  1.8818 -2.8633
 4626SOL     OW25513   3.466   3.491   0.243  0.4525  0.5198  0.3800
 4626SOL    HW125514   3.405   3.440   0.190  0.8240 -0.1711  0.6141
 4626SOL    HW225515   3.411   3.501   0.320 -1.7078 -0.7898 -1.0164
 4627SOL     OW25516   3.471   3.508   4.801  0.4431 -0.1179  0.7813
 4627SOL    HW125517   3.564   3.492   4.786  1.1149  1.9717  2.7203
 4627SOL    HW225518   3.477   3.544   4.890  0.6098  2.2414 -0.1693
 4628SOL     OW25519   2.159   3.735   0.615  0.0150  0.4244 -0.6580
 4628SOL    HW125520   2.130   3.754   0.526 -0.1813 -1.4691 -1.0005
 4628SOL    HW225521   2.253   3.747   0.600 -0.2401  0.7550 -1.9761
 4629SOL     OW25522   0.191   2.695  17.172  0.2399 -1.0575 -0.3515
 4629SOL    HW125523   0.202   2.604  17.145  2.4200 -0.3947 -1.7003
 4629SOL    HW225524   0.246   2.687  17.250 -0.3368 -2.0085 -0.0377
 4630SOL     OW25525   3.652   3.134   5.778  0.1420  0.2772 -0.4018
 4630SOL    HW125526   3.652   3.077   5.701 -1.6610  0.0621 -0.2411
 4630SOL    HW225527   3.561   3.132   5.808  0.0570 -0.9565 -0.7259
 4631SOL     OW25528   4.230   3.674   8.738 -0.1519 -0.1313  0.9392
 4631SOL    HW125529   4.325   3.669   8.729  0.2002  4.1899  2.4964
 4631SOL    HW225530   4.211   3.580   8.738 -0.1888 -0.1257  1.8530
 4632SOL     OW25531   1.351   1.214   0.753 -0.1451 -0.2549  0.1315
 4632SOL    HW125532   1.379   1.246   0.838 -0.8815  2.5966 -0.6797
 4632SOL    HW225533   1.329   1.287   0.695 -0.2491 -0.0672  0.4123
 4633SOL     OW25534   0.892   2.443   2.734  0.2961 -0.2092  0.1784
 4633SOL    HW125535   0.884   2.359   2.690 -1.5910  0.1030 -0.0418
 4633SOL    HW225536   0.955   2.430   2.805  0.2484  1.1541  0.4713
 4634SOL     OW25537   4.487   1.663   2.222 -0.8279 -0.4920  0.1156
 4634SOL    HW125538   4.579   1.674   2.249 -1.7294  2.2637  2.1808
 4634SOL    HW225539   4.498   1.640   2.130 -1.1888  0.7335 -0.2330
 4635SOL     OW25540   3.744   4.498  12.956  1.0761 -0.4660  0.7297
 4635SOL    HW125541   3.755   4.509  12.862  1.1835 -0.6962  0.7167
 4635SOL    HW225542   3.658   4.458  12.968  1.2363 -0.8436  0.6124
 4636SOL     OW25543   3.428   4.280  12.670 -0.2528 -0.4968 -0.0204
 4636SOL    HW125544   3.408   4.371  12.692 -0.9210 -0.8394  0.7707
 4636SOL    HW225545   3.466   4.247  12.751  0.1302 -0.6195 -0.2455
 4637SOL     OW25546   2.058   1.089  10.645  0.2474  0.0124 -0.1113
 4637SOL    HW125547   2.055   1.069  10.551 -0.0453 -2.6515  0.4666
 4637SOL    HW225548   2.121   1.161  10.650  1.5572 -1.1476  0.1292
 4638SOL     OW25549   2.747   4.674   3.793 -0.0132 -0.1510  0.8184
 4638SOL    HW125550   2.831   4.699   3.753  0.3912  0.8247  2.2908
 4638SOL    HW225551   2.736   4.732   3.868  0.8142 -0.5235  1.2218
 4639SOL     OW25552   4.573   3.801   2.900  0.2874  0.2272 -0.0811
 4639SOL    HW125553   4.563   3.834   2.989  1.9366 -0.5575  0.3945
 4639SOL    HW225554   4.668   3.810   2.894  0.5759 -3.3295 -0.5049
 4640SOL     OW25555   4.048   0.437   6.971 -0.7216 -0.4645 -0.2463
 4640SOL    HW125556   4.138   0.465   6.954 -1.5973  2.2897 -0.2697
 4640SOL    HW225557   4.016   0.520   7.006 -0.3438 -0.1594 -0.6272
 4641SOL     OW25558   2.714   4.047  12.017  0.7492 -0.5515 -0.4635
 4641SOL    HW125559   2.715   4.099  11.937 -1.9347 -1.4858 -1.0808
 4641SOL    HW225560   2.682   4.109  12.083 -0.6790 -2.2538  0.4619
 4642SOL     OW25561   4.612   1.571  13.980  0.4364  0.0672 -0.2673
 4642SOL    HW125562   4.657   1.653  13.965  1.9289 -0.9841 -1.5692
 4642SOL    HW225563   4.523   1.588  13.948 -1.3773 -2.0779  3.5944
 4643SOL     OW25564   2.339   3.246   7.708 -0.4162  0.0957 -0.0797
 4643SOL    HW125565   2.427   3.227   7.742  0.2278  1.4336 -1.0015
 4643SOL    HW225566   2.350   3.235   7.614  3.1911  1.0356  0.2210
 4644SOL     OW25567   2.315   3.912  16.772  0.6538 -0.2515  0.4118
 4644SOL    HW125568   2.364   3.861  16.708 -0.3303  1.5187 -1.7435
 4644SOL    HW225569   2.333   3.999  16.737 -0.9131  0.1449  0.5745
 4645SOL     OW25570   4.649   3.156   6.968 -0.1020 -0.1591  0.7066
 4645SOL    HW125571   4.634   3.062   6.957  2.0214 -0.4734  0.3994
 4645SOL    HW225572   4.570   3.194   6.930  0.6323 -0.6954 -1.3362
 4646SOL     OW25573   1.080   1.624   4.331  0.2705  0.8488  0.3745
 4646SOL    HW125574   1.124   1.690   4.385 -0.3289  2.0806 -0.6605
 4646SOL    HW225575   1.150   1.599   4.271  0.2292  0.4859  0.4804
 4647SOL     OW25576   2.588   1.620   4.066 -0.0764  0.6111  0.5317
 4647SOL    HW125577   2.516   1.590   4.012  0.3113  0.3020  0.1819
 4647SOL    HW225578   2.632   1.679   4.005 -0.3554 -1.8115 -2.0280
 4648SOL     OW25579   2.173   1.635   6.580  0.5382  0.2525  0.1037
 4648SOL    HW125580   2.203   1.578   6.510  0.8076 -0.7392  1.0311
 4648SOL    HW225581   2.183   1.575   6.654  1.9130  2.0383  1.3663
 4649SOL     OW25582   0.402   0.677   9.863  0.1247 -1.0544  0.2583
 4649SOL    HW125583   0.359   0.752   9.823 -2.2203 -2.1534  0.7006
 4649SOL    HW225584   0.490   0.714   9.860 -0.2824 -0.1048 -0.1618
 4650SOL     OW25585   3.056   0.010  16.075 -0.0389  0.2458 -0.3761
 4650SOL    HW125586   3.069   0.105  16.067  0.2752  0.3523  1.2731
 4650SOL    HW225587   3.089   4.720  15.990  0.5939  0.9372 -0.3581
 4651SOL     OW25588   1.091   0.544   6.031 -0.3192 -0.2268 -0.2843
 4651SOL    HW125589   1.069   0.466   5.980  3.3211 -0.7889 -0.9820
 4651SOL    HW225590   1.014   0.555   6.087 -1.0132  0.8664 -1.4601
 4652SOL     OW25591   4.512   4.440  10.705 -0.0824 -0.2724 -0.5845
 4652SOL    HW125592   4.514   4.397  10.620 -0.4221  1.6932 -1.5845
 4652SOL    HW225593   4.603   4.440  10.737 -0.3095 -1.3264  0.0689
 4653SOL     OW25594   3.803   1.121   8.795  0.2348 -0.2440 -0.0323
 4653SOL    HW125595   3.885   1.171   8.798 -0.3145  0.6460 -0.1060
 4653SOL    HW225596   3.763   1.150   8.713 -0.5968  1.0310  0.8322
 4654SOL     OW25597   3.817   0.702   2.090  0.4686  0.2720  0.2811
 4654SOL    HW125598   3.834   0.689   2.183 -0.9151 -0.2368  0.4704
 4654SOL    HW225599   3.730   0.664   2.080  0.7440 -0.3171  0.1268
 4655SOL     OW25600   0.742   2.088   4.717  0.3866 -0.0566  0.2630
 4655SOL    HW125601   0.799   2.013   4.700 -1.6671 -1.2571 -1.3642
 4655SOL    HW225602   0.753   2.097   4.811 -0.2095  1.6533  0.1721
 4656SOL     OW25603   0.956   0.435  17.543 -0.2432  0.3657  0.1673
 4656SOL    HW125604   1.023   0.393  17.491 -0.0080  0.7593  0.1558
 4656SOL    HW225605   1.013   0.482  17.604 -0.7456 -0.1113  1.0037
 4657SOL     OW25606   2.820   4.211   9.009  0.6398  0.0635 -0.7087
 4657SOL    HW125607   2.815   4.130   9.060  0.7441 -0.7778 -2.0515
 4657SOL    HW225608   2.730   4.229   8.983  0.7540 -0.6299 -1.5577
 4658SOL     OW25609   1.088   4.037   3.049 -0.8400  0.4631  0.5203
 4658SOL    HW125610   1.095   4.132   3.055  1.9787  0.3631 -1.6068
 4658SOL    HW225611   1.003   4.010   3.087 -0.0729 -1.1075  1.1506
 4659SOL     OW25612   1.243   1.757   7.283 -0.2600  0.0975  0.5232
 4659SOL    HW125613   1.318   1.808   7.254 -1.2965  1.3734  0.0479
 4659SOL    HW225614   1.274   1.727   7.368  0.1465 -1.5996 -0.2146
 4660SOL     OW25615   2.673   2.885   7.377  0.2161 -0.1224  0.1658
 4660SOL    HW125616   2.683   2.957   7.440  1.1335  1.4809 -1.8382
 4660SOL    HW225617   2.676   2.815   7.442 -3.1419 -0.5971 -0.1760
 4661SOL     OW25618   2.015   2.122   9.508  0.2228 -0.1748  0.4858
 4661SOL    HW125619   2.098   2.124   9.556  0.3672 -1.8371  0.3151
 4661SOL    HW225620   2.006   2.217   9.504 -0.0652 -0.3232 -2.0214
 4662SOL     OW25621   2.965   4.444  13.050 -0.1196  0.3889  0.1477
 4662SOL    HW125622   3.054   4.424  13.021  0.0246  0.2240  0.7025
 4662SOL    HW225623   2.913   4.401  12.982  0.3933 -0.8457  0.5352
 4663SOL     OW25624   1.165   1.055   6.238 -0.4555 -0.3151  0.0300
 4663SOL    HW125625   1.193   1.141   6.208 -1.0715 -0.5400 -1.1874
 4663SOL    HW225626   1.180   1.009   6.156  0.8214  0.6706 -0.2950
 4664SOL     OW25627   0.528   3.290   8.160 -0.6851 -0.2101  0.0147
 4664SOL    HW125628   0.586   3.223   8.124 -0.2909 -0.3786  0.9658
 4664SOL    HW225629   0.440   3.256   8.142 -1.1742 -0.0729  2.1918
 4665SOL     OW25630   0.842   1.274   7.492 -0.2261 -0.2066  0.0405
 4665SOL    HW125631   0.869   1.362   7.466  1.9613 -0.9999 -0.3695
 4665SOL    HW225632   0.922   1.228   7.517  0.5482  1.1065 -0.0509
 4666SOL     OW25633   2.979   0.517   0.593  0.3915 -0.0033  0.4676
 4666SOL    HW125634   2.930   0.471   0.524 -0.2441  2.3006 -0.6233
 4666SOL    HW225635   3.065   0.496   0.557  0.4664 -1.8673  1.7280
 4667SOL     OW25636   0.128   4.336   6.071 -0.2860 -0.4312  0.5102
 4667SOL    HW125637   0.143   4.428   6.092  0.3701 -0.6949  1.1836
 4667SOL    HW225638   0.214   4.300   6.049 -0.2219  0.0351 -0.0059
 4668SOL     OW25639   1.180   1.621   2.153 -0.1532 -0.6090  0.3633
 4668SOL    HW125640   1.108   1.616   2.091  0.4504 -0.9032 -0.3183
 4668SOL    HW225641   1.140   1.580   2.230  3.6552  0.1075  2.7564
 4669SOL     OW25642   2.001   2.580   9.772 -0.0620  0.1685 -0.5448
 4669SOL    HW125643   1.936   2.651   9.765 -0.0607  0.1580 -0.6577
 4669SOL    HW225644   1.949   2.519   9.824 -0.8965  1.6015  0.3229
 4670SOL     OW25645   2.159   4.115   3.990 -0.0528  0.2234 -0.7536
 4670SOL    HW125646   2.191   4.027   3.972 -0.7813 -0.1289 -0.3344
 4670SOL    HW225647   2.241   4.158   4.012 -0.2058  0.6511 -1.0268
 4671SOL     OW25648   0.056   3.118   8.222  0.8202 -0.1693  0.0265
 4671SOL    HW125649   0.032   3.181   8.290 -0.3308 -1.7294  1.0721
 4671SOL    HW225650   0.056   3.031   8.263 -0.0128 -0.9748 -1.6809
 4672SOL     OW25651   3.636   1.861   9.409  0.5760 -0.2917 -0.0207
 4672SOL    HW125652   3.723   1.827   9.390  0.0329 -0.9490 -1.2996
 4672SOL    HW225653   3.572   1.801   9.372 -1.0816  0.2070  2.0512
 4673SOL     OW25654   1.715   3.616   3.021  0.1313  0.9118 -0.3744
 4673SOL    HW125655   1.679   3.563   2.950 -0.4966 -0.0748  0.6810
 4673SOL    HW225656   1.670   3.694   2.989 -3.2636 -0.1790  1.8038
 4674SOL     OW25657   4.365   4.039   3.248 -0.6794 -0.1873  0.2341
 4674SOL    HW125658   4.387   4.120   3.201 -2.1529 -0.3734 -0.7709
 4674SOL    HW225659   4.413   4.036   3.331 -0.1248 -0.3495 -0.0937
 4675SOL     OW25660   3.168   4.549  12.417  0.6401 -0.1221  0.1592
 4675SOL    HW125661   3.193   4.619  12.477  0.3408  1.3168 -1.3924
 4675SOL    HW225662   3.125   4.613  12.360  0.0487 -0.9239 -0.2867
 4676SOL     OW25663   3.726   1.349   7.226 -0.4494  0.5116  0.0362
 4676SOL    HW125664   3.817   1.339   7.195 -0.6760 -2.3006  0.2880
 4676SOL    HW225665   3.677   1.333   7.145  0.0078 -1.5072  0.1487
 4677SOL     OW25666   0.917   1.099  13.291  0.3952  0.0350 -0.1717
 4677SOL    HW125667   1.012   1.109  13.299  0.4261  0.5845 -1.3280
 4677SOL    HW225668   0.912   1.027  13.229 -2.0420 -1.9272  2.3057
 4678SOL     OW25669   0.756   3.313   4.686 -0.4258  0.0886 -0.3816
 4678SOL    HW125670   0.843   3.301   4.723 -0.5292 -0.1292 -0.2112
 4678SOL    HW225671   0.755   3.241   4.623 -0.5355 -0.0808 -0.1858
 4679SOL     OW25672   0.773   2.791   3.231 -0.1693 -0.0045  0.1090
 4679SOL    HW125673   0.695   2.846   3.242  0.5914  0.7272  1.8206
 4679SOL    HW225674   0.728   2.707   3.234  0.2867 -0.2150  0.9814
 4680SOL     OW25675   0.136   2.718   0.972 -0.0449  0.6946  0.0997
 4680SOL    HW125676   0.183   2.797   0.946  0.2703  0.6154  0.4322
 4680SOL    HW225677   0.088   2.751   1.049  2.1840  1.5900  1.1026
 4681SOL     OW25678   1.112   3.620   6.861  0.2599  0.0274 -1.0121
 4681SOL    HW125679   1.030   3.633   6.812 -0.7859 -1.8301  0.2292
 4681SOL    HW225680   1.085   3.611   6.953 -1.8228 -0.0967 -1.6271
 4682SOL     OW25681   4.433   2.800   3.397  0.3329  0.2178  0.2361
 4682SOL    HW125682   4.447   2.714   3.357  1.3414  0.4646  0.0635
 4682SOL    HW225683   4.352   2.825   3.352  0.3357  0.2754  0.2625
 4683SOL     OW25684   2.638   2.431   7.040 -0.0108 -0.0045 -0.2187
 4683SOL    HW125685   2.695   2.471   7.106 -0.7010  3.2984 -1.6114
 4683SOL    HW225686   2.584   2.393   7.109  0.6774  0.2164  0.4448
 4684SOL     OW25687   1.319   4.442  11.992  0.1943 -0.0500 -0.5771
 4684SOL    HW125688   1.300   4.522  12.040  2.5512  0.8999 -1.1873
 4684SOL    HW225689   1.270   4.383  12.048  1.1990 -1.1648 -0.8529
 4685SOL     OW25690   2.832   1.517   5.350  0.0352  0.4914  0.0337
 4685SOL    HW125691   2.866   1.588   5.404  0.0264 -0.6561  1.5587
 4685SOL    HW225692   2.912   1.499   5.300  0.2196  0.9926  0.1493
 4686SOL     OW25693   3.094   4.434   1.794 -0.3940  0.2485 -0.2297
 4686SOL    HW125694   3.188   4.416   1.797 -0.2822  1.0172  1.3587
 4686SOL    HW225695   3.058   4.356   1.836 -0.2058 -0.1264 -0.7715
 4687SOL     OW25696   0.915   4.112   4.973  0.5696 -0.2297  0.5259
 4687SOL    HW125697   0.947   4.060   4.900 -0.5761  0.6543 -0.6108
 4687SOL    HW225698   0.882   4.050   5.038 -1.3920  1.2587  0.9815
 4688SOL     OW25699   3.566   4.715   7.966  0.0423  0.0149  0.0079
 4688SOL    HW125700   3.529   0.019   8.043 -2.0889 -2.2619  0.1692
 4688SOL    HW225701   3.504   4.643   7.958 -1.9197  1.7373 -0.2703
 4689SOL     OW25702   3.667   2.517  16.635 -0.1377  0.2218 -0.2022
 4689SOL    HW125703   3.724   2.560  16.698  0.8204 -2.0369  0.4823
 4689SOL    HW225704   3.728   2.454  16.595  0.6319  1.5341 -1.0980
 4690SOL     OW25705   0.968   4.229   9.248  0.4018  0.3046 -0.1075
 4690SOL    HW125706   0.876   4.213   9.226  0.5588 -0.1087 -0.4672
 4690SOL    HW225707   1.022   4.189   9.181 -2.9102  0.5461 -2.9312
 4691SOL     OW25708   3.927   3.279   6.341  0.3033 -0.1428  0.0792
 4691SOL    HW125709   3.910   3.292   6.248 -1.4100  0.1252  0.4370
 4691SOL    HW225710   3.909   3.185   6.347 -1.7949  0.2575 -0.1084
 4692SOL     OW25711   0.707   4.514   2.883  0.3666 -0.1607 -0.1830
 4692SOL    HW125712   0.780   4.467   2.923  0.1711 -1.4902 -1.3818
 4692SOL    HW225713   0.635   4.451   2.894  1.5821 -1.1170  2.3515
 4693SOL     OW25714   0.489   2.722   9.631  0.0306 -0.2873 -0.5661
 4693SOL    HW125715   0.485   2.708   9.536  0.9512 -4.7839  0.0596
 4693SOL    HW225716   0.581   2.746   9.642  0.1194  0.2627 -2.4395
 4694SOL     OW25717   0.510   2.158   3.551 -0.2772 -0.5367 -0.0494
 4694SOL    HW125718   0.583   2.155   3.613  0.5464  1.2762 -0.9242
 4694SOL    HW225719   0.487   2.251   3.547  0.3608 -0.3352  1.0902
 4695SOL     OW25720   1.984   1.636   7.602  0.8335  0.3107 -0.5122
 4695SOL    HW125721   1.991   1.622   7.696  3.1072  0.7061 -0.6113
 4695SOL    HW225722   2.044   1.710   7.594  0.2401  0.9033  0.5901
 4696SOL     OW25723   3.046   1.462   6.825  0.3838  0.2975 -0.0023
 4696SOL    HW125724   2.982   1.528   6.853  1.1283  1.7481 -1.7107
 4696SOL    HW225725   3.024   1.453   6.732  0.1557 -1.4335  0.2274
 4697SOL     OW25726   4.676   3.335   4.643 -0.1524 -0.3125  0.4076
 4697SOL    HW125727   4.644   3.378   4.564  1.8035  1.2074  0.4256
 4697SOL    HW225728   4.696   3.249   4.607  1.6228  1.1271 -2.0439
 4698SOL     OW25729   4.283   4.017   7.877  0.9119 -0.6710  0.0952
 4698SOL    HW125730   4.358   4.064   7.915 -0.7695  2.5237 -0.5095
 4698SOL    HW225731   4.318   3.966   7.804  2.5714 -0.4552  0.7262
 4699SOL     OW25732   4.388   2.215   8.988 -0.1788 -0.0667  0.6760
 4699SOL    HW125733   4.313   2.267   9.016 -1.0763 -0.2200 -1.4134
 4699SOL    HW225734   4.340   2.149   8.937 -0.0898  0.9823 -0.7837
 4700SOL     OW25735   1.663   3.441   6.888 -0.0805  0.1072 -0.3049
 4700SOL    HW125736   1.587   3.467   6.940 -0.2210 -2.5703  0.8210
 4700SOL    HW225737   1.723   3.516   6.886 -1.6545  1.3576 -0.9118
 4701SOL     OW25738   4.720   3.604   6.451  0.4849  0.1079  0.2313
 4701SOL    HW125739   4.672   3.675   6.493 -0.3451 -0.7949  0.7952
 4701SOL    HW225740   0.062   3.592   6.502  0.0894  1.2123  1.1082
 4702SOL     OW25741   2.629   1.370   3.631 -0.2790  0.2147  0.2108
 4702SOL    HW125742   2.566   1.420   3.682  1.2039  1.7990  0.5144
 4702SOL    HW225743   2.693   1.343   3.697 -0.4379  0.4871  0.4758
 4703SOL     OW25744   1.828   1.516   5.601 -0.2102 -0.0757 -0.0496
 4703SOL    HW125745   1.760   1.547   5.660 -0.7147  1.1645 -1.2689
 4703SOL    HW225746   1.878   1.598   5.593 -1.1686  0.5298  0.1460
 4704SOL     OW25747   0.264   1.176   9.160  0.0065  0.1570 -0.0567
 4704SOL    HW125748   0.299   1.250   9.209  0.8970  0.2320 -0.8139
 4704SOL    HW225749   0.342   1.124   9.141 -0.4042 -0.7652  0.7600
 4705SOL     OW25750   4.160   2.205   5.761  0.5072  0.5210 -0.0075
 4705SOL    HW125751   4.234   2.156   5.724  1.6257  1.6215  0.7805
 4705SOL    HW225752   4.168   2.296   5.733 -2.7270  1.3995  1.9752
 4706SOL     OW25753   3.863   2.577  17.686 -0.6180 -0.1221 -0.1772
 4706SOL    HW125754   3.827   2.643  17.626  0.4640  0.3343 -0.3313
 4706SOL    HW225755   3.789   2.574  17.746  0.2380 -1.2422  0.8430
 4707SOL     OW25756   0.540   2.138  10.828 -0.0283  0.0246  0.5971
 4707SOL    HW125757   0.619   2.131  10.775 -1.6459  0.6472 -1.8659
 4707SOL    HW225758   0.576   2.094  10.905  1.7425  1.0546  0.3433
 4708SOL     OW25759   1.481   1.285   8.197 -0.0141  0.0491  0.1035
 4708SOL    HW125760   1.534   1.277   8.276 -0.5772 -3.3102  0.1175
 4708SOL    HW225761   1.515   1.215   8.140  2.7595  1.1755  0.3570
 4709SOL     OW25762   3.252   2.085  15.105  0.4968 -0.0007  0.1894
 4709SOL    HW125763   3.202   2.125  15.034 -2.0355 -2.4782  0.5450
 4709SOL    HW225764   3.226   2.155  15.165  1.2847 -0.7818  1.4358
 4710SOL     OW25765   0.007   3.057   5.236  0.4337  0.7911  0.3371
 4710SOL    HW125766   4.669   3.032   5.289  1.0005 -0.7816  0.3741
 4710SOL    HW225767   0.035   3.125   5.297  1.3405  2.3176 -1.7474
 4711SOL     OW25768   3.461   2.107   1.535  0.2255  0.5276 -0.0156
 4711SOL    HW125769   3.445   2.020   1.571 -2.1497  0.6049 -0.9360
 4711SOL    HW225770   3.421   2.097   1.449 -0.0273  1.3812 -0.0020
 4712SOL     OW25771   2.007   0.408   8.086  0.8040 -0.1903  0.3215
 4712SOL    HW125772   2.067   0.456   8.144  0.8894 -1.9492  1.6767
 4712SOL    HW225773   2.059   0.332   8.060 -0.9204 -0.5176 -2.1853
 4713SOL     OW25774   3.809   0.191  13.277  0.1923  0.1156  0.1843
 4713SOL    HW125775   3.727   0.239  13.263  1.2797  1.4097 -1.8133
 4713SOL    HW225776   3.791   0.128  13.346  1.4259 -0.8548 -0.3851
 4714SOL     OW25777   3.806   1.419   6.779 -0.4065  0.4492  0.1782
 4714SOL    HW125778   3.768   1.372   6.854 -1.1982 -0.6534 -0.9184
 4714SOL    HW225779   3.725   1.405   6.730 -0.5415 -0.4603  0.6548
 4715SOL     OW25780   1.752   1.726  11.476 -0.5362 -0.1397 -0.2790
 4715SOL    HW125781   1.710   1.697  11.557  0.0328 -2.5079 -0.8336
 4715SOL    HW225782   1.812   1.788  11.517 -2.4468  1.5926 -0.0791
 4716SOL     OW25783   3.210   2.508   2.330 -0.4680 -0.3687  0.1380
 4716SOL    HW125784   3.177   2.562   2.258  0.1696 -1.1152 -0.7065
 4716SOL    HW225785   3.285   2.561   2.357 -3.0403  2.3569  1.9088
 4717SOL     OW25786   2.865   2.324   0.750 -0.4747  0.6069  0.1703
 4717SOL    HW125787   2.776   2.307   0.783 -0.6249 -0.6578 -0.9105
 4717SOL    HW225788   2.913   2.247   0.780  0.9163  0.9262 -1.2832
 4718SOL     OW25789   2.958   0.368   6.332  0.3427 -0.1375 -0.3632
 4718SOL    HW125790   3.017   0.440   6.308  2.3700 -2.2889 -1.9195
 4718SOL    HW225791   2.981   0.351   6.423 -0.0982 -0.4724 -0.3178
 4719SOL     OW25792   0.922   1.628   6.980 -0.0661 -0.3535  0.3356
 4719SOL    HW125793   0.898   1.697   6.919  1.5253 -0.8062 -0.8045
 4719SOL    HW225794   0.986   1.679   7.028 -1.7499  0.9585  1.1949
 4720SOL     OW25795   1.615   1.081   1.125 -0.0206 -0.4459 -0.0723
 4720SOL    HW125796   1.548   1.021   1.159  0.7410 -0.4779  1.3488
 4720SOL    HW225797   1.636   1.034   1.044 -0.5187  1.1816 -1.1272
 4721SOL     OW25798   3.607   3.840   4.113  0.2920 -0.1987 -0.5299
 4721SOL    HW125799   3.600   3.768   4.176  1.3209 -0.4833 -0.7351
 4721SOL    HW225800   3.689   3.879   4.144 -1.6289  2.8889  0.5880
 4722SOL     OW25801   4.170   4.612   8.681  0.6357 -0.2817  0.2665
 4722SOL    HW125802   4.152   4.595   8.773  2.3490 -0.6528  0.5158
 4722SOL    HW225803   4.247   4.668   8.683  0.2665  0.3128 -2.4245
 4723SOL     OW25804   1.430   1.863   5.050  0.3633  0.2913 -0.0911
 4723SOL    HW125805   1.439   1.786   4.994 -2.6057 -0.2803  0.2437
 4723SOL    HW225806   1.519   1.899   5.047  1.2092 -1.7663 -0.0663
 4724SOL     OW25807   3.009   1.604   7.228  0.2593 -0.0048  0.5217
 4724SOL    HW125808   2.930   1.598   7.174 -0.5693 -1.1896  1.9042
 4724SOL    HW225809   3.058   1.527   7.201 -1.7386 -0.4482 -1.8211
 4725SOL     OW25810   4.171   4.473  15.627 -0.5195  0.2743  0.4313
 4725SOL    HW125811   4.103   4.415  15.661  0.0171  0.5748  2.0281
 4725SOL    HW225812   4.205   4.505  15.711  0.9621  1.0120 -0.4584
 4726SOL     OW25813   4.049   1.880  17.269 -0.5098 -0.1981  0.0470
 4726SOL    HW125814   4.011   1.814  17.327 -1.1717  0.7314  0.6730
 4726SOL    HW225815   4.097   1.833  17.201 -1.9779  0.6209 -1.5604
 4727SOL     OW25816   0.329   4.059   5.094  0.1580 -0.5482  0.4226
 4727SOL    HW125817   0.286   4.039   5.176 -0.5215  0.4888  0.3274
 4727SOL    HW225818   0.420   4.069   5.121  0.6744 -1.2712 -1.0039
 4728SOL     OW25819   2.136   0.558   0.709 -0.3966 -0.1817 -0.5813
 4728SOL    HW125820   2.212   0.611   0.734 -0.8774  0.0077  0.4765
 4728SOL    HW225821   2.181   0.511   0.639  0.1572  2.4872 -2.0195
 4729SOL     OW25822   1.798   1.880  15.881 -0.2731 -0.2671 -0.1360
 4729SOL    HW125823   1.730   1.813  15.881 -0.5640  0.0217 -1.1614
 4729SOL    HW225824   1.747   1.961  15.880 -1.9929 -1.3623  1.3104
 4730SOL     OW25825   1.355   2.380   8.586 -0.4859 -0.6377 -0.5672
 4730SOL    HW125826   1.284   2.435   8.552 -1.7284 -1.0864  1.3326
 4730SOL    HW225827   1.314   2.349   8.666  0.4827 -1.5145 -0.4090
 4731SOL     OW25828   1.621   0.494  10.027  0.6070 -0.0928 -0.0100
 4731SOL    HW125829   1.694   0.554  10.041  0.5677 -0.2858  1.0527
 4731SOL    HW225830   1.657   0.413   9.990 -0.6006  0.0899 -1.6118
 4732SOL     OW25831   3.025   4.712   0.749 -0.2777  0.0767  0.2134
 4732SOL    HW125832   3.069   0.040   0.696  1.2612 -1.7785 -0.7802
 4732SOL    HW225833   3.097   4.665   0.790  0.7911  1.3384 -0.2129
 4733SOL     OW25834   2.744   3.370   8.580 -0.0979  0.1677 -0.0459
 4733SOL    HW125835   2.780   3.301   8.636 -1.7148  0.4357  1.3481
 4733SOL    HW225836   2.655   3.342   8.556 -0.0958  0.7209 -0.7020
 4734SOL     OW25837   4.102   3.492   4.299  0.2164  0.2235  0.2365
 4734SOL    HW125838   4.153   3.500   4.380  2.4606  1.0807 -1.2665
 4734SOL    HW225839   4.155   3.431   4.248  0.5824  0.2833  0.5460
 4735SOL     OW25840   0.450   4.089  10.727 -0.5595  0.1784  0.3521
 4735SOL    HW125841   0.504   4.167  10.728  0.0437 -0.1995 -2.5679
 4735SOL    HW225842   0.510   4.016  10.708 -0.6619 -0.3129  1.9516
 4736SOL     OW25843   4.611   4.353   5.985 -0.0828 -0.1056  0.2828
 4736SOL    HW125844   4.610   4.309   5.901  0.8967  0.3080  0.0520
 4736SOL    HW225845   4.705   4.353   6.003 -0.1858 -1.4740  0.7993
 4737SOL     OW25846   2.099   2.017   4.560 -0.4645 -0.2437 -0.2691
 4737SOL    HW125847   2.101   2.070   4.639  2.0138  0.4978 -0.8192
 4737SOL    HW225848   2.005   2.014   4.543 -0.5304  0.5188 -0.0187
 4738SOL     OW25849   2.751   2.727   1.987  0.4566  0.1625 -0.5334
 4738SOL    HW125850   2.702   2.647   1.969 -0.1662  0.4800 -0.2255
 4738SOL    HW225851   2.740   2.784   1.911 -1.4728 -0.3729 -0.6444
 4739SOL     OW25852   2.419   0.271   8.941  0.0240  0.3924 -0.4184
 4739SOL    HW125853   2.366   0.211   8.994  1.2505  0.7070  1.1853
 4739SOL    HW225854   2.504   0.268   8.985 -0.8974  1.4187  1.4244
 4740SOL     OW25855   0.067   1.349   1.569  0.6589  0.2235  0.0975
 4740SOL    HW125856   0.148   1.305   1.544  1.2622  0.4115  1.7479
 4740SOL    HW225857   0.006   1.287   1.531  1.4978  0.5312 -1.7633
 4741SOL     OW25858   2.274   4.432   0.737 -0.1730 -0.5896  0.0158
 4741SOL    HW125859   2.360   4.465   0.712 -0.7717  1.0481  0.1661
 4741SOL    HW225860   2.274   4.457   0.829  0.2265  0.4815 -0.2819
 4742SOL     OW25861   2.141   2.334   4.654 -0.0287 -0.6581 -1.0385
 4742SOL    HW125862   2.128   2.360   4.563 -0.7512  0.3013 -0.6514
 4742SOL    HW225863   2.233   2.361   4.659 -0.3363  0.1271  0.4121
 4743SOL     OW25864   1.880   4.317   2.671 -0.0055 -0.0006  0.3825
 4743SOL    HW125865   1.786   4.309   2.654  0.4776 -4.5405 -0.1299
 4743SOL    HW225866   1.893   4.270   2.753 -0.0528  1.5927  1.3094
 4744SOL     OW25867   1.047   3.880  16.265 -0.0024  0.1805  0.1658
 4744SOL    HW125868   1.059   3.889  16.359 -3.2294  0.9301  0.5121
 4744SOL    HW225869   1.056   3.785  16.260 -1.6254  0.1420 -1.9804
 4745SOL     OW25870   4.403   0.024  12.162  0.4305  0.6193  0.0295
 4745SOL    HW125871   4.405   0.109  12.207 -2.7865 -0.2072  1.7906
 4745SOL    HW225872   4.471   4.710  12.205  0.0337 -0.8257 -1.0617
 4746SOL     OW25873   0.356   1.292  10.001 -0.1793  0.5036  0.2767
 4746SOL    HW125874   0.388   1.381   9.990 -0.4363  0.1319 -3.6370
 4746SOL    HW225875   0.329   1.267   9.912  0.1159  1.2355 -0.0161
 4747SOL     OW25876   4.347   2.121   5.341  0.1412  0.6610 -0.1696
 4747SOL    HW125877   4.261   2.153   5.368 -0.3561 -0.3682 -0.5394
 4747SOL    HW225878   4.404   2.157   5.409  0.3619  0.0152 -0.0179
 4748SOL     OW25879   2.424   2.202   4.339  0.0225 -0.0428 -0.3591
 4748SOL    HW125880   2.330   2.216   4.326 -0.6174 -2.0841  2.1337
 4748SOL    HW225881   2.428   2.112   4.372 -1.2599 -0.8336 -2.3654
 4749SOL     OW25882   1.051   0.530   9.689  0.7202  0.2152  0.4310
 4749SOL    HW125883   1.118   0.597   9.707  1.4158 -0.8522  1.7728
 4749SOL    HW225884   1.103   0.469   9.636 -0.2881  0.4064 -0.7963
 4750SOL     OW25885   3.481   1.475   8.316 -0.7219  0.1415 -0.1406
 4750SOL    HW125886   3.478   1.528   8.396 -1.4922 -1.3367  0.8261
 4750SOL    HW225887   3.528   1.527   8.252  3.0321 -0.4535  2.1450
 4751SOL     OW25888   0.307   4.048   3.180  0.3143 -0.1307  0.2425
 4751SOL    HW125889   0.312   3.952   3.177  0.1799 -0.1580  0.9386
 4751SOL    HW225890   0.342   4.079   3.096  0.9093  0.7211  0.8107
 4752SOL     OW25891   3.173   4.468   3.461 -0.3255 -0.0959  0.3702
 4752SOL    HW125892   3.094   4.494   3.414 -0.7841  1.4595  1.9870
 4752SOL    HW225893   3.202   4.557   3.482 -0.1245  0.2969 -1.5925
 4753SOL     OW25894   1.570   3.892   3.182  0.2483  0.0364 -0.6970
 4753SOL    HW125895   1.642   3.920   3.126  0.8812  1.5532  0.8735
 4753SOL    HW225896   1.553   3.979   3.218  0.9187 -0.0689 -0.1308
 4754SOL     OW25897   1.235   0.387   9.544  0.0885 -0.0243 -0.1518
 4754SOL    HW125898   1.258   0.457   9.483 -1.6605  1.1019  0.4522
 4754SOL    HW225899   1.220   0.314   9.485 -1.0007  0.4666 -0.5018
 4755SOL     OW25900   1.014   4.165   7.960 -0.3090  0.2323  0.1840
 4755SOL    HW125901   1.096   4.122   7.936  0.6831  1.6498  1.0173
 4755SOL    HW225902   1.036   4.255   7.937  2.9964 -1.0789 -1.8368
 4756SOL     OW25903   3.338   1.619   8.798  0.4356 -0.2162 -0.8481
 4756SOL    HW125904   3.369   1.704   8.829  0.0036 -0.1384 -0.6233
 4756SOL    HW225905   3.370   1.557   8.864  1.9609 -0.8612 -2.1858
 4757SOL     OW25906   1.295   2.313   4.370 -0.0911  0.0294 -0.1132
 4757SOL    HW125907   1.331   2.397   4.343  2.4713 -0.3441  2.1268
 4757SOL    HW225908   1.200   2.319   4.359 -0.1773 -0.8929  0.1051
 4758SOL     OW25909   1.065   4.378   3.568  0.0507  0.0953  0.3219
 4758SOL    HW125910   1.017   4.450   3.608 -1.4701 -1.3377  1.0697
 4758SOL    HW225911   1.150   4.395   3.608  0.6203 -1.1330 -0.3590
 4759SOL     OW25912   0.318   2.619   8.759 -0.2543  0.3662  0.3379
 4759SOL    HW125913   0.223   2.617   8.772 -0.4012 -0.5155 -0.8530
 4759SOL    HW225914   0.337   2.542   8.705  1.7588  0.9012  0.2927
 4760SOL     OW25915   3.419   1.901   7.145 -0.2947  0.1015  0.2242
 4760SOL    HW125916   3.483   1.956   7.100 -1.1418 -0.4115 -1.6156
 4760SOL    HW225917   3.338   1.914   7.095 -0.7318  0.3286  0.9974
 4761SOL     OW25918   4.296   1.036   0.973 -0.2793 -0.2241  0.1375
 4761SOL    HW125919   4.241   1.110   0.948 -0.1692  0.4350  1.8578
 4761SOL    HW225920   4.384   1.061   0.944 -0.8953  1.7005 -0.0979
 4762SOL     OW25921   1.154   0.782   7.713  0.5116  0.1935 -0.1511
 4762SOL    HW125922   1.064   0.794   7.743  0.2077  1.0719 -1.4040
 4762SOL    HW225923   1.150   0.817   7.624  0.0902  0.9748  0.1820
 4763SOL     OW25924   4.095   2.912  17.660 -0.4345 -0.4360  0.3974
 4763SOL    HW125925   4.131   2.949  17.580 -0.6589 -1.8050 -0.3319
 4763SOL    HW225926   4.011   2.875  17.632 -1.4102  0.7478  1.7635
 4764SOL     OW25927   1.902   1.703   9.464  0.2854 -0.2236 -0.4079
 4764SOL    HW125928   1.933   1.779   9.415 -0.5554  2.2594  3.0035
 4764SOL    HW225929   1.951   1.701   9.547  0.8239 -1.3183 -0.7456
 4765SOL     OW25930   4.166   1.839   5.795 -0.0028  0.1381  0.5530
 4765SOL    HW125931   4.173   1.757   5.844  1.2281  0.0421  0.1913
 4765SOL    HW225932   4.070   1.846   5.796 -0.0247 -0.1755  0.5530
 4766SOL     OW25933   1.338   2.042  12.221 -0.5036 -0.4298 -0.7669
 4766SOL    HW125934   1.423   2.082  12.239 -0.8649 -0.0834  0.1518
 4766SOL    HW225935   1.285   2.067  12.297  0.2688  1.0853 -0.7272
 4767SOL     OW25936   4.070   0.974   2.028  0.4906  0.3171  0.4118
 4767SOL    HW125937   3.989   0.968   2.077  0.6681  0.7098  0.7557
 4767SOL    HW225938   4.103   1.064   2.035 -0.1029  0.6618 -1.0667
 4768SOL     OW25939   4.666   4.699  14.163  0.9326  0.5174 -0.5891
 4768SOL    HW125940   4.707   0.048  14.158  1.3056  0.3920  0.3192
 4768SOL    HW225941   4.705   4.658  14.086  1.8597 -1.1223  0.7610
 4769SOL     OW25942   3.967   3.062   3.415 -0.5904 -0.7796 -0.1881
 4769SOL    HW125943   3.910   3.138   3.428  0.9087  0.5800 -1.4416
 4769SOL    HW225944   3.913   3.007   3.358 -0.7810 -0.3605 -0.4154
 4770SOL     OW25945   0.853   3.918   2.796 -0.4794  0.3890  0.7960
 4770SOL    HW125946   0.794   3.993   2.787 -0.3783  0.3132 -0.5616
 4770SOL    HW225947   0.860   3.922   2.891  0.9422  0.2584  0.6895
 4771SOL     OW25948   1.314   1.360   7.189 -0.2648 -0.0443 -0.2171
 4771SOL    HW125949   1.365   1.441   7.198 -0.2445  0.0221 -0.9559
 4771SOL    HW225950   1.380   1.300   7.156 -0.1163  0.7051 -1.2587
 4772SOL     OW25951   4.427   0.228  12.504 -0.4563 -0.3119  0.4544
 4772SOL    HW125952   4.493   0.217  12.572 -1.8038  0.4996  1.8911
 4772SOL    HW225953   4.349   0.195  12.549 -1.0172  0.3576 -0.0210
 4773SOL     OW25954   1.354   1.427  11.900  0.0941  0.1145  0.5028
 4773SOL    HW125955   1.443   1.448  11.927 -0.1762 -0.5917  1.9707
 4773SOL    HW225956   1.356   1.452  11.808  1.4172 -0.2242  0.4371
 4774SOL     OW25957   2.666   0.038  13.043  0.5058  0.3541  0.1763
 4774SOL    HW125958   2.701   4.703  13.096  0.3214  1.0837  1.2684
 4774SOL    HW225959   2.578   0.044  13.078  2.2383  2.6013  4.1001
 4775SOL     OW25960   0.897   3.720   0.045 -0.4120 -0.8409  0.3285
 4775SOL    HW125961   0.943   3.718  17.708 -0.1231 -3.3645  0.5321
 4775SOL    HW225962   0.947   3.793   0.082  1.6230 -2.1379  0.1209
 4776SOL     OW25963   2.789   1.935   9.020 -0.3314 -0.0628 -0.8259
 4776SOL    HW125964   2.812   1.881   9.095 -1.1548  1.7369  0.7435
 4776SOL    HW225965   2.695   1.947   9.035 -0.9496 -2.6225 -2.6057
 4777SOL     OW25966   0.005   3.420   7.950 -0.0675  0.3363 -0.3435
 4777SOL    HW125967   0.050   3.501   7.973  2.8029 -1.1875 -0.6606
 4777SOL    HW225968   4.682   3.418   8.024  0.4741 -0.1551  0.0810
 4778SOL     OW25969   0.074   1.617  10.584 -0.5392 -0.4330  0.1792
 4778SOL    HW125970   0.051   1.550  10.519 -1.4357 -0.2313  0.2894
 4778SOL    HW225971   0.072   1.565  10.664 -0.5377 -0.5943  0.0755
 4779SOL     OW25972   3.474   1.706   4.751  0.0695  0.1062  0.2186
 4779SOL    HW125973   3.537   1.636   4.769  1.0577  0.5045 -1.7205
 4779SOL    HW225974   3.422   1.710   4.831 -1.2927 -1.2588 -0.5836
 4780SOL     OW25975   1.367   0.870   6.833 -0.1951 -0.5907 -0.6310
 4780SOL    HW125976   1.372   0.965   6.818 -0.5705 -0.7165 -1.5026
 4780SOL    HW225977   1.294   0.851   6.775 -1.2721  0.2131  0.4553
 4781SOL     OW25978   3.247   3.469   2.056  0.6894 -0.2871  0.3409
 4781SOL    HW125979   3.300   3.433   2.127  0.8866  0.3282  0.5015
 4781SOL    HW225980   3.305   3.458   1.980  1.3206  2.0940  0.4877
 4782SOL     OW25981   1.706   0.881  16.100 -0.3667  0.3211 -0.1695
 4782SOL    HW125982   1.710   0.821  16.174 -4.8600  0.3961  0.1414
 4782SOL    HW225983   1.734   0.962  16.143 -3.5742  1.9130 -1.0238
 4783SOL     OW25984   4.309   1.086   5.468 -0.5841  0.1639  0.0904
 4783SOL    HW125985   4.337   1.004   5.511  2.6452  0.1295 -2.0188
 4783SOL    HW225986   4.343   1.057   5.383 -2.5416  2.3679 -1.4312
 4784SOL     OW25987   1.166   4.135  16.241 -0.6392  0.4341  0.8888
 4784SOL    HW125988   1.100   4.067  16.233 -0.2805  0.1673  0.1182
 4784SOL    HW225989   1.232   4.090  16.187 -1.3309 -1.6242  1.7783
 4785SOL     OW25990   1.335   4.716  10.704 -0.2995 -0.0934 -0.5576
 4785SOL    HW125991   1.312   4.658  10.777 -0.9863  0.0992 -0.6196
 4785SOL    HW225992   1.356   0.062  10.748  0.9713 -0.9863  0.5245
 4786SOL     OW25993   0.201   2.436   4.956  0.6385  0.6918 -0.4223
 4786SOL    HW125994   0.208   2.505   4.890 -1.8239  0.9232 -0.4461
 4786SOL    HW225995   0.149   2.476   5.025  1.3228  1.0430 -0.1057
 4787SOL     OW25996   0.884   0.588   5.818 -0.1164  0.0416  0.3873
 4787SOL    HW125997   0.821   0.539   5.869 -0.9240  0.5418 -0.1241
 4787SOL    HW225998   0.835   0.613   5.739 -0.3602  2.3306  1.2617
 4788SOL     OW25999   2.587   2.134   9.307 -0.2389  0.3006 -0.0710
 4788SOL    HW126000   2.559   2.052   9.267 -1.3952  0.7529 -0.2050
 4788SOL    HW226001   2.527   2.196   9.266 -0.8978 -0.8866 -0.9065
 4789SOL     OW26002   3.997   0.750   3.417 -0.0515 -0.5554 -0.1153
 4789SOL    HW126003   3.993   0.780   3.508 -0.5650 -0.9058 -0.0219
 4789SOL    HW226004   4.093   0.755   3.418 -0.1104  0.2856  1.2488
 4790SOL     OW26005   1.737   0.468   4.740 -0.3237 -0.0588 -0.3338
 4790SOL    HW126006   1.680   0.466   4.817  0.7547 -1.1428  0.4407
 4790SOL    HW226007   1.688   0.505   4.667  2.3820  1.0618 -1.5881
 4791SOL     OW26008   4.147   0.268   6.646 -0.2802 -0.4242 -0.2431
 4791SOL    HW126009   4.122   0.280   6.737  1.4303  0.4616  0.1139
 4791SOL    HW226010   4.070   0.228   6.606  0.3318 -1.5370 -0.3089
 4792SOL     OW26011   4.703   2.572   4.469  0.2390 -0.0868  0.2370
 4792SOL    HW126012   0.059   2.569   4.489  0.8604 -0.6311 -2.8566
 4792SOL    HW226013   4.680   2.663   4.489 -0.9836 -0.0157 -1.5476
 4793SOL     OW26014   3.241   1.150   2.759 -0.8336  0.2340 -0.2986
 4793SOL    HW126015   3.333   1.159   2.736 -0.1097  1.7089  3.1385
 4793SOL    HW226016   3.238   1.071   2.813 -1.2433 -0.0030 -0.6656
 4794SOL     OW26017   2.841   0.534   1.644  0.1199 -0.0317 -0.2566
 4794SOL    HW126018   2.903   0.594   1.686 -0.0106  0.3229 -0.5794
 4794SOL    HW226019   2.893   0.454   1.631 -1.2700 -1.1795  1.2768
 4795SOL     OW26020   0.615   3.476   0.372  0.2308  0.1253 -0.2867
 4795SOL    HW126021   0.605   3.382   0.360  1.9136  0.0365 -0.9068
 4795SOL    HW226022   0.668   3.497   0.295  2.2451  2.3380  1.7167
 4796SOL     OW26023   4.541   0.519   8.106 -0.1534  0.1947 -0.0018
 4796SOL    HW126024   4.526   0.453   8.174  0.5380  1.2166  1.1461
 4796SOL    HW226025   4.599   0.579   8.153 -0.7346  1.2937 -0.6955
 4797SOL     OW26026   0.674   0.363   7.547 -0.8213 -0.3120  0.1593
 4797SOL    HW126027   0.711   0.373   7.459 -3.1800  1.2480 -0.6486
 4797SOL    HW226028   0.588   0.401   7.528 -0.6862  0.7435  1.6251
 4798SOL     OW26029   4.488   2.337   6.523 -0.3871  0.4126  0.5141
 4798SOL    HW126030   4.506   2.358   6.431 -2.4671  0.1770  0.0538
 4798SOL    HW226031   4.559   2.377   6.573  0.6000 -0.0366 -0.5252
 4799SOL     OW26032   3.209   3.487   5.668  0.0955  0.0415  0.2641
 4799SOL    HW126033   3.253   3.534   5.597  0.4672  0.4388  0.7542
 4799SOL    HW226034   3.274   3.423   5.697  0.4610  0.9259  1.4214
 4800SOL     OW26035   2.974   0.074   5.044 -0.0129  0.1142  0.0511
 4800SOL    HW126036   2.932   0.115   5.120 -0.0638 -1.4776  0.8839
 4800SOL    HW226037   2.940   0.129   4.973 -1.0267  0.9643  1.1904
 4801SOL     OW26038   4.577   1.372   4.403 -0.4960 -1.1792 -0.0286
 4801SOL    HW126039   4.656   1.321   4.422 -0.2570 -0.0747  1.9140
 4801SOL    HW226040   4.554   1.398   4.492 -2.0315 -0.1019 -0.7452
 4802SOL     OW26041   2.691   1.726   8.760  0.0268  0.0630  0.3326
 4802SOL    HW126042   2.630   1.673   8.709 -0.0134  0.6412 -0.2163
 4802SOL    HW226043   2.634   1.793   8.797  0.1250  1.5079 -2.1584
 4803SOL     OW26044   4.380   2.630   8.542 -0.5487 -0.4718  0.5635
 4803SOL    HW126045   4.354   2.631   8.634  0.6178 -0.1388  0.8875
 4803SOL    HW226046   4.403   2.539   8.522  1.7959 -0.4388  3.0971
 4804SOL     OW26047   1.640   1.266   9.262  0.6615 -0.0328  0.3064
 4804SOL    HW126048   1.554   1.300   9.285  0.5836 -0.3833  0.5357
 4804SOL    HW226049   1.656   1.300   9.175  1.2960  0.2378  0.5318
 4805SOL     OW26050   0.687   3.894   8.687 -0.3747 -0.3247 -0.5056
 4805SOL    HW126051   0.644   3.961   8.633 -0.8972  0.8010  1.2778
 4805SOL    HW226052   0.650   3.907   8.774  1.4714  0.8171  0.1162
 4806SOL     OW26053   2.565   3.993   5.815  0.0546  0.1950 -0.4874
 4806SOL    HW126054   2.638   3.978   5.875  1.4575 -0.7875 -2.4328
 4806SOL    HW226055   2.580   3.931   5.744  0.1832 -0.4351  0.0821
 4807SOL     OW26056   3.834   1.328   2.630  0.5289  0.3865  0.1481
 4807SOL    HW126057   3.788   1.406   2.599 -2.0938 -1.9188 -1.7060
 4807SOL    HW226058   3.880   1.356   2.709 -0.2748  1.8350  0.0953
 4808SOL     OW26059   0.486   3.508   7.499  0.3907 -0.8513  0.0628
 4808SOL    HW126060   0.483   3.587   7.553  1.2757 -0.4208 -0.5262
 4808SOL    HW226061   0.504   3.446   7.570 -1.8991 -0.4266  1.0103
 4809SOL     OW26062   0.163   1.065   6.783 -0.6778  0.0812  0.3291
 4809SOL    HW126063   0.154   1.137   6.720  0.1692  0.2260  0.3682
 4809SOL    HW226064   0.210   1.106   6.855 -0.2195  0.2256 -0.0513
 4810SOL     OW26065   2.632   3.792   5.605 -0.3076 -0.6933 -0.2288
 4810SOL    HW126066   2.613   3.827   5.518 -2.6444 -0.6527  0.2894
 4810SOL    HW226067   2.600   3.702   5.601  1.2496 -1.1721 -1.5011
 4811SOL     OW26068   4.102   0.708   2.971  0.2705  0.0817 -0.5101
 4811SOL    HW126069   4.015   0.670   2.953  0.0384 -0.1763  1.2232
 4811SOL    HW226070   4.090   0.802   2.984  0.7302 -0.0054  0.4585
 4812SOL     OW26071   2.438   4.690  15.672 -0.3672 -0.6079  0.1321
 4812SOL    HW126072   2.392   4.638  15.606  2.3208 -0.0001 -2.2380
 4812SOL    HW226073   2.361   4.721  15.718  0.7610  0.2125  1.4720
 4813SOL     OW26074   0.746   3.368   1.440  0.3291  0.2335 -0.3345
 4813SOL    HW126075   0.801   3.334   1.510 -1.2934  0.6167  1.1394
 4813SOL    HW226076   0.781   3.325   1.362 -1.4011  2.1061 -2.1339
 4814SOL     OW26077   2.358   1.854   5.985  0.2442  0.0992  0.3508
 4814SOL    HW126078   2.446   1.887   6.003 -0.1193  0.7352  0.9529
 4814SOL    HW226079   2.348   1.890   5.897  0.8186 -3.6262 -1.2611
 4815SOL     OW26080   1.893   1.984   2.968  0.0313  0.3946  0.3129
 4815SOL    HW126081   1.822   2.039   3.000  1.3911  2.3233  0.0122
 4815SOL    HW226082   1.971   2.039   2.969  0.6230 -0.4187 -0.7227
 4816SOL     OW26083   0.033   2.197   9.153 -0.2854 -0.2010  0.9513
 4816SOL    HW126084   0.023   2.222   9.244 -0.5160 -0.2271  0.9318
 4816SOL    HW226085   4.694   2.140   9.143 -0.2942 -0.0772  0.3207
 4817SOL     OW26086   2.043   1.742   8.186 -0.3160  0.2428  0.2479
 4817SOL    HW126087   2.096   1.802   8.134 -1.7275 -0.8002 -2.3872
 4817SOL    HW226088   2.095   1.735   8.266  4.2729  2.0660 -2.5800
 4818SOL     OW26089   4.317   4.096   4.100  0.1305  0.3209 -0.0153
 4818SOL    HW126090   4.400   4.050   4.091 -0.0112  0.3300 -1.4565
 4818SOL    HW226091   4.331   4.174   4.045  1.8440 -0.8358 -1.2246
 4819SOL     OW26092   3.324   2.876   1.433  0.3592 -0.4763 -0.4095
 4819SOL    HW126093   3.348   2.783   1.435  1.1015 -0.2895 -0.5883
 4819SOL    HW226094   3.406   2.920   1.455  0.5083 -1.3816  0.8747
 4820SOL     OW26095   1.943   1.943   8.825  0.0989  0.1050 -0.0502
 4820SOL    HW126096   1.933   2.036   8.847 -0.2205 -0.4765  2.2101
 4820SOL    HW226097   1.961   1.903   8.910 -0.9761  0.4414  0.3409
 4821SOL     OW26098   0.421   4.220  16.296  0.3387 -0.0665  0.3733
 4821SOL    HW126099   0.349   4.268  16.254  0.7332  0.2886  0.1062
 4821SOL    HW226100   0.470   4.188  16.221  0.4565 -0.5716  0.6628
 4822SOL     OW26101   2.899   2.530   8.173  0.6119  0.1126  0.0134
 4822SOL    HW126102   2.853   2.452   8.206 -0.9900  0.7363 -0.7536
 4822SOL    HW226103   2.980   2.525   8.223  0.5396  0.7176  0.1954
 4823SOL     OW26104   4.682   0.418   9.484  0.4311  0.1784 -0.2581
 4823SOL    HW126105   4.599   0.441   9.525  0.1565 -2.8270  0.8690
 4823SOL    HW226106   4.680   0.323   9.501 -1.4268  0.1754 -0.5032
 4824SOL     OW26107   3.853   0.994  16.724 -0.0969 -1.0163 -0.2002
 4824SOL    HW126108   3.766   1.004  16.763 -0.4162  0.8558 -1.3870
 4824SOL    HW226109   3.856   0.898  16.727 -1.4684 -0.9624  2.7812
 4825SOL     OW26110   0.972   2.591   1.629 -0.1462  0.1940  0.1761
 4825SOL    HW126111   0.919   2.517   1.657  2.2007 -1.8669 -0.8937
 4825SOL    HW226112   0.916   2.658   1.588 -0.2662  0.1464  0.2628
 4826SOL     OW26113   1.700   3.816   2.764  0.0327  0.1933 -0.1530
 4826SOL    HW126114   1.763   3.852   2.701 -1.2297 -0.3645 -1.7554
 4826SOL    HW226115   1.728   3.725   2.754  1.0169  0.2963  1.6964
 4827SOL     OW26116   0.411   2.865   8.550  0.0958 -0.2979 -0.3912
 4827SOL    HW126117   0.358   2.796   8.512  1.7565 -1.4810 -0.5651
 4827SOL    HW226118   0.493   2.869   8.499  1.2331 -1.0997  1.3949
 4828SOL     OW26119   1.551   1.661   8.584  0.0779 -0.4030  0.0487
 4828SOL    HW126120   1.620   1.712   8.625 -1.1920  0.4674  1.0911
 4828SOL    HW226121   1.519   1.720   8.515 -2.2105 -0.8784  0.7042
 4829SOL     OW26122   3.827   1.202   3.718  0.3473  0.4928 -0.8235
 4829SOL    HW126123   3.833   1.290   3.682  1.2368  0.8892  0.3135
 4829SOL    HW226124   3.822   1.219   3.812 -0.8101 -1.3110 -0.5579
 4830SOL     OW26125   3.802   0.064  13.852  0.8764  0.1465 -0.5607
 4830SOL    HW126126   3.763   0.143  13.888 -0.9527 -2.0227  2.2150
 4830SOL    HW226127   3.874   0.051  13.915  0.5028  1.4403  0.1326
 4831SOL     OW26128   1.469   0.462   4.881 -0.6228 -0.0561  0.1027
 4831SOL    HW126129   1.454   0.545   4.927 -0.0574 -0.2922  0.7155
 4831SOL    HW226130   1.405   0.459   4.810  0.5196  1.3795 -0.9897
 4832SOL     OW26131   0.897   0.917   6.808  0.4966 -0.2637  0.1486
 4832SOL    HW126132   0.805   0.898   6.789  0.9620 -0.7687 -1.5191
 4832SOL    HW226133   0.904   0.997   6.756 -1.3255  0.3299  0.7909
 4833SOL     OW26134   1.906   4.278   8.225  0.4756  0.3720  0.2673
 4833SOL    HW126135   1.868   4.287   8.138  1.4316 -0.5685 -0.2507
 4833SOL    HW226136   1.985   4.229   8.202 -1.9958 -3.3228 -0.3760
 4834SOL     OW26137   0.470   2.185   8.630  0.3694  0.3644  0.5424
 4834SOL    HW126138   0.432   2.221   8.711 -0.6995 -1.0302  0.6715
 4834SOL    HW226139   0.549   2.145   8.666  0.9414  0.8729 -0.1490
 4835SOL     OW26140   1.326   3.745  16.094 -0.3322 -0.0175  0.0815
 4835SOL    HW126141   1.288   3.773  16.177 -1.2530  0.2655 -0.4329
 4835SOL    HW226142   1.342   3.651  16.100  2.4825  0.4624  0.2462
 4836SOL     OW26143   3.764   1.452   4.289  0.0565  0.6239 -0.5670
 4836SOL    HW126144   3.856   1.458   4.316 -0.0553 -2.1231  0.4212
 4836SOL    HW226145   3.744   1.368   4.329 -0.2988  2.0403  2.2404
 4837SOL     OW26146   1.035   1.625   9.916  0.1280 -0.6559 -0.0412
 4837SOL    HW126147   1.121   1.588   9.936 -0.1048 -0.4178  1.4005
 4837SOL    HW226148   0.986   1.548   9.884  0.3257 -1.4807  1.6371
 4838SOL     OW26149   1.316   0.678  13.359 -0.4222  0.4526 -0.7368
 4838SOL    HW126150   1.320   0.670  13.454  0.6727 -3.5894 -1.1254
 4838SOL    HW226151   1.228   0.642  13.347  0.6818 -2.4323 -0.0603
 4839SOL     OW26152   3.990   4.696   6.316  0.5837 -0.1924  0.3972
 4839SOL    HW126153   4.057   4.651   6.367  0.2033  0.5620  1.5509
 4839SOL    HW226154   3.957   4.629   6.256  0.5512 -0.1084  0.3216
 4840SOL     OW26155   4.074   3.984   1.118  0.0645 -0.2563 -0.1997
 4840SOL    HW126156   3.986   3.989   1.154  0.0627  0.2955 -0.2796
 4840SOL    HW226157   4.073   3.907   1.062  0.8334 -1.5625  1.6085
 4841SOL     OW26158   0.154   2.218   9.893 -0.4787 -0.0757  0.0973
 4841SOL    HW126159   0.156   2.220   9.988  3.4219 -0.6759  0.0323
 4841SOL    HW226160   0.241   2.184   9.875  0.7056  1.9260  2.0205
 4842SOL     OW26161   0.022   0.599   4.413  0.5024 -0.5542  0.3271
 4842SOL    HW126162   0.078   0.676   4.404  1.4579 -0.8899  3.3089
 4842SOL    HW226163   4.698   0.635   4.478 -1.5636  0.9229 -2.4278
 4843SOL     OW26164   2.182   2.538  16.826  0.1919  0.3217 -0.0434
 4843SOL    HW126165   2.114   2.515  16.889  0.5546  0.1471  0.2912
 4843SOL    HW226166   2.174   2.633  16.832 -0.2395  0.3035 -0.4268
 4844SOL     OW26167   4.728   4.019   2.682  0.0246 -0.2195  0.4505
 4844SOL    HW126168   0.013   4.089   2.620 -1.4703 -0.4270 -0.3353
 4844SOL    HW226169   0.069   4.021   2.737  0.7863  0.2673 -0.6384
 4845SOL     OW26170   3.576   3.990  10.724 -0.1950 -0.1817 -0.5843
 4845SOL    HW126171   3.591   4.044  10.802  2.0870 -2.5386  0.5973
 4845SOL    HW226172   3.635   4.028  10.660  1.0306 -0.1579  0.5511
 4846SOL     OW26173   2.144   0.766   7.043  0.5252 -0.8671 -0.3136
 4846SOL    HW126174   2.051   0.780   7.026  0.4197 -1.3593 -0.1587
 4846SOL    HW226175   2.155   0.671   7.051  0.1698 -0.9771 -1.1290
 4847SOL     OW26176   1.129   0.277   7.946  0.9505 -0.8842  0.1240
 4847SOL    HW126177   1.202   0.334   7.920  1.7482 -0.9197  2.3573
 4847SOL    HW226178   1.171   0.224   8.013  1.0640 -0.6006  0.2775
 4848SOL     OW26179   4.080   2.042  17.534 -1.0638 -0.1874 -0.1250
 4848SOL    HW126180   4.082   2.001  17.448 -2.2930 -0.3257 -0.0890
 4848SOL    HW226181   3.986   2.060  17.541 -0.7237  1.6419 -0.0370
 4849SOL     OW26182   0.507   0.215   4.510 -0.0348 -0.8862  0.6776
 4849SOL    HW126183   0.566   0.268   4.563 -2.0101  0.6685  1.3145
 4849SOL    HW226184   0.432   0.204   4.569 -2.2547 -2.6107 -2.4569
 4850SOL     OW26185   0.646   4.280   8.089  0.4507  0.4480  0.0851
 4850SOL    HW126186   0.670   4.281   8.182 -0.0111  2.0364  0.2021
 4850SOL    HW226187   0.669   4.371   8.067  0.5878  0.4490  0.2322
 4851SOL     OW26188   3.504   2.369   3.013  0.0276  0.4090 -0.2385
 4851SOL    HW126189   3.481   2.447   2.964 -1.8990 -0.6644 -1.0284
 4851SOL    HW226190   3.534   2.409   3.094 -3.0135 -0.5910  1.3581
 4852SOL     OW26191   2.837   2.008   4.527 -0.5794  0.1009  0.0115
 4852SOL    HW126192   2.790   1.968   4.600 -1.4925  2.6123  0.8126
 4852SOL    HW226193   2.919   2.027   4.572  0.9196 -0.7728 -2.3493
 4853SOL     OW26194   3.999   1.200  17.567  0.3538  0.1173  0.4887
 4853SOL    HW126195   3.943   1.155  17.630  0.0253  0.8044  0.6906
 4853SOL    HW226196   4.007   1.137  17.496 -1.3776  0.1027  0.3051
 4854SOL     OW26197   1.591   0.983  15.868 -0.1632  0.1228  0.3483
 4854SOL    HW126198   1.543   1.052  15.914 -3.9094 -1.3782 -1.3028
 4854SOL    HW226199   1.636   0.937  15.938  0.2564  1.4539  0.9686
 4855SOL     OW26200   4.349   0.440   6.535 -0.4956 -0.6805  0.2303
 4855SOL    HW126201   4.422   0.415   6.590 -0.5514 -0.3197  0.4672
 4855SOL    HW226202   4.278   0.380   6.558  0.1498 -2.0528 -1.3094
 4856SOL     OW26203   1.003   0.129   2.375  0.4557 -0.1898  0.1633
 4856SOL    HW126204   1.042   0.075   2.305 -0.3343 -1.1155  0.4333
 4856SOL    HW226205   1.024   0.076   2.452 -1.5886 -1.7558 -0.3729
 4857SOL     OW26206   1.193   2.771   5.895 -0.3255 -0.3240  0.3715
 4857SOL    HW126207   1.180   2.679   5.872 -0.1507 -0.6645  1.6630
 4857SOL    HW226208   1.283   2.765   5.925 -0.2359  1.4308  0.4610
 4858SOL     OW26209   3.429   0.247   4.271  0.3623 -0.2438 -0.1947
 4858SOL    HW126210   3.512   0.202   4.257  0.2339 -0.5939  0.1558
 4858SOL    HW226211   3.378   0.181   4.317 -0.0400  0.6315  0.6276
 4859SOL     OW26212   1.724   1.512   4.031 -0.5653  0.1730 -0.4906
 4859SOL    HW126213   1.768   1.565   3.964 -0.7242  2.6351  1.3268
 4859SOL    HW226214   1.788   1.446   4.058 -1.1090  0.2721  1.0325
 4860SOL     OW26215   4.144   0.808   8.109  0.0171  0.8093  0.1685
 4860SOL    HW126216   4.132   0.760   8.027  1.5434 -0.2114  0.5486
 4860SOL    HW226217   4.233   0.843   8.097  0.0103  1.4433  1.9983
 4861SOL     OW26218   3.868   1.473   3.080  0.3954  0.5570 -0.0686
 4861SOL    HW126219   3.903   1.543   3.134 -1.2239  0.1748  1.4658
 4861SOL    HW226220   3.783   1.468   3.124  0.1028 -0.0759 -0.6833
 4862SOL     OW26221   0.676   1.212   0.175 -0.8449 -0.0866  0.0527
 4862SOL    HW126222   0.587   1.212   0.210 -0.9793  1.1454 -0.2737
 4862SOL    HW226223   0.715   1.267   0.243  0.2532 -0.6853 -0.0915
 4863SOL     OW26224   1.649   2.422  13.486  0.7694  0.0770 -0.1960
 4863SOL    HW126225   1.665   2.514  13.503 -0.8533  1.0686 -3.9569
 4863SOL    HW226226   1.716   2.387  13.545  0.6483  1.8234  0.9690
 4864SOL     OW26227   0.581   0.662   0.586  0.2755 -0.1992 -0.0401
 4864SOL    HW126228   0.498   0.692   0.622  1.1626 -0.1231  2.0070
 4864SOL    HW226229   0.556   0.630   0.500 -1.9911 -0.1832  0.6161
 4865SOL     OW26230   1.811   4.213  11.157 -0.0105 -0.0018 -0.1440
 4865SOL    HW126231   1.716   4.226  11.149 -0.0618  0.0534  0.5920
 4865SOL    HW226232   1.815   4.129  11.111 -3.2403  0.2601 -0.9439
 4866SOL     OW26233   1.541   4.487   6.618 -0.2913  0.0725  0.9827
 4866SOL    HW126234   1.521   4.576   6.648  0.8026  0.7043 -0.1714
 4866SOL    HW226235   1.635   4.486   6.601 -0.5697 -0.2086 -0.4792
 4867SOL     OW26236   2.335   2.402   6.967  0.5086  0.2504 -0.6847
 4867SOL    HW126237   2.411   2.381   6.914  1.2337  2.0151 -0.3718
 4867SOL    HW226238   2.324   2.323   7.020  0.7595  0.8014  0.1861
 4868SOL     OW26239   2.025   2.619   2.054  0.2668 -0.5177  0.3681
 4868SOL    HW126240   2.111   2.618   2.013  0.4389  0.1985  0.7223
 4868SOL    HW226241   1.972   2.622   1.974 -0.0404  2.0840  0.6816
 4869SOL     OW26242   3.642   1.430   9.334 -0.2343 -0.1725  0.3048
 4869SOL    HW126243   3.616   1.363   9.270  1.5013 -0.6464  0.0985
 4869SOL    HW226244   3.580   1.500   9.314 -0.2299 -0.2927 -0.1307
 4870SOL     OW26245   4.190   3.299  15.104  0.5814  0.1794  0.1362
 4870SOL    HW126246   4.241   3.223  15.078  0.9078  0.8478 -1.1600
 4870SOL    HW226247   4.168   3.325  15.015  0.1913 -0.0181  0.1754
 4871SOL     OW26248   2.826   3.454   2.417  0.4603 -0.2486 -0.0263
 4871SOL    HW126249   2.769   3.459   2.341  1.9541  0.7461 -1.0919
 4871SOL    HW226250   2.845   3.360   2.421  1.2040 -0.0246  1.9301
 4872SOL     OW26251   4.061   1.955  15.446 -0.0013  0.2228 -0.3546
 4872SOL    HW126252   4.144   1.919  15.416  0.3648  0.7769 -0.0046
 4872SOL    HW226253   3.990   1.896  15.422  2.5342 -2.7327 -0.5807
 4873SOL     OW26254   1.034   1.030   9.710  0.2034 -0.1858  0.0430
 4873SOL    HW126255   1.104   0.974   9.677 -1.1965 -0.4016 -2.5553
 4873SOL    HW226256   1.080   1.114   9.714  0.2741 -0.2091 -0.3220
 4874SOL     OW26257   0.204   2.274   3.983  0.0201  0.7903 -0.2766
 4874SOL    HW126258   0.140   2.252   4.051  2.6340  1.8902  2.5769
 4874SOL    HW226259   0.143   2.285   3.911  0.6920  1.0088 -0.8088
 4875SOL     OW26260   0.501   0.517  15.546  0.0995  0.1127  0.1076
 4875SOL    HW126261   0.425   0.537  15.493  0.6007  0.4484 -0.4852
 4875SOL    HW226262   0.552   0.597  15.531 -1.5570  1.4882  1.7802
 4876SOL     OW26263   2.583   4.707   3.414 -0.0300 -0.1073 -0.4228
 4876SOL    HW126264   2.542   0.045   3.457 -0.0415  0.7712 -1.9718
 4876SOL    HW226265   2.523   4.687   3.342 -0.0988  0.2693 -0.4732
 4877SOL     OW26266   3.299   2.925   5.697 -0.5595 -0.2164  0.1032
 4877SOL    HW126267   3.298   2.855   5.762  2.2196 -1.1879 -0.8795
 4877SOL    HW226268   3.295   2.999   5.756 -0.4818 -0.8518  0.9076
 4878SOL     OW26269   2.391   1.955   6.434 -0.4389  0.0597  0.0522
 4878SOL    HW126270   2.311   1.944   6.383 -0.7143 -2.1269  0.9794
 4878SOL    HW226271   2.352   1.958   6.521  3.5722 -3.3579  1.9802
 4879SOL     OW26272   4.148   0.944  10.793  0.0022 -0.1041 -0.0600
 4879SOL    HW126273   4.142   1.014  10.858 -1.6990 -0.9480  0.6791
 4879SOL    HW226274   4.068   0.966  10.744  1.6256  0.9404 -2.2446
 4880SOL     OW26275   1.141   0.866   3.939  0.1396 -0.0502 -0.5210
 4880SOL    HW126276   1.204   0.796   3.958  1.3993  1.3936  0.6131
 4880SOL    HW226277   1.159   0.893   3.849 -0.9963 -1.1817 -1.0754
 4881SOL     OW26278   3.714   4.519   4.119 -0.3529 -0.0376  0.0925
 4881SOL    HW126279   3.679   4.431   4.105 -0.2280 -0.0427 -0.1721
 4881SOL    HW226280   3.808   4.514   4.100 -0.3272 -0.5749  0.3403
 4882SOL     OW26281   2.387   2.673   7.138  0.3137 -0.5190  0.3427
 4882SOL    HW126282   2.351   2.585   7.150 -1.2915 -0.2036 -2.1319
 4882SOL    HW226283   2.432   2.652   7.056 -2.4281 -3.0772 -0.5097
 4883SOL     OW26284   3.542   2.820   6.185 -0.0594 -0.0930  0.7915
 4883SOL    HW126285   3.624   2.826   6.234  0.9697  1.7820 -1.1419
 4883SOL    HW226286   3.553   2.738   6.137  1.0720  0.0872  0.7348
 4884SOL     OW26287   0.120   1.773   6.107  0.0630 -0.3978 -0.5092
 4884SOL    HW126288   0.105   1.867   6.106  0.1539 -0.3856 -1.0372
 4884SOL    HW226289   0.038   1.746   6.063  0.6264 -3.2630  0.1752
 4885SOL     OW26290   4.144   3.763   9.886  0.0561  0.3491 -0.5579
 4885SOL    HW126291   4.111   3.744   9.974  1.2114  0.2997 -0.1376
 4885SOL    HW226292   4.167   3.673   9.865  0.2088  0.4357 -0.7576
 4886SOL     OW26293   3.285   3.799   8.221  0.5353 -0.2286 -0.0126
 4886SOL    HW126294   3.204   3.757   8.193  1.6379 -0.4220 -2.9709
 4886SOL    HW226295   3.353   3.745   8.179  0.4391  1.0197 -1.7807
 4887SOL     OW26296   1.022   1.364   7.933 -0.1615 -0.1969  0.2173
 4887SOL    HW126297   0.937   1.319   7.939 -0.8414  1.0110 -0.3449
 4887SOL    HW226298   0.994   1.455   7.936 -2.1540 -0.8049  0.5953
 4888SOL     OW26299   3.357   2.333  11.867 -0.1893 -0.8551  0.5671
 4888SOL    HW126300   3.440   2.338  11.915 -0.5063 -0.4183  1.0661
 4888SOL    HW226301   3.304   2.406  11.900 -1.1205 -0.7952 -1.0849
 4889SOL     OW26302   1.764   1.543  13.017  0.2345 -0.1144  0.5331
 4889SOL    HW126303   1.757   1.637  13.034  0.4816 -0.0649  0.3626
 4889SOL    HW226304   1.859   1.527  13.019  0.2913  0.2128  0.4570
 4890SOL     OW26305   3.816   4.069  15.204  0.4076  0.6726  0.6020
 4890SOL    HW126306   3.725   4.090  15.227  0.4857  0.9048  0.6935
 4890SOL    HW226307   3.798   4.082  15.110 -0.9594 -1.9859  0.4823
 4891SOL     OW26308   3.863   4.229   4.782 -0.2786 -0.2944  0.0913
 4891SOL    HW126309   3.921   4.212   4.856  2.5109  1.6113 -1.6504
 4891SOL    HW226310   3.832   4.315   4.809 -1.5010 -0.1409 -1.7758
 4892SOL     OW26311   4.249   2.922  13.763  0.3411  0.0982 -0.2181
 4892SOL    HW126312   4.317   2.859  13.738 -0.3280 -0.6591 -0.1170
 4892SOL    HW226313   4.165   2.881  13.745  0.1140 -0.4637  2.2088
 4893SOL     OW26314   4.147   3.313  12.125 -0.3796 -0.1476  0.6277
 4893SOL    HW126315   4.216   3.376  12.147  0.1911 -1.0447  1.3786
 4893SOL    HW226316   4.090   3.315  12.202 -0.2684  0.2862  0.6980
 4894SOL     OW26317   1.316   2.366   8.084 -0.1944 -0.1104 -0.3417
 4894SOL    HW126318   1.388   2.339   8.141 -0.8010 -0.4306  0.2799
 4894SOL    HW226319   1.355   2.361   7.997  0.1094  0.0864 -0.2175
 4895SOL     OW26320   2.614   2.990   8.038 -0.0973 -0.0251  0.3575
 4895SOL    HW126321   2.587   2.914   8.090 -0.3578  0.6099  1.1450
 4895SOL    HW226322   2.668   2.951   7.969 -0.8987 -0.7942  0.1658
 4896SOL     OW26323   2.136   4.196  14.778  0.0790 -0.3594  0.1979
 4896SOL    HW126324   2.063   4.196  14.716  0.3845 -3.6456 -0.1589
 4896SOL    HW226325   2.161   4.104  14.784 -1.2322 -0.6353  1.6065
 4897SOL     OW26326   2.400   3.370  13.651 -0.2064 -0.3282  0.2708
 4897SOL    HW126327   2.412   3.422  13.572  1.7705 -1.7250 -0.3320
 4897SOL    HW226328   2.493   3.348  13.660 -0.2133 -0.4632 -0.0019
 4898SOL     OW26329   4.299   3.179   6.601  0.0366 -0.5829  0.1407
 4898SOL    HW126330   4.324   3.193   6.692  1.0193 -1.3042 -0.0187
 4898SOL    HW226331   4.385   3.175   6.558  0.3242  3.1380  0.3302
 4899SOL     OW26332   2.841   3.388   9.075 -0.1433 -0.5542  0.2785
 4899SOL    HW126333   2.783   3.380   9.151  0.0222  1.5145  0.6277
 4899SOL    HW226334   2.787   3.344   9.010 -2.3698  0.7062  1.2538
 4900SOL     OW26335   1.813   0.306   8.497  0.0023  0.2450  0.2962
 4900SOL    HW126336   1.786   0.270   8.413 -1.2022 -0.3348  0.9387
 4900SOL    HW226337   1.811   0.224   8.545  2.4562  0.3286  0.5527
 4901SOL     OW26338   1.563   0.458   5.994 -0.1037  0.1254  0.4652
 4901SOL    HW126339   1.630   0.413   6.046  0.6719  0.1570 -0.5196
 4901SOL    HW226340   1.499   0.492   6.057 -0.5758  1.1689 -0.5708
 4902SOL     OW26341   4.351   3.008  15.821 -0.6423 -0.3834  0.2021
 4902SOL    HW126342   4.379   3.097  15.801 -2.1106 -0.1296 -0.7587
 4902SOL    HW226343   4.286   2.995  15.751  0.2792 -0.3608 -0.6645
 4903SOL     OW26344   1.803   2.230   4.156 -0.0779 -0.4127  0.2825
 4903SOL    HW126345   1.810   2.321   4.185  0.4382  0.7948 -3.7114
 4903SOL    HW226346   1.833   2.241   4.066 -0.4495 -0.8655  0.1065
 4904SOL     OW26347   3.765   0.045   3.409  0.8968 -0.1814  0.1574
 4904SOL    HW126348   3.840   0.012   3.458  0.4357 -0.2367  0.8285
 4904SOL    HW226349   3.753   4.714   3.343  0.2472 -0.1298  0.2151
 4905SOL     OW26350   3.346   2.904   2.738  0.7231 -0.2873  0.1120
 4905SOL    HW126351   3.329   2.982   2.684  2.9963 -0.3216 -0.6569
 4905SOL    HW226352   3.439   2.922   2.747  1.0521 -1.5779 -0.6697
 4906SOL     OW26353   2.173   1.064  12.346  0.1172  0.3984 -0.5991
 4906SOL    HW126354   2.247   1.115  12.315  0.4878  0.5075  0.4601
 4906SOL    HW226355   2.101   1.128  12.344 -0.9388 -0.7795 -0.3899
 4907SOL     OW26356   3.610   2.677  11.222  0.0819 -0.0019  0.2861
 4907SOL    HW126357   3.548   2.673  11.149  0.7391 -2.7900 -0.1038
 4907SOL    HW226358   3.612   2.584  11.243 -2.4689  0.6770  3.4569
 4908SOL     OW26359   0.828   3.037   2.339 -0.4628  0.1888  0.0777
 4908SOL    HW126360   0.884   3.060   2.414  0.1359  0.1576 -0.3607
 4908SOL    HW226361   0.750   3.093   2.346 -0.3668  0.6096 -2.2528
 4909SOL     OW26362   1.556   0.044   4.450 -0.2976  0.4141 -0.6285
 4909SOL    HW126363   1.605   0.125   4.433 -0.1938  0.5719  0.4321
 4909SOL    HW226364   1.478   0.095   4.426 -0.1189  0.6061 -0.8081
 4910SOL     OW26365   1.682   1.794  13.783  0.1864  0.3725  0.1704
 4910SOL    HW126366   1.599   1.777  13.828 -0.5461  1.4888 -0.7789
 4910SOL    HW226367   1.660   1.870  13.730 -0.0067  1.4956  1.8450
 4911SOL     OW26368   3.960   4.697   3.568  0.3296  0.0437  0.5781
 4911SOL    HW126369   4.007   0.001   3.640  1.5637 -1.3197  0.5331
 4911SOL    HW226370   3.929   4.613   3.604  1.2639 -0.7698 -0.5310
 4912SOL     OW26371   3.588   2.401   9.692  0.0873  1.1559 -0.4084
 4912SOL    HW126372   3.526   2.436   9.757  2.0865  0.4161  1.9045
 4912SOL    HW226373   3.562   2.452   9.615 -0.5867 -0.5058 -1.2669
 4913SOL     OW26374   3.030   1.328  16.105  0.5299  0.5665 -0.4590
 4913SOL    HW126375   2.939   1.301  16.093  0.8376 -0.5510 -0.2664
 4913SOL    HW226376   3.046   1.275  16.183 -2.9651  0.3418  0.0889
 4914SOL     OW26377   2.699   3.019   3.571 -0.5104  0.0127 -0.1570
 4914SOL    HW126378   2.752   2.991   3.496 -0.8963 -0.5737 -0.2117
 4914SOL    HW226379   2.736   2.951   3.628  2.3308  2.5101  0.9475
 4915SOL     OW26380   1.048   3.950  14.074  0.4082  0.0884  0.4432
 4915SOL    HW126381   1.103   3.979  14.001  2.7606 -2.9876  0.9784
 4915SOL    HW226382   1.074   4.016  14.138 -0.6499  0.9591 -0.0355
 4916SOL     OW26383   2.624   2.453   6.207  0.3071  0.1151 -0.6459
 4916SOL    HW126384   2.557   2.390   6.231  2.1628 -0.5361  2.9087
 4916SOL    HW226385   2.657   2.417   6.125 -2.2893  1.4279 -2.2529
 4917SOL     OW26386   3.402   0.943   2.338 -0.0556  0.3062  0.1643
 4917SOL    HW126387   3.418   1.028   2.298 -3.0460  1.4313  1.3574
 4917SOL    HW226388   3.327   0.968   2.392 -1.7324 -2.9811 -0.6465
 4918SOL     OW26389   1.049   0.961   6.452 -0.2301  0.2543  0.2399
 4918SOL    HW126390   0.962   0.923   6.435  0.4918 -2.0781  1.7699
 4918SOL    HW226391   1.069   1.003   6.369  2.2104 -1.2821  0.0515
 4919SOL     OW26392   1.923   3.317   6.653 -0.2657 -0.0906  0.0640
 4919SOL    HW126393   1.969   3.279   6.579 -1.3645  0.3910 -0.8735
 4919SOL    HW226394   1.981   3.292   6.725 -0.8065 -1.5994 -0.0260
 4920SOL     OW26395   2.454   0.370   7.115 -0.1756 -0.4148 -0.0228
 4920SOL    HW126396   2.395   0.397   7.185 -1.0303 -3.8453  0.6085
 4920SOL    HW226397   2.516   0.314   7.162 -0.0964  0.7539  1.2513
 4921SOL     OW26398   1.569   3.607  11.052 -0.1424 -0.1988 -0.3141
 4921SOL    HW126399   1.557   3.648  11.137 -2.1847  1.4486 -1.4022
 4921SOL    HW226400   1.573   3.518  11.087  1.0443 -0.2506 -0.5826
 4922SOL     OW26401   2.023   3.483   6.387 -0.0477 -0.3344 -0.6487
 4922SOL    HW126402   2.098   3.446   6.341  0.0919 -1.2831  0.3483
 4922SOL    HW226403   2.060   3.571   6.395  0.7340 -0.8124  1.0323
 4923SOL     OW26404   4.169   1.818   2.720 -0.4650  0.1996  0.3722
 4923SOL    HW126405   4.197   1.884   2.657 -1.3306  0.8498  0.6610
 4923SOL    HW226406   4.226   1.748   2.687 -0.8382  1.1299 -2.1819
 4924SOL     OW26407   1.738   2.750   7.686  0.2472  0.1105  0.2010
 4924SOL    HW126408   1.645   2.745   7.666  0.2733  1.2588 -0.2326
 4924SOL    HW226409   1.772   2.666   7.655 -0.9104 -0.6578  1.0557
 4925SOL     OW26410   1.350   1.559  11.351 -0.4158 -0.1667 -0.0569
 4925SOL    HW126411   1.352   1.648  11.315 -3.5316 -0.1005 -0.0814
 4925SOL    HW226412   1.439   1.524  11.351 -0.7267 -0.9583 -2.3638
 4926SOL     OW26413   4.549   4.134   7.581  0.6257 -0.9030  0.2709
 4926SOL    HW126414   4.496   4.214   7.575  0.0570 -1.1981  1.3861
 4926SOL    HW226415   4.630   4.174   7.549 -0.1280  0.3835 -0.0445
 4927SOL     OW26416   1.996   0.137   9.333  0.0433  0.3629 -0.4528
 4927SOL    HW126417   2.022   0.158   9.423 -1.9185  2.8462 -0.4548
 4927SOL    HW226418   2.009   0.044   9.350  2.1405  0.9038  0.9420
 4928SOL     OW26419   0.428   1.362  16.649  0.2654 -0.2157 -0.7183
 4928SOL    HW126420   0.415   1.268  16.635  1.2991 -0.0931 -2.5767
 4928SOL    HW226421   0.489   1.365  16.722 -1.2778 -2.7458  0.6634
 4929SOL     OW26422   4.445   3.402   8.402 -0.5165 -0.4484  0.0656
 4929SOL    HW126423   4.391   3.323   8.399 -0.0531 -0.7563 -0.2763
 4929SOL    HW226424   4.424   3.442   8.486 -0.6489 -1.4428  0.5133
 4930SOL     OW26425   2.063   4.543   7.482 -0.1530 -0.3031 -0.1122
 4930SOL    HW126426   2.112   4.461   7.473  0.5640 -0.0763  1.6494
 4930SOL    HW226427   2.001   4.514   7.549  0.9529 -1.1545  0.5493
 4931SOL     OW26428   2.746   0.367  15.907 -0.0532  0.3217 -0.2222
 4931SOL    HW126429   2.678   0.319  15.955 -1.0690  0.1912 -1.7570
 4931SOL    HW226430   2.830   0.344  15.946  0.1677  0.1719 -0.7782
 4932SOL     OW26431   3.785   4.401   4.516 -0.1481 -0.1479 -0.1632
 4932SOL    HW126432   3.744   4.477   4.474 -0.6128  0.7720  1.9714
 4932SOL    HW226433   3.868   4.408   4.468 -1.0334  1.2789 -1.4878
 4933SOL     OW26434   2.643   0.466   5.413 -0.3963  0.2412  0.1099
 4933SOL    HW126435   2.739   0.468   5.417 -0.4771  0.0045  2.1314
 4933SOL    HW226436   2.630   0.389   5.468 -1.8335 -0.5941 -1.4140
 4934SOL     OW26437   3.705   3.199   1.686 -0.3210 -0.2517  0.2939
 4934SOL    HW126438   3.781   3.201   1.628 -0.5967 -0.0610 -0.0631
 4934SOL    HW226439   3.642   3.232   1.622  4.2403  0.6081 -3.7531
 4935SOL     OW26440   3.134   1.148  16.268 -0.1224  0.0462 -0.1680
 4935SOL    HW126441   3.214   1.145  16.320  0.8045 -1.1446 -1.6758
 4935SOL    HW226442   3.090   1.072  16.305  0.3940 -1.1711 -2.0565
 4936SOL     OW26443   4.066   0.526   7.587 -0.2438  0.9468 -0.2835
 4936SOL    HW126444   3.987   0.532   7.533 -0.3262  1.0293 -0.1535
 4936SOL    HW226445   4.090   0.434   7.574  0.5983  1.0901  0.2633
 4937SOL     OW26446   3.216   4.708   3.566 -0.3229  0.3260  0.1670
 4937SOL    HW126447   3.198   0.064   3.571 -2.6199 -0.0116 -1.7190
 4937SOL    HW226448   3.308   4.707   3.590 -0.4294  0.6582  0.5927
 4938SOL     OW26449   4.479   2.565   3.255  0.1958 -0.0877 -0.3479
 4938SOL    HW126450   4.470   2.475   3.286  0.9069 -0.1650 -0.3750
 4938SOL    HW226451   4.433   2.569   3.171  0.7091  1.0104 -0.5808
 4939SOL     OW26452   4.423   2.769  14.186  0.0331  0.2516 -0.3330
 4939SOL    HW126453   4.381   2.832  14.244 -1.1800  0.4693 -1.4331
 4939SOL    HW226454   4.473   2.824  14.127  1.4234 -0.6487  0.0035
 4940SOL     OW26455   3.859   1.547   1.727 -0.2400  0.4763  0.2591
 4940SOL    HW126456   3.905   1.471   1.692  0.1098 -0.0762  1.9011
 4940SOL    HW226457   3.933   1.596   1.764  0.4406 -0.5172  0.2033
 4941SOL     OW26458   1.298   3.124   9.539 -0.0995 -0.6307 -0.2215
 4941SOL    HW126459   1.333   3.212   9.552 -0.1347 -0.4312 -1.4522
 4941SOL    HW226460   1.280   3.129   9.445  1.7872  1.7073 -0.4739
 4942SOL     OW26461   1.629   3.988  16.733  0.6880 -0.0937 -0.0775
 4942SOL    HW126462   1.586   3.904  16.748  1.1352 -0.4181 -0.6167
 4942SOL    HW226463   1.634   4.031  16.818 -0.3953  0.1818 -0.1490
 4943SOL     OW26464   0.570   0.548   3.846  0.0168 -0.1731  0.0957
 4943SOL    HW126465   0.497   0.530   3.905  0.1822 -0.5657  0.1804
 4943SOL    HW226466   0.584   0.461   3.808  0.9783 -0.0624  0.1928
 4944SOL     OW26467   0.982   0.801   4.183  0.8885 -0.1773  0.1420
 4944SOL    HW126468   1.040   0.861   4.230  1.3718 -0.7527  0.2684
 4944SOL    HW226469   1.016   0.795   4.094 -1.8980 -4.5884 -0.6010
 4945SOL     OW26470   1.076   1.027   7.903  0.3582 -0.0053 -0.2085
 4945SOL    HW126471   1.128   0.946   7.904 -0.0801 -0.2641  1.8478
 4945SOL    HW226472   0.995   1.003   7.948 -0.4639  0.6613 -1.3513
 4946SOL     OW26473   3.156   1.498   8.226 -0.6460 -0.6787 -0.0921
 4946SOL    HW126474   3.178   1.590   8.212  0.5797 -0.6751  1.8381
 4946SOL    HW226475   3.090   1.520   8.292  2.3884  2.5598  1.8220
 4947SOL     OW26476   2.383   4.325  14.772  0.1354 -0.4940 -0.5017
 4947SOL    HW126477   2.296   4.284  14.777 -0.5451  1.2614  2.0490
 4947SOL    HW226478   2.376   4.406  14.822 -0.1792 -0.3305 -0.8091
 4948SOL     OW26479   3.792   0.591  16.823 -0.2712 -0.1131 -0.0076
 4948SOL    HW126480   3.771   0.651  16.895 -1.0391 -1.4836  0.9022
 4948SOL    HW226481   3.861   0.631  16.771 -1.3684 -0.5840 -1.8167
 4949SOL     OW26482   3.604   2.748  17.348  0.5083 -0.5124 -0.0192
 4949SOL    HW126483   3.565   2.698  17.277 -0.6986 -0.2760  0.4799
 4949SOL    HW226484   3.563   2.705  17.423  0.1660 -2.0618 -1.1015
 4950SOL     OW26485   1.534   1.913   1.120 -0.5576  0.1013  0.1676
 4950SOL    HW126486   1.485   1.975   1.174 -0.7630 -0.3081  0.4487
 4950SOL    HW226487   1.569   1.974   1.055 -1.5444 -0.2241 -0.6624
 4951SOL     OW26488   3.201   1.237  14.637 -0.1095 -0.2033 -0.2501
 4951SOL    HW126489   3.198   1.146  14.606  0.0149 -0.8841  1.7471
 4951SOL    HW226490   3.285   1.227  14.683 -0.3469 -1.4389 -0.0670
 4952SOL     OW26491   2.950   1.267  10.688 -0.6424  0.4180 -0.4157
 4952SOL    HW126492   2.965   1.349  10.736  1.7534 -0.2715 -0.0282
 4952SOL    HW226493   2.859   1.252  10.715  0.2684 -1.0983  1.8253
 4953SOL     OW26494   1.457   3.339   4.595 -0.3256 -0.6257 -0.6817
 4953SOL    HW126495   1.440   3.431   4.574 -0.7505 -0.0799  2.0239
 4953SOL    HW226496   1.548   3.339   4.626 -1.0673  0.9775  1.5059
 4954SOL     OW26497   0.514   2.615   7.090 -0.4816 -0.5451 -0.1028
 4954SOL    HW126498   0.588   2.556   7.103  0.8000  1.5773  2.1950
 4954SOL    HW226499   0.537   2.669   7.014  1.7935 -2.4331 -0.7658
 4955SOL     OW26500   1.845   0.488  15.621 -0.3454  0.0518 -0.3736
 4955SOL    HW126501   1.817   0.414  15.567  0.1778 -0.7283  0.4407
 4955SOL    HW226502   1.896   0.547  15.566  2.3341 -1.2782  0.7295
 4956SOL     OW26503   4.549   0.120   8.142  0.3088  0.0015 -0.1468
 4956SOL    HW126504   4.563   0.053   8.209  0.4080 -0.3725 -0.5386
 4956SOL    HW226505   4.529   0.062   8.069  0.8544 -2.1193  1.4044
 4957SOL     OW26506   3.532   4.183   3.241  0.0672  0.1547 -0.0458
 4957SOL    HW126507   3.533   4.106   3.298  0.5054  0.1539 -0.0571
 4957SOL    HW226508   3.455   4.231   3.273  2.5599  1.8785  3.3634
 4958SOL     OW26509   2.485   1.919   3.406  0.7214  0.4363 -0.2934
 4958SOL    HW126510   2.532   2.001   3.390 -0.4615  1.6858  2.7490
 4958SOL    HW226511   2.520   1.892   3.491  1.9113 -2.3185 -1.6420
 4959SOL     OW26512   2.580   1.262   5.080  0.0130  0.1179  0.4593
 4959SOL    HW126513   2.672   1.236   5.087  0.5002  0.8278 -3.2070
 4959SOL    HW226514   2.541   1.178   5.056 -2.5348  1.4327  0.0049
 4960SOL     OW26515   1.732   4.167  17.479  0.6188  0.1560  0.0465
 4960SOL    HW126516   1.722   4.260  17.500 -1.2490  0.2058 -1.1182
 4960SOL    HW226517   1.818   4.147  17.516 -0.0017 -1.5585  0.5280
 4961SOL     OW26518   3.732   2.434   2.111  0.1041 -0.0136 -0.0531
 4961SOL    HW126519   3.783   2.362   2.075  0.1010 -1.2855  2.5190
 4961SOL    HW226520   3.764   2.433   2.201  0.9803  1.8971 -0.3453
 4962SOL     OW26521   4.494   2.167  15.227 -0.0677 -0.3055 -0.7875
 4962SOL    HW126522   4.411   2.132  15.195 -1.4309  0.0976  2.3305
 4962SOL    HW226523   4.532   2.108  15.292  2.0305  0.9394 -0.8782
 4963SOL     OW26524   1.262   1.132   9.024  0.2583 -0.1550 -0.2852
 4963SOL    HW126525   1.310   1.089   9.095 -0.5962 -1.1703 -0.3210
 4963SOL    HW226526   1.182   1.079   9.030 -0.4007  0.9115  0.4289
 4964SOL     OW26527   2.869   2.942   9.592  0.3856 -0.2569 -0.4023
 4964SOL    HW126528   2.832   2.898   9.668  1.4324  1.4261  1.0917
 4964SOL    HW226529   2.950   2.894   9.574  1.2719  0.2242  2.2426
 4965SOL     OW26530   1.796   3.730   6.845  0.1184 -0.2151 -0.2904
 4965SOL    HW126531   1.726   3.760   6.788 -0.8761  0.0090  1.0467
 4965SOL    HW226532   1.850   3.685   6.780 -0.1533 -3.4473  1.7214
 4966SOL     OW26533   3.264   4.552   1.125 -0.7741  1.1017 -0.0656
 4966SOL    HW126534   3.222   4.471   1.154  0.7048 -0.1499 -1.4357
 4966SOL    HW226535   3.241   4.562   1.032  0.2051  0.5149 -0.3592
 4967SOL     OW26536   0.016   4.058   9.115  0.1393  0.7398 -0.0051
 4967SOL    HW126537   4.707   3.976   9.098  0.0446  0.5798  0.9920
 4967SOL    HW226538   0.062   4.033   9.195  2.0398 -0.2218 -1.4110
 4968SOL     OW26539   3.637   2.739   4.122  0.2064  0.0706  0.2931
 4968SOL    HW126540   3.716   2.731   4.175 -0.7738 -0.5821  1.6489
 4968SOL    HW226541   3.671   2.780   4.042 -1.4782  0.1675 -0.3744
 4969SOL     OW26542   3.520   2.824   2.144 -0.0543  0.4668 -0.6819
 4969SOL    HW126543   3.611   2.799   2.131 -0.1949  1.7624 -4.1265
 4969SOL    HW226544   3.484   2.755   2.200  0.5819  0.2857 -0.5020
 4970SOL     OW26545   1.405   1.285   1.008 -0.2460  0.4646 -0.5217
 4970SOL    HW126546   1.461   1.210   1.028  0.0847  0.8477  0.0192
 4970SOL    HW226547   1.338   1.275   1.075 -0.6554  2.1436 -0.6696
 4971SOL     OW26548   0.329   4.223   6.341 -0.0398 -0.1819  0.3385
 4971SOL    HW126549   0.352   4.306   6.298 -1.4217  0.0354 -0.0006
 4971SOL    HW226550   0.411   4.175   6.331 -0.4719 -0.4566 -2.0589
 4972SOL     OW26551   0.155   2.700  13.837  0.0675 -0.0502  0.0942
 4972SOL    HW126552   0.198   2.758  13.774 -0.1208 -0.0532 -0.0384
 4972SOL    HW226553   0.214   2.630  13.864  1.5797  0.6122 -1.5077
 4973SOL     OW26554   4.204   1.356  11.205 -0.4063  0.1920  0.2486
 4973SOL    HW126555   4.124   1.353  11.152 -0.3337 -0.7236  0.1940
 4973SOL    HW226556   4.204   1.444  11.243  0.2864  0.1214  0.4149
 4974SOL     OW26557   2.761   3.224   5.409  0.3316 -0.1781  0.1727
 4974SOL    HW126558   2.815   3.149   5.383  0.4969  0.4000 -1.1680
 4974SOL    HW226559   2.834   3.286   5.406 -0.4461  0.7851  1.2372
 4975SOL     OW26560   2.074   0.469   7.082 -0.7900  0.0210  0.2609
 4975SOL    HW126561   1.996   0.452   7.030 -1.0757 -0.8567  0.9619
 4975SOL    HW226562   2.125   0.391   7.057  0.2411  1.0273 -0.7866
 4976SOL     OW26563   4.207   3.412   8.699 -0.2179 -0.1186  0.7068
 4976SOL    HW126564   4.134   3.380   8.646 -0.4220  1.5093 -0.0019
 4976SOL    HW226565   4.280   3.401   8.638 -0.6810  2.4476 -0.2927
 4977SOL     OW26566   4.105   0.630   6.323 -0.0809 -0.4494  0.0434
 4977SOL    HW126567   4.054   0.704   6.290 -0.4122 -1.5462 -1.9084
 4977SOL    HW226568   4.172   0.625   6.255 -2.0153  2.2515 -2.0651
 4978SOL     OW26569   0.287   1.378   6.435  0.6546  0.1518 -0.0411
 4978SOL    HW126570   0.358   1.441   6.424  0.1117  0.6454 -0.7273
 4978SOL    HW226571   0.327   1.311   6.491  0.2837 -1.3491 -1.5644
 4979SOL     OW26572   3.144   1.829   9.203  0.2703 -0.0064  0.2786
 4979SOL    HW126573   3.110   1.913   9.171 -0.5546 -0.5085 -0.1448
 4979SOL    HW226574   3.083   1.804   9.273  1.5969 -2.8680  0.3778
 4980SOL     OW26575   0.239   3.742   4.651 -0.1546  0.0227 -0.1644
 4980SOL    HW126576   0.318   3.718   4.602  0.0971 -1.8797  1.1913
 4980SOL    HW226577   0.269   3.804   4.717 -0.8590 -2.1708  2.2113
 4981SOL     OW26578   4.631   4.270   5.323  0.4811  0.3418 -0.1990
 4981SOL    HW126579   4.725   4.287   5.325  0.5041  0.3829 -1.4768
 4981SOL    HW226580   4.643   4.177   5.300 -0.6709 -0.1106  1.0213
 4982SOL     OW26581   0.300   2.484   4.244  0.4302 -0.3585  0.3034
 4982SOL    HW126582   0.282   2.535   4.166  1.3615 -1.0644 -0.3753
 4982SOL    HW226583   0.235   2.415   4.232  0.1293 -0.1242  0.5933
 4983SOL     OW26584   3.946   1.307   2.166 -0.3619 -0.2398  0.2359
 4983SOL    HW126585   4.022   1.332   2.113  0.2946 -2.4105  0.1360
 4983SOL    HW226586   3.984   1.307   2.254  1.3715  0.9156 -0.5200
 4984SOL     OW26587   2.592   2.500   9.763 -0.4415 -0.2583  0.2887
 4984SOL    HW126588   2.626   2.418   9.728  1.4327  1.3060 -1.5801
 4984SOL    HW226589   2.603   2.493   9.857  0.2138 -1.6119  0.1046
 4985SOL     OW26590   4.098   0.785   6.791 -0.3086 -0.3882  0.5291
 4985SOL    HW126591   4.176   0.744   6.827 -0.8835 -2.4866 -0.6124
 4985SOL    HW226592   4.097   0.739   6.707  1.4306 -0.2824  0.4452
 4986SOL     OW26593   4.667   1.688   5.929 -0.5229 -0.6554 -0.5196
 4986SOL    HW126594   4.623   1.605   5.914 -0.5509 -0.6514 -0.4556
 4986SOL    HW226595   4.716   1.680   5.847 -1.7339 -0.9652 -1.2209
 4987SOL     OW26596   0.618   4.320   1.987  0.5823  0.5989 -0.0072
 4987SOL    HW126597   0.710   4.345   1.976  0.7813  0.1535  0.6564
 4987SOL    HW226598   0.632   4.229   2.012 -2.4615  0.5765  1.5624
 4988SOL     OW26599   1.811   1.049   3.070 -0.0046  0.2480  0.0283
 4988SOL    HW126600   1.820   0.971   3.016  0.4011 -0.2939  0.8863
 4988SOL    HW226601   1.719   1.067   3.093  0.0303 -2.4625  2.2162
 4989SOL     OW26602   3.888   3.403  16.761  0.5013  0.3763 -0.2622
 4989SOL    HW126603   3.965   3.370  16.809 -0.5487 -0.6247  0.7418
 4989SOL    HW226604   3.820   3.401  16.828  1.3173  0.6219  0.5721
 4990SOL     OW26605   4.037   1.049   3.987  0.0798 -0.0508 -0.5958
 4990SOL    HW126606   3.968   1.108   3.959 -0.6351 -0.1995  0.8742
 4990SOL    HW226607   4.068   1.107   4.056  0.3748 -0.0239 -0.7456
 4991SOL     OW26608   3.856   4.431  13.410 -0.0799 -0.3350 -0.1431
 4991SOL    HW126609   3.830   4.523  13.403 -1.6581 -0.8507 -1.0026
 4991SOL    HW226610   3.948   4.444  13.434  0.0855  0.5164 -1.1890
 4992SOL     OW26611   0.849   2.623   5.796  0.7598  0.0144 -0.2837
 4992SOL    HW126612   0.873   2.614   5.704  1.2942 -0.4270 -0.0993
 4992SOL    HW226613   0.755   2.640   5.793  0.7282 -0.3907 -1.4693
 4993SOL     OW26614   2.010   1.325   3.300 -0.3717  0.7180 -0.2941
 4993SOL    HW126615   2.078   1.392   3.295  0.4176 -0.0376  0.3242
 4993SOL    HW226616   2.059   1.252   3.337 -2.1374 -1.0687 -1.4882
 4994SOL     OW26617   1.428   0.249   6.253 -0.0709  0.3184  0.1247
 4994SOL    HW126618   1.381   0.301   6.319  0.6721  2.1929 -0.8040
 4994SOL    HW226619   1.521   0.256   6.275  0.2951 -1.0135 -1.0006
 4995SOL     OW26620   1.815   4.536   6.865  0.2209 -0.5468  0.0247
 4995SOL    HW126621   1.829   4.578   6.780  0.5071 -0.4397  0.1269
 4995SOL    HW226622   1.904   4.510   6.887 -0.5381 -2.5661  0.7160
 4996SOL     OW26623   1.095   1.322  11.924  0.1981  0.5298  0.2189
 4996SOL    HW126624   1.183   1.354  11.901  0.9622 -2.0422 -0.4472
 4996SOL    HW226625   1.040   1.400  11.911 -1.2537 -0.7209 -1.1285
 4997SOL     OW26626   2.046   4.168   1.939  0.0551  0.0955 -0.4069
 4997SOL    HW126627   2.017   4.259   1.943  2.1621  0.7560 -0.6085
 4997SOL    HW226628   2.006   4.144   1.855 -1.6543  1.7286 -0.0632
 4998SOL     OW26629   0.012   0.027   1.875 -0.3016  0.1870  0.2851
 4998SOL    HW126630   0.099   0.016   1.912  0.5579  2.8393 -0.9595
 4998SOL    HW226631   4.703   0.055   1.954 -0.3408  1.0952 -0.0568
 4999SOL     OW26632   0.897   0.343   8.647 -0.2744  0.4219 -0.4081
 4999SOL    HW126633   0.874   0.281   8.578  0.5426 -0.1064 -0.2057
 4999SOL    HW226634   0.966   0.388   8.598  1.4011 -1.3761  0.3590
 5000SOL     OW26635   3.442   0.663   7.998  0.4619 -0.0086  0.8642
 5000SOL    HW126636   3.536   0.681   8.003  0.5247 -0.7050  2.4361
 5000SOL    HW226637   3.403   0.721   8.063  1.8031  1.5938  0.2542
 5001SOL     OW26638   0.356   3.981   4.028  0.4358  0.3445  0.1400
 5001SOL    HW126639   0.413   3.922   3.979  0.0016 -1.2239  1.5048
 5001SOL    HW226640   0.367   3.956   4.120  0.7162  2.8285  0.7758
 5002SOL     OW26641   2.815   2.632   8.604  0.4248  0.1154 -0.0149
 5002SOL    HW126642   2.743   2.643   8.666  0.7259  0.9565  0.1836
 5002SOL    HW226643   2.881   2.573   8.642  1.2879  0.6986 -0.6088
 5003SOL     OW26644   4.186   0.461   0.089  0.6118 -0.4762 -0.0924
 5003SOL    HW126645   4.228   0.430   0.170 -1.1079 -0.1615  0.9206
 5003SOL    HW226646   4.127   0.387   0.075  0.1183 -0.4182  1.6035
 5004SOL     OW26647   0.228   2.248   6.605 -0.5546  0.1449 -0.3627
 5004SOL    HW126648   0.299   2.223   6.546 -1.2422 -1.9307 -0.3216
 5004SOL    HW226649   0.187   2.163   6.624  0.5360 -1.1200 -3.7250
 5005SOL     OW26650   4.031   3.189  17.720 -1.0421  0.2865 -0.0209
 5005SOL    HW126651   4.029   3.093  17.717  0.0007  0.2779 -0.5199
 5005SOL    HW226652   3.971   3.205   0.045 -1.9740  0.9476 -0.9393
 5006SOL     OW26653   2.188   0.540   5.824 -0.1328 -0.2100 -0.7139
 5006SOL    HW126654   2.099   0.506   5.810 -0.5754  0.8421 -0.4042
 5006SOL    HW226655   2.186   0.583   5.739  1.2759 -0.2773 -0.7862
 5007SOL     OW26656   1.089   3.772  15.594 -0.1702 -0.0601  0.1457
 5007SOL    HW126657   1.010   3.798  15.641 -1.2888 -3.0104 -0.0766
 5007SOL    HW226658   1.137   3.764  15.676  2.5376  3.3541 -1.1059
 5008SOL     OW26659   2.765   1.070   6.388 -0.5177  0.5236  0.1267
 5008SOL    HW126660   2.710   1.028   6.322  0.6794 -1.1447  0.1957
 5008SOL    HW226661   2.712   1.066   6.467 -2.7482 -2.0896 -1.5163
 5009SOL     OW26662   4.016   0.272   2.979 -0.4705  0.7559 -0.3491
 5009SOL    HW126663   4.029   0.177   2.987 -1.9724  0.7292  1.9057
 5009SOL    HW226664   4.101   0.290   3.020 -0.9071  2.1747 -0.0588
 5010SOL     OW26665   0.693   2.061   8.779 -0.0705 -0.0697 -0.1044
 5010SOL    HW126666   0.745   2.086   8.856  0.6508  0.8943 -0.8976
 5010SOL    HW226667   0.648   1.986   8.817  0.2877 -0.3225 -0.1775
 5011SOL     OW26668   3.952   0.105   4.444  0.0669 -0.0623 -0.0363
 5011SOL    HW126669   3.996   0.021   4.455  1.4014  0.4073 -1.6305
 5011SOL    HW226670   4.029   0.159   4.425 -0.1400  0.7219  1.3513
 5012SOL     OW26671   2.597   1.716  15.886 -0.9900 -0.8009  0.1845
 5012SOL    HW126672   2.565   1.742  15.972  2.4410 -1.1402  1.5698
 5012SOL    HW226673   2.691   1.699  15.897 -1.2755 -1.3145  1.7281
 5013SOL     OW26674   1.095   2.166   6.853  0.1631  0.2019 -0.4770
 5013SOL    HW126675   1.093   2.229   6.781  0.0964  1.7001  0.8467
 5013SOL    HW226676   1.134   2.214   6.926  1.3845 -0.2451 -0.8416
 5014SOL     OW26677   2.963   2.798  17.194  0.2591  0.3488  0.5300
 5014SOL    HW126678   2.909   2.738  17.141 -0.1904  1.1847  0.0436
 5014SOL    HW226679   2.901   2.833  17.258 -0.5542 -1.2812  0.6603
 5015SOL     OW26680   1.401   3.220   5.536  0.3539 -1.0964  0.0838
 5015SOL    HW126681   1.454   3.294   5.567 -0.2769  0.1253 -1.7192
 5015SOL    HW226682   1.430   3.162   5.607  1.6411  0.3744  0.7756
 5016SOL     OW26683   4.064   0.972  15.675 -0.2570  0.4784 -0.0923
 5016SOL    HW126684   4.081   1.055  15.719 -0.0181 -0.5861  1.8204
 5016SOL    HW226685   3.971   0.970  15.698 -0.4617  0.6638 -0.9278
 5017SOL     OW26686   3.065   2.362   7.002  0.2004 -0.0172 -0.5730
 5017SOL    HW126687   3.042   2.417   7.076  1.8588 -0.8906  0.5716
 5017SOL    HW226688   3.051   2.270   7.027 -1.1563  0.4458  0.4201
 5018SOL     OW26689   3.137   4.357   1.241 -0.0953 -0.0648  1.0562
 5018SOL    HW126690   3.091   4.353   1.325  1.2908  2.1717  1.9134
 5018SOL    HW226691   3.208   4.295   1.255  0.2785 -0.0261 -0.6614
 5019SOL     OW26692   2.697   4.536  11.414  0.6724 -1.3426 -0.5191
 5019SOL    HW126693   2.671   4.585  11.336  0.0363 -0.9522 -0.0615
 5019SOL    HW226694   2.653   4.587  11.482  1.5201 -1.4034  0.0727
 5020SOL     OW26695   3.369   0.370   3.102 -0.7577  0.1254 -0.7943
 5020SOL    HW126696   3.420   0.401   3.028  0.6365 -1.1897 -0.3757
 5020SOL    HW226697   3.280   0.374   3.067 -1.3824 -0.4116  0.7465
 5021SOL     OW26698   2.203   4.578   8.935  0.4992 -0.3363  0.1021
 5021SOL    HW126699   2.179   4.653   8.988  0.0664  0.9708 -1.9479
 5021SOL    HW226700   2.273   4.612   8.879 -0.6560  2.0506  0.1121
 5022SOL     OW26701   0.124   2.403   9.696 -0.2278  0.3787  0.2064
 5022SOL    HW126702   0.214   2.433   9.690 -0.7665  1.8188 -0.6952
 5022SOL    HW226703   0.122   2.334   9.762 -0.1592 -0.8868 -1.1177
 5023SOL     OW26704   2.013   1.924   9.307  0.2223  0.0583  0.0957
 5023SOL    HW126705   1.997   1.984   9.379  0.0398 -0.3113  0.3646
 5023SOL    HW226706   1.928   1.916   9.262  2.3985 -3.2523 -3.4748
 5024SOL     OW26707   3.724   3.790  11.996  0.1798 -0.3158  0.1983
 5024SOL    HW126708   3.770   3.828  12.071  1.6106 -2.3077  0.3177
 5024SOL    HW226709   3.644   3.842  11.993  1.1695  1.1579 -0.4059
 5025SOL     OW26710   0.935   1.604  10.229  0.5249 -0.0003  0.2452
 5025SOL    HW126711   0.922   1.681  10.285 -0.1964  0.1727 -0.1630
 5025SOL    HW226712   1.016   1.627  10.182 -1.6788  2.1612 -2.4743
 5026SOL     OW26713   2.398   0.726   3.279  0.3088 -0.2345 -0.0770
 5026SOL    HW126714   2.418   0.789   3.209 -2.3253  1.2038  0.4333
 5026SOL    HW226715   2.472   0.737   3.339 -0.3467  1.6330  0.3850
 5027SOL     OW26716   1.483   3.723  12.314 -0.2142 -0.3254 -0.4231
 5027SOL    HW126717   1.426   3.796  12.336 -0.7750 -0.4521 -1.4655
 5027SOL    HW226718   1.487   3.726  12.219  0.0330 -0.9245 -0.4371
 5028SOL     OW26719   4.317   2.185   3.785  0.0099  0.0189  0.2205
 5028SOL    HW126720   4.253   2.253   3.764  1.2487  0.0412 -3.5671
 5028SOL    HW226721   4.296   2.148   3.871  0.8425  1.2081  0.9435
 5029SOL     OW26722   2.394   3.771   6.185  0.2031 -0.3469 -0.4774
 5029SOL    HW126723   2.430   3.754   6.098 -0.3705 -1.7320 -0.4396
 5029SOL    HW226724   2.475   3.769   6.237  0.7555 -0.0950 -1.3319
 5030SOL     OW26725   2.184   3.772   2.043  0.1077 -0.4751  0.0905
 5030SOL    HW126726   2.123   3.793   2.115  2.2241 -1.7454  2.2587
 5030SOL    HW226727   2.118   3.731   1.988  0.5343  0.5054 -1.1350
 5031SOL     OW26728   3.044   0.783   2.452 -0.0465 -0.3183 -0.1293
 5031SOL    HW126729   2.957   0.760   2.485  0.4599  0.4236  1.7192
 5031SOL    HW226730   3.018   0.747   2.367 -0.9171 -0.3639  0.1566
 5032SOL     OW26731   1.723   4.647   7.105  0.5926 -0.6064  0.0513
 5032SOL    HW126732   1.775   4.617   7.030  0.9091 -0.9804  0.4224
 5032SOL    HW226733   1.770   4.716   7.152 -0.8274  0.1654  0.3324
 5033SOL     OW26734   3.851   1.667   2.270  0.2077  0.8062 -0.7888
 5033SOL    HW126735   3.931   1.656   2.219  1.9635  0.5971  2.0092
 5033SOL    HW226736   3.793   1.635   2.201  1.3852 -0.7171 -1.0672
 5034SOL     OW26737   1.358   2.922   3.615  0.1942 -0.2258 -0.5149
 5034SOL    HW126738   1.340   3.005   3.571  0.4801  0.2136  0.2021
 5034SOL    HW226739   1.280   2.918   3.671  0.1613 -3.9148 -0.8292
 5035SOL     OW26740   4.016   1.870   8.874  0.1633  0.1469  0.5083
 5035SOL    HW126741   3.964   1.868   8.793  2.9306 -0.2917 -1.2677
 5035SOL    HW226742   4.090   1.811   8.862 -0.7979 -1.4819  2.7007
 5036SOL     OW26743   4.491   1.651   8.763 -0.1732 -0.3330  0.1444
 5036SOL    HW126744   4.553   1.578   8.758 -2.0389 -1.7369 -2.5356
 5036SOL    HW226745   4.538   1.721   8.808  1.4889 -0.3643 -1.5168
 5037SOL     OW26746   0.058   3.576   9.507  0.6105  0.5728 -0.3224
 5037SOL    HW126747   4.723   3.516   9.527  2.1724 -1.4554 -0.8091
 5037SOL    HW226748   0.119   3.554   9.578  0.8948  1.0969 -0.4014
 5038SOL     OW26749   2.694   0.758  15.627 -0.5842 -0.0527 -0.0848
 5038SOL    HW126750   2.752   0.683  15.638 -0.5240  0.0899  0.5727
 5038SOL    HW226751   2.693   0.800  15.713  3.3074 -0.7944  0.3095
 5039SOL     OW26752   1.300   0.430   0.048 -0.4921  0.1534 -0.4100
 5039SOL    HW126753   1.386   0.398   0.076 -2.4957 -2.1886  3.1174
 5039SOL    HW226754   1.301   0.508   0.102 -1.9131  0.4305 -0.7750
 5040SOL     OW26755   0.986   2.185   0.384 -0.2012 -0.1015  0.3035
 5040SOL    HW126756   0.924   2.181   0.312  0.1648 -0.0959 -0.0100
 5040SOL    HW226757   1.051   2.229   0.329  0.4225  1.8551  2.5816
 5041SOL     OW26758   1.979   2.357  13.957 -0.1251 -0.0498  0.3568
 5041SOL    HW126759   2.018   2.443  13.970 -0.8030  0.4818 -1.1414
 5041SOL    HW226760   1.896   2.369  14.003 -1.0870 -1.1907 -1.0473
 5042SOL     OW26761   1.936   1.628   7.888  0.1666  0.1919  0.1781
 5042SOL    HW126762   1.951   1.629   7.983 -1.2661  1.3540  0.3837
 5042SOL    HW226763   1.883   1.548   7.883 -0.2877  0.5883 -1.4486
 5043SOL     OW26764   4.115   4.569   6.540  0.2285  0.1619 -0.3604
 5043SOL    HW126765   4.065   4.598   6.617  0.5180  1.8437 -0.7959
 5043SOL    HW226766   4.068   4.488   6.519  1.5388 -1.0052  1.2629
 5044SOL     OW26767   2.522   3.185   4.221 -0.6559  0.5066 -0.2512
 5044SOL    HW126768   2.546   3.162   4.131  0.7880  1.6946 -0.1665
 5044SOL    HW226769   2.473   3.265   4.204 -1.8133 -0.5711 -1.9588
 5045SOL     OW26770   3.879   2.803  10.294 -0.1195 -0.1730  0.4132
 5045SOL    HW126771   3.937   2.823  10.369 -1.1284  1.1213  0.8337
 5045SOL    HW226772   3.820   2.734  10.325 -0.8346  1.0340  1.7369
 5046SOL     OW26773   1.160   0.595   2.883 -0.4065 -0.0401  0.5548
 5046SOL    HW126774   1.232   0.593   2.820 -0.2155 -0.9251  0.7987
 5046SOL    HW226775   1.109   0.670   2.853  2.2219  1.1385 -0.9753
 5047SOL     OW26776   4.398   2.736  11.901 -0.0153  0.1943  0.5171
 5047SOL    HW126777   4.387   2.831  11.897  1.9060  0.4246  0.7759
 5047SOL    HW226778   4.395   2.733  11.996  1.3264 -0.1745  0.5531
 5048SOL     OW26779   0.435   3.411  13.071  0.2171  0.0808  0.4047
 5048SOL    HW126780   0.367   3.362  13.024  0.1749  0.8437 -0.3433
 5048SOL    HW226781   0.396   3.410  13.158 -0.9105 -2.1825 -0.1099
 5049SOL     OW26782   4.136   2.148  10.989 -0.1894  0.0372  0.0538
 5049SOL    HW126783   4.141   2.167  10.895  3.3250 -0.5907  0.0987
 5049SOL    HW226784   4.156   2.235  11.024 -0.8912  0.6043 -0.9715
 5050SOL     OW26785   1.702   0.323   9.237 -0.6316 -0.2089  0.3595
 5050SOL    HW126786   1.780   0.276   9.264 -0.4484  0.8248  1.6350
 5050SOL    HW226787   1.657   0.334   9.321  1.1069 -0.1826  1.2927
 5051SOL     OW26788   2.483   3.144   6.699  0.4066  0.3604 -0.6818
 5051SOL    HW126789   2.450   3.119   6.786  1.3987  1.2759 -0.0386
 5051SOL    HW226790   2.429   3.092   6.640  1.2064 -2.0735  0.6927
 5052SOL     OW26791   1.248   0.260  11.714 -0.1359  0.6947  0.2766
 5052SOL    HW126792   1.289   0.265  11.628  0.3522 -0.6460  0.4292
 5052SOL    HW226793   1.222   0.169  11.730  0.0043  0.7841  1.0156
 5053SOL     OW26794   3.224   1.339   3.502 -0.6880  0.0532  0.3551
 5053SOL    HW126795   3.243   1.428   3.532 -0.3683 -0.2301  0.9865
 5053SOL    HW226796   3.131   1.331   3.522 -0.6321 -1.9867 -0.2433
 5054SOL     OW26797   0.575   0.889   8.257 -0.0525 -0.4996  0.4838
 5054SOL    HW126798   0.561   0.821   8.191 -0.0235 -0.6301  0.6110
 5054SOL    HW226799   0.550   0.848   8.340 -5.0403 -0.7087 -1.1338
 5055SOL     OW26800   1.037   2.317   7.796  0.1603  0.5616  0.0390
 5055SOL    HW126801   1.063   2.390   7.852 -0.8372  1.4589 -0.6543
 5055SOL    HW226802   0.949   2.345   7.770  0.5328  0.8754 -0.8683
 5056SOL     OW26803   2.387   3.407   2.271 -0.2333  0.2713  0.1657
 5056SOL    HW126804   2.380   3.317   2.239 -0.1689  0.2761  0.1372
 5056SOL    HW226805   2.395   3.453   2.187 -3.1736 -2.5697 -1.6479
 5057SOL     OW26806   2.331   3.579   3.140 -0.0222  0.3178  0.1361
 5057SOL    HW126807   2.391   3.648   3.110  0.3391  0.3243  0.8625
 5057SOL    HW226808   2.251   3.591   3.089  0.4239 -0.1251 -0.6735
 5058SOL     OW26809   3.154   2.959   4.916  0.1182 -0.4482  0.0423
 5058SOL    HW126810   3.154   2.879   4.968 -6.0975  0.3395  1.2319
 5058SOL    HW226811   3.239   2.952   4.874 -0.3917  1.2284 -1.2679
 5059SOL     OW26812   3.405   0.055   2.752 -0.4080 -0.1079 -0.5767
 5059SOL    HW126813   3.432   4.701   2.741  1.8053  0.9317 -3.7265
 5059SOL    HW226814   3.373   0.048   2.842 -0.3995  0.8245 -0.5071
 5060SOL     OW26815   1.809   2.678  15.657  0.2368 -0.2495 -0.3909
 5060SOL    HW126816   1.800   2.773  15.669  0.6742 -0.3398  0.6831
 5060SOL    HW226817   1.903   2.662  15.668  0.8052  2.6386 -0.9783
 5061SOL     OW26818   0.678   3.122   7.903  0.0715  0.6443  0.6397
 5061SOL    HW126819   0.715   3.141   7.818  1.1837 -1.4416  0.6698
 5061SOL    HW226820   0.592   3.088   7.879  1.7647 -3.4309  0.4249
 5062SOL     OW26821   2.769   4.404   1.983  0.8096  0.1755 -0.3859
 5062SOL    HW126822   2.811   4.361   1.910  0.0379  0.1068 -0.7918
 5062SOL    HW226823   2.758   4.324   2.035  2.1609 -0.3872 -0.9786
 5063SOL     OW26824   1.606   0.941   4.112  0.3978 -0.5759  0.0818
 5063SOL    HW126825   1.551   1.019   4.111  0.8793 -0.2355  0.3869
 5063SOL    HW226826   1.547   0.877   4.072 -2.3071  0.8773  1.7867
 5064SOL     OW26827   3.671   3.303   9.069  0.4452  0.9447 -0.0797
 5064SOL    HW126828   3.588   3.257   9.057  0.6071  0.2812  1.3658
 5064SOL    HW226829   3.668   3.377   9.010  0.3490  1.3721  0.4625
 5065SOL     OW26830   3.268   3.605  13.915 -0.3159  0.3153 -0.2530
 5065SOL    HW126831   3.222   3.523  13.935  1.1839 -0.2230  1.0235
 5065SOL    HW226832   3.226   3.623  13.831 -1.5497  0.9182  0.4917
 5066SOL     OW26833   0.003   4.124   4.982  0.8789 -0.0756  0.1269
 5066SOL    HW126834   0.074   4.187   4.994 -0.2954  1.0625  1.0828
 5066SOL    HW226835   0.003   4.091   5.072  3.0585 -1.6831 -0.4629
 5067SOL     OW26836   0.242   1.121  16.776  0.1719 -0.5631  0.1054
 5067SOL    HW126837   0.214   1.189  16.837  2.0347  1.2834 -1.0949
 5067SOL    HW226838   0.289   1.062  16.835 -0.1102  0.0898  0.9896
 5068SOL     OW26839   0.865   0.686   9.592 -0.1367 -0.2577 -0.3077
 5068SOL    HW126840   0.931   0.624   9.625 -0.8306  0.1142  1.7711
 5068SOL    HW226841   0.864   0.746   9.668 -0.8794  0.7080 -1.0914
 5069SOL     OW26842   0.043   4.595   7.494  0.6686 -0.1170 -0.2637
 5069SOL    HW126843   0.057   4.580   7.400 -0.1571 -2.9109  0.0763
 5069SOL    HW226844   4.712   4.662   7.488  1.0282  0.1862 -1.1029
 5070SOL     OW26845   4.208   2.896   9.849 -0.0403  0.0717  0.6051
 5070SOL    HW126846   4.214   2.987   9.820  0.0785 -0.8445 -2.1987
 5070SOL    HW226847   4.114   2.877   9.854  0.4814 -3.3718 -2.6951
 5071SOL     OW26848   1.285   4.098  11.166 -0.2830  0.3062  0.1608
 5071SOL    HW126849   1.307   4.092  11.259  1.8748  0.4012 -0.3480
 5071SOL    HW226850   1.236   4.180  11.172  0.2065  0.5750  0.5164
 5072SOL     OW26851   4.693   1.299  17.398  0.6543 -0.2798 -0.3526
 5072SOL    HW126852   0.022   1.357  17.363  1.6053 -1.9543 -1.3298
 5072SOL    HW226853   4.731   1.221  17.357  0.2866 -0.3370 -0.5870
 5073SOL     OW26854   3.600   4.133   0.288 -0.1765 -0.2004 -0.6647
 5073SOL    HW126855   3.659   4.063   0.259 -0.3803 -0.3492 -0.7238
 5073SOL    HW226856   3.637   4.138   0.376  0.1716  0.8179 -0.8651
 5074SOL     OW26857   2.453   2.776   4.204 -0.3144 -0.1432 -0.1677
 5074SOL    HW126858   2.511   2.837   4.250 -0.9170 -0.2226  0.6933
 5074SOL    HW226859   2.523   2.743   4.147 -0.7825 -0.7316 -0.4076
 5075SOL     OW26860   1.835   1.802   8.612  0.1388  0.1786  0.5734
 5075SOL    HW126861   1.886   1.839   8.684 -1.1707  0.6436  1.2558
 5075SOL    HW226862   1.822   1.873   8.549 -0.0315 -0.6538 -0.3321
 5076SOL     OW26863   3.595   4.062  15.621  0.0451  0.3863  0.1897
 5076SOL    HW126864   3.564   4.027  15.538  0.3904 -1.8290  0.9824
 5076SOL    HW226865   3.513   4.108  15.640  0.0421  1.4235 -2.3759
 5077SOL     OW26866   0.670   1.921  12.225 -0.3957  0.4899 -0.3425
 5077SOL    HW126867   0.714   1.868  12.292 -1.1303  0.7206  0.3276
 5077SOL    HW226868   0.675   1.866  12.147 -1.3219  0.1760 -0.1930
 5078SOL     OW26869   2.968   4.369   5.592 -0.7078  0.0823  0.9728
 5078SOL    HW126870   3.061   4.383   5.577 -0.5724 -2.5117 -0.5912
 5078SOL    HW226871   2.986   4.343   5.682 -1.1501 -0.6406  0.8516
 5079SOL     OW26872   1.727   1.349   3.257  0.5523  0.8735  0.3637
 5079SOL    HW126873   1.821   1.333   3.262 -0.0308 -2.1922  1.6900
 5079SOL    HW226874   1.696   1.260   3.274  0.5331  1.0676  1.3599
 5080SOL     OW26875   4.213   0.452   5.470  0.9304  0.1206 -0.0791
 5080SOL    HW126876   4.255   0.516   5.413  3.3453 -0.1463  1.3778
 5080SOL    HW226877   4.124   0.485   5.481  2.0109  1.8151  3.4509
 5081SOL     OW26878   2.298   2.768   4.637  0.3679  0.5210 -0.1021
 5081SOL    HW126879   2.364   2.811   4.693 -0.4614  0.5986  0.8235
 5081SOL    HW226880   2.290   2.836   4.570 -3.8090  1.2315  1.1284
 5082SOL     OW26881   2.141   0.865  10.986  0.2873  0.5226  0.1985
 5082SOL    HW126882   2.055   0.880  10.947 -1.2421  0.6004  3.6581
 5082SOL    HW226883   2.138   0.920  11.064 -0.4917 -1.7945  1.7886
 5083SOL     OW26884   3.384   3.971   4.054 -0.3604 -0.4825  0.0471
 5083SOL    HW126885   3.474   3.943   4.070 -0.1074  1.0987  1.3765
 5083SOL    HW226886   3.345   3.948   4.138 -2.3550 -0.4946 -0.8860
 5084SOL     OW26887   4.616   2.437   5.193 -0.6549 -0.1113 -0.0583
 5084SOL    HW126888   4.584   2.448   5.104  0.0398 -2.1654 -0.5404
 5084SOL    HW226889   4.582   2.349   5.210 -1.7192  0.3026 -0.0390
 5085SOL     OW26890   4.063   1.276   2.984 -0.4587 -0.1213  0.3471
 5085SOL    HW126891   4.105   1.334   2.920 -0.6651 -1.6728 -1.1872
 5085SOL    HW226892   4.018   1.344   3.035 -0.7802 -1.5333  1.9216
 5086SOL     OW26893   4.454   1.030   3.013  0.5018  0.5522 -0.5248
 5086SOL    HW126894   4.530   1.079   2.982  1.1983 -0.9632 -1.2442
 5086SOL    HW226895   4.410   1.016   2.930  0.6121  1.2106 -0.6892
 5087SOL     OW26896   4.455   4.507   3.137  0.5867 -0.0669  0.4074
 5087SOL    HW126897   4.532   4.494   3.081  0.2379 -2.2205  0.4379
 5087SOL    HW226898   4.394   4.485   3.067 -0.6044  0.7833  1.1874
 5088SOL     OW26899   1.088   1.922   9.487  0.5590 -0.2602 -0.2758
 5088SOL    HW126900   1.117   1.853   9.428  0.5855  0.8399 -1.5632
 5088SOL    HW226901   1.104   2.002   9.437 -1.1255 -0.0590 -0.5062
 5089SOL     OW26902   3.187   2.136   3.131 -0.5792 -0.4249 -0.0063
 5089SOL    HW126903   3.099   2.157   3.164 -0.8921  2.4935 -2.7274
 5089SOL    HW226904   3.234   2.214   3.161 -0.3140 -0.7613  0.4565
 5090SOL     OW26905   3.851   1.643   9.380  0.3360 -0.3332  0.7242
 5090SOL    HW126906   3.832   1.553   9.409 -0.2574 -0.6589 -0.6595
 5090SOL    HW226907   3.820   1.645   9.289  0.8157  1.2134  0.5978
 5091SOL     OW26908   4.338   1.473   6.694 -0.0979 -0.2445  0.0942
 5091SOL    HW126909   4.323   1.514   6.778 -0.4842 -1.3817  0.5805
 5091SOL    HW226910   4.270   1.512   6.640  1.7804  2.1192 -0.5490
 5092SOL     OW26911   0.850   0.692  12.424 -0.8916  0.5619  0.2743
 5092SOL    HW126912   0.774   0.741  12.455 -1.7477  0.6934 -2.0530
 5092SOL    HW226913   0.892   0.770  12.386  0.8168  0.8930  2.8084
 5093SOL     OW26914   1.063   3.314  13.371  0.3200 -0.4853  0.4152
 5093SOL    HW126915   1.104   3.386  13.421 -0.4636 -0.1164  0.5245
 5093SOL    HW226916   1.133   3.249  13.377 -2.5718 -3.1877  4.9081
 5094SOL     OW26917   1.517   4.429   7.443 -0.3199  0.1781  0.0039
 5094SOL    HW126918   1.567   4.369   7.498 -0.7189 -0.2124 -0.0598
 5094SOL    HW226919   1.458   4.464   7.510 -1.4092 -0.9538 -0.3595
 5095SOL     OW26920   2.409   3.003  12.535 -0.1526 -0.6692 -0.3855
 5095SOL    HW126921   2.469   2.985  12.607 -1.1535  1.3644  0.9442
 5095SOL    HW226922   2.342   3.053  12.581  0.5466 -2.4127  2.4845
 5096SOL     OW26923   0.103   0.930  12.680  0.2528  0.2505 -0.3956
 5096SOL    HW126924   0.021   0.960  12.720 -0.9198 -2.1791 -1.0168
 5096SOL    HW226925   0.114   0.839  12.705  1.6047  0.5360  0.0598
 5097SOL     OW26926   4.186   1.859   7.062  0.2259  0.7218 -0.7547
 5097SOL    HW126927   4.192   1.901   7.148  0.9843 -0.0285 -0.4333
 5097SOL    HW226928   4.123   1.788   7.071 -0.5097  1.2347 -1.8973
 5098SOL     OW26929   2.057   4.333  13.238  0.3123  0.1676 -0.4653
 5098SOL    HW126930   2.131   4.333  13.177  0.4938  0.1430 -0.2421
 5098SOL    HW226931   1.990   4.278  13.197 -0.1789 -0.8342  1.7004
 5099SOL     OW26932   4.030   0.171   4.817  0.8371  0.4516  0.6041
 5099SOL    HW126933   4.072   0.222   4.886  1.1950  0.7253  0.1888
 5099SOL    HW226934   3.955   0.230   4.811  0.9078  0.4846  0.0023
 5100SOL     OW26935   0.679   0.827   3.450  0.1702  0.1045 -0.8539
 5100SOL    HW126936   0.770   0.806   3.472 -0.0238  0.8995  0.6484
 5100SOL    HW226937   0.637   0.749   3.486  2.0726 -0.4981  0.0833
 5101SOL     OW26938   2.776   2.844   3.760  0.7649  0.4933 -0.1732
 5101SOL    HW126939   2.761   2.764   3.709  1.7290  0.0375  0.2807
 5101SOL    HW226940   2.867   2.840   3.786  1.3868 -0.1769 -2.4527
 5102SOL     OW26941   2.366   0.307   1.207  0.2191  0.4008 -1.0961
 5102SOL    HW126942   2.377   0.322   1.301 -0.5156  1.0947 -1.1206
 5102SOL    HW226943   2.272   0.315   1.190  0.1178  1.0271 -0.2185
 5103SOL     OW26944   4.682   3.125   8.955 -0.0892  0.5785  0.0669
 5103SOL    HW126945   4.718   3.167   8.877 -0.4134 -0.2296 -0.5149
 5103SOL    HW226946   4.605   3.079   8.922  0.3283 -0.4931  0.6074
 5104SOL     OW26947   0.537   0.923   4.176 -0.0482  0.4239  0.1802
 5104SOL    HW126948   0.583   0.887   4.100  1.4150 -1.0854  1.7851
 5104SOL    HW226949   0.460   0.866   4.177 -0.5319  1.1547  2.9996
 5105SOL     OW26950   3.145   1.003   0.665  0.2799  0.5345 -0.1783
 5105SOL    HW126951   3.099   1.083   0.640 -0.2382 -0.5622 -2.8035
 5105SOL    HW226952   3.092   0.979   0.741  0.5970 -4.5911 -1.5471
 5106SOL     OW26953   1.488   3.920   4.019 -0.3003  0.3574 -0.1440
 5106SOL    HW126954   1.515   3.942   3.930  0.1380 -0.2960 -0.1756
 5106SOL    HW226955   1.567   3.942   4.069 -0.2126 -1.5763  0.5697
 5107SOL     OW26956   3.089   0.114   7.815  0.4759  0.2494  0.2947
 5107SOL    HW126957   3.109   0.202   7.782 -1.7234  0.1073 -1.4499
 5107SOL    HW226958   3.168   0.069   7.787  0.0663  1.7478 -3.3165
 5108SOL     OW26959   4.463   4.143   4.884  0.4436 -0.3760  0.4465
 5108SOL    HW126960   4.550   4.121   4.915  0.8810 -1.8666 -1.9219
 5108SOL    HW226961   4.480   4.228   4.842 -0.5168 -0.2193  0.3709
 5109SOL     OW26962   4.175   0.223  16.135 -0.0080 -0.0702 -0.0785
 5109SOL    HW126963   4.241   0.207  16.202 -0.4764  0.3711  0.4946
 5109SOL    HW226964   4.103   0.277  16.170 -0.8378 -2.0743  1.3198
 5110SOL     OW26965   1.243   0.713   8.361 -0.7687 -0.0287  0.3880
 5110SOL    HW126966   1.302   0.729   8.287 -1.7482 -0.3166 -0.4572
 5110SOL    HW226967   1.165   0.675   8.322 -0.9434 -1.1444  1.8310
 5111SOL     OW26968   1.582   0.006   3.254  0.0784 -0.2484 -0.4071
 5111SOL    HW126969   1.668   0.046   3.239 -0.0401  0.5043  0.8791
 5111SOL    HW226970   1.566   4.699   3.171  2.3712  1.0423 -1.5524
 5112SOL     OW26971   1.950   3.657  14.965  0.2404 -0.1145 -0.2778
 5112SOL    HW126972   2.013   3.590  14.939  0.0829  0.3889 -2.0063
 5112SOL    HW226973   1.886   3.607  15.016  0.8971 -0.0454  0.6087
 5113SOL     OW26974   3.295   4.075   8.987  0.2994 -0.3244 -0.0920
 5113SOL    HW126975   3.251   4.002   8.944  0.8572 -0.5898 -0.2012
 5113SOL    HW226976   3.221   4.101   9.042  0.0383 -1.4047  0.0701
 5114SOL     OW26977   3.049   1.065   9.396  0.1671  0.1331  0.2877
 5114SOL    HW126978   2.974   1.008   9.381  0.9297 -0.9597  0.6700
 5114SOL    HW226979   3.003   1.149   9.384  0.1023 -0.1797 -1.5852
 5115SOL     OW26980   1.641   1.831   9.418  0.2045 -0.6058  0.6898
 5115SOL    HW126981   1.678   1.881   9.491  1.2705 -0.6962  0.2058
 5115SOL    HW226982   1.712   1.767   9.417 -0.3405 -1.2046  0.7531
 5116SOL     OW26983   2.865   0.840   8.145 -0.6261 -0.0711 -0.0250
 5116SOL    HW126984   2.922   0.832   8.221 -0.8135  1.5930  0.2902
 5116SOL    HW226985   2.904   0.904   8.085  0.7561 -2.1776 -1.3916
 5117SOL     OW26986   3.249   1.252   6.107 -0.2710  0.5835  0.1910
 5117SOL    HW126987   3.280   1.230   6.019  0.3986 -0.3635  0.6593
 5117SOL    HW226988   3.157   1.269   6.088 -1.0565 -1.0655  2.4596
 5118SOL     OW26989   4.267   0.775   3.385  0.7495 -0.2740  0.7360
 5118SOL    HW126990   4.297   0.808   3.301 -1.7777  2.9277  1.1025
 5118SOL    HW226991   4.336   0.816   3.437 -0.2774  1.0945  1.0195
 5119SOL     OW26992   2.113   0.569   6.610 -0.1722  0.2736 -0.6748
 5119SOL    HW126993   2.110   0.596   6.518  3.1085  0.9976 -0.5685
 5119SOL    HW226994   2.067   0.637   6.659  3.3372  1.1460  1.4712
 5120SOL     OW26995   2.767   1.771  13.651  0.1796 -0.3219  0.6858
 5120SOL    HW126996   2.687   1.823  13.635  0.0174 -1.2361 -1.4009
 5120SOL    HW226997   2.762   1.709  13.579  0.1904  0.7202 -0.2004
 5121SOL     OW26998   3.551   1.898   3.897 -0.0320  0.1960  0.4995
 5121SOL    HW126999   3.516   1.920   3.983 -0.9288  0.0878  0.1643
 5121SOL    HW227000   3.629   1.853   3.926  1.0512  0.2195 -2.3878
 5122SOL     OW27001   4.609   0.137   2.103  0.2738 -0.4097 -0.1670
 5122SOL    HW127002   4.514   0.134   2.089  0.4828  0.1283 -1.6594
 5122SOL    HW227003   4.611   0.184   2.187 -3.3612 -0.0280 -0.2750
 5123SOL     OW27004   1.223   1.936   9.730 -0.4332  0.1062  0.3286
 5123SOL    HW127005   1.296   1.992   9.705 -0.3027 -1.7133 -3.3893
 5123SOL    HW227006   1.165   1.922   9.655  0.1984 -0.5490 -0.0378
 5124SOL     OW27007   2.218   1.553   4.023 -0.1456  0.9807  0.1818
 5124SOL    HW127008   2.215   1.493   4.097 -1.0661 -2.5384 -2.7519
 5124SOL    HW227009   2.165   1.623   4.061 -1.9619 -0.5579  0.4939
 5125SOL     OW27010   0.880   4.390   1.952  0.9266  0.1867  0.3506
 5125SOL    HW127011   0.918   4.403   1.866 -1.0364  1.1315 -0.3772
 5125SOL    HW227012   0.948   4.360   2.012 -0.9482 -1.8972  1.4546
 5126SOL     OW27013   1.965   2.305   3.631  0.0292 -0.5090 -1.0053
 5126SOL    HW127014   1.929   2.301   3.542 -0.3229  0.8936 -0.9221
 5126SOL    HW227015   2.039   2.244   3.625 -0.0131 -0.7956  1.5695
 5127SOL     OW27016   1.809   2.801   9.551 -0.1634 -0.1526 -0.1044
 5127SOL    HW127017   1.872   2.872   9.548 -0.6781  0.2475 -1.5779
 5127SOL    HW227018   1.824   2.765   9.463 -0.5306 -0.8201  0.1015
 5128SOL     OW27019   0.236   4.061  15.037 -0.1546 -0.3954  0.3856
 5128SOL    HW127020   0.278   4.124  15.095 -2.6531  0.9863  0.6924
 5128SOL    HW227021   0.308   4.024  14.985 -0.4574  2.3819 -2.0004
 5129SOL     OW27022   0.572   3.411   2.535 -0.2617  0.1863  0.2663
 5129SOL    HW127023   0.514   3.373   2.602 -0.8497 -1.7690 -1.3682
 5129SOL    HW227024   0.651   3.419   2.588  1.0131  0.0415 -1.6465
 5130SOL     OW27025   4.702   1.606   8.115  0.0714  0.5931  0.1555
 5130SOL    HW127026   0.021   1.533   8.088 -1.5007 -0.3148 -0.6717
 5130SOL    HW227027   4.680   1.646   8.030  2.0950  0.3017 -0.4951
 5131SOL     OW27028   0.939   2.905  16.927 -0.0610 -0.1292  0.0843
 5131SOL    HW127029   0.953   2.813  16.949 -0.2756  0.1735  1.4948
 5131SOL    HW227030   1.027   2.935  16.905 -0.7826  0.6848 -1.6235
 5132SOL     OW27031   3.483   4.215   7.200  0.5410  0.2537 -0.1470
 5132SOL    HW127032   3.498   4.281   7.132  1.6890  1.5649  1.3592
 5132SOL    HW227033   3.456   4.271   7.274 -1.2144 -0.3061 -0.3656
 5133SOL     OW27034   3.248   2.101   5.037 -0.0834 -0.1170 -0.2162
 5133SOL    HW127035   3.179   2.152   5.080  1.7352  2.3512 -0.2002
 5133SOL    HW227036   3.194   2.046   4.980 -1.0539  0.5456  0.0547
 5134SOL     OW27037   1.888   1.398   4.831  0.1113 -0.0434  0.0909
 5134SOL    HW127038   1.975   1.365   4.854  0.4584  0.4764 -0.4897
 5134SOL    HW227039   1.843   1.314   4.824  1.6272 -0.8164 -0.5109
 5135SOL     OW27040   3.110   3.009   4.316  0.6670  0.0975 -0.0319
 5135SOL    HW127041   3.125   2.917   4.293  0.4022 -0.1451  0.7963
 5135SOL    HW227042   3.198   3.032   4.345  0.1875  0.2359  1.2997
 5136SOL     OW27043   1.213   2.882   6.681  0.4093 -0.3965  0.1071
 5136SOL    HW127044   1.283   2.827   6.718 -0.7829 -2.6865 -1.0698
 5136SOL    HW227045   1.138   2.848   6.729  0.5451  0.5242  0.9763
 5137SOL     OW27046   2.001   2.884   1.404 -0.1185  0.7133 -0.4563
 5137SOL    HW127047   1.980   2.884   1.497  0.7432 -0.2416 -0.2768
 5137SOL    HW227048   1.913   2.869   1.368 -1.3252 -0.0745  2.9088
 5138SOL     OW27049   2.534   2.909   3.842 -0.3127 -0.6120 -0.4351
 5138SOL    HW127050   2.528   2.998   3.878  1.4858 -0.3281 -0.8019
 5138SOL    HW227051   2.623   2.907   3.806 -0.4562  2.9412 -0.9592
 5139SOL     OW27052   3.313   4.539   4.582  0.3173 -0.2351 -0.1254
 5139SOL    HW127053   3.303   4.444   4.589 -0.3813 -0.1188  0.4379
 5139SOL    HW227054   3.299   4.549   4.488 -0.4521  1.4924  0.1623
 5140SOL     OW27055   3.272   3.941   4.293  0.0440  0.1727  0.0459
 5140SOL    HW127056   3.186   3.947   4.333 -0.2199  1.7553 -0.7537
 5140SOL    HW227057   3.322   3.968   4.370 -0.0367  0.2534  0.0697
 5141SOL     OW27058   2.855   1.080   3.509  0.6813  0.2671  0.4533
 5141SOL    HW127059   2.841   1.015   3.577  0.4965  0.3150  0.4619
 5141SOL    HW227060   2.780   1.063   3.452 -0.6445  4.0180  1.0696
 5142SOL     OW27061   3.747   4.335   3.155  0.2528 -0.3100 -0.0138
 5142SOL    HW127062   3.751   4.352   3.250 -0.4326  0.5071 -0.1321
 5142SOL    HW227063   3.667   4.283   3.163  0.8955 -1.4559 -1.0095
 5143SOL     OW27064   0.199   0.163   5.475 -0.1489 -0.3174 -0.1625
 5143SOL    HW127065   0.130   0.128   5.418  0.2351  0.5493 -1.1647
 5143SOL    HW227066   0.280   0.134   5.433 -0.5959 -1.3662 -0.3028
 5144SOL     OW27067   4.690   0.891   8.468  0.1513 -0.4878  0.2320
 5144SOL    HW127068   4.594   0.884   8.465  0.2117 -0.9901 -0.6277
 5144SOL    HW227069   4.697   0.983   8.493  0.0027 -0.3671 -0.1606
 5145SOL     OW27070   2.274   1.198   8.476 -0.8590 -0.9298 -0.3062
 5145SOL    HW127071   2.246   1.172   8.564 -0.6720  0.6268  0.2168
 5145SOL    HW227072   2.299   1.109   8.455  0.7707 -1.1453  2.5900
 5146SOL     OW27073   0.140   0.792   2.884  0.3211 -0.1220 -0.2158
 5146SOL    HW127074   0.143   0.702   2.854  1.6417 -0.7501  1.8356
 5146SOL    HW227075   0.233   0.811   2.874 -0.0528  0.9701 -1.7816
 5147SOL     OW27076   1.617   1.364  13.930 -0.5268 -0.2953 -0.0991
 5147SOL    HW127077   1.569   1.290  13.893 -1.2295 -1.2035  2.6708
 5147SOL    HW227078   1.622   1.352  14.025  0.9501 -1.0323 -0.2670
 5148SOL     OW27079   2.825   3.115   9.400  0.5249 -0.1792  0.8323
 5148SOL    HW127080   2.734   3.137   9.417  0.4103  0.6823 -1.0011
 5148SOL    HW227081   2.836   3.060   9.478 -2.7949 -1.9241  0.0848
 5149SOL     OW27082   3.796   3.616   5.024 -0.2466  0.0627 -0.4548
 5149SOL    HW127083   3.861   3.568   5.076  1.2233  0.0440 -2.2821
 5149SOL    HW227084   3.852   3.684   4.986 -2.6044  1.7942 -0.7861
 5150SOL     OW27085   3.009   3.360   5.484  0.1655  0.6166 -0.2800
 5150SOL    HW127086   3.054   3.398   5.560 -2.2177  1.5553  0.6489
 5150SOL    HW227087   3.081   3.311   5.443  0.5267 -1.8330  3.2037
 5151SOL     OW27088   4.451   2.233  10.844 -0.0150 -0.4845  0.2486
 5151SOL    HW127089   4.406   2.173  10.785 -1.1365  1.9849 -1.3963
 5151SOL    HW227090   4.511   2.281  10.787  1.5146  0.1738  2.3896
 5152SOL     OW27091   3.285   4.022   8.442  0.2607 -0.2115  0.1594
 5152SOL    HW127092   3.265   3.951   8.381  1.4267 -0.6092  0.2424
 5152SOL    HW227093   3.224   4.002   8.513  1.2837  0.8271  1.3188
 5153SOL     OW27094   4.223   2.555   7.757 -0.1096  0.3696  0.5478
 5153SOL    HW127095   4.188   2.570   7.845 -0.9463 -0.2324  0.3091
 5153SOL    HW227096   4.308   2.600   7.754 -0.9161  1.7086 -2.2205
 5154SOL     OW27097   2.879   3.409  16.671  0.2668  0.2211 -0.5735
 5154SOL    HW127098   2.931   3.471  16.721 -1.3579  0.6583  0.5621
 5154SOL    HW227099   2.953   3.349  16.660 -0.3357 -0.2248 -2.2095
 5155SOL     OW27100   0.796   2.456  15.904 -0.0648 -0.0560  0.0086
 5155SOL    HW127101   0.860   2.452  15.975 -0.2630  1.0580  0.2428
 5155SOL    HW227102   0.807   2.547  15.876  0.9914 -0.5803 -1.2850
 5156SOL     OW27103   0.254   0.735   1.785  0.2149 -0.0971 -0.4610
 5156SOL    HW127104   0.249   0.717   1.879 -0.1934 -1.1936 -0.6910
 5156SOL    HW227105   0.254   0.644   1.755 -1.5747  0.0230 -0.8566
 5157SOL     OW27106   3.319   4.663   6.806  0.6736 -0.0870  0.5830
 5157SOL    HW127107   3.306   0.001   6.863 -2.9152 -0.5055  0.3279
 5157SOL    HW227108   3.337   4.702   6.721 -0.5831 -0.5651  0.0927
 5158SOL     OW27109   2.784   0.681   2.492  0.3716 -0.0758  0.4295
 5158SOL    HW127110   2.754   0.630   2.416 -0.6166  1.2768 -0.0766
 5158SOL    HW227111   2.705   0.697   2.544 -1.4977 -0.9136 -2.1288
 5159SOL     OW27112   1.065   0.149   9.836 -0.2351 -0.1439 -0.1946
 5159SOL    HW127113   1.139   0.198   9.873 -0.9830  1.8760 -1.3618
 5159SOL    HW227114   1.109   0.075   9.794 -0.2070 -0.1592 -0.1373
 5160SOL     OW27115   2.846   0.027   1.404  0.3573 -0.1615  0.2381
 5160SOL    HW127116   2.858   4.699   1.336  0.2805 -0.2436  0.3038
 5160SOL    HW227117   2.807   4.707   1.470 -0.1684  0.2612  0.2974
 5161SOL     OW27118   3.531   3.722   0.574 -0.3603 -0.6480  0.2610
 5161SOL    HW127119   3.610   3.735   0.523  0.0612 -0.3214  1.0065
 5161SOL    HW227120   3.526   3.628   0.591 -0.0437 -0.2846  2.4049
 5162SOL     OW27121   3.637   0.555  10.777  0.3339  0.3777  0.1165
 5162SOL    HW127122   3.637   0.548  10.681  2.7264 -1.5380  0.2638
 5162SOL    HW227123   3.547   0.579  10.801  0.0504 -1.0286  0.4975
 5163SOL     OW27124   2.094   3.711   4.948  0.2872  0.8272  0.2555
 5163SOL    HW127125   2.050   3.752   4.873  1.0889 -1.9957 -1.7655
 5163SOL    HW227126   2.183   3.698   4.915 -1.0316  0.6862 -3.2195
 5164SOL     OW27127   0.618   4.316   5.727  0.6151  0.3379  0.5001
 5164SOL    HW127128   0.546   4.333   5.788  0.6096  0.4752  0.4550
 5164SOL    HW227129   0.589   4.362   5.648  1.4274  2.5761  1.5019
 5165SOL     OW27130   2.858   2.708  14.555 -0.0382  0.2083 -0.7046
 5165SOL    HW127131   2.910   2.651  14.498  0.9627 -0.6300  1.0700
 5165SOL    HW227132   2.841   2.782  14.496  1.4458 -0.4685 -2.0062
 5166SOL     OW27133   2.733   1.604   2.173 -0.2580  0.0040  0.6324
 5166SOL    HW127134   2.646   1.564   2.174 -0.3939  0.2517 -2.0072
 5166SOL    HW227135   2.748   1.627   2.081  0.6534  1.2343  1.0905
 5167SOL     OW27136   4.602   1.679   8.385  0.2224 -0.5917  0.3087
 5167SOL    HW127137   4.664   1.647   8.319 -1.4721  0.3064 -1.7149
 5167SOL    HW227138   4.632   1.625   8.458  1.2317  2.3421  2.0400
 5168SOL     OW27139   4.374   0.957   6.053  0.1539  0.0568 -0.0346
 5168SOL    HW127140   4.436   0.938   6.123  0.2265  1.3143  0.2421
 5168SOL    HW227141   4.427   0.983   5.977  1.9313  0.3392  1.3184
 5169SOL     OW27142   3.550   2.354   6.317  0.8826  0.3245  0.0919
 5169SOL    HW127143   3.622   2.383   6.261  0.4588 -2.6604 -1.9482
 5169SOL    HW227144   3.561   2.259   6.321 -2.2662 -0.0162  0.9723
 5170SOL     OW27145   3.381   3.910  15.472 -0.1322  0.0107  0.2226
 5170SOL    HW127146   3.338   3.915  15.557  1.3439 -1.7470  1.0873
 5170SOL    HW227147   3.357   3.822  15.442  0.1918 -0.1726  0.5044
 5171SOL     OW27148   1.634   0.972  12.391 -0.3246 -0.3277 -0.2600
 5171SOL    HW127149   1.664   1.052  12.347 -0.7154 -0.5661 -0.9487
 5171SOL    HW227150   1.632   0.908  12.320 -1.7542  0.1558 -0.6516
 5172SOL     OW27151   3.970   1.647   6.813  0.3120 -0.5397  0.0743
 5172SOL    HW127152   3.924   1.565   6.796 -4.2714  2.6063 -2.7222
 5172SOL    HW227153   3.967   1.661   6.908 -2.9698 -1.0875  0.0553
 5173SOL     OW27154   3.259   3.344   6.847 -0.1322  0.2374 -0.4821
 5173SOL    HW127155   3.211   3.376   6.923  0.3154  0.6046 -0.3521
 5173SOL    HW227156   3.190   3.360   6.783 -1.2332 -0.6810  0.4848
 5174SOL     OW27157   4.310   0.131  15.107 -0.1717  0.4311  0.0035
 5174SOL    HW127158   4.265   0.105  15.026 -0.5124 -0.5405  0.5115
 5174SOL    HW227159   4.369   0.056  15.111  0.5443  0.9417 -0.8451
 5175SOL     OW27160   2.877   3.870   4.533 -0.1994 -0.2595 -0.3705
 5175SOL    HW127161   2.878   3.960   4.564  0.2826 -0.3010 -0.2776
 5175SOL    HW227162   2.808   3.887   4.468 -0.7941 -0.7477  0.1259
 5176SOL     OW27163   3.315   2.235  10.345  0.0958 -0.6074  0.0245
 5176SOL    HW127164   3.227   2.241  10.381  0.6969 -0.5929  1.4891
 5176SOL    HW227165   3.349   2.169  10.405 -1.5153  0.4896  2.1520
 5177SOL     OW27166   3.800   0.553   7.456  0.0831 -0.3204  0.0895
 5177SOL    HW127167   3.760   0.501   7.386  0.7343  1.7649 -1.8245
 5177SOL    HW227168   3.735   0.553   7.527 -0.6592 -0.3756 -0.5970
 5178SOL     OW27169   4.105   3.391   1.833 -0.1267  1.1575  0.0369
 5178SOL    HW127170   4.110   3.365   1.925  0.2375 -0.7886 -0.5426
 5178SOL    HW227171   4.199   3.404   1.822 -0.0208 -0.9147 -1.4593
 5179SOL     OW27172   0.602   1.747   5.887  0.3940  0.3618 -0.0788
 5179SOL    HW127173   0.599   1.792   5.972 -2.3533  0.7316 -0.3666
 5179SOL    HW227174   0.684   1.781   5.850 -1.2970  4.6237  0.0345
 5180SOL     OW27175   2.728   3.358   4.965 -0.3052 -0.2464 -0.7539
 5180SOL    HW127176   2.695   3.322   5.047  0.6672  2.0405  0.6601
 5180SOL    HW227177   2.647   3.400   4.938 -0.1103  0.5076 -0.1926
 5181SOL     OW27178   4.360   1.592   5.020 -0.3821 -0.2197  0.1438
 5181SOL    HW127179   4.418   1.595   4.944 -0.5512  1.7953  0.0875
 5181SOL    HW227180   4.295   1.660   5.000 -0.4597  0.2277  1.8596
 5182SOL     OW27181   1.931   4.657   0.772  0.5115 -0.2866 -0.1381
 5182SOL    HW127182   1.984   4.687   0.846  1.0414  1.4161 -1.2216
 5182SOL    HW227183   1.894   0.004   0.746  2.3492  0.4939 -0.1629
 5183SOL     OW27184   3.057   1.502   2.172  0.0943  0.1304 -0.1081
 5183SOL    HW127185   3.026   1.419   2.208 -0.2325  0.7355  0.9766
 5183SOL    HW227186   3.058   1.551   2.254 -0.6420 -0.8389  0.4673
 5184SOL     OW27187   2.251   0.120   6.711  0.7214  0.5588  0.0871
 5184SOL    HW127188   2.250   0.215   6.717  1.0293  0.6166 -0.6791
 5184SOL    HW227189   2.166   0.102   6.750  0.8230  1.8631  0.8993
 5185SOL     OW27190   1.684   3.119   5.515 -0.5750 -0.4148 -0.3702
 5185SOL    HW127191   1.630   3.144   5.440  0.6054  1.7292 -0.5040
 5185SOL    HW227192   1.706   3.031   5.484  1.0321 -0.6594  1.4953
 5186SOL     OW27193   2.092   1.817   2.262 -0.0914 -0.1386 -0.1348
 5186SOL    HW127194   2.106   1.726   2.289  3.1811  0.8811  1.6038
 5186SOL    HW227195   2.035   1.858   2.327 -1.3376 -1.1247 -0.6000
 5187SOL     OW27196   3.862   2.435   6.053  0.1448  0.3891 -0.5272
 5187SOL    HW127197   3.794   2.378   6.018  1.2743 -0.7501 -0.8709
 5187SOL    HW227198   3.932   2.372   6.037  0.3463  0.4205  0.2299
 5188SOL     OW27199   0.041   4.206   0.973 -0.3779 -0.1850 -0.0356
 5188SOL    HW127200   4.694   4.163   0.958 -0.5536 -0.0521  0.5529
 5188SOL    HW227201   0.036   4.291   0.930 -0.5662  0.1653  0.6674
 5189SOL     OW27202   3.911   3.073   5.031  0.0647  0.3606  0.2718
 5189SOL    HW127203   3.978   3.142   5.038  2.0054 -1.3123 -1.9136
 5189SOL    HW227204   3.837   3.117   5.074  0.1348 -0.0526  0.8058
 5190SOL     OW27205   0.210   3.661  12.256 -0.8439 -0.1696  0.7162
 5190SOL    HW127206   0.300   3.647  12.286 -0.2910 -3.5143 -2.4619
 5190SOL    HW227207   0.186   3.578  12.215 -2.3243  0.6506 -0.0763
 5191SOL     OW27208   3.109   0.487   6.014 -0.3532  0.0168  0.0769
 5191SOL    HW127209   3.168   0.499   6.089 -0.0329  0.9056 -0.3191
 5191SOL    HW227210   3.160   0.534   5.949 -0.0378  0.1907  0.4508
 5192SOL     OW27211   0.493   1.308   4.280 -0.1484 -0.3817  0.2222
 5192SOL    HW127212   0.478   1.259   4.199  1.0693 -0.5979  0.1359
 5192SOL    HW227213   0.510   1.235   4.339  0.4498 -0.5241 -0.1325
 5193SOL     OW27214   2.823   1.978  15.898 -0.0774 -0.0713  0.0453
 5193SOL    HW127215   2.873   2.019  15.828  1.9512 -0.8307  1.0652
 5193SOL    HW227216   2.838   1.884  15.901  1.0312  0.0656 -1.5291
 5194SOL     OW27217   3.732   1.927   3.296  0.3725  0.4090  0.1734
 5194SOL    HW127218   3.699   1.992   3.359  1.6654 -0.0375  1.3184
 5194SOL    HW227219   3.826   1.938   3.306  0.8701 -3.1497 -0.7088
 5195SOL     OW27220   2.094   4.282  12.834  0.3374 -0.0071 -0.1348
 5195SOL    HW127221   2.176   4.273  12.883 -2.0818 -1.9740  3.6139
 5195SOL    HW227222   2.047   4.203  12.861 -0.0746  0.0858 -0.5828
 5196SOL     OW27223   2.099   2.389   4.393  0.2341 -0.2851  0.2677
 5196SOL    HW127224   2.095   2.309   4.341  1.5490  1.7973 -3.0101
 5196SOL    HW227225   2.157   2.442   4.339  1.6200 -1.5335  0.5432
 5197SOL     OW27226   2.008   4.335   7.832 -0.7941  0.0338 -0.0994
 5197SOL    HW127227   1.956   4.281   7.891 -1.3614  0.4140 -0.2506
 5197SOL    HW227228   2.049   4.271   7.774  1.6502 -0.0444  1.7192
 5198SOL     OW27229   3.925   4.205  17.398  0.5505 -0.5354 -0.1351
 5198SOL    HW127230   3.958   4.140  17.336 -0.8892 -1.8430  0.4517
 5198SOL    HW227231   3.963   4.179  17.482 -0.1114  1.2205  0.7108
 5199SOL     OW27232   3.741   1.537   8.204 -0.2427  0.1304 -0.0731
 5199SOL    HW127233   3.741   1.632   8.214  1.7945  0.1600 -0.3032
 5199SOL    HW227234   3.787   1.538   8.120 -0.2336  0.3675 -0.0653
 5200SOL     OW27235   1.686   4.220   3.215 -0.3355  0.7067 -0.5036
 5200SOL    HW127236   1.743   4.150   3.182  2.1134  1.4718  2.1130
 5200SOL    HW227237   1.682   4.205   3.309 -2.4212  1.1952 -0.5127
 5201SOL     OW27238   2.861   4.041  15.014  0.2372  0.3067  0.3251
 5201SOL    HW127239   2.893   4.078  15.096  2.1108 -2.3305  0.7991
 5201SOL    HW227240   2.873   4.119  14.960  0.7345 -0.4545 -0.6794
 5202SOL     OW27241   0.459   2.712   2.644 -0.0747  0.0874 -0.3720
 5202SOL    HW127242   0.529   2.742   2.587  0.9929  1.1347  1.4614
 5202SOL    HW227243   0.481   2.758   2.725 -0.3842 -0.4588  0.0220
 5203SOL     OW27244   0.762   1.426   2.942 -0.1938  0.3062  0.2511
 5203SOL    HW127245   0.829   1.490   2.918  2.2540 -2.4077 -0.1921
 5203SOL    HW227246   0.690   1.482   2.970 -0.9977  0.9254 -3.0399
 5204SOL     OW27247   0.897   4.050  14.876 -0.5331  0.4752 -0.1295
 5204SOL    HW127248   0.866   4.139  14.895  1.2186  1.1018 -0.1608
 5204SOL    HW227249   0.839   4.003  14.936  1.4053  1.7095  2.7298
 5205SOL     OW27250   0.817   2.186   7.530  0.2326  0.6400 -0.0478
 5205SOL    HW127251   0.729   2.206   7.561  0.1178 -0.1591  0.1249
 5205SOL    HW227252   0.849   2.133   7.603  0.1607 -1.5519 -1.6157
 5206SOL     OW27253   3.929   4.591   1.126  0.1316 -0.0442  0.1284
 5206SOL    HW127254   3.902   4.585   1.217 -0.6426  3.0077  0.0965
 5206SOL    HW227255   3.921   4.503   1.088  2.5115 -1.0340  1.9117
 5207SOL     OW27256   4.316   1.728   6.043 -0.6155 -0.5026 -0.1394
 5207SOL    HW127257   4.305   1.742   6.137  1.1914  2.6426 -0.3819
 5207SOL    HW227258   4.410   1.745   6.038 -0.5018 -0.4729  2.2789
 5208SOL     OW27259   1.640   1.453   8.739 -0.2144 -0.4407 -0.1736
 5208SOL    HW127260   1.618   1.384   8.677  0.7032 -0.9932  0.1080
 5208SOL    HW227261   1.615   1.530   8.688 -1.6320  0.1164  1.3799
 5209SOL     OW27262   0.338   3.974  17.129  0.0600  0.2310 -0.0750
 5209SOL    HW127263   0.373   3.994  17.042  2.4808  1.7278  1.2436
 5209SOL    HW227264   0.414   3.961  17.186 -0.1400  0.8848  0.3443
 5210SOL     OW27265   1.891   2.062  12.350 -0.2219  0.0828 -0.0294
 5210SOL    HW127266   1.923   2.078  12.438  0.5966 -1.3937 -0.0633
 5210SOL    HW227267   1.802   2.027  12.361  0.2029 -1.2620 -0.7949
 5211SOL     OW27268   3.367   1.910  13.468 -0.0348  0.3614 -0.4215
 5211SOL    HW127269   3.444   1.889  13.521 -0.2046  0.7826 -0.0035
 5211SOL    HW227270   3.341   1.829  13.425  0.0837  0.7221 -1.1824
 5212SOL     OW27271   2.365   2.458  15.709  0.4257 -0.5442 -0.3858
 5212SOL    HW127272   2.350   2.551  15.727  2.5624 -0.3884  0.6170
 5212SOL    HW227273   2.337   2.440  15.619  0.1355  0.7991 -0.5624
 5213SOL     OW27274   4.083   0.243   9.591 -0.5456 -0.0327  0.3833
 5213SOL    HW127275   4.125   0.293   9.521 -0.8177  0.1559  0.3592
 5213SOL    HW227276   4.136   0.163   9.583  0.1464  0.3971  0.7287
 5214SOL     OW27277   0.199   0.021  12.352 -0.2359 -0.0564 -0.5328
 5214SOL    HW127278   0.242   0.107  12.361 -0.0649 -0.1448 -0.5038
 5214SOL    HW227279   0.157   0.021  12.438  0.4187  0.6151 -0.2139
 5215SOL     OW27280   4.158   0.808  11.467 -0.0072 -0.0852 -0.0856
 5215SOL    HW127281   4.229   0.797  11.530  0.8263 -0.1204 -1.0334
 5215SOL    HW227282   4.099   0.741  11.503 -1.2614  0.7504 -0.5923
 5216SOL     OW27283   3.910   1.296  15.627  0.6121 -0.1052  0.0122
 5216SOL    HW127284   3.978   1.273  15.690 -1.8630 -2.2200  1.9150
 5216SOL    HW227285   3.836   1.270  15.683  0.7915 -0.7697 -0.0569
 5217SOL     OW27286   4.305   3.386   0.869 -0.3827  0.1904  0.1717
 5217SOL    HW127287   4.261   3.302   0.857 -0.7372  0.5819 -1.2880
 5217SOL    HW227288   4.256   3.427   0.940 -1.5590  0.4203 -0.7751
 5218SOL     OW27289   2.764   3.690   9.507 -0.3178 -0.1638  0.3472
 5218SOL    HW127290   2.677   3.652   9.523  0.0904 -2.2440 -2.3557
 5218SOL    HW227291   2.769   3.772   9.555 -0.1920 -0.8429  1.5158
 5219SOL     OW27292   3.866   0.857   4.060  0.0460 -0.0332  0.2221
 5219SOL    HW127293   3.847   0.785   4.000 -1.7525 -2.0503  3.1940
 5219SOL    HW227294   3.935   0.903   4.013 -0.8203 -0.3324 -1.3128
 5220SOL     OW27295   2.793   0.008   7.153 -0.6995 -0.3285  0.4251
 5220SOL    HW127296   2.736   4.697   7.094 -0.6771 -1.8388  1.6495
 5220SOL    HW227297   2.824   0.072   7.088 -1.0810  1.1458  1.7203
 5221SOL     OW27298   3.296   3.812  15.851 -0.0272  0.8308 -0.0262
 5221SOL    HW127299   3.247   3.859  15.783  1.8023 -0.3467 -2.1860
 5221SOL    HW227300   3.308   3.729  15.805  0.0112 -0.2853  2.0318
 5222SOL     OW27301   2.265   4.643   9.216  0.4257  0.4944 -0.0109
 5222SOL    HW127302   2.254   4.604   9.302 -1.4732  0.8006 -0.1155
 5222SOL    HW227303   2.320   4.571   9.187 -0.4487 -0.6946  1.2833
 5223SOL     OW27304   2.220   4.043  15.058 -0.3756  0.1332 -0.2823
 5223SOL    HW127305   2.225   4.085  15.145  0.6581  3.3709 -1.8843
 5223SOL    HW227306   2.188   4.112  15.001 -1.9030  0.1180  0.5625
 5224SOL     OW27307   0.913   0.098   9.347 -0.5094  0.0898 -0.0853
 5224SOL    HW127308   0.845   0.165   9.334  0.3317  0.8849 -0.3739
 5224SOL    HW227309   0.873   0.024   9.300  0.2088  2.0858 -3.8801
 5225SOL     OW27310   2.046   0.821   9.248  0.3555 -0.3518 -0.4512
 5225SOL    HW127311   2.047   0.736   9.292 -1.1521  0.3148  0.8771
 5225SOL    HW227312   1.961   0.819   9.206  0.1429 -0.3735 -0.0216
 5226SOL     OW27313   4.714   0.255   2.358 -0.0786 -0.0224  0.7983
 5226SOL    HW127314   4.734   0.347   2.379  0.9980 -0.5860  2.2676
 5226SOL    HW227315   0.068   0.225   2.347 -0.3110 -0.7496  0.8593
 5227SOL     OW27316   4.641   4.450  12.155  0.9571 -0.2263 -0.1956
 5227SOL    HW127317   4.664   4.541  12.175 -0.0010 -0.0499  0.0906
 5227SOL    HW227318   4.639   4.439  12.060 -1.4605  0.8129 -0.2652
 5228SOL     OW27319   4.536   1.847   9.401  0.1323  0.3466 -0.1960
 5228SOL    HW127320   4.492   1.803   9.474 -0.8540  0.7134 -0.5584
 5228SOL    HW227321   4.623   1.809   9.394 -0.1897 -0.4604  0.1710
 5229SOL     OW27322   0.675   2.017   6.439  0.1952 -0.5839 -0.0332
 5229SOL    HW127323   0.746   2.075   6.468 -1.3163  1.6796 -0.8096
 5229SOL    HW227324   0.700   1.938   6.486 -1.6592 -0.9086  0.4220
 5230SOL     OW27325   1.674   3.388   4.973  0.0242 -0.5762 -0.0942
 5230SOL    HW127326   1.659   3.467   4.920 -0.9104 -0.5613  0.1917
 5230SOL    HW227327   1.617   3.410   5.047 -1.2480 -0.4897 -1.0977
 5231SOL     OW27328   0.862   2.999   1.457  0.0171  0.4281 -0.1316
 5231SOL    HW127329   0.915   3.027   1.382 -0.2358  1.5570  0.1080
 5231SOL    HW227330   0.858   3.084   1.502 -2.9393  0.4266 -0.3821
 5232SOL     OW27331   2.565   3.046   8.335  0.0334  0.1882  0.8437
 5232SOL    HW127332   2.630   3.092   8.283  0.5089 -1.3728  0.0475
 5232SOL    HW227333   2.613   2.964   8.348 -0.6675 -0.2835  0.5108
 5233SOL     OW27334   2.655   1.209   5.700 -0.0291 -0.5342 -0.4380
 5233SOL    HW127335   2.744   1.175   5.700 -0.3009 -1.2608 -0.9463
 5233SOL    HW227336   2.653   1.270   5.625 -1.5875 -0.1384 -0.0714
 5234SOL     OW27337   1.715   4.623  11.018  0.2512  0.2557  0.0247
 5234SOL    HW127338   1.810   4.629  11.032  0.7871 -1.9233 -2.7772
 5234SOL    HW227339   1.691   4.583  11.101 -2.1047  0.7214 -0.4310
 5235SOL     OW27340   0.264   1.925   7.410  0.4799  0.0648 -0.6167
 5235SOL    HW127341   0.353   1.929   7.447  1.3976 -0.8232 -2.7605
 5235SOL    HW227342   0.221   2.009   7.424 -1.7642 -1.3656  1.1190
 5236SOL     OW27343   3.678   3.082  11.610  0.3081  0.1325  0.2813
 5236SOL    HW127344   3.710   3.155  11.663 -2.1195  1.8342 -0.6005
 5236SOL    HW227345   3.712   3.008  11.660 -0.8456 -0.4287  0.2154
 5237SOL     OW27346   2.325   4.081   7.817 -0.2572  0.2455  0.1363
 5237SOL    HW127347   2.259   4.101   7.751 -1.6053  1.6374  1.8772
 5237SOL    HW227348   2.344   4.170   7.846  1.2560 -0.0777  0.1182
 5238SOL     OW27349   1.745   4.073   4.067  0.0556 -0.4605  0.0074
 5238SOL    HW127350   1.776   4.124   3.993 -0.3068  0.8236  0.7420
 5238SOL    HW227351   1.825   4.020   4.074  0.9022  0.4743 -2.7117
 5239SOL     OW27352   3.622   3.123   2.948 -0.2120  0.5803 -0.1747
 5239SOL    HW127353   3.544   3.153   2.902  0.3557  0.4353 -1.2283
 5239SOL    HW227354   3.700   3.154   2.901 -0.3104 -2.2279 -2.1752
 5240SOL     OW27355   0.952   3.278   8.296 -0.2128 -0.6271 -0.4340
 5240SOL    HW127356   0.910   3.216   8.237 -1.4657 -0.3134  0.1185
 5240SOL    HW227357   0.874   3.298   8.347 -0.4284 -0.2766 -0.8939
 5241SOL     OW27358   2.648   2.858   1.398  0.6553  0.5455  0.7161
 5241SOL    HW127359   2.655   2.776   1.446 -1.3104  0.4422  0.8304
 5241SOL    HW227360   2.569   2.893   1.439 -0.5273 -1.1189 -0.1651
 5242SOL     OW27361   3.791   2.214   2.500  0.0197  0.0172 -0.1678
 5242SOL    HW127362   3.838   2.184   2.422  1.1622  0.3918  0.3819
 5242SOL    HW227363   3.703   2.240   2.472  0.3529  0.5784 -0.6905
 5243SOL     OW27364   4.565   3.433   9.217  0.2900 -0.1793 -0.2552
 5243SOL    HW127365   4.651   3.471   9.234  0.8795 -0.9275 -1.5226
 5243SOL    HW227366   4.505   3.500   9.251 -0.8684  0.4057 -3.4906
 5244SOL     OW27367   2.937   3.410  12.770  0.3317  0.7302  0.1359
 5244SOL    HW127368   2.852   3.425  12.812  0.8289  0.2615  1.3004
 5244SOL    HW227369   2.986   3.447  12.844 -0.5274  2.0614  0.0441
 5245SOL     OW27370   3.804   3.140  12.168  0.2066 -0.5748 -0.0391
 5245SOL    HW127371   3.854   3.090  12.104 -2.9854 -0.2111 -2.7902
 5245SOL    HW227372   3.765   3.068  12.218  1.1117 -0.4902  0.7868
 5246SOL     OW27373   1.345   2.446   7.237 -0.2485 -0.3175 -0.3057
 5246SOL    HW127374   1.295   2.378   7.192  1.3308 -1.7777  0.1575
 5246SOL    HW227375   1.349   2.418   7.328 -0.0075 -0.0551 -0.2351
 5247SOL     OW27376   2.301   0.094  16.999 -0.2312 -0.2765 -0.6006
 5247SOL    HW127377   2.253   0.011  16.995  0.7780 -0.9252  0.8392
 5247SOL    HW227378   2.281   0.121  17.088  1.7712  0.1078 -0.2765
 5248SOL     OW27379   4.328   4.648   7.725 -0.2453  0.8686  0.0488
 5248SOL    HW127380   4.232   4.648   7.721 -0.2136  2.1569 -0.9405
 5248SOL    HW227381   4.357   4.665   7.635  0.9761 -1.9076 -0.0877
 5249SOL     OW27382   2.467   0.903  12.869  0.5194  0.0349  0.6875
 5249SOL    HW127383   2.432   0.828  12.821 -2.5651  1.3658  0.8382
 5249SOL    HW227384   2.438   0.977  12.815  0.1414  1.4771  2.8581
 5250SOL     OW27385   1.898   2.536   4.487 -0.0721  0.1805 -0.2920
 5250SOL    HW127386   1.854   2.546   4.402 -0.9700  2.1928  0.4204
 5250SOL    HW227387   1.981   2.495   4.462 -1.0656 -1.3645 -1.0367
 5251SOL     OW27388   3.454   4.140  11.454  0.7426 -0.1283  0.1008
 5251SOL    HW127389   3.444   4.088  11.375  1.0651  0.7608 -0.5236
 5251SOL    HW227390   3.496   4.215  11.413 -1.1575  1.1806  0.5770
 5252SOL     OW27391   0.199   4.095  12.905 -0.5674  0.4776  0.0462
 5252SOL    HW127392   0.108   4.065  12.903  0.2132 -1.8779 -0.3754
 5252SOL    HW227393   0.203   4.136  12.819  1.0342  2.7958  1.2366
 5253SOL     OW27394   2.358   3.642   4.083  0.0011  0.5510  0.0583
 5253SOL    HW127395   2.325   3.567   4.133 -1.5134  1.5637  0.5755
 5253SOL    HW227396   2.272   3.679   4.061  0.1885  0.0245 -1.5399
 5254SOL     OW27397   4.422   1.784   9.162  0.3093  0.9477 -0.4485
 5254SOL    HW127398   4.477   1.721   9.115 -0.3844 -0.6847  0.9266
 5254SOL    HW227399   4.470   1.821   9.236 -0.2731  1.4665 -0.3316
 5255SOL     OW27400   1.282   3.847   6.086  0.8747  0.5139 -0.4221
 5255SOL    HW127401   1.252   3.819   6.172  1.3807 -0.0710 -0.4418
 5255SOL    HW227402   1.239   3.933   6.083  1.7581  1.0236  1.9586
 5256SOL     OW27403   2.390   2.724   2.928 -0.4390 -0.2237 -0.5060
 5256SOL    HW127404   2.357   2.659   2.865  1.0463 -1.1755 -0.2860
 5256SOL    HW227405   2.480   2.695   2.942 -0.7635 -0.5141  1.0478
 5257SOL     OW27406   4.381   1.476  12.850  0.7017  0.2012 -0.0466
 5257SOL    HW127407   4.295   1.445  12.879  0.7389  0.4368  0.3135
 5257SOL    HW227408   4.379   1.451  12.757 -0.6100 -1.6520  0.4869
 5258SOL     OW27409   0.422   4.505   6.267  0.2592 -0.8650  0.7333
 5258SOL    HW127410   0.510   4.509   6.230  0.0176  2.0167  0.4841
 5258SOL    HW227411   0.430   4.578   6.328  0.1503 -1.9383  2.0348
 5259SOL     OW27412   1.729   1.115   9.008  0.6770 -0.5301 -0.0914
 5259SOL    HW127413   1.771   1.125   8.922 -1.1361 -1.0016 -1.0383
 5259SOL    HW227414   1.640   1.095   8.977  0.5481  0.2337 -0.2210
 5260SOL     OW27415   4.619   3.226   1.020  0.2214  0.2298  0.0999
 5260SOL    HW127416   4.541   3.270   0.985  0.2600  0.0853 -0.1693
 5260SOL    HW227417   4.631   3.142   0.977  1.6229  0.4691  0.0461
 5261SOL     OW27418   3.267   3.363   7.252 -0.0258  0.2252 -0.0220
 5261SOL    HW127419   3.320   3.412   7.191  1.2304 -1.2987 -0.1580
 5261SOL    HW227420   3.341   3.324   7.299 -0.9908  0.6650  1.8883
 5262SOL     OW27421   0.726   2.781   4.893  0.0209 -0.2953 -0.3824
 5262SOL    HW127422   0.671   2.711   4.928  0.5110 -1.7439 -2.5183
 5262SOL    HW227423   0.763   2.735   4.817 -1.0744 -3.6662  1.1554
 5263SOL     OW27424   0.296   3.814  14.806  0.5066  0.4960 -0.5974
 5263SOL    HW127425   0.388   3.822  14.833  0.2750  0.8087  0.1159
 5263SOL    HW227426   0.302   3.785  14.715 -0.4374  3.3654 -1.5879
 5264SOL     OW27427   3.703   2.382   8.991 -0.1111 -0.4005  0.6446
 5264SOL    HW127428   3.759   2.305   8.995 -0.3165 -0.6165 -0.4478
 5264SOL    HW227429   3.661   2.392   9.076  0.8313  0.8546  0.9491
 5265SOL     OW27430   0.290   0.767   7.759 -0.4328  0.3681  0.1226
 5265SOL    HW127431   0.355   0.829   7.729 -1.0664  1.2484  0.5707
 5265SOL    HW227432   0.341   0.686   7.763 -0.4665  0.2856 -1.2370
 5266SOL     OW27433   1.352   1.695  12.216  0.2791 -0.2105 -0.3386
 5266SOL    HW127434   1.355   1.697  12.312  1.2282 -1.6850 -0.3382
 5266SOL    HW227435   1.371   1.786  12.194  0.3461 -0.1924 -0.2081
 5267SOL     OW27436   3.073   4.697   2.160  0.0727  0.3233  0.2566
 5267SOL    HW127437   2.978   4.697   2.169  0.0209  0.2227 -0.3061
 5267SOL    HW227438   3.083   4.712   2.066 -0.8051 -1.1072 -0.0587
 5268SOL     OW27439   4.484   3.132   3.749  0.5354  0.0549  0.1302
 5268SOL    HW127440   4.430   3.165   3.677 -1.2987 -0.0004  1.4583
 5268SOL    HW227441   4.472   3.038   3.734  1.1586  0.2207 -1.3546
 5269SOL     OW27442   0.814   4.100   6.217 -0.8300  0.5989  0.1549
 5269SOL    HW127443   0.863   4.173   6.178  1.8130 -1.3959 -0.3271
 5269SOL    HW227444   0.765   4.057   6.146 -0.8575  1.0775 -0.1126
 5270SOL     OW27445   0.864   4.109   2.105  0.7992  0.2138  0.3586
 5270SOL    HW127446   0.856   4.132   2.198 -2.4531  1.7755 -0.3040
 5270SOL    HW227447   0.937   4.167   2.084 -0.3834  1.3674 -0.5581
 5271SOL     OW27448   0.611   2.049   4.242  0.1180  0.6276 -0.1265
 5271SOL    HW127449   0.681   2.110   4.264 -1.2966  2.8007 -1.6240
 5271SOL    HW227450   0.541   2.110   4.221 -0.7047  0.3600  1.8359
 5272SOL     OW27451   4.521   1.486   3.342 -0.0065  0.1647 -0.1477
 5272SOL    HW127452   4.574   1.414   3.308 -1.5364 -1.6245  1.2728
 5272SOL    HW227453   4.440   1.439   3.358  1.2280 -1.8572  0.2335
 5273SOL     OW27454   1.430   1.365   6.599  0.0775 -0.1401  0.2742
 5273SOL    HW127455   1.393   1.280   6.576 -0.8991  0.3882 -0.0764
 5273SOL    HW227456   1.498   1.371   6.532  1.1461 -0.4024  1.3120
 5274SOL     OW27457   2.319   1.064   4.427 -0.3330 -0.0928 -0.0076
 5274SOL    HW127458   2.404   1.102   4.404  0.4287 -1.6561  0.2657
 5274SOL    HW227459   2.291   1.127   4.494  1.4661  1.5541 -0.7777
 5275SOL     OW27460   3.570   2.604  14.225 -0.0858  0.2246  0.3463
 5275SOL    HW127461   3.657   2.564  14.227  1.1001  2.9022  1.4751
 5275SOL    HW227462   3.568   2.633  14.134 -0.4413  1.5529  0.7785
 5276SOL     OW27463   0.392   4.718  11.771 -0.4107  0.2700 -0.5319
 5276SOL    HW127464   0.360   0.001  11.859 -0.1945 -2.4090  0.1624
 5276SOL    HW227465   0.404   4.624  11.785 -1.1384  0.0431 -1.4235
 5277SOL     OW27466   4.096   2.956   5.660  0.3747  0.4334  0.3541
 5277SOL    HW127467   4.087   3.051   5.671  1.4970  0.7467 -1.2885
 5277SOL    HW227468   4.022   2.946   5.600 -0.9587  3.6083  1.4889
 5278SOL     OW27469   4.573   2.324   1.868  0.1404 -0.3008 -0.1184
 5278SOL    HW127470   4.579   2.416   1.892 -0.1719 -0.0124 -1.1434
 5278SOL    HW227471   4.651   2.281   1.905 -0.0936  0.4236  1.2030
 5279SOL     OW27472   0.956   3.724  17.507  0.7439 -0.2625 -0.6745
 5279SOL    HW127473   0.952   3.646  17.452  0.2361 -0.8024  0.1239
 5279SOL    HW227474   1.048   3.725  17.530  0.2983 -2.4099  1.1938
 5280SOL     OW27475   3.837   3.642   3.665 -0.4495 -0.6767 -0.4951
 5280SOL    HW127476   3.843   3.624   3.571  1.9682 -1.6592 -0.1439
 5280SOL    HW227477   3.785   3.569   3.699 -1.3121 -0.5567 -1.5348
 5281SOL     OW27478   0.875   1.614   2.071 -0.2871 -0.2821  0.1933
 5281SOL    HW127479   0.883   1.542   2.009  2.5027  2.0052 -2.0743
 5281SOL    HW227480   0.809   1.575   2.128 -0.6187  1.5058  1.0382
 5282SOL     OW27481   3.345   3.568   5.450  0.0061  0.0966 -0.0259
 5282SOL    HW127482   3.437   3.593   5.445 -0.2343  0.7499 -1.1324
 5282SOL    HW227483   3.308   3.641   5.402 -1.8557  1.0364  2.8733
 5283SOL     OW27484   3.591   3.622  11.842 -0.0158 -0.2969  0.3099
 5283SOL    HW127485   3.663   3.672  11.880 -0.4043  0.1017  0.5158
 5283SOL    HW227486   3.535   3.606  11.918 -1.2399 -1.0869 -0.7534
 5284SOL     OW27487   0.706   3.508   7.310  0.3015  0.2509 -0.1195
 5284SOL    HW127488   0.647   3.504   7.235  0.0016 -0.9458  0.1747
 5284SOL    HW227489   0.638   3.490   7.375 -1.2135 -0.4537 -1.9164
 5285SOL     OW27490   1.054   1.724   8.540  0.1825 -0.1967 -0.6224
 5285SOL    HW127491   1.109   1.676   8.602  0.7654 -1.0318 -1.7882
 5285SOL    HW227492   0.968   1.686   8.558  1.5850 -1.2605  3.7934
 5286SOL     OW27493   2.109   3.308   2.657  0.2457  0.4097  0.4194
 5286SOL    HW127494   2.093   3.399   2.678 -1.0478 -0.1225  1.6815
 5286SOL    HW227495   2.196   3.313   2.616 -0.4068  0.3436 -0.9874
 5287SOL     OW27496   3.531   1.223   9.203  0.4185 -0.1259 -0.0064
 5287SOL    HW127497   3.438   1.198   9.202  0.4694 -0.3568  0.6026
 5287SOL    HW227498   3.574   1.150   9.159  0.1354  0.0229 -0.5286
 5288SOL     OW27499   2.726   2.825   8.448 -0.0366  0.0041 -0.1720
 5288SOL    HW127500   2.767   2.748   8.488  0.3430 -0.8874 -2.2301
 5288SOL    HW227501   2.782   2.829   8.370 -2.1367  1.4626 -1.5941
 5289SOL     OW27502   4.293   3.421   7.846 -0.3373  0.0515 -0.1344
 5289SOL    HW127503   4.262   3.496   7.897 -2.8048 -1.7814  1.1039
 5289SOL    HW227504   4.388   3.429   7.839 -0.3082 -0.5890 -0.4641
 5290SOL     OW27505   1.211   2.992   0.540  0.3702 -0.3886  0.2485
 5290SOL    HW127506   1.291   3.032   0.575  1.3538 -2.1327  0.0205
 5290SOL    HW227507   1.181   2.950   0.620 -2.6533 -0.8104 -1.0999
 5291SOL     OW27508   0.672   0.423   8.273 -0.4663 -0.0083 -0.1396
 5291SOL    HW127509   0.760   0.446   8.242 -0.9512  0.7404 -0.9441
 5291SOL    HW227510   0.648   0.467   8.355  3.1802  0.4501  0.6961
 5292SOL     OW27511   2.198   2.329   6.725  0.2596 -0.0129 -0.2774
 5292SOL    HW127512   2.223   2.360   6.812 -1.2126  1.9186 -0.5513
 5292SOL    HW227513   2.148   2.249   6.744 -0.2867  0.3363 -0.2376
 5293SOL     OW27514   3.301   0.627   7.690  0.3018 -0.4466  0.0229
 5293SOL    HW127515   3.220   0.599   7.646  0.3627  2.0750 -1.6655
 5293SOL    HW227516   3.284   0.604   7.782 -2.7270  2.8087  0.2512
 5294SOL     OW27517   3.398   1.392   8.957 -0.1091 -0.1594 -0.2241
 5294SOL    HW127518   3.404   1.325   9.025  1.8269  0.6269  0.3801
 5294SOL    HW227519   3.487   1.427   8.951 -0.4673  1.2836  2.9356
 5295SOL     OW27520   1.129   3.611   5.719  0.5982  0.3891  0.0688
 5295SOL    HW127521   1.173   3.665   5.653  1.3746 -0.3837 -0.0473
 5295SOL    HW227522   1.200   3.550   5.742  0.1072 -1.1403 -2.4719
 5296SOL     OW27523   0.193   1.053  10.591  0.0176 -0.1172  0.6803
 5296SOL    HW127524   0.237   1.098  10.664  1.7407  0.2144 -0.5680
 5296SOL    HW227525   0.249   0.978  10.573  0.2737 -0.0261  1.0720
 5297SOL     OW27526   3.020   0.328  17.401 -0.1257  0.2008  0.1194
 5297SOL    HW127527   2.960   0.296  17.334  0.8310 -0.0921 -0.5996
 5297SOL    HW227528   3.037   0.412  17.358 -0.7108 -0.7515 -1.9433
 5298SOL     OW27529   2.001   0.365   6.731  0.6993 -0.3603  0.3678
 5298SOL    HW127530   2.014   0.447   6.684 -1.9050 -0.8306 -1.1679
 5298SOL    HW227531   2.087   0.363   6.775  0.5202  0.2748  0.7472
 5299SOL     OW27532   2.264   3.348   5.285  0.4968  0.6035 -0.4101
 5299SOL    HW127533   2.298   3.273   5.236 -2.5457 -0.2939 -1.1326
 5299SOL    HW227534   2.204   3.380   5.218  2.8782  0.8233 -2.4438
 5300SOL     OW27535   4.696   3.942   4.704  0.4990 -0.1602  0.4300
 5300SOL    HW127536   0.025   3.965   4.768  0.2707 -0.0663  0.6344
 5300SOL    HW227537   4.697   4.022   4.651 -1.0724 -1.0122 -0.8957
 5301SOL     OW27538   1.312   3.051   5.230 -0.3542 -0.5198  0.1668
 5301SOL    HW127539   1.367   3.026   5.156  0.2380  0.1573  0.3721
 5301SOL    HW227540   1.381   3.068   5.294 -0.6319 -1.4511  0.7194
 5302SOL     OW27541   1.352   3.215   4.872  0.0313  0.5715  0.3299
 5302SOL    HW127542   1.274   3.199   4.818  0.4599 -1.3851  0.2588
 5302SOL    HW227543   1.417   3.255   4.815 -1.1167 -0.8735 -2.0087
 5303SOL     OW27544   3.365   4.688   3.008 -0.0414 -0.2839 -0.0809
 5303SOL    HW127545   3.308   4.611   3.000  2.2602 -2.1545  1.4292
 5303SOL    HW227546   3.330   4.737   3.082  0.5484 -1.1420  0.7646
 5304SOL     OW27547   0.027   0.451   1.375  0.0654  0.2123 -0.5872
 5304SOL    HW127548   0.036   0.376   1.316 -0.1524 -1.2200  1.2093
 5304SOL    HW227549   4.688   0.426   1.426 -0.3228  2.1799 -0.1840
 5305SOL     OW27550   2.904   2.070   8.568  0.3088  0.0283 -0.1686
 5305SOL    HW127551   2.941   2.034   8.488  1.2013  1.1610 -0.2745
 5305SOL    HW227552   2.973   2.071   8.635 -0.5207  0.4003  0.6909
 5306SOL     OW27553   3.464   4.269  17.561 -0.2110  0.4106 -0.1296
 5306SOL    HW127554   3.494   4.347  17.515 -0.9839 -0.2870 -1.8100
 5306SOL    HW227555   3.397   4.241  17.499  1.2474 -0.9956 -1.0852
 5307SOL     OW27556   4.319   0.578  10.750 -0.1796  0.1734  0.6975
 5307SOL    HW127557   4.259   0.551  10.820 -0.5691  0.1427  0.3547
 5307SOL    HW227558   4.250   0.596  10.685  1.4540  2.2784 -0.4373
 5308SOL     OW27559   0.948   2.548   5.554 -0.4241  0.4152  0.6552
 5308SOL    HW127560   0.859   2.522   5.532  0.3219 -1.5357 -0.0593
 5308SOL    HW227561   0.980   2.586   5.472 -0.3904 -0.5268  0.2398
 5309SOL     OW27562   4.130   3.317   8.134 -0.2135 -0.2970 -0.1285
 5309SOL    HW127563   4.123   3.399   8.085 -1.5364  1.1976  2.5271
 5309SOL    HW227564   4.138   3.247   8.069  0.4276  0.4454 -0.8523
 5310SOL     OW27565   0.461   0.478   3.184 -0.4188  0.7271 -0.2805
 5310SOL    HW127566   0.451   0.571   3.164  0.9115  0.8018 -0.5851
 5310SOL    HW227567   0.544   0.472   3.232  0.2922 -1.3477 -1.7778
 5311SOL     OW27568   3.104   0.575   2.737  0.3887  0.0627  0.2203
 5311SOL    HW127569   3.110   0.514   2.664 -1.0097  1.5660 -1.1542
 5311SOL    HW227570   3.033   0.546   2.793  1.5652 -0.9007  1.2194
 5312SOL     OW27571   2.881   3.598   7.555  0.3782 -0.0329 -0.2712
 5312SOL    HW127572   2.939   3.546   7.499  0.7119  0.1353 -0.0795
 5312SOL    HW227573   2.899   3.685   7.521 -0.3933  0.6110  0.9544
 5313SOL     OW27574   2.537   0.590   8.640  0.5350 -0.3587  0.0534
 5313SOL    HW127575   2.576   0.518   8.689  1.5462 -0.4603 -0.8880
 5313SOL    HW227576   2.620   0.617   8.602  1.5565 -1.2133  1.7170
 5314SOL     OW27577   3.901   0.962   3.257  0.3539 -0.4104 -0.0475
 5314SOL    HW127578   3.955   0.906   3.313  0.0470  2.8734  3.5069
 5314SOL    HW227579   3.904   1.046   3.301 -1.4007 -0.3833  0.0005
 5315SOL     OW27580   4.053   1.255   5.306  0.2198 -0.1654  0.4684
 5315SOL    HW127581   4.094   1.226   5.225  0.4036 -1.0313  0.8757
 5315SOL    HW227582   4.125   1.286   5.361  0.4194 -0.7341  0.5229
 5316SOL     OW27583   4.582   4.435   5.099 -0.9900  0.3249 -0.3177
 5316SOL    HW127584   4.586   4.352   5.146  1.9776 -0.0188 -1.1988
 5316SOL    HW227585   4.501   4.463   5.142  1.5659  1.8931  3.4640
 5317SOL     OW27586   0.183   4.151   7.657 -0.1298 -0.0391 -0.6181
 5317SOL    HW127587   0.253   4.213   7.678 -0.0639  0.1203 -1.3122
 5317SOL    HW227588   0.110   4.204   7.688 -0.5718  0.1002 -1.8897
 5318SOL     OW27589   2.627   2.432   8.920  0.0065 -0.0657 -0.1939
 5318SOL    HW127590   2.691   2.391   8.979  0.3432  0.8858  0.1098
 5318SOL    HW227591   2.665   2.418   8.833 -0.4836  1.6108 -0.6798
 5319SOL     OW27592   2.909   0.504   8.279 -0.0409  1.0619  0.2331
 5319SOL    HW127593   2.969   0.432   8.259  0.8202  2.3121 -1.7234
 5319SOL    HW227594   2.947   0.567   8.217 -0.1796  0.4797 -0.4469
 5320SOL     OW27595   2.976   3.137   8.131  0.1129  0.3200  0.3560
 5320SOL    HW127596   3.012   3.080   8.198 -1.0633  0.7687  1.3562
 5320SOL    HW227597   2.894   3.097   8.102  1.8546 -3.1737  0.2842
 5321SOL     OW27598   1.883   1.764   5.058 -0.1091  0.6818 -0.6118
 5321SOL    HW127599   1.926   1.752   4.974  0.3074  1.0577 -0.4529
 5321SOL    HW227600   1.806   1.812   5.027 -1.6040 -0.8743  0.6697
 5322SOL     OW27601   0.840   1.235   3.287  0.5225 -0.1544  0.3932
 5322SOL    HW127602   0.931   1.218   3.267  0.6979  0.7976  0.3595
 5322SOL    HW227603   0.846   1.331   3.287 -2.5496  0.0433 -1.2792
 5323SOL     OW27604   4.669   4.664   3.340 -0.8136  0.4133  0.2921
 5323SOL    HW127605   4.606   4.705   3.400  1.0243  1.3007  1.6175
 5323SOL    HW227606   4.632   4.694   3.257 -0.5464  0.0835  0.0547
 5324SOL     OW27607   3.482   1.907   6.156  0.2764 -0.5215  0.3438
 5324SOL    HW127608   3.420   1.920   6.228  1.8078 -1.1800  1.7874
 5324SOL    HW227609   3.528   1.837   6.202 -1.1909 -2.3072 -0.8760
 5325SOL     OW27610   0.139   4.523   6.992 -0.4489 -0.1461 -0.2341
 5325SOL    HW127611   0.108   4.593   6.936  0.2219  1.4386  1.3857
 5325SOL    HW227612   0.225   4.494   6.961  0.1739  1.2129  0.2366
 5326SOL     OW27613   2.782   2.076   7.893  0.0660 -0.6808 -0.1652
 5326SOL    HW127614   2.874   2.073   7.917  0.5126  0.0984 -1.7526
 5326SOL    HW227615   2.753   2.161   7.927  1.0107  0.3743 -1.9359
 5327SOL     OW27616   3.975   2.695  14.150 -0.0992  0.5427 -0.0759
 5327SOL    HW127617   4.027   2.766  14.114  5.1129 -3.2057  0.0260
 5327SOL    HW227618   3.986   2.711  14.244 -0.3204 -1.4113  0.2802
 5328SOL     OW27619   2.664   3.824   0.492 -0.3310 -0.4487  0.6014
 5328SOL    HW127620   2.739   3.882   0.497 -1.1447  0.8845 -2.7379
 5328SOL    HW227621   2.710   3.740   0.493  2.0814  0.9037  1.4401
 5329SOL     OW27622   3.606   3.945   6.042 -0.3114 -0.4227 -0.4094
 5329SOL    HW127623   3.602   3.856   6.008  0.2781  0.3189 -2.4141
 5329SOL    HW227624   3.514   3.934   6.064 -0.4984 -0.7058 -1.3642
 5330SOL     OW27625   0.329   4.530   8.452 -0.2358  0.4437 -0.0981
 5330SOL    HW127626   0.301   4.498   8.366  1.8835  1.9027 -1.3487
 5330SOL    HW227627   0.303   4.620   8.433  1.7383  0.4352 -2.9028
 5331SOL     OW27628   2.973   3.746   6.494  0.3965  0.0033  0.2275
 5331SOL    HW127629   2.966   3.812   6.563  0.4984  1.8092 -1.4897
 5331SOL    HW227630   3.050   3.780   6.447  0.0717 -0.1190 -0.3821
 5332SOL     OW27631   3.840   4.072   1.539  0.5819 -0.4255  0.1470
 5332SOL    HW127632   3.762   4.028   1.573 -0.5568 -0.5062 -2.5095
 5332SOL    HW227633   3.901   4.001   1.521 -0.3149 -1.5465  1.5234
 5333SOL     OW27634   4.542   3.555   2.575  0.3706  0.2494 -0.0951
 5333SOL    HW127635   4.591   3.526   2.652 -1.8759  0.0503  1.2766
 5333SOL    HW227636   4.529   3.649   2.592  1.4027  0.3956 -0.1547
 5334SOL     OW27637   2.309   4.651  13.483  0.0295  0.7425 -0.1285
 5334SOL    HW127638   2.260   4.703  13.419 -1.6150 -1.5559 -0.7364
 5334SOL    HW227639   2.360   4.711  13.537  0.4688 -0.7667  1.1048
 5335SOL     OW27640   0.556   3.100  15.088  0.0769 -0.3657 -0.4582
 5335SOL    HW127641   0.549   3.182  15.137  1.4280 -0.0992 -0.7144
 5335SOL    HW227642   0.542   3.137  15.001 -2.4041 -0.3901 -0.0958
 5336SOL     OW27643   3.034   3.511   5.860  0.8949 -0.0912  0.1553
 5336SOL    HW127644   3.109   3.509   5.800  2.1914 -1.2744  1.7938
 5336SOL    HW227645   2.977   3.437   5.837 -0.0966  0.7149  0.0498
 5337SOL     OW27646   3.194   4.363   9.310 -0.0336 -0.7551  0.3300
 5337SOL    HW127647   3.242   4.445   9.324 -0.9103 -0.4605  1.5730
 5337SOL    HW227648   3.169   4.343   9.400 -2.9025  1.9862  0.1463
 5338SOL     OW27649   1.966   2.730   3.520  0.2821 -1.0580  0.3541
 5338SOL    HW127650   2.022   2.715   3.596 -0.9740  1.3329  1.7784
 5338SOL    HW227651   2.038   2.726   3.458  0.0210 -0.7581  0.0270
 5339SOL     OW27652   2.746   0.504   9.609  0.6218 -0.5462  0.3639
 5339SOL    HW127653   2.740   0.507   9.704 -0.9474 -1.0371  0.2730
 5339SOL    HW227654   2.652   0.499   9.591  1.0606  0.0084 -2.1661
 5340SOL     OW27655   3.748   1.747   7.747 -0.3803  0.7112  0.2499
 5340SOL    HW127656   3.667   1.699   7.762  0.5510  0.1398  3.3675
 5340SOL    HW227657   3.748   1.808   7.820  1.4567  0.5964  0.3558
 5341SOL     OW27658   4.332   1.900   4.653  0.4304 -0.1312  1.0242
 5341SOL    HW127659   4.317   1.991   4.679 -1.3186  0.0360 -0.5901
 5341SOL    HW227660   4.422   1.894   4.686  0.9552  1.9870 -0.0400
 5342SOL     OW27661   1.657   2.866  12.994  0.4541 -0.3781  0.0090
 5342SOL    HW127662   1.717   2.887  13.066 -1.3398  1.7265  0.8875
 5342SOL    HW227663   1.653   2.772  13.009 -2.1080 -0.2132  0.2960
 5343SOL     OW27664   4.006   0.457   9.981  0.1904  0.3113 -0.1295
 5343SOL    HW127665   3.949   0.381   9.968  1.6303 -0.7187 -0.3032
 5343SOL    HW227666   3.986   0.496  10.066  2.0781 -0.2478  0.5638
 5344SOL     OW27667   0.133   1.118   6.269  0.2535  0.2193 -0.7939
 5344SOL    HW127668   0.118   1.212   6.263 -0.2458  0.2224  0.4844
 5344SOL    HW227669   0.228   1.120   6.260  0.4862  0.7490  1.8200
 5345SOL     OW27670   1.959   0.769   2.055 -0.1368  0.0369  0.0229
 5345SOL    HW127671   2.040   0.815   2.033 -1.1491  2.2175  0.8441
 5345SOL    HW227672   1.896   0.837   2.032 -1.7985 -1.5572 -0.2197
 5346SOL     OW27673   1.786   4.454   6.509 -0.2683 -0.5981  0.1559
 5346SOL    HW127674   1.743   4.439   6.425  3.9997  2.0031 -2.5162
 5346SOL    HW227675   1.805   4.362   6.527 -0.3927 -0.2758  1.9242
 5347SOL     OW27676   3.987   2.702   9.138  0.0415  0.6688  0.4694
 5347SOL    HW127677   3.977   2.614   9.173  1.0356  0.2334 -0.3408
 5347SOL    HW227678   4.004   2.752   9.218  1.5138 -0.3616  0.7960
 5348SOL     OW27679   4.416   2.285  12.524  0.0594  0.0479  0.0510
 5348SOL    HW127680   4.505   2.292  12.557  0.1236  2.1384 -0.5248
 5348SOL    HW227681   4.412   2.190  12.515 -0.4375  0.0023  0.7802
 5349SOL     OW27682   1.854   1.807   0.880  0.4362 -0.3895 -0.2422
 5349SOL    HW127683   1.784   1.867   0.855  0.8219  0.6361  1.1746
 5349SOL    HW227684   1.803   1.739   0.923  1.3749 -0.8823  0.0934
 5350SOL     OW27685   3.457   1.528   4.394  0.5399  0.4823  0.4968
 5350SOL    HW127686   3.510   1.482   4.460  0.9347  0.8787  0.4593
 5350SOL    HW227687   3.370   1.493   4.410  1.4454 -2.3165 -0.6239
 5351SOL     OW27688   4.027   2.932   8.565 -0.7011 -0.0330  0.0915
 5351SOL    HW127689   4.018   2.854   8.510  1.5121 -0.5221  0.4165
 5351SOL    HW227690   3.974   2.904   8.640  0.0572 -0.1848  0.5713
 5352SOL     OW27691   4.285   2.023   2.874 -0.2347  0.4219  0.1649
 5352SOL    HW127692   4.277   1.928   2.874  1.1259  0.3096  1.0172
 5352SOL    HW227693   4.233   2.048   2.798  0.8944 -0.6295 -0.9499
 5353SOL     OW27694   0.726   4.265   4.636  0.2764  0.1996 -0.1780
 5353SOL    HW127695   0.675   4.345   4.644  0.2797  0.1981 -0.1439
 5353SOL    HW227696   0.812   4.299   4.613  1.9056 -3.7617 -0.0307
 5354SOL     OW27697   3.619   1.693   7.154  0.6181 -0.1304  0.0946
 5354SOL    HW127698   3.563   1.628   7.111 -0.3549 -0.0885  1.3039
 5354SOL    HW227699   3.562   1.770   7.154  0.5472 -0.1828  0.1117
 5355SOL     OW27700   0.024   4.490   4.913 -0.5659  0.4671  0.2014
 5355SOL    HW127701   0.105   4.455   4.950 -0.1939  1.1984  0.0720
 5355SOL    HW227702   4.699   4.492   4.986 -1.3049  0.4856 -0.4358
 5356SOL     OW27703   4.028   1.297   8.844 -0.3093  0.0513 -0.1531
 5356SOL    HW127704   4.089   1.294   8.918 -0.1744  1.9340 -0.2017
 5356SOL    HW227705   4.081   1.247   8.781 -1.9067 -2.3802  0.4439
 5357SOL     OW27706   0.929   3.808   3.684  0.1348  0.0654 -0.1153
 5357SOL    HW127707   0.856   3.826   3.743 -0.0516 -1.6202  0.1544
 5357SOL    HW227708   0.882   3.810   3.601  0.3842  0.9746 -0.2358
 5358SOL     OW27709   2.573   2.875   2.442  0.3026  0.5848  0.6362
 5358SOL    HW127710   2.655   2.884   2.394 -1.1149 -1.1561 -2.0740
 5358SOL    HW227711   2.567   2.955   2.494 -1.2598  1.4095 -0.7999
 5359SOL     OW27712   2.562   4.232   8.066  0.2578 -0.0508  0.4762
 5359SOL    HW127713   2.502   4.237   7.992  1.2899 -0.1081 -0.3740
 5359SOL    HW227714   2.645   4.263   8.030  0.6791 -0.7480  0.8286
 5360SOL     OW27715   1.957   4.354  16.030 -0.2448 -0.0674 -0.1264
 5360SOL    HW127716   1.953   4.443  15.997  0.2673  0.4586  1.1955
 5360SOL    HW227717   1.951   4.366  16.125 -1.4697  1.0081 -0.3539
 5361SOL     OW27718   1.484   0.564   5.350  0.4195  0.9567 -0.0257
 5361SOL    HW127719   1.525   0.564   5.264  1.7832 -0.5196  0.6089
 5361SOL    HW227720   1.420   0.634   5.337  0.4089  1.3556  2.1664
 5362SOL     OW27721   1.187   3.013  10.546  0.1054 -0.0259  0.2020
 5362SOL    HW127722   1.176   3.069  10.623 -0.7657  0.2157 -0.0950
 5362SOL    HW227723   1.105   3.033  10.501  0.2030  1.3743  0.6562
 5363SOL     OW27724   4.632   3.318  15.894  0.5844  0.1617  0.4984
 5363SOL    HW127725   4.653   3.227  15.917  0.7600  0.0439 -0.1407
 5363SOL    HW227726   4.643   3.362  15.978 -3.7601  0.1856  1.0615
 5364SOL     OW27727   0.188   3.103  16.945  0.0649  0.1823 -0.1472
 5364SOL    HW127728   0.100   3.106  16.981  0.6208  0.7619  1.1814
 5364SOL    HW227729   0.240   3.128  17.022  0.1929  0.4040 -0.3060
 5365SOL     OW27730   4.401   4.687   4.924  0.1698  0.2121  0.5058
 5365SOL    HW127731   4.438   4.640   4.999 -2.3164 -2.3943  0.1219
 5365SOL    HW227732   4.324   4.632   4.909  0.7242 -0.1189 -1.1112
 5366SOL     OW27733   0.507   3.316   1.652  0.6457  0.2712 -0.2656
 5366SOL    HW127734   0.519   3.367   1.731 -0.2974  0.0222  0.0390
 5366SOL    HW227735   0.586   3.327   1.598  1.0395 -1.9488 -0.1466
 5367SOL     OW27736   0.972   2.538   7.239  0.5775  0.2626 -0.2738
 5367SOL    HW127737   0.886   2.497   7.232  0.3200  0.9234 -1.0639
 5367SOL    HW227738   0.985   2.531   7.333  0.5972  1.7047 -0.1635
 5368SOL     OW27739   0.145   2.901   4.813  0.0212 -0.0496 -0.6761
 5368SOL    HW127740   0.133   2.966   4.882 -0.8230 -1.8809  0.9109
 5368SOL    HW227741   0.054   2.873   4.800 -0.7953  1.8625  0.8506
 5369SOL     OW27742   1.813   3.916   4.699  0.2286 -0.1985 -0.0644
 5369SOL    HW127743   1.781   3.991   4.749 -1.0964 -0.1923 -0.9124
 5369SOL    HW227744   1.907   3.926   4.711 -0.1133  0.0281  2.5645
 5370SOL     OW27745   3.611   3.915  14.749 -0.1029 -0.5483 -0.1495
 5370SOL    HW127746   3.576   3.882  14.666  1.3003  0.7867 -1.2535
 5370SOL    HW227747   3.598   3.835  14.801 -0.0574  0.0017  0.7013
 5371SOL     OW27748   1.416   3.046  12.511  0.5847 -0.0787 -0.0792
 5371SOL    HW127749   1.436   3.002  12.594  1.6668 -0.1507 -0.3845
 5371SOL    HW227750   1.389   3.134  12.536 -0.4051 -0.8705  1.6283
 5372SOL     OW27751   3.406   3.484   6.110  0.5353  0.0288  0.4728
 5372SOL    HW127752   3.318   3.500   6.145  0.9511  1.0268  1.0671
 5372SOL    HW227753   3.448   3.457   6.191 -0.3304  0.8936  1.2078
 5373SOL     OW27754   2.026   3.141  15.118  0.6106  0.4957 -0.2174
 5373SOL    HW127755   2.067   3.058  15.095 -1.1743 -0.5778  0.5104
 5373SOL    HW227756   2.027   3.180  15.031  1.1765 -2.6224 -1.5762
 5374SOL     OW27757   2.976   1.483   6.493 -0.4308  0.0634 -0.2547
 5374SOL    HW127758   2.924   1.407   6.520 -1.2520  2.0053  3.5040
 5374SOL    HW227759   2.907   1.531   6.447 -1.7657 -0.4117  1.2819
 5375SOL     OW27760   0.773   1.623   1.226 -0.2936  0.3171 -0.0302
 5375SOL    HW127761   0.785   1.670   1.144 -1.4570  2.2838  0.9249
 5375SOL    HW227762   0.729   1.698   1.266  0.4896  1.0619 -0.5646
 5376SOL     OW27763   1.467   0.301   3.823 -0.0786 -0.1515 -0.1258
 5376SOL    HW127764   1.486   0.250   3.902  1.2750  0.0693 -0.3189
 5376SOL    HW227765   1.543   0.270   3.774 -0.0237  0.1318 -0.2161
 5377SOL     OW27766   0.087   3.307  13.984 -0.3705 -0.5500 -0.0323
 5377SOL    HW127767   0.181   3.321  13.998 -0.5699  1.9201 -1.1703
 5377SOL    HW227768   0.078   3.332  13.892  1.9185 -0.6454 -0.2901
 5378SOL     OW27769   0.045   4.705  11.904  0.3816  0.5053 -0.1132
 5378SOL    HW127770   4.705   4.695  11.847  0.5848  3.5767 -0.9495
 5378SOL    HW227771   0.045   0.059  11.934  1.1464  0.5739 -0.3270
 5379SOL     OW27772   0.209   2.094   0.400  0.2109  0.4642  0.2807
 5379SOL    HW127773   0.295   2.124   0.369 -0.0973  1.2518  0.1952
 5379SOL    HW227774   0.198   2.031   0.329  0.0757  2.1499 -1.1900
 5380SOL     OW27775   2.934   3.811   3.998 -0.1007  0.4520  0.2581
 5380SOL    HW127776   2.965   3.791   4.086  1.6997 -0.1723 -0.5037
 5380SOL    HW227777   2.877   3.736   3.983  1.5527 -0.7928  0.1075
 5381SOL     OW27778   3.991   3.837   2.349  0.4422 -0.0709  0.2476
 5381SOL    HW127779   3.928   3.906   2.327 -2.4620 -2.9405 -0.4850
 5381SOL    HW227780   4.065   3.880   2.392  0.1094 -1.2241  1.9853
 5382SOL     OW27781   4.441   4.482   2.587 -0.4348 -0.5097 -0.3827
 5382SOL    HW127782   4.454   4.433   2.506  0.3933 -0.7264 -0.1251
 5382SOL    HW227783   4.366   4.540   2.584 -1.2557 -1.5910 -0.8066
 5383SOL     OW27784   3.379   0.090  14.129  0.2566  0.0730  0.1866
 5383SOL    HW127785   3.349   0.160  14.071 -0.9623 -0.8048 -0.2354
 5383SOL    HW227786   3.472   0.082  14.107  0.0047  2.0941 -1.6496
 5384SOL     OW27787   4.678   0.280   3.433 -0.1546  0.0114  0.1057
 5384SOL    HW127788   4.604   0.335   3.406 -0.1262 -1.0333 -2.0516
 5384SOL    HW227789   4.656   0.272   3.526  3.5141  2.7527  1.2229
 5385SOL     OW27790   1.466   3.240   2.632  0.0798  0.4309 -0.7220
 5385SOL    HW127791   1.374   3.244   2.658  0.5046 -0.2913  0.8789
 5385SOL    HW227792   1.483   3.333   2.617  1.0361  0.2873 -0.5381
 5386SOL     OW27793   0.430   1.386   3.824 -0.4761  0.5207  1.1301
 5386SOL    HW127794   0.344   1.354   3.798  0.3275 -0.7331 -0.0484
 5386SOL    HW227795   0.408   1.478   3.835  0.1585  1.0526 -1.9280
 5387SOL     OW27796   2.625   0.867  10.436  0.3208 -0.3116 -0.4112
 5387SOL    HW127797   2.575   0.926  10.379 -0.7303  1.9965  2.9067
 5387SOL    HW227798   2.577   0.879  10.518 -1.4763 -1.3754 -1.3078
 5388SOL     OW27799   3.249   0.386  14.223 -0.1125  0.0780  0.4327
 5388SOL    HW127800   3.252   0.476  14.192 -0.0726  0.0922  0.4771
 5388SOL    HW227801   3.273   0.343  14.141 -0.5935 -0.8922  0.7933
 5389SOL     OW27802   2.920   0.206   3.563 -0.2394 -0.0198  0.0121
 5389SOL    HW127803   2.881   0.250   3.638  2.8693 -0.2049  1.7443
 5389SOL    HW227804   3.014   0.220   3.577 -0.5265  0.1757  1.7810
 5390SOL     OW27805   3.933   1.194   6.201  0.0380  0.1292  0.2639
 5390SOL    HW127806   3.856   1.163   6.153 -0.1527  1.7748 -0.5111
 5390SOL    HW227807   3.930   1.153   6.287  0.0417 -0.4368 -0.0055
 5391SOL     OW27808   3.070   4.396   7.645  0.1053 -0.1529 -0.3998
 5391SOL    HW127809   3.057   4.319   7.701 -1.0404  0.0737 -0.3567
 5391SOL    HW227810   3.122   4.455   7.700 -0.3084 -2.6233  2.6233
 5392SOL     OW27811   0.096   3.985   6.727  0.1608  0.7274 -0.0242
 5392SOL    HW127812   0.173   4.006   6.779 -0.2191 -0.4005  1.0059
 5392SOL    HW227813   0.023   3.982   6.790 -1.0219  0.4067 -1.4072
 5393SOL     OW27814   4.139   3.091   7.623 -0.6511 -0.7578 -0.2364
 5393SOL    HW127815   4.137   3.156   7.553 -1.7199  0.1999  0.7024
 5393SOL    HW227816   4.096   3.023   7.571  0.1490 -0.9581 -0.6270
 5394SOL     OW27817   1.390   0.873   4.573 -0.0176 -0.1515  0.1341
 5394SOL    HW127818   1.336   0.805   4.615  3.2276 -0.8040  3.2935
 5394SOL    HW227819   1.400   0.826   4.490 -1.1990  0.3543 -0.2869
 5395SOL     OW27820   3.801   4.035   4.254  0.3161  0.0473  0.0670
 5395SOL    HW127821   3.894   4.041   4.232 -0.1798  0.0283 -2.0255
 5395SOL    HW227822   3.808   4.053   4.348  0.1385  0.4403  0.0064
 5396SOL     OW27823   2.954   2.291   1.309  0.5587  0.0327  0.2801
 5396SOL    HW127824   2.961   2.329   1.397 -3.0083  2.2190 -0.3804
 5396SOL    HW227825   2.961   2.373   1.261  1.9734 -1.3503 -1.8623
 5397SOL     OW27826   2.416   3.444   3.353 -0.0426 -0.0476 -0.1082
 5397SOL    HW127827   2.328   3.419   3.383  0.5250  0.8251  2.2800
 5397SOL    HW227828   2.384   3.478   3.269  0.7054  2.2894  0.5708
 5398SOL     OW27829   2.454   2.092   2.776  0.1773  0.1535  0.1633
 5398SOL    HW127830   2.515   2.121   2.844  2.4266  0.4423 -1.9840
 5398SOL    HW227831   2.430   2.006   2.811 -0.2790 -0.6754 -2.1716
 5399SOL     OW27832   2.387   0.967   9.301  0.5767  0.3445 -0.2471
 5399SOL    HW127833   2.307   1.013   9.328 -0.2687 -1.0275 -0.3877
 5399SOL    HW227834   2.394   0.898   9.366  1.6082 -0.3776 -1.1223
 5400SOL     OW27835   0.287   3.949   7.842  0.5088 -0.3454  0.1244
 5400SOL    HW127836   0.326   4.015   7.784  1.0988  1.0930  2.1483
 5400SOL    HW227837   0.289   3.988   7.929  1.2233 -1.2447  0.5094
 5401SOL     OW27838   3.583   4.731   7.379 -0.7155  0.4938 -0.1840
 5401SOL    HW127839   3.551   0.038   7.458 -0.9855  0.3676 -0.2214
 5401SOL    HW227840   3.667   4.698   7.408  0.7186  3.4094 -1.0293
 5402SOL     OW27841   1.910   4.548   5.227  0.3166  0.1115  0.2926
 5402SOL    HW127842   1.894   4.610   5.298 -1.9989  1.7197 -1.5936
 5402SOL    HW227843   1.826   4.530   5.185 -0.5996  2.1698  1.2103
 5403SOL     OW27844   2.036   3.219   0.426 -0.0320  0.2263  0.0047
 5403SOL    HW127845   1.942   3.204   0.414 -0.0826 -0.9102  1.8465
 5403SOL    HW227846   2.042   3.296   0.482 -0.0928  2.5456 -3.2096
 5404SOL     OW27847   0.800   3.922   5.124 -0.2044  0.3182  0.1233
 5404SOL    HW127848   0.881   3.879   5.151  1.0619  4.2047  2.6015
 5404SOL    HW227849   0.732   3.855   5.136 -0.2783  0.1080 -1.4365
 5405SOL     OW27850   3.985   1.666   3.214 -0.4510  0.1950  0.2636
 5405SOL    HW127851   3.986   1.703   3.126 -2.2499  1.3535  0.7404
 5405SOL    HW227852   4.078   1.686   3.225 -0.2964  0.1905 -1.0391
 5406SOL     OW27853   0.737   0.779   8.870 -0.2851 -0.1144  0.5741
 5406SOL    HW127854   0.652   0.819   8.855 -0.6381 -1.9032 -2.2040
 5406SOL    HW227855   0.740   0.708   8.806 -0.1103 -0.6398  1.1731
 5407SOL     OW27856   4.567   3.216   2.727  0.2485 -0.4165 -0.1756
 5407SOL    HW127857   4.626   3.265   2.669  2.2416  0.5227  2.6151
 5407SOL    HW227858   4.619   3.219   2.808 -2.5577  1.1875  1.5564
 5408SOL     OW27859   1.462   1.744   3.446  0.1829  0.4766  0.2113
 5408SOL    HW127860   1.374   1.708   3.437 -2.1035  5.7298  1.6077
 5408SOL    HW227861   1.446   1.822   3.498  1.2738  0.0883  1.1408
 5409SOL     OW27862   4.235   0.093   0.091 -0.1620  1.3222  0.0856
 5409SOL    HW127863   4.297   0.154   0.132 -0.8387  3.0982 -1.4980
 5409SOL    HW227864   4.181   0.071   0.166  0.8824 -0.7315  0.2378
 5410SOL     OW27865   0.805   1.448   9.503 -0.2518  0.0856  0.4993
 5410SOL    HW127866   0.877   1.501   9.469 -1.3823  2.7285  2.2012
 5410SOL    HW227867   0.802   1.480   9.593 -0.7322 -1.1942  0.9302
 5411SOL     OW27868   0.112   3.906  10.281 -0.7177  0.7039  0.4729
 5411SOL    HW127869   0.091   3.835  10.220  1.7749 -2.4065  3.3154
 5411SOL    HW227870   0.090   3.981  10.225 -1.0380 -0.0150 -0.3664
 5412SOL     OW27871   3.584   3.654   4.316  0.0320  0.0652 -0.0638
 5412SOL    HW127872   3.550   3.564   4.313 -0.7669  0.3849 -0.5040
 5412SOL    HW227873   3.676   3.628   4.317  0.2425  0.7934 -0.5613
 5413SOL     OW27874   1.614   1.018   7.600 -0.3565 -0.2813  0.3724
 5413SOL    HW127875   1.575   1.083   7.658  1.0376  1.2645 -0.4353
 5413SOL    HW227876   1.646   1.082   7.537  0.2611  1.3607  2.3597
 5414SOL     OW27877   3.087   1.170  13.067 -0.4879 -0.3823 -1.1172
 5414SOL    HW127878   3.036   1.096  13.102 -0.3866 -0.7116 -1.6665
 5414SOL    HW227879   3.143   1.110  13.018  0.6291 -0.8044  0.7017
 5415SOL     OW27880   1.143   2.304   5.050  0.3256 -0.1565 -0.5171
 5415SOL    HW127881   1.213   2.252   5.011 -0.5944 -0.9079 -1.1686
 5415SOL    HW227882   1.086   2.241   5.096  1.1438  0.1905  0.9628
 5416SOL     OW27883   3.067   0.294   9.125 -0.4841  0.0650 -0.1013
 5416SOL    HW127884   3.148   0.247   9.103 -0.5930  0.1623 -0.7315
 5416SOL    HW227885   3.074   0.365   9.060  2.5403  0.7210  0.9304
 5417SOL     OW27886   1.814   3.376   6.061  0.1217  1.1776 -0.0866
 5417SOL    HW127887   1.819   3.350   6.153  0.4212  0.6655 -0.2509
 5417SOL    HW227888   1.858   3.462   6.065  0.2074  1.1511 -0.4927
 5418SOL     OW27889   0.232   2.993   4.453 -0.1087  0.2867 -0.2628
 5418SOL    HW127890   0.292   2.947   4.512  0.6208  1.0048 -0.4464
 5418SOL    HW227891   0.272   3.078   4.433 -2.3203  1.3045 -0.4261
 5419SOL     OW27892   1.168   4.263   9.472  0.0007  0.0194  0.2429
 5419SOL    HW127893   1.111   4.262   9.396 -0.2723 -0.6992  0.4631
 5419SOL    HW227894   1.165   4.175   9.509  2.5947 -1.1066 -2.2182
 5420SOL     OW27895   0.062   1.630   5.669 -0.0892  0.1772  0.2917
 5420SOL    HW127896   0.134   1.568   5.676  0.3022  0.4970 -1.0499
 5420SOL    HW227897   0.025   1.595   5.588  1.3189 -2.2103  0.6909
 5421SOL     OW27898   4.394   1.424   6.353  0.2851  0.0978  0.6157
 5421SOL    HW127899   4.304   1.423   6.320  0.5355  3.1364 -0.2442
 5421SOL    HW227900   4.415   1.334   6.375  0.4544  0.0287  0.1554
 5422SOL     OW27901   1.462   0.820   3.646 -0.1705  0.4283  0.2565
 5422SOL    HW127902   1.555   0.843   3.643  0.8954 -3.5811  2.7967
 5422SOL    HW227903   1.458   0.729   3.619  2.0268  0.3763  0.1498
 5423SOL     OW27904   1.866   2.769   9.301 -0.4749 -0.3287 -0.3712
 5423SOL    HW127905   1.914   2.712   9.241 -1.9842 -4.6623  2.4868
 5423SOL    HW227906   1.887   2.850   9.256  1.7012  0.9078  2.8667
 5424SOL     OW27907   3.973   1.764   9.795  0.0006  0.6504 -0.3824
 5424SOL    HW127908   3.975   1.858   9.783 -0.2291  0.7600  0.3891
 5424SOL    HW227909   4.063   1.741   9.773 -0.1988  2.6136 -3.1526
 5425SOL     OW27910   4.324   2.401   4.902 -0.2169  0.2227 -0.0485
 5425SOL    HW127911   4.413   2.405   4.936  0.1369  2.4598 -1.2175
 5425SOL    HW227912   4.316   2.491   4.870  2.1878  0.3409 -0.3191
 5426SOL     OW27913   1.061   0.633   7.022 -0.1511 -0.2480 -0.2470
 5426SOL    HW127914   1.095   0.638   7.112  1.2643 -0.7703 -0.7623
 5426SOL    HW227915   1.069   0.723   6.992  0.2640 -0.2451 -0.1238
 5427SOL     OW27916   2.640   1.358   5.456  0.1544  0.1052 -0.2203
 5427SOL    HW127917   2.716   1.404   5.421 -0.8331  1.9536  0.0553
 5427SOL    HW227918   2.568   1.419   5.476 -0.1742 -0.5072  0.4421
 5428SOL     OW27919   1.710   0.776   3.274  0.6012 -0.5917  0.1050
 5428SOL    HW127920   1.730   0.712   3.342 -2.7264  0.6419  2.2647
 5428SOL    HW227921   1.748   0.851   3.320 -0.9555 -2.0814  3.8759
 5429SOL     OW27922   0.156   1.896   5.667  0.3176 -0.3194  0.8076
 5429SOL    HW127923   0.087   1.907   5.601  0.2697 -1.6791  0.6432
 5429SOL    HW227924   0.133   1.808   5.695 -2.6236  0.0026 -0.4982
 5430SOL     OW27925   0.541   3.840   2.250  0.2828  0.0079  0.1099
 5430SOL    HW127926   0.521   3.774   2.316  2.3978 -1.9440 -1.1978
 5430SOL    HW227927   0.635   3.845   2.264  0.2078 -0.3779  0.7683
 5431SOL     OW27928   1.892   4.017  13.518 -0.3815 -0.4353  0.5141
 5431SOL    HW127929   1.866   4.006  13.609 -1.6670 -2.2997 -0.0794
 5431SOL    HW227930   1.921   4.107  13.507 -2.5360  0.3223  1.0038
 5432SOL     OW27931   2.421   4.715   3.197 -0.0872  0.0809 -0.0278
 5432SOL    HW127932   2.336   0.009   3.166 -0.4017  0.4591  1.2292
 5432SOL    HW227933   2.477   4.727   3.119 -0.8191  1.8635 -0.2769
 5433SOL     OW27934   0.911   3.480   3.173  0.0510  0.2492  0.2460
 5433SOL    HW127935   0.827   3.470   3.128  0.1999 -0.3314  0.0990
 5433SOL    HW227936   0.909   3.573   3.194  4.6051 -0.5579  4.3942
 5434SOL     OW27937   2.302   3.443   1.828 -0.2616  0.2039  0.7531
 5434SOL    HW127938   2.208   3.429   1.834 -0.5931  1.0326 -2.8651
 5434SOL    HW227939   2.312   3.432   1.734 -0.7324  2.4787  0.4389
 5435SOL     OW27940   2.164   2.790   5.815  0.4126  0.0157  0.3922
 5435SOL    HW127941   2.099   2.858   5.833  1.2310  0.9188 -0.0668
 5435SOL    HW227942   2.208   2.785   5.899  1.5430 -2.3099 -0.3348
 5436SOL     OW27943   1.902   1.240   7.738 -0.0259 -0.0734  0.2074
 5436SOL    HW127944   1.903   1.153   7.698 -2.7226 -0.0321  0.0483
 5436SOL    HW227945   1.990   1.247   7.774  0.3702 -0.1173 -0.7551
 5437SOL     OW27946   4.662   2.765   3.174  0.7655  0.1514  0.3070
 5437SOL    HW127947   4.672   2.764   3.078  1.9023 -1.8093  0.4621
 5437SOL    HW227948   4.628   2.679   3.199  2.4124 -0.8906 -1.0187
 5438SOL     OW27949   4.529   1.843   6.440  0.0802  0.0044 -0.0091
 5438SOL    HW127950   4.494   1.880   6.359  1.8329 -0.3655 -0.9413
 5438SOL    HW227951   4.448   1.825   6.488 -0.1342  0.8455 -0.0545
 5439SOL     OW27952   3.684   2.724   8.034 -0.0971  0.5926  0.0844
 5439SOL    HW127953   3.743   2.670   7.981  0.3669 -0.0694  1.2811
 5439SOL    HW227954   3.613   2.739   7.971  0.1028  1.0055 -0.0405
 5440SOL     OW27955   2.902   2.284   5.437  0.3468  0.6969  0.0645
 5440SOL    HW127956   2.818   2.323   5.461 -1.3279 -2.2718 -1.0432
 5440SOL    HW227957   2.909   2.331   5.354  1.4370  1.2060  0.4459
 5441SOL     OW27958   2.474   2.310   5.109 -0.4057  0.0654 -0.5713
 5441SOL    HW127959   2.443   2.395   5.078  1.9627  2.4731  3.7976
 5441SOL    HW227960   2.419   2.247   5.061  1.0103 -1.3752 -0.3151
 5442SOL     OW27961   4.707   2.744  14.432  0.3329  0.2713 -0.0319
 5442SOL    HW127962   0.013   2.679  14.486 -0.1212  0.4378  0.5300
 5442SOL    HW227963   4.622   2.709  14.403  0.2295  1.7890 -1.5981
 5443SOL     OW27964   0.546   0.168   1.720  1.0676  0.4262  0.2334
 5443SOL    HW127965   0.548   0.202   1.809 -0.7788 -1.8527  1.1498
 5443SOL    HW227966   0.547   0.075   1.745  1.8825 -0.7968 -4.2092
 5444SOL     OW27967   3.589   2.110   7.099 -0.0417 -0.0632  0.0811
 5444SOL    HW127968   3.676   2.102   7.062  0.4784 -1.6112  1.6509
 5444SOL    HW227969   3.606   2.142   7.188  0.2310 -0.3688  0.1377
 5445SOL     OW27970   0.209   4.562  13.912  0.0301 -0.0094 -0.1069
 5445SOL    HW127971   0.201   4.486  13.855  1.6927 -1.1593  1.1839
 5445SOL    HW227972   0.278   4.537  13.974  0.1081  0.6060  0.0601
 5446SOL     OW27973   2.431   4.337   5.014 -0.1801 -0.3150  1.3133
 5446SOL    HW127974   2.444   4.426   5.046 -0.7580  0.3605 -0.3333
 5446SOL    HW227975   2.512   4.316   4.968 -1.5813 -4.7521  0.8896
 5447SOL     OW27976   0.832   1.759   5.749  0.0111  0.3781  0.4862
 5447SOL    HW127977   0.819   1.737   5.657  0.7433 -1.5889  0.8511
 5447SOL    HW227978   0.909   1.706   5.771  0.4393  0.4036 -0.9364
 5448SOL     OW27979   2.348   3.263  11.366  0.4589  0.3068 -0.5869
 5448SOL    HW127980   2.275   3.313  11.332  1.3810  0.2401 -2.6750
 5448SOL    HW227981   2.334   3.276  11.460  3.0661 -2.1242  0.1675
 5449SOL     OW27982   1.289   0.546   3.839 -0.3444 -0.1106  0.2217
 5449SOL    HW127983   1.323   0.515   3.755 -0.2821 -0.4266  0.3620
 5449SOL    HW227984   1.337   0.491   3.901  0.3648  0.4750  0.1873
 5450SOL     OW27985   3.318   1.444   7.332  0.0145  0.3009  0.0155
 5450SOL    HW127986   3.261   1.394   7.273  1.2474 -0.8922 -0.1554
 5450SOL    HW227987   3.384   1.468   7.268 -0.7816 -0.2314 -1.0126
 5451SOL     OW27988   2.356   1.886  15.218  0.3996  0.0566  0.1466
 5451SOL    HW127989   2.349   1.798  15.181 -1.0640 -0.7397  2.3439
 5451SOL    HW227990   2.376   1.870  15.311 -0.1937 -0.3078  0.2073
 5452SOL     OW27991   1.823   0.840  15.616 -0.1910 -0.0505 -0.3807
 5452SOL    HW127992   1.856   0.844  15.705 -0.0677 -2.8133 -0.2914
 5452SOL    HW227993   1.888   0.790  15.566  0.2450  0.4797 -0.3428
 5453SOL     OW27994   1.531   1.643  10.922 -0.0603  0.1682 -0.6000
 5453SOL    HW127995   1.578   1.690  10.991 -1.0529 -1.4934  1.2394
 5453SOL    HW227996   1.579   1.560  10.920  1.0105  0.7815 -0.0218
 5454SOL     OW27997   3.063   2.093   7.950  0.7195 -0.3191  0.1981
 5454SOL    HW127998   3.117   2.080   7.873  1.0815 -0.9888  0.5658
 5454SOL    HW227999   3.090   2.014   7.997 -1.2294  0.0695  2.0306
 5455SOL     OW28000   0.924   2.675   2.105 -0.5954  0.5777 -0.1061
 5455SOL    HW128001   0.960   2.722   2.029  0.3574 -1.9450 -1.2369
 5455SOL    HW228002   1.001   2.650   2.156 -0.9225 -1.8901 -0.8269
 5456SOL     OW28003   0.949   0.419   2.490 -0.5447 -0.3500  0.3869
 5456SOL    HW128004   0.865   0.380   2.513  0.3063 -2.9846 -0.9983
 5456SOL    HW228005   1.006   0.348   2.519  1.6941  0.5589 -1.7704
 5457SOL     OW28006   4.571   4.687   8.368 -0.2170 -0.5115  0.5803
 5457SOL    HW128007   4.645   4.634   8.397 -0.2835 -0.6111  0.5665
 5457SOL    HW228008   4.500   4.644   8.415 -0.7175  1.2372  1.4258
 5458SOL     OW28009   4.600   2.937   6.486 -0.3300 -0.0447  0.1330
 5458SOL    HW128010   4.512   2.910   6.459 -0.4136 -1.8344  2.1830
 5458SOL    HW228011   4.641   2.961   6.404  0.2549  1.1184  0.7545
 5459SOL     OW28012   0.226   1.507  16.104  0.3258 -0.2633  0.1396
 5459SOL    HW128013   0.264   1.487  16.190 -3.5032 -0.3962  1.7871
 5459SOL    HW228014   0.265   1.594  16.101 -1.7439  0.6444 -0.2513
 5460SOL     OW28015   1.723   0.442  12.214  0.5516  0.3514  0.0919
 5460SOL    HW128016   1.788   0.497  12.259 -1.0113  0.8298  1.7607
 5460SOL    HW228017   1.777   0.363  12.207 -0.2855 -0.2233  0.1769
 5461SOL     OW28018   0.458   4.714   1.480  0.0935  0.0362  0.1701
 5461SOL    HW128019   0.370   0.014   1.486 -1.0412 -2.5665 -0.2276
 5461SOL    HW228020   0.435   4.637   1.532  0.9389  0.7812  1.6501
 5462SOL     OW28021   4.510   0.445   6.813 -0.3098  0.3026  0.1004
 5462SOL    HW128022   4.563   0.510   6.766  2.4763 -1.6132  0.5921
 5462SOL    HW228023   4.508   0.366   6.760  0.6240  0.6855 -0.5099
 5463SOL     OW28024   3.442   4.184  14.701  0.1631  0.1598 -0.3080
 5463SOL    HW128025   3.487   4.233  14.632 -0.1769 -0.2224 -0.8088
 5463SOL    HW228026   3.479   4.095  14.697 -2.1729 -0.9356  2.6437
 5464SOL     OW28027   3.011   3.629   4.239  0.3125 -0.3125 -0.3418
 5464SOL    HW128028   2.928   3.587   4.257  0.1971  1.2974  2.8290
 5464SOL    HW228029   3.046   3.619   4.327 -0.3659  1.9317  0.1920
 5465SOL     OW28030   2.619   0.151   0.253  0.5206  0.3283  0.2607
 5465SOL    HW128031   2.688   0.136   0.189 -1.8798 -1.9272 -1.8356
 5465SOL    HW228032   2.565   0.072   0.252  0.0481  0.6714 -1.4791
 5466SOL     OW28033   0.910   3.151  17.040  0.3956 -0.4875 -0.2002
 5466SOL    HW128034   0.900   3.067  16.994  1.5560 -0.3174 -0.7776
 5466SOL    HW228035   0.981   3.131  17.101  0.2758 -0.8385 -0.1770
 5467SOL     OW28036   3.560   3.247   8.747 -0.3666  0.1540 -0.5225
 5467SOL    HW128037   3.518   3.218   8.665 -0.8858 -1.7871  0.4254
 5467SOL    HW228038   3.539   3.339   8.736  0.9253  0.3533 -1.3364
 5468SOL     OW28039   2.112   2.148  14.046 -0.0049 -0.6790 -0.0640
 5468SOL    HW128040   2.078   2.236  14.031  0.5924 -0.2421  1.1150
 5468SOL    HW228041   2.059   2.103  13.980 -1.2890 -0.2820  0.7016
 5469SOL     OW28042   3.253   2.489   6.826 -0.6764  0.0061  0.3132
 5469SOL    HW128043   3.196   2.439   6.884  0.8227 -1.9490  0.0801
 5469SOL    HW228044   3.266   2.427   6.754 -0.4691  0.4121 -0.0031
 5470SOL     OW28045   2.857   1.210   5.129 -0.4788  0.1683 -0.6069
 5470SOL    HW128046   2.909   1.151   5.076  1.2865  0.7182  0.5034
 5470SOL    HW228047   2.844   1.154   5.205 -0.5202  0.5432 -0.3352
 5471SOL     OW28048   1.113   1.073   3.286  0.3486 -1.6033  0.2013
 5471SOL    HW128049   1.152   1.006   3.341  1.8641 -1.4503 -0.6948
 5471SOL    HW228050   1.061   1.013   3.233  0.0313 -1.4896  0.3788
 5472SOL     OW28051   4.326   2.997  14.359  0.3876  0.4850 -0.3541
 5472SOL    HW128052   4.412   3.001  14.400  1.0595 -0.8635 -1.6485
 5472SOL    HW228053   4.266   3.050  14.412 -0.9622 -2.5243  1.1350
 5473SOL     OW28054   3.864   4.706  17.294  0.2926  0.4042  0.0882
 5473SOL    HW128055   3.952   4.716  17.257  0.5732  1.4665  1.0257
 5473SOL    HW228056   3.851   4.611  17.296  0.9524  0.3315  1.0271
 5474SOL     OW28057   4.718   3.406   3.426  0.3386 -0.1941 -0.1135
 5474SOL    HW128058   4.663   3.395   3.348 -0.9650 -0.0638  0.7897
 5474SOL    HW228059   4.656   3.400   3.498 -0.2553  0.0907 -0.6029
 5475SOL     OW28060   3.030   0.132   3.196  0.0951 -0.4371 -0.3429
 5475SOL    HW128061   3.025   0.081   3.115 -1.4951 -1.1422  0.2077
 5475SOL    HW228062   2.977   0.071   3.247  0.9372 -1.0384 -0.1751
 5476SOL     OW28063   3.054   1.718   3.611 -0.3576  0.3437  0.2077
 5476SOL    HW128064   3.023   1.671   3.688  0.1187  0.2879  0.3623
 5476SOL    HW228065   3.148   1.701   3.607 -0.6393 -1.2457  0.6441
 5477SOL     OW28066   2.123   0.146   8.499 -0.3156 -0.3773  0.1920
 5477SOL    HW128067   2.073   0.103   8.568  1.5607 -1.4650  0.8914
 5477SOL    HW228068   2.191   0.177   8.560  0.1395  1.2960 -1.1617
 5478SOL     OW28069   1.563   0.542   6.392  0.0191 -0.2001  0.1570
 5478SOL    HW128070   1.478   0.511   6.361 -0.2452  0.4531  0.2131
 5478SOL    HW228071   1.538   0.630   6.420 -1.4378 -0.3146 -0.8162
 5479SOL     OW28072   3.290   4.706   5.785  0.2050  0.2103 -0.4547
 5479SOL    HW128073   3.384   4.703   5.766  0.3268  0.7731  0.0899
 5479SOL    HW228074   3.280   0.063   5.798  0.3712  0.2824 -0.8662
 5480SOL     OW28075   2.010   1.551  16.658 -0.1519  0.3212  0.0561
 5480SOL    HW128076   1.930   1.581  16.615  0.8298  1.7710 -0.7486
 5480SOL    HW228077   2.038   1.489  16.591  2.2336  0.3754  0.9991
 5481SOL     OW28078   1.784   1.488   2.932 -0.3286 -0.0810 -0.2192
 5481SOL    HW128079   1.726   1.520   3.000 -0.4925 -1.4637  0.2916
 5481SOL    HW228080   1.733   1.411   2.908  0.9906 -1.0769  0.2037
 5482SOL     OW28081   1.569   0.300   9.490 -0.4747  0.3560 -0.1362
 5482SOL    HW128082   1.493   0.336   9.534  0.3681  1.9147  0.0361
 5482SOL    HW228083   1.644   0.343   9.532 -0.1583 -1.7249  1.4462
 5483SOL     OW28084   1.021   3.858  16.531  0.0047 -0.4902 -0.3397
 5483SOL    HW128085   0.995   3.929  16.589  0.7422  0.0452 -0.6668
 5483SOL    HW228086   0.968   3.791  16.574 -0.4776  0.0749 -0.0546
 5484SOL     OW28087   3.893   4.019   8.904  0.0496 -0.1956 -0.1053
 5484SOL    HW128088   3.821   4.066   8.947 -0.4675 -1.6207  0.5651
 5484SOL    HW228089   3.967   4.071   8.934  1.0665 -0.9203 -1.3741
 5485SOL     OW28090   2.921   0.890  11.534 -0.0955 -0.1520  0.3142
 5485SOL    HW128091   2.908   0.977  11.496  2.6629  1.1212  2.3222
 5485SOL    HW228092   2.872   0.911  11.614 -2.0217  0.8751 -1.1235
 5486SOL     OW28093   2.694   1.552   8.209 -0.1307  0.2646 -0.1719
 5486SOL    HW128094   2.673   1.474   8.260  1.5500 -1.5031 -2.1513
 5486SOL    HW228095   2.613   1.567   8.160 -0.2172 -0.3627 -0.2176
 5487SOL     OW28096   3.835   2.902   3.959 -0.3882  0.1761 -0.1392
 5487SOL    HW128097   3.872   2.974   3.908  1.8141 -1.2975 -0.6445
 5487SOL    HW228098   3.743   2.927   3.965 -0.5089 -0.6208  1.2059
 5488SOL     OW28099   4.347   2.430  10.608 -0.1135  0.1553  0.1732
 5488SOL    HW128100   4.328   2.336  10.599 -0.1701  0.0838  1.0538
 5488SOL    HW228101   4.428   2.439  10.558 -1.6146  0.4101 -2.2533
 5489SOL     OW28102   3.152   0.925   5.334  0.2242 -0.6868 -0.1293
 5489SOL    HW128103   3.201   0.906   5.414  1.6392 -1.6581 -1.2326
 5489SOL    HW228104   3.115   0.842   5.306 -0.8732 -0.1158 -0.3896
 5490SOL     OW28105   1.552   3.236   6.312  0.6797 -0.4801 -0.0297
 5490SOL    HW128106   1.639   3.275   6.322  0.6559  0.3358 -3.1438
 5490SOL    HW228107   1.524   3.268   6.226 -0.7311 -1.2837  0.1267
 5491SOL     OW28108   0.569   0.656  13.008 -0.3242  0.0204  0.0515
 5491SOL    HW128109   0.544   0.739  12.968  0.6970  0.2920 -0.0191
 5491SOL    HW228110   0.581   0.593  12.936 -0.2955  1.0303 -0.8231
 5492SOL     OW28111   0.180   0.303   7.904 -0.3004 -0.2887  0.0634
 5492SOL    HW128112   0.234   0.237   7.861  1.6161  0.4889  1.2440
 5492SOL    HW228113   0.158   0.271   7.991  4.1092 -1.4742  0.7218
 5493SOL     OW28114   4.093   2.080   6.884  0.2091 -0.0321  0.1472
 5493SOL    HW128115   4.182   2.105   6.859  0.8597 -0.2948  2.2628
 5493SOL    HW228116   4.109   1.998   6.930  0.4203 -0.4908 -0.7315
 5494SOL     OW28117   1.688   0.970   8.343  0.1696  0.2750 -0.3003
 5494SOL    HW128118   1.734   0.908   8.287 -0.4633 -2.3464  2.0947
 5494SOL    HW228119   1.761   1.031   8.357  0.0957  0.0756  1.0151
 5495SOL     OW28120   4.313   0.587   7.236  0.6771  0.7411  0.4735
 5495SOL    HW128121   4.391   0.606   7.289  1.8127 -0.1558 -0.8589
 5495SOL    HW228122   4.253   0.644   7.283 -2.0084  0.5417 -2.7224
 5496SOL     OW28123   0.328   1.009   3.553 -0.0562 -0.2422 -0.4223
 5496SOL    HW128124   0.353   1.034   3.643 -2.3154 -2.1118  0.7033
 5496SOL    HW228125   0.256   0.949   3.571 -0.5834  0.6244  0.4117
 5497SOL     OW28126   3.876   3.238   8.225 -0.4629  0.4749 -0.1707
 5497SOL    HW128127   3.921   3.214   8.306  0.2573 -2.2357 -1.3748
 5497SOL    HW228128   3.943   3.299   8.195 -0.8084  0.1864 -1.5556
 5498SOL     OW28129   2.886   1.964   1.530  1.0071  0.1822 -0.6469
 5498SOL    HW128130   2.872   1.975   1.624  1.2848  2.6653 -0.8914
 5498SOL    HW228131   2.811   2.007   1.490 -1.2142 -0.7937  2.5187
 5499SOL     OW28132   0.119   1.219   5.136 -0.2847 -0.1676  0.1381
 5499SOL    HW128133   0.032   1.184   5.156  0.6544 -1.9688  1.0376
 5499SOL    HW228134   0.168   1.215   5.218 -0.1962  0.1218  0.1004
 5500SOL     OW28135   1.287   4.502   1.102  0.0825  0.2127 -0.4282
 5500SOL    HW128136   1.378   4.508   1.134  0.3150  1.5557 -1.3630
 5500SOL    HW228137   1.288   4.494   1.007  2.5872 -3.7154 -0.0655
 5501SOL     OW28138   2.968   1.353  17.057  0.2193 -0.3059  0.0072
 5501SOL    HW128139   3.041   1.336  17.117  0.4088 -2.9674 -0.9918
 5501SOL    HW228140   2.979   1.448  17.059 -1.4264 -0.1489  1.4479
 5502SOL     OW28141   3.422   2.772   4.283 -0.0105  0.2411  0.0397
 5502SOL    HW128142   3.504   2.761   4.235 -0.2577 -2.2457  0.1681
 5502SOL    HW228143   3.458   2.792   4.369  1.2838 -1.2565 -0.1516
 5503SOL     OW28144   4.514   1.132   8.229  0.3482  0.1919  0.5287
 5503SOL    HW128145   4.421   1.155   8.238 -0.1258 -0.9688 -1.2568
 5503SOL    HW228146   4.543   1.200   8.289 -0.3711  0.0436  1.0466
 5504SOL     OW28147   2.922   0.139   6.223  0.3395 -0.0838  0.0279
 5504SOL    HW128148   2.837   0.110   6.256  0.1824  2.0509  1.5146
 5504SOL    HW228149   2.938   0.215   6.279  1.4217  1.4902 -2.4005
 5505SOL     OW28150   3.736   1.726   6.624  0.3833  0.0909  0.6630
 5505SOL    HW128151   3.688   1.784   6.684 -0.1425  0.7469 -0.3935
 5505SOL    HW228152   3.808   1.696   6.679  1.7517  0.4862 -0.9194
 5506SOL     OW28153   1.217   0.806   3.406 -0.3380  0.1668  0.4094
 5506SOL    HW128154   1.301   0.761   3.394 -1.9399 -3.3450  2.2785
 5506SOL    HW228155   1.159   0.772   3.338  0.5302  0.5629 -0.5362
 5507SOL     OW28156   2.046   1.601   8.579 -0.2821 -0.2598  0.0007
 5507SOL    HW128157   2.100   1.631   8.651 -0.0313 -0.0345 -0.2793
 5507SOL    HW228158   1.966   1.652   8.589  0.4591  0.4299  2.1979
 5508SOL     OW28159   0.666   1.500   5.083 -0.4323 -0.1698  0.2270
 5508SOL    HW128160   0.755   1.464   5.084 -0.5701 -0.5884 -3.0077
 5508SOL    HW228161   0.652   1.515   4.989 -1.2089 -0.5575  0.2848
 5509SOL     OW28162   1.685   0.808  10.737 -0.4169  0.8264  0.4140
 5509SOL    HW128163   1.600   0.768  10.758 -1.2354  1.8090 -0.9670
 5509SOL    HW228164   1.689   0.781  10.645 -5.4235  0.7882  0.2036
 5510SOL     OW28165   4.312   1.445  11.920 -0.0930  0.7773  0.1773
 5510SOL    HW128166   4.241   1.461  11.983 -0.9145  0.8860 -0.7688
 5510SOL    HW228167   4.381   1.464  11.984 -0.4963 -1.1254  1.2116
 5511SOL     OW28168   2.418   2.740  15.652 -0.5514 -0.0072  0.5849
 5511SOL    HW128169   2.492   2.793  15.682 -1.6128  1.4692  0.5625
 5511SOL    HW228170   2.409   2.761  15.559 -0.3267 -2.2648  0.0425
 5512SOL     OW28171   2.774   2.505   4.180 -0.5178 -0.2076 -0.2893
 5512SOL    HW128172   2.719   2.573   4.141  0.1226  0.4372 -0.0804
 5512SOL    HW228173   2.703   2.447   4.207  1.4402 -1.9284  1.1934
 5513SOL     OW28174   1.146   3.995   7.312 -0.2145 -0.2774  0.0916
 5513SOL    HW128175   1.197   3.914   7.304 -1.3595 -0.9734 -0.1158
 5513SOL    HW228176   1.125   3.994   7.405  1.0363  1.1230  0.4005
 5514SOL     OW28177   2.383   3.141   7.465 -0.3706 -0.2313  0.2270
 5514SOL    HW128178   2.393   3.167   7.373 -1.7625  0.5075  0.2869
 5514SOL    HW228179   2.466   3.094   7.472  0.6094  1.2901 -1.1587
 5515SOL     OW28180   4.640   1.226   7.986 -0.0138  0.3778  0.2526
 5515SOL    HW128181   4.574   1.179   7.935  1.4268 -0.1417 -1.1368
 5515SOL    HW228182   4.621   1.185   8.070  0.0679 -1.6492 -0.7164
 5516SOL     OW28183   2.270   3.122  13.466  0.0800 -0.2696 -0.1160
 5516SOL    HW128184   2.359   3.109  13.499 -0.1278  1.1470  0.9621
 5516SOL    HW228185   2.226   3.131  13.550 -2.2179  1.4546 -1.4932
 5517SOL     OW28186   4.092   3.281   5.063 -0.0665 -0.3780  0.3046
 5517SOL    HW128187   4.066   3.372   5.075  2.4924  0.5296 -1.1069
 5517SOL    HW228188   4.176   3.299   5.021 -1.3353  0.0792 -2.0448
 5518SOL     OW28189   0.731   1.740   8.118  0.5529  0.1755 -0.1330
 5518SOL    HW128190   0.660   1.744   8.183  2.2023  1.3173  1.5809
 5518SOL    HW228191   0.797   1.694   8.170  0.2408  0.6908  0.7227
 5519SOL     OW28192   2.862   0.329   3.318  0.4454 -0.0464  0.7209
 5519SOL    HW128193   2.856   0.288   3.404 -1.3128 -0.9034  0.1884
 5519SOL    HW228194   2.922   0.278   3.264 -0.2958 -0.7695  0.5795
 5520SOL     OW28195   3.727   0.409   8.529  0.0473 -0.1693  0.3135
 5520SOL    HW128196   3.765   0.476   8.472  0.3298 -0.8998 -0.3702
 5520SOL    HW228197   3.767   0.327   8.498 -0.3840 -1.4805  3.2496
 5521SOL     OW28198   1.660   3.745   3.421 -0.0152  0.1117 -0.0309
 5521SOL    HW128199   1.628   3.718   3.335 -0.0436  0.8669 -0.2540
 5521SOL    HW228200   1.578   3.772   3.464  0.7959  0.2525  1.4440
 5522SOL     OW28201   4.705   3.090  10.224  0.1321 -0.1725  0.3729
 5522SOL    HW128202   4.654   3.059  10.149 -0.0132  2.6433 -0.7054
 5522SOL    HW228203   0.024   3.153  10.178  0.7232 -0.0416  1.2886
 5523SOL     OW28204   1.919   4.072   3.498  0.4176 -1.1905  0.5561
 5523SOL    HW128205   1.924   3.976   3.495  0.9692 -1.1194 -0.7293
 5523SOL    HW228206   1.827   4.079   3.474  1.0351 -1.1410 -1.7478
 5524SOL     OW28207   3.896   4.556  11.514 -0.4341  0.9065 -0.0130
 5524SOL    HW128208   3.841   4.525  11.442 -1.1408 -0.4550  1.0874
 5524SOL    HW228209   3.890   4.488  11.582  1.1297 -0.3385 -1.1340
 5525SOL     OW28210   2.753   4.122   2.160  0.0445  0.3022 -0.4157
 5525SOL    HW128211   2.677   4.134   2.103 -0.0371  2.7927  0.2314
 5525SOL    HW228212   2.711   4.112   2.246 -0.3756  0.4614 -0.6044
 5526SOL     OW28213   4.330   4.266   1.820  1.1494  0.2498 -0.4647
 5526SOL    HW128214   4.399   4.332   1.834  0.5046  0.6262  0.9221
 5526SOL    HW228215   4.327   4.260   1.725  0.2162 -2.5429 -0.2608
 5527SOL     OW28216   2.371   0.778  15.999 -0.6821 -0.1025  0.3687
 5527SOL    HW128217   2.355   0.765  16.092 -1.5662  5.1471  0.9282
 5527SOL    HW228218   2.318   0.857  15.989 -0.3986 -0.0193 -0.5057
 5528SOL     OW28219   3.429   0.411   3.692 -0.2191  0.0805 -0.6031
 5528SOL    HW128220   3.460   0.372   3.774 -1.1176 -0.7783 -0.6796
 5528SOL    HW228221   3.509   0.399   3.640 -0.3276 -0.3852 -0.6628
 5529SOL     OW28222   1.893   1.120  14.023  0.0308  0.1033  0.4759
 5529SOL    HW128223   1.899   1.097  13.930  0.1078 -0.7422  0.6975
 5529SOL    HW228224   1.799   1.141  14.021  0.5666  2.4202 -0.0544
 5530SOL     OW28225   4.373   3.785   2.685  0.3486 -1.0409  0.0721
 5530SOL    HW128226   4.408   3.786   2.775 -1.3402 -0.3488  0.7286
 5530SOL    HW228227   4.335   3.873   2.679  1.0502 -0.8753 -1.9014
 5531SOL     OW28228   3.063   2.579   3.279  0.2472  0.0691 -0.0129
 5531SOL    HW128229   2.985   2.527   3.300  0.9184 -0.2517  1.7232
 5531SOL    HW228230   3.039   2.599   3.189  0.2012  1.2156  0.2578
 5532SOL     OW28231   1.713   2.456  14.041 -0.2879 -0.0222 -1.0225
 5532SOL    HW128232   1.687   2.448  14.133  0.3299 -0.4294 -0.8907
 5532SOL    HW228233   1.657   2.528  14.010  1.0899  1.1461 -0.7833
 5533SOL     OW28234   2.514   2.124   9.946 -0.3621  0.0636 -0.0339
 5533SOL    HW128235   2.515   2.036   9.982 -2.7826  0.4527  0.9659
 5533SOL    HW228236   2.466   2.107   9.865 -1.5699  2.8014  0.0838
 5534SOL     OW28237   4.040   3.844   3.622 -0.3901  0.6360 -0.0620
 5534SOL    HW128238   4.070   3.902   3.692 -0.3302  1.5312 -0.8166
 5534SOL    HW228239   3.985   3.787   3.676  0.5570 -0.9978 -0.8254
 5535SOL     OW28240   4.205   3.963   6.864 -0.2064 -0.0023 -0.0562
 5535SOL    HW128241   4.229   4.021   6.793  1.1070  0.0693  0.4286
 5535SOL    HW228242   4.193   3.877   6.824  0.5387  0.5083 -1.3645
 5536SOL     OW28243   3.380   3.733  11.353  0.0850  0.3142 -0.0548
 5536SOL    HW128244   3.329   3.706  11.430  0.8394 -2.2048 -0.4183
 5536SOL    HW228245   3.392   3.649  11.309 -0.7216  0.2206 -0.0966
 5537SOL     OW28246   4.555   4.056   6.055  0.3407 -1.0747  0.4314
 5537SOL    HW128247   4.598   4.122   6.109 -0.9631  1.5812 -1.7602
 5537SOL    HW228248   4.485   4.028   6.114 -0.7191 -0.0324 -0.3292
 5538SOL     OW28249   2.111   3.738   4.102  0.0672  0.4677 -0.6815
 5538SOL    HW128250   2.029   3.730   4.053 -0.8668  1.8866  0.6240
 5538SOL    HW228251   2.070   3.750   4.188  2.1247 -0.0728  0.3602
 5539SOL     OW28252   0.814   3.099   4.557 -0.5681 -0.0609 -0.2794
 5539SOL    HW128253   0.808   3.036   4.485 -1.2719 -0.9370  0.5467
 5539SOL    HW228254   0.871   3.044   4.610  0.2130 -1.5782 -2.7056
 5540SOL     OW28255   2.395   0.757   9.499  0.1348  0.3831  0.5153
 5540SOL    HW128256   2.446   0.688   9.541 -3.3238 -1.1121  2.1919
 5540SOL    HW228257   2.321   0.764   9.558 -0.0047  2.9329  0.0502
 5541SOL     OW28258   0.366   0.628  15.324  0.0262 -0.0604  0.3914
 5541SOL    HW128259   0.331   0.560  15.266  1.2054 -1.9580  1.8912
 5541SOL    HW228260   0.364   0.695  15.256  1.9536  0.4220  0.8281
 5542SOL     OW28261   2.438   1.608   3.634  0.3679  0.0766 -0.1131
 5542SOL    HW128262   2.360   1.656   3.609 -0.8951 -1.8826  0.1144
 5542SOL    HW228263   2.454   1.632   3.726 -0.4318 -0.0274  0.0472
 5543SOL     OW28264   1.436   3.841  12.624  0.1615  0.1507  0.1862
 5543SOL    HW128265   1.379   3.875  12.693  0.9174  0.1634  0.7972
 5543SOL    HW228266   1.523   3.870  12.652  0.3907  0.8828 -1.2436
 5544SOL     OW28267   0.079   3.651   7.609  0.0637 -0.1715  0.4521
 5544SOL    HW128268   0.141   3.722   7.595  0.9331 -1.1471 -0.6813
 5544SOL    HW228269   0.017   3.697   7.666  2.3085  0.9302  1.9893
 5545SOL     OW28270   4.695   3.458   2.839 -0.2566 -0.1208  0.3705
 5545SOL    HW128271   0.047   3.480   2.865 -0.4193  0.5815  0.3226
 5545SOL    HW228272   4.686   3.370   2.877  1.1421  0.3431  1.7730
 5546SOL     OW28273   4.111   3.193   7.889  0.4337  0.3250  0.6711
 5546SOL    HW128274   4.173   3.266   7.880 -0.3977  1.0658  0.9813
 5546SOL    HW228275   4.103   3.170   7.797  0.1261 -1.6663  1.1838
 5547SOL     OW28276   2.364   1.147  15.711  0.2575  0.4218  0.3824
 5547SOL    HW128277   2.374   1.228  15.660  0.8779  0.6884  0.9192
 5547SOL    HW228278   2.383   1.075  15.651 -2.0424 -0.2605  0.4693
 5548SOL     OW28279   2.188   3.473   7.693  0.0925 -0.1726  0.0272
 5548SOL    HW128280   2.126   3.405   7.666  0.9416 -0.6665 -0.6938
 5548SOL    HW228281   2.258   3.408   7.693 -0.0468 -0.3285  0.6840
 5549SOL     OW28282   2.282   4.310   7.418 -0.8323  0.2702  0.3786
 5549SOL    HW128283   2.284   4.316   7.322  1.2723 -0.1385  0.3962
 5549SOL    HW228284   2.299   4.217   7.430 -3.2912 -0.0086  1.6860
 5550SOL     OW28285   3.194   1.205   8.204 -0.2046 -0.4356  0.0291
 5550SOL    HW128286   3.126   1.232   8.142  1.6925 -0.5257 -2.0945
 5550SOL    HW228287   3.191   1.288   8.253  1.2247 -0.4514  0.1471
 5551SOL     OW28288   0.924   1.520  11.869 -0.3924 -0.1062  0.3668
 5551SOL    HW128289   0.830   1.507  11.885 -0.3991 -0.8267 -0.2592
 5551SOL    HW228290   0.951   1.592  11.925 -0.6584  0.8840 -0.7789
 5552SOL     OW28291   1.229   3.013   3.901  0.0729 -0.2614  0.1043
 5552SOL    HW128292   1.198   2.929   3.937  2.4201 -0.5006  1.5556
 5552SOL    HW228293   1.146   3.028   3.855 -0.5375 -0.4679  1.1391
 5553SOL     OW28294   2.037   2.955   7.701 -0.3369 -0.2654 -0.0783
 5553SOL    HW128295   2.028   3.036   7.650  1.2666 -0.8810 -1.3535
 5553SOL    HW228296   1.970   2.972   7.767  0.8598  0.4283  0.9713
 5554SOL     OW28297   2.520   3.031  12.098  0.2246  0.1462  0.8071
 5554SOL    HW128298   2.457   3.039  12.028 -1.4370  0.7305  2.3689
 5554SOL    HW228299   2.586   3.091  12.063 -2.2064  1.1842 -1.9711
 5555SOL     OW28300   0.339   1.264   3.398  0.6319 -0.2144  0.9067
 5555SOL    HW128301   0.323   1.176   3.363  3.2353  0.6136 -2.3424
 5555SOL    HW228302   0.273   1.262   3.468 -1.4006  1.0876 -0.9781
 5556SOL     OW28303   2.775   4.048   3.983  0.0097 -0.4568 -0.0792
 5556SOL    HW128304   2.769   4.133   3.939  2.6795  0.2114  0.8611
 5556SOL    HW228305   2.771   3.989   3.908 -3.8365  0.4834 -0.5929
 5557SOL     OW28306   0.414   4.608   7.207 -0.1392  0.0915  0.1598
 5557SOL    HW128307   0.441   4.641   7.293 -2.4792  0.7913  0.6323
 5557SOL    HW228308   0.359   4.678   7.172 -0.3988  0.2224  0.8219
 5558SOL     OW28309   4.168   2.114  13.461 -0.8577 -0.0621 -0.0111
 5558SOL    HW128310   4.075   2.092  13.465 -1.1387  1.6272  2.3969
 5558SOL    HW228311   4.175   2.138  13.553  1.8712  1.0101 -0.4993
 5559SOL     OW28312   3.578   0.360  11.958 -0.4870 -0.4338  0.5281
 5559SOL    HW128313   3.672   0.345  11.968 -0.4241 -0.2884  0.1490
 5559SOL    HW228314   3.572   0.444  12.004 -1.9301 -1.0697  1.5154
 5560SOL     OW28315   3.904   2.112   5.830 -0.3143 -0.3425  0.4510
 5560SOL    HW128316   3.979   2.145   5.780 -0.1303 -2.6675 -0.7606
 5560SOL    HW228317   3.948   2.086   5.911  1.2395 -0.8142 -0.5367
 5561SOL     OW28318   0.267   4.654  12.054 -0.0648  0.5694 -0.0272
 5561SOL    HW128319   0.194   4.663  11.993 -0.3915 -2.4087 -0.0656
 5561SOL    HW228320   0.214   4.622  12.127  0.1222  0.3109 -0.0060
 5562SOL     OW28321   1.738   1.155   1.372  0.7345  0.3348 -0.0749
 5562SOL    HW128322   1.668   1.190   1.316  0.4436  1.5218  1.0387
 5562SOL    HW228323   1.769   1.241   1.402  0.3779  1.0198 -1.6276
 5563SOL     OW28324   0.085   4.002  14.686  0.2857  0.5592  0.0611
 5563SOL    HW128325   0.136   3.955  14.753 -0.6000 -1.1221 -0.4564
 5563SOL    HW228326   0.118   3.952  14.612  1.4339  4.1751 -1.8887
 5564SOL     OW28327   3.830   3.522   7.012  0.3465  0.1566 -0.2106
 5564SOL    HW128328   3.817   3.435   6.974 -2.4244  0.4564 -0.0079
 5564SOL    HW228329   3.924   3.534   7.020  0.0638  3.2079 -1.0734
 5565SOL     OW28330   0.061   1.442  15.041  0.0805  0.3371 -0.6625
 5565SOL    HW128331   4.705   1.465  15.036  0.2491  0.7825 -1.7896
 5565SOL    HW228332   0.065   1.367  14.983  0.8193  1.0574 -1.5378
 5566SOL     OW28333   2.440   0.530   9.630 -0.7062  0.2471  0.1616
 5566SOL    HW128334   2.384   0.530   9.708  0.8342  0.2801  1.2584
 5566SOL    HW228335   2.457   0.437   9.618  0.1797  0.2321  1.5880
 5567SOL     OW28336   0.087   3.900  10.559 -0.3665 -0.1802 -0.5971
 5567SOL    HW128337   0.088   3.993  10.582  0.2516 -0.0111 -1.3418
 5567SOL    HW228338   0.094   3.911  10.464 -3.0993 -0.7753 -0.8710
 5568SOL     OW28339   0.885   4.387   4.378  0.1730 -0.0445 -0.1702
 5568SOL    HW128340   0.830   4.381   4.300 -1.8263  0.1478  1.2382
 5568SOL    HW228341   0.847   4.467   4.412  0.8635 -0.3454  1.3183
 5569SOL     OW28342   2.161   1.907   1.225  0.5423  0.2676 -0.2016
 5569SOL    HW128343   2.068   1.901   1.247  0.9637  1.5086  1.9148
 5569SOL    HW228344   2.194   1.818   1.212  0.3742  0.1270  0.3624
 5570SOL     OW28345   4.545   3.008  10.028 -1.0230 -0.3962  0.0652
 5570SOL    HW128346   4.521   2.936   9.970 -0.1000  0.3174 -1.1890
 5570SOL    HW228347   4.468   3.061  10.006 -0.6487  0.2023  0.2106
 5571SOL     OW28348   1.744   0.249   9.982 -0.2144  0.2546 -0.6260
 5571SOL    HW128349   1.731   0.228   9.889  1.2396 -0.5205 -0.6657
 5571SOL    HW228350   1.826   0.201   9.992 -1.1288 -1.2310 -0.2801
 5572SOL     OW28351   2.286   1.579  16.389  0.2639  0.5191  0.2590
 5572SOL    HW128352   2.232   1.614  16.318 -0.7643  1.5195  1.5497
 5572SOL    HW228353   2.339   1.655  16.414 -0.2997  0.2539  2.2441
 5573SOL     OW28354   4.107   1.313   2.370  0.3387 -0.4887 -0.0503
 5573SOL    HW128355   4.183   1.361   2.339  0.8105 -0.6567  0.8255
 5573SOL    HW228356   4.073   1.382   2.427  1.6986 -0.5206  0.7975
 5574SOL     OW28357   1.251   3.460  12.514  0.0826  0.3458 -0.1766
 5574SOL    HW128358   1.235   3.554  12.510 -1.9179 -0.0606 -1.7059
 5574SOL    HW228359   1.182   3.428  12.455 -1.3978  0.0882  1.6516
 5575SOL     OW28360   0.516   3.012  10.227  0.0894 -0.9584  0.1843
 5575SOL    HW128361   0.558   2.930  10.201 -0.5405 -1.3740  0.5060
 5575SOL    HW228362   0.429   2.974  10.239 -0.7558  0.8905 -0.1002
 5576SOL     OW28363   3.486   4.545   2.682  0.2135  0.0324  0.2060
 5576SOL    HW128364   3.557   4.494   2.721 -0.7455  0.1829  2.1261
 5576SOL    HW228365   3.508   4.562   2.590 -0.9454  1.2870  0.1504
 5577SOL     OW28366   3.057   4.058   0.997  1.0741 -0.4534  0.2480
 5577SOL    HW128367   3.132   4.040   1.053 -0.7218  0.8020  3.0560
 5577SOL    HW228368   3.048   3.982   0.939 -0.3106 -0.3220  0.2742
 5578SOL     OW28369   2.440   1.594  17.034  0.1139 -0.2759 -0.4531
 5578SOL    HW128370   2.364   1.653  17.037 -0.0322 -0.3886 -1.9203
 5578SOL    HW228371   2.484   1.611  17.117 -1.7589  1.8707  0.0860
 5579SOL     OW28372   2.392   0.973  14.439 -0.7484 -0.2327  0.5665
 5579SOL    HW128373   2.463   0.909  14.443  1.3766  2.1150  0.4369
 5579SOL    HW228374   2.369   0.939  14.352 -0.4478  0.9549  0.0206
 5580SOL     OW28375   1.475   2.058   9.671  0.1706  0.2854 -0.1128
 5580SOL    HW128376   1.463   2.074   9.577 -1.0095 -2.0037 -0.3510
 5580SOL    HW228377   1.551   2.107   9.701  0.2769 -0.5756  1.0403
 5581SOL     OW28378   3.908   0.395   3.655 -0.3637  0.4912 -0.1182
 5581SOL    HW128379   3.988   0.348   3.635  1.0070  1.9340  1.9550
 5581SOL    HW228380   3.941   0.485   3.647  2.6838 -0.7226 -0.8356
 5582SOL     OW28381   2.456   0.322   7.573 -0.3644 -0.0233 -0.2308
 5582SOL    HW128382   2.442   0.349   7.664 -0.0786  0.2915 -0.2775
 5582SOL    HW228383   2.550   0.304   7.576 -0.0302  1.5471 -1.4372
 5583SOL     OW28384   0.487   2.084  10.256 -0.9489 -0.4487  0.3302
 5583SOL    HW128385   0.581   2.085  10.277 -0.7165  0.4335 -0.7032
 5583SOL    HW228386   0.446   2.045  10.332 -0.9018 -0.2818  0.4420
 5584SOL     OW28387   3.373   2.259   8.758  0.4005 -0.0645  0.4293
 5584SOL    HW128388   3.459   2.287   8.728 -0.0355 -0.2519 -1.0345
 5584SOL    HW228389   3.349   2.328   8.821 -3.5568 -1.2077  0.1934
 5585SOL     OW28390   1.174   3.586   8.644 -0.3172  0.1691 -0.1361
 5585SOL    HW128391   1.208   3.505   8.605  2.3529  1.2714 -0.0776
 5585SOL    HW228392   1.163   3.645   8.569 -1.2777 -1.7063 -1.5098
 5586SOL     OW28393   1.067   2.704  17.047  0.0761  0.1778  0.0241
 5586SOL    HW128394   1.160   2.723  17.057  0.6985 -2.8901  0.2598
 5586SOL    HW228395   1.037   2.667  17.130  0.4978 -0.6063 -0.1719
 5587SOL     OW28396   2.456   1.251   1.756 -0.2398 -0.3620 -0.1437
 5587SOL    HW128397   2.439   1.178   1.697  0.3152 -0.6051 -0.0040
 5587SOL    HW228398   2.377   1.255   1.810 -0.1910  1.0668 -0.1836
 5588SOL     OW28399   4.596   2.854   4.533  0.8416 -0.1974 -0.5918
 5588SOL    HW128400   4.517   2.859   4.478  0.6652  0.7310 -0.2518
 5588SOL    HW228401   4.633   2.937   4.504 -3.0362  1.5217 -0.5897
 5589SOL     OW28402   1.533   1.004   2.277 -0.5673  0.0786 -0.2892
 5589SOL    HW128403   1.551   0.910   2.284 -1.0600 -0.0655 -0.9737
 5589SOL    HW228404   1.465   1.012   2.211  1.1627 -2.2573 -2.3336
 5590SOL     OW28405   2.657   2.672   7.568  0.4286  1.1602 -0.8951
 5590SOL    HW128406   2.612   2.674   7.652  2.0089  0.9173 -0.0370
 5590SOL    HW228407   2.711   2.595   7.584 -1.6705 -0.1678 -0.2045
 5591SOL     OW28408   0.882   2.359  10.197 -0.1967 -0.1644 -0.0461
 5591SOL    HW128409   0.963   2.372  10.147 -0.8164  1.5246 -0.5976
 5591SOL    HW228410   0.917   2.328  10.280  0.4597 -0.6747 -0.5103
 5592SOL     OW28411   2.023   4.686   8.699 -0.1793 -0.8516  0.5228
 5592SOL    HW128412   2.014   4.694   8.794  0.5464 -1.6464  0.6609
 5592SOL    HW228413   2.094   4.622   8.699  0.3185 -0.2850  2.8720
 5593SOL     OW28414   1.567   1.210   5.148  0.4431 -0.0732  0.5878
 5593SOL    HW128415   1.571   1.306   5.149  3.6335 -0.2323  1.3201
 5593SOL    HW228416   1.478   1.202   5.114  0.5134  0.4811  0.2657
 5594SOL     OW28417   3.500   0.706   4.002 -0.1992 -0.4616 -0.3629
 5594SOL    HW128418   3.526   0.640   4.065 -2.1796 -0.6597  0.2196
 5594SOL    HW228419   3.575   0.704   3.942  0.2699  0.0296  0.2004
 5595SOL     OW28420   4.315   0.145   4.641 -0.5337  0.3186 -0.3126
 5595SOL    HW128421   4.251   0.182   4.579 -2.6690  0.0105  1.7048
 5595SOL    HW228422   4.399   0.178   4.608  0.2371 -1.7999 -0.4328
 5596SOL     OW28423   3.544   1.007   7.449  0.2256  0.3867  0.3897
 5596SOL    HW128424   3.495   0.986   7.370  0.9177 -1.1959  0.3862
 5596SOL    HW228425   3.480   0.985   7.517  1.0841  0.5490  1.2594
 5597SOL     OW28426   1.771   1.087   6.162  0.2443 -0.3281 -0.3701
 5597SOL    HW128427   1.701   1.062   6.223  1.1186 -0.6260  0.4938
 5597SOL    HW228428   1.767   1.012   6.102 -0.3144 -1.8212  1.5119
 5598SOL     OW28429   4.334   4.608   6.084  0.0686  0.1563  0.7127
 5598SOL    HW128430   4.333   4.674   6.153  1.1660 -0.2716  1.1443
 5598SOL    HW228431   4.244   4.577   6.087 -0.5235  1.8687  0.2431
 5599SOL     OW28432   3.667   2.440   2.795  0.9344  0.1401  0.5954
 5599SOL    HW128433   3.687   2.366   2.853 -1.8973  0.2892  1.7660
 5599SOL    HW228434   3.745   2.454   2.742 -0.9721  0.2901 -2.1812
 5600SOL     OW28435   0.328   0.294  11.378  0.2926 -0.0385  0.4705
 5600SOL    HW128436   0.368   0.380  11.394  1.6892 -1.1030  2.5989
 5600SOL    HW228437   0.365   0.246  11.451  0.6936  0.7324  0.7710
 5601SOL     OW28438   2.377   0.607  15.743 -0.2234 -0.0101 -0.3646
 5601SOL    HW128439   2.434   0.536  15.715  0.1694 -0.6843  2.1618
 5601SOL    HW228440   2.439   0.669  15.781  0.5389  0.0097 -1.6512
 5602SOL     OW28441   0.995   2.078   3.007 -0.2036  0.3749 -0.0620
 5602SOL    HW128442   0.966   2.092   3.097 -0.0589 -0.4050  0.0991
 5602SOL    HW228443   1.089   2.093   3.021 -0.3373  1.0280  0.1261
 5603SOL     OW28444   1.873   3.412  15.611  0.0075 -0.3467  0.0578
 5603SOL    HW128445   1.864   3.323  15.646  0.4438 -0.1990  0.5456
 5603SOL    HW228446   1.967   3.415  15.596  0.2189 -0.3847  1.3584
 5604SOL     OW28447   3.476   1.303  11.153 -0.5224 -0.3794  0.2427
 5604SOL    HW128448   3.448   1.371  11.091  3.6598  0.6821 -0.4384
 5604SOL    HW228449   3.456   1.224  11.103 -0.3962 -0.0197 -0.3826
 5605SOL     OW28450   2.220   4.471   1.740 -0.3592  0.1884  0.1914
 5605SOL    HW128451   2.265   4.556   1.741 -0.8118  0.4502 -1.1719
 5605SOL    HW228452   2.130   4.498   1.722 -1.7214 -1.6381  4.4073
 5606SOL     OW28453   3.330   2.258   1.927 -0.2146  0.3070  0.0454
 5606SOL    HW128454   3.312   2.225   2.015 -2.1470  2.1574  0.3447
 5606SOL    HW228455   3.392   2.193   1.894 -2.0524 -0.3991 -2.0544
 5607SOL     OW28456   1.541   0.514   4.503  0.2820  0.3562 -0.6582
 5607SOL    HW128457   1.521   0.594   4.455 -0.9911  0.1651 -0.4507
 5607SOL    HW228458   1.466   0.517   4.563  0.5395 -0.2688 -0.2933
 5608SOL     OW28459   4.424   1.877   3.978 -0.1690  0.7290  0.2868
 5608SOL    HW128460   4.442   1.872   3.884 -0.2695  0.5399  0.2786
 5608SOL    HW228461   4.367   1.954   3.985 -2.4470 -0.8464 -1.2503
 5609SOL     OW28462   2.124   1.808  12.488  0.2747  0.0015 -0.2774
 5609SOL    HW128463   2.029   1.808  12.501  0.4116 -0.0890  0.7836
 5609SOL    HW228464   2.154   1.783  12.576 -3.0768 -2.2244  0.2408
 5610SOL     OW28465   4.685   2.525   5.436  0.3002  0.6944  0.0528
 5610SOL    HW128466   4.622   2.594   5.413 -1.5900 -1.1724 -0.3116
 5610SOL    HW228467   4.699   2.482   5.352 -0.6137  0.6853 -0.0917
 5611SOL     OW28468   1.042   3.835   5.215  0.6754 -0.4363  0.0186
 5611SOL    HW128469   1.061   3.770   5.148 -1.1494 -1.2170  0.2456
 5611SOL    HW228470   1.123   3.883   5.230 -0.2807  1.8181 -2.0653
 5612SOL     OW28471   4.197   0.134   5.116  0.0735  0.2430 -0.2208
 5612SOL    HW128472   4.251   0.100   5.187 -0.8841  0.0009  0.3942
 5612SOL    HW228473   4.245   0.109   5.037  1.7124 -0.8253  1.1166
 5613SOL     OW28474   3.789   1.229   0.061  0.3674 -0.3879 -0.3310
 5613SOL    HW128475   3.771   1.150   0.113 -0.0704  0.7472  1.2604
 5613SOL    HW228476   3.864   1.251   0.116  1.8922  0.8494 -2.9688
 5614SOL     OW28477   3.948   3.935   2.655  0.4647  0.3864  0.4301
 5614SOL    HW128478   4.027   3.958   2.607 -1.4300  2.6478 -1.6111
 5614SOL    HW228479   3.920   4.018   2.694  1.7217  1.3147 -0.6794
 5615SOL     OW28480   2.172   0.398   2.890  0.1336  0.0351  0.2539
 5615SOL    HW128481   2.203   0.353   2.969 -2.7814 -1.0357  0.7953
 5615SOL    HW228482   2.094   0.433   2.933  0.8178  1.8973 -0.0083
 5616SOL     OW28483   0.584   2.901   2.476  0.1642 -0.3775 -0.1009
 5616SOL    HW128484   0.665   2.870   2.434  0.9540  0.3857  0.8639
 5616SOL    HW228485   0.576   2.989   2.440 -0.1140 -0.5008 -0.3444
 5617SOL     OW28486   2.845   3.393  17.003  0.2325 -0.2144  0.3944
 5617SOL    HW128487   2.878   3.303  16.995 -1.0416 -0.9044  2.7909
 5617SOL    HW228488   2.767   3.370  17.054  1.0684 -3.3860  0.2379
 5618SOL     OW28489   0.437   1.672   9.190 -0.2212  0.4195 -0.2526
 5618SOL    HW128490   0.491   1.667   9.269  0.9014 -0.4055 -1.0692
 5618SOL    HW228491   0.372   1.605   9.212  1.5927 -0.9089  1.1633
 5619SOL     OW28492   1.221   1.499  14.818 -0.5931 -0.3981 -0.3812
 5619SOL    HW128493   1.267   1.527  14.739 -2.4911 -2.7037 -2.3325
 5619SOL    HW228494   1.290   1.461  14.871  0.8171  0.3141 -1.7151
 5620SOL     OW28495   2.396   2.897   8.825 -0.6274 -0.0934 -0.5494
 5620SOL    HW128496   2.369   2.950   8.750  0.7989 -2.3620 -2.6825
 5620SOL    HW228497   2.337   2.822   8.816 -1.9931  0.6871  2.2164
 5621SOL     OW28498   4.015   0.381   6.322  0.0870 -0.0704  0.2800
 5621SOL    HW128499   4.067   0.360   6.244 -0.9000 -1.2476 -0.0437
 5621SOL    HW228500   4.043   0.468   6.352  0.7332 -0.1090 -0.1975
 5622SOL     OW28501   0.092   2.025   6.629  0.0259  0.1666  0.0064
 5622SOL    HW128502   0.011   1.985   6.659 -0.3604  2.6119  2.1717
 5622SOL    HW228503   0.113   1.961   6.561  0.6978 -0.1074  0.4740
 5623SOL     OW28504   3.833   2.649   3.386  0.4585 -0.6578  0.6165
 5623SOL    HW128505   3.755   2.695   3.417  0.9407  1.3832 -1.2419
 5623SOL    HW228506   3.828   2.670   3.293  0.1107 -0.4396  0.6868
 5624SOL     OW28507   3.704   0.654  12.437 -0.3489 -0.1613  0.2695
 5624SOL    HW128508   3.787   0.614  12.465 -0.7475 -0.7789  0.5655
 5624SOL    HW228509   3.671   0.580  12.385 -0.7870 -0.7398  1.3865
 5625SOL     OW28510   2.160   1.916   7.728  0.5638  0.0272  0.3977
 5625SOL    HW128511   2.095   1.919   7.657  1.3467 -0.9780 -0.3575
 5625SOL    HW228512   2.228   1.976   7.697  1.5726  0.1980  2.9171
 5626SOL     OW28513   1.206   1.680   3.369  0.0192 -0.0542 -0.1248
 5626SOL    HW128514   1.163   1.624   3.304 -0.4235  0.1527 -0.0160
 5626SOL    HW228515   1.160   1.764   3.362 -1.8465 -1.1659 -1.1139
 5627SOL     OW28516   0.293   2.529   5.712 -0.3207 -0.2237 -0.4213
 5627SOL    HW128517   0.244   2.577   5.645  2.2470  1.6161 -1.0157
 5627SOL    HW228518   0.300   2.444   5.669  0.9619  0.0216 -0.7070
 5628SOL     OW28519   4.416   1.278   5.882 -0.2805 -0.3427  0.2623
 5628SOL    HW128520   4.327   1.264   5.914 -1.0297  0.8284 -1.3257
 5628SOL    HW228521   4.445   1.188   5.869  0.6696  0.0823 -0.5795
 5629SOL     OW28522   0.534   2.962  16.574 -0.0679  0.0853  0.1222
 5629SOL    HW128523   0.490   2.891  16.527 -1.4224  0.0919  1.3764
 5629SOL    HW228524   0.460   3.015  16.602 -0.6177 -0.2041 -0.7821
 5630SOL     OW28525   4.582   1.756   1.389  0.4257 -0.0377 -0.3206
 5630SOL    HW128526   4.586   1.673   1.437  2.6523 -0.1367 -0.6923
 5630SOL    HW228527   4.555   1.816   1.459  0.2196 -1.4577  0.8251
 5631SOL     OW28528   4.495   4.388   8.062  0.2963 -0.0220 -0.3076
 5631SOL    HW128529   4.426   4.380   8.129  0.0421 -2.3434 -0.8343
 5631SOL    HW228530   4.492   4.482   8.043 -2.4351 -0.3327 -1.4367
 5632SOL     OW28531   4.642   0.932   3.752 -0.2715 -0.5122  0.1081
 5632SOL    HW128532   4.638   0.844   3.714 -1.9345  0.0914 -1.1361
 5632SOL    HW228533   4.736   0.946   3.749 -0.5494  1.6317  1.7345
 5633SOL     OW28534   3.724   1.969  15.273 -0.1126 -0.2723  0.3166
 5633SOL    HW128535   3.635   1.972  15.308 -0.5712  1.0637 -0.9740
 5633SOL    HW228536   3.757   1.904  15.335 -0.2172 -0.2950  0.3493
 5634SOL     OW28537   3.289   1.536   2.047 -0.7541 -0.3826  0.3574
 5634SOL    HW128538   3.214   1.510   2.100 -2.0274 -1.0514 -1.7531
 5634SOL    HW228539   3.316   1.626   2.064  1.5313 -0.8945 -0.5663
 5635SOL     OW28540   3.973   2.623   6.724  0.0970 -0.2361  0.1937
 5635SOL    HW128541   4.039   2.670   6.673  1.3667 -3.5871 -1.2334
 5635SOL    HW228542   3.925   2.697   6.762 -0.5178 -1.4706  1.8117
 5636SOL     OW28543   0.032   1.301   3.550  0.8570  0.1622 -0.2751
 5636SOL    HW128544   4.714   1.249   3.492  1.7509 -2.3040  1.0916
 5636SOL    HW228545   4.709   1.352   3.605  0.8798  0.5888 -0.6451
 5637SOL     OW28546   0.502   4.324   9.273 -0.4823 -0.2005 -0.1386
 5637SOL    HW128547   0.588   4.293   9.247 -1.1507  0.8165 -3.5277
 5637SOL    HW228548   0.535   4.404   9.314 -0.4680  0.2615 -1.0494
 5638SOL     OW28549   3.086   1.577   9.137 -0.2448  0.1791 -0.2700
 5638SOL    HW128550   3.173   1.539   9.148 -0.8798 -1.2223 -0.1290
 5638SOL    HW228551   3.095   1.672   9.136 -0.9146  0.2119 -2.9043
 5639SOL     OW28552   2.429   1.984   8.254  0.0046  0.4443  0.8750
 5639SOL    HW128553   2.523   1.991   8.270  0.1970  0.3909 -0.2040
 5639SOL    HW228554   2.406   1.914   8.315 -1.0678 -0.2019 -0.2683
 5640SOL     OW28555   1.404   0.013   7.345 -0.2392 -0.1684 -0.9321
 5640SOL    HW128556   1.373   4.662   7.364  0.5908  0.1271  1.8335
 5640SOL    HW228557   1.497   4.736   7.365 -0.1534  0.6280 -0.7640
 5641SOL     OW28558   0.106   2.329   5.291  0.0479 -0.1209 -0.2124
 5641SOL    HW128559   0.070   2.377   5.216 -0.5827 -1.5086 -0.7876
 5641SOL    HW228560   0.116   2.248   5.241 -2.3023 -1.8906  2.1957
 5642SOL     OW28561   4.283   2.000   1.697 -0.1078  0.4589  0.1093
 5642SOL    HW128562   4.317   2.037   1.778 -1.7781 -0.7990  1.4090
 5642SOL    HW228563   4.219   2.065   1.668 -0.2356  0.6374  0.8125
 5643SOL     OW28564   3.084   3.692   0.422 -0.0904 -0.0618  0.0852
 5643SOL    HW128565   3.137   3.737   0.355  1.8587  0.5825  2.0603
 5643SOL    HW228566   3.136   3.612   0.418 -0.5710 -0.3957  0.7056
 5644SOL     OW28567   4.057   3.992  17.608 -0.0204 -0.1822 -0.2365
 5644SOL    HW128568   4.076   4.031  17.694 -0.7777  1.2432 -0.7214
 5644SOL    HW228569   4.142   3.953  17.587  0.6464 -0.2961  2.6373
 5645SOL     OW28570   1.488   1.322  16.294 -0.0443  0.8392 -0.1255
 5645SOL    HW128571   1.566   1.377  16.300 -0.6897  1.9049 -1.4994
 5645SOL    HW228572   1.535   1.239  16.287 -1.5372  0.1222 -1.5216
 5646SOL     OW28573   3.348   1.753   2.214 -0.2245  0.2628  0.6016
 5646SOL    HW128574   3.394   1.805   2.279 -0.8292  0.7171  0.6689
 5646SOL    HW228575   3.284   1.821   2.194  0.0595 -0.0110 -1.3035
 5647SOL     OW28576   3.093   3.841   5.913 -0.6988  0.5678  0.2208
 5647SOL    HW128577   3.128   3.768   5.862  1.1382  0.5436  1.5472
 5647SOL    HW228578   3.007   3.829   5.873  0.3340 -3.1942 -0.8854
 5648SOL     OW28579   3.187   1.538  10.841 -0.1202 -0.2223 -0.4360
 5648SOL    HW128580   3.218   1.492  10.762  0.7546  0.7522 -0.6635
 5648SOL    HW228581   3.253   1.531  10.910 -0.7821 -2.7356 -0.0561
 5649SOL     OW28582   0.642   2.173  17.739  0.4532 -0.3623 -0.1527
 5649SOL    HW128583   0.567   2.233  17.745 -0.7012 -1.6507 -1.8258
 5649SOL    HW228584   0.715   2.223   0.031  0.9019  1.6731 -3.5161
 5650SOL     OW28585   3.931   0.779   0.533  0.4027 -0.3100 -0.3523
 5650SOL    HW128586   3.935   0.757   0.440 -1.2989  0.6201 -0.6518
 5650SOL    HW228587   3.943   0.691   0.569  0.9661 -0.5072 -1.0319
 5651SOL     OW28588   4.556   2.055   6.642 -0.4163 -0.7005 -0.0494
 5651SOL    HW128589   4.588   2.124   6.585  2.3231 -1.9524 -0.0362
 5651SOL    HW228590   4.526   1.993   6.576 -0.9472  0.6734 -1.0830
 5652SOL     OW28591   4.141   4.657   4.714  0.3748  0.0537  0.1914
 5652SOL    HW128592   4.076   4.710   4.759  0.1373 -0.2577  0.2129
 5652SOL    HW228593   4.211   4.722   4.701  0.9986 -0.2065  2.2356
 5653SOL     OW28594   3.145   3.341   1.257  0.4391 -0.4582 -0.0421
 5653SOL    HW128595   3.161   3.262   1.204  0.4039 -0.6360  0.2115
 5653SOL    HW228596   3.060   3.315   1.294  0.3548  1.3818  1.0476
 5654SOL     OW28597   0.943   1.534  17.110  0.0302 -0.2124  0.6519
 5654SOL    HW128598   0.972   1.533  17.019 -2.6689 -0.8197 -0.1874
 5654SOL    HW228599   1.017   1.494  17.155  0.2409 -0.3466  0.1874
 5655SOL     OW28600   2.193   3.076   9.672  0.1772  0.1707  0.0158
 5655SOL    HW128601   2.230   2.989   9.686 -2.0801 -0.6994  0.6416
 5655SOL    HW228602   2.101   3.073   9.644  0.1097 -0.4762  0.3035
 5656SOL     OW28603   0.307   0.999  10.290  0.4972 -0.6557 -0.2491
 5656SOL    HW128604   0.222   1.036  10.313 -0.1354 -0.6806 -2.5583
 5656SOL    HW228605   0.333   0.970  10.378  0.9540 -0.4759 -0.3275
 5657SOL     OW28606   0.271   2.610   4.480  0.4910  0.4291  0.1155
 5657SOL    HW128607   0.297   2.702   4.469  1.0761  0.2096 -0.3265
 5657SOL    HW228608   0.273   2.574   4.392 -0.1572  2.1475 -0.6041
 5658SOL     OW28609   4.562   2.697   4.169  0.2550  0.3313  0.2993
 5658SOL    HW128610   4.655   2.716   4.179  0.8470 -2.7189  0.6439
 5658SOL    HW228611   4.568   2.601   4.162  0.8395  0.3273  0.9531
 5659SOL     OW28612   2.530   1.407   2.192 -0.4548  0.6283 -0.2258
 5659SOL    HW128613   2.580   1.357   2.127  1.4236 -0.4466  2.0634
 5659SOL    HW228614   2.468   1.341   2.221  0.7547 -1.1577 -1.7166
 5660SOL     OW28615   0.020   4.091   0.229  0.2671 -0.1097 -0.0648
 5660SOL    HW128616   4.721   4.151   0.295  1.1848 -0.7434  1.0193
 5660SOL    HW228617   4.721   4.123   0.147  3.5770  1.5065 -0.8893
 5661SOL     OW28618   3.766   2.251  15.658 -0.1931 -0.5339  0.0830
 5661SOL    HW128619   3.851   2.226  15.623 -0.7185 -0.7861 -1.0180
 5661SOL    HW228620   3.763   2.339  15.696  1.9431 -0.1236 -0.7181
 5662SOL     OW28621   0.717   4.650   8.498  0.3294  0.3500  0.1148
 5662SOL    HW128622   0.681   4.630   8.584  0.1639 -2.2754 -0.5545
 5662SOL    HW228623   0.771   4.574   8.478 -0.5875 -0.4786  0.7431
 5663SOL     OW28624   0.728   4.679   6.247  0.3471 -0.1727  0.3847
 5663SOL    HW128625   0.651   4.704   6.197  1.1052 -1.1597 -1.2868
 5663SOL    HW228626   0.720   4.584   6.237 -3.5038  0.0031  1.6478
 5664SOL     OW28627   2.291   4.218   2.510  0.5605  0.0737  0.9065
 5664SOL    HW128628   2.269   4.311   2.517 -1.1319 -0.3945  1.9839
 5664SOL    HW228629   2.336   4.190   2.590 -0.9973 -1.7826  1.1490
 5665SOL     OW28630   0.603   3.051   8.458  0.3128 -0.2725 -0.0491
 5665SOL    HW128631   0.659   3.036   8.534 -1.1707  0.4754  1.1741
 5665SOL    HW228632   0.558   3.134   8.472  1.6858  0.1337  1.8754
 5666SOL     OW28633   2.711   2.140   1.384 -0.6416  0.6768  0.1114
 5666SOL    HW128634   2.649   2.210   1.404 -1.8261 -0.7423  1.3452
 5666SOL    HW228635   2.789   2.191   1.359 -1.6423  2.0898 -0.1283
 5667SOL     OW28636   4.593   2.158   5.478 -0.1466  0.1119 -0.1150
 5667SOL    HW128637   4.632   2.070   5.472 -1.8197 -0.6830  0.4638
 5667SOL    HW228638   4.640   2.207   5.411  2.4288  0.5163  1.9603
 5668SOL     OW28639   4.048   0.915   4.647  0.3660 -0.4682  0.0475
 5668SOL    HW128640   4.105   0.869   4.585  1.2749  3.9656 -2.4214
 5668SOL    HW228641   4.026   0.850   4.714 -1.8587  0.3510  0.1185
 5669SOL     OW28642   4.507   1.792   5.665 -0.2420  0.3477 -0.2512
 5669SOL    HW128643   4.575   1.779   5.731  0.3180 -2.2444 -1.3389
 5669SOL    HW228644   4.470   1.703   5.666 -0.3422  0.3700 -1.8023
 5670SOL     OW28645   2.531   0.136   1.588  0.1507 -0.1736 -0.2520
 5670SOL    HW128646   2.509   0.219   1.545  1.4787 -0.5197 -1.6018
 5670SOL    HW228647   2.618   0.163   1.617 -0.2336  1.6934 -0.8507
 5671SOL     OW28648   3.659   1.686   1.254  0.4230 -0.2839 -0.5005
 5671SOL    HW128649   3.657   1.775   1.291 -0.8242  0.7643 -3.0994
 5671SOL    HW228650   3.722   1.640   1.310 -0.4493 -1.5872 -0.5953
 5672SOL     OW28651   3.294   1.393  12.287  0.0976  0.0924  0.0959
 5672SOL    HW128652   3.223   1.334  12.313  0.3855  0.8188  2.4724
 5672SOL    HW228653   3.290   1.375  12.193  0.8665  0.8224 -0.0695
 5673SOL     OW28654   4.356   1.386   8.017  0.7055  0.5087  0.1855
 5673SOL    HW128655   4.375   1.470   7.975  0.3944  0.7192  0.4699
 5673SOL    HW228656   4.394   1.318   7.961 -3.0020 -0.3032 -1.3660
 5674SOL     OW28657   4.174   2.785   3.274  0.3181  0.1001  1.1082
 5674SOL    HW128658   4.140   2.699   3.251 -0.3711  0.4401  0.8353
 5674SOL    HW228659   4.106   2.843   3.239  1.1616  0.1739 -0.4137
 5675SOL     OW28660   3.129   4.533   2.475  0.3126  0.2401 -0.4777
 5675SOL    HW128661   3.205   4.556   2.422  0.5036 -0.8427 -0.6763
 5675SOL    HW228662   3.145   4.442   2.499  1.7443 -0.0622 -2.5595
 5676SOL     OW28663   3.174   4.632   0.447 -0.1046  0.5689 -0.2158
 5676SOL    HW128664   3.147   4.698   0.511  0.0508 -0.3591  0.8121
 5676SOL    HW228665   3.269   4.643   0.439 -0.0502  0.6074  0.4639
 5677SOL     OW28666   0.338   3.833   3.422 -0.0910  0.1359  0.4378
 5677SOL    HW128667   0.397   3.777   3.474  3.1677  1.6454 -1.6207
 5677SOL    HW228668   0.398   3.884   3.367  0.4497 -1.7926 -0.7473
 5678SOL     OW28669   2.296   1.930  14.156  0.7017 -0.1980 -0.4198
 5678SOL    HW128670   2.273   1.939  14.249  3.0447 -0.4695  0.1820
 5678SOL    HW228671   2.282   2.021  14.130 -2.5909 -1.1926 -2.1156
 5679SOL     OW28672   4.127   2.895   7.982  0.1603  0.0938  0.2544
 5679SOL    HW128673   4.134   2.805   7.950  0.9142  0.4971 -0.7294
 5679SOL    HW228674   4.215   2.932   7.984 -0.0229  0.3662  2.9986
 5680SOL     OW28675   0.092   3.218   7.170 -0.1897  0.1469  0.4876
 5680SOL    HW128676   0.020   3.204   7.109 -0.8137  1.9150  0.8348
 5680SOL    HW228677   0.047   3.275   7.232 -0.1385  1.7282 -0.9262
 5681SOL     OW28678   1.820   3.518  17.458 -0.2007 -0.8622  0.2871
 5681SOL    HW128679   1.871   3.459  17.402 -0.7840 -0.3138 -0.8385
 5681SOL    HW228680   1.796   3.580  17.389 -1.2842  0.0475  1.4937
 5682SOL     OW28681   3.339   1.506   1.461  0.3817  0.1196 -0.2452
 5682SOL    HW128682   3.244   1.518   1.462 -0.0060 -3.0398  1.5790
 5682SOL    HW228683   3.353   1.431   1.404  0.6043  0.1959 -0.2889
 5683SOL     OW28684   2.724   1.772   1.862 -0.1319  0.7167 -0.3380
 5683SOL    HW128685   2.743   1.863   1.882  1.4767  0.1203  0.9345
 5683SOL    HW228686   2.801   1.726   1.897  0.4389  1.7105 -0.3042
 5684SOL     OW28687   3.741   3.502   8.865  0.2410  0.0077 -0.1518
 5684SOL    HW128688   3.788   3.585   8.864  0.8738 -0.3539 -0.3631
 5684SOL    HW228689   3.654   3.530   8.836  0.1818  0.1780  0.1911
 5685SOL     OW28690   0.940   1.946   5.919 -0.5584  0.3613  0.5643
 5685SOL    HW128691   0.894   1.923   5.837  2.0631 -1.9462 -0.2517
 5685SOL    HW228692   1.029   1.971   5.897 -0.8467  1.1104  0.2611
 5686SOL     OW28693   0.179   4.182   3.897 -0.3605 -0.5535 -0.5403
 5686SOL    HW128694   0.143   4.185   3.986  0.6827 -1.0406 -0.1101
 5686SOL    HW228695   0.239   4.111   3.920  0.4960  0.5956  0.7982
 5687SOL     OW28696   0.059   0.331   5.829  0.6275  0.7360  0.5409
 5687SOL    HW128697   0.071   0.356   5.921  2.2863  0.1932  0.4669
 5687SOL    HW228698   4.705   0.354   5.813  0.4124  0.8234  1.8432
 5688SOL     OW28699   4.200   4.252   1.090 -0.3775 -0.4320 -0.2438
 5688SOL    HW128700   4.171   4.161   1.083 -2.5968  0.1428  1.4498
 5688SOL    HW228701   4.119   4.302   1.080 -0.8263 -1.1628 -0.3233
 5689SOL     OW28702   1.127   1.885   6.768 -0.3465 -0.0520  0.3870
 5689SOL    HW128703   1.107   1.977   6.786 -0.0822  0.5485 -2.3174
 5689SOL    HW228704   1.043   1.840   6.768  0.2482 -1.1696 -0.5775
 5690SOL     OW28705   0.532   1.519   9.968 -0.5152  0.1541 -0.0990
 5690SOL    HW128706   0.533   1.544  10.061 -0.1609  1.5955 -0.4964
 5690SOL    HW228707   0.524   1.599   9.916 -3.7874 -0.6368 -0.8297
 5691SOL     OW28708   4.203   3.296  16.045 -0.4501 -0.3345  0.1024
 5691SOL    HW128709   4.270   3.353  16.084 -1.8760  0.8144  0.8589
 5691SOL    HW228710   4.241   3.299  15.957 -0.1589 -2.0771  0.1616
 5692SOL     OW28711   0.460   4.266   7.753 -1.1191  0.2362  0.2427
 5692SOL    HW128712   0.513   4.344   7.767  2.2403 -1.8804 -0.6477
 5692SOL    HW228713   0.499   4.228   7.674  1.4921  3.5271 -0.0656
 5693SOL     OW28714   2.903   1.879   3.860 -0.0413 -0.5302  0.3335
 5693SOL    HW128715   2.896   1.948   3.795  1.9763  1.7314  2.5075
 5693SOL    HW228716   2.999   1.871   3.864  0.0295  0.0162 -0.2945
 5694SOL     OW28717   0.245   3.219   3.128 -0.7144 -0.6241 -0.3597
 5694SOL    HW128718   0.258   3.131   3.163  3.2393  0.0972 -0.0086
 5694SOL    HW228719   0.317   3.266   3.168  0.2023 -1.0539 -1.5035
 5695SOL     OW28720   2.710   3.537   2.818  0.7133 -0.1845 -0.5558
 5695SOL    HW128721   2.787   3.569   2.771  1.4811  1.7005  2.0094
 5695SOL    HW228722   2.652   3.505   2.749 -1.7488  1.1055  0.9391
 5696SOL     OW28723   3.794   0.576   6.502 -0.3343  0.4767 -0.5459
 5696SOL    HW128724   3.871   0.555   6.554 -0.5959  1.1080  0.0987
 5696SOL    HW228725   3.727   0.590   6.570  0.3857  1.7001 -0.0781
 5697SOL     OW28726   1.053   2.047  10.186  0.2456  0.4725 -0.7584
 5697SOL    HW128727   1.058   2.127  10.133 -0.1933  0.0598 -1.4394
 5697SOL    HW228728   1.076   1.985  10.117 -0.6985 -0.5969 -0.0987
 5698SOL     OW28729   1.521   2.469   5.120  0.4905 -0.0912 -0.1010
 5698SOL    HW128730   1.440   2.517   5.137  0.3748  0.1146 -1.1946
 5698SOL    HW228731   1.517   2.415   5.199 -2.1595 -1.1730 -0.9634
 5699SOL     OW28732   1.682   3.050   4.805  0.1348  0.3788 -0.0502
 5699SOL    HW128733   1.727   3.031   4.723  0.3302  1.2736 -0.1504
 5699SOL    HW228734   1.760   3.047   4.860  0.2106 -2.0830 -0.2890
 5700SOL     OW28735   2.580   0.761  14.130  0.4141  0.6513 -0.0834
 5700SOL    HW128736   2.521   0.835  14.143  0.9440  1.0077  0.3029
 5700SOL    HW228737   2.527   0.688  14.162 -1.1569  1.7561 -0.1238
 5701SOL     OW28738   1.004   0.423  15.141 -0.5400 -0.9211  0.1144
 5701SOL    HW128739   1.098   0.444  15.140 -0.3029 -1.9287  2.3979
 5701SOL    HW228740   1.004   0.331  15.169 -1.6477 -1.4850 -1.7507
 5702SOL     OW28741   0.912   4.189   8.243  0.2498 -0.1178 -0.0812
 5702SOL    HW128742   0.991   4.220   8.286  0.2572 -1.1218  0.6428
 5702SOL    HW228743   0.937   4.174   8.152  0.1574  0.6382 -0.2302
 5703SOL     OW28744   2.973   3.332   2.709  0.4536 -0.0958 -0.4716
 5703SOL    HW128745   2.926   3.412   2.683  0.4612 -0.7343 -2.4195
 5703SOL    HW228746   3.033   3.371   2.772 -0.8451  0.1755  0.6068
 5704SOL     OW28747   4.092   0.029   3.921 -0.2211  0.6912  0.2888
 5704SOL    HW128748   4.148   4.696   3.955 -0.2377  0.6121  0.1523
 5704SOL    HW228749   4.145   0.054   3.845 -1.4967  1.5073 -0.3175
 5705SOL     OW28750   3.756   2.617   4.562  0.4118  0.7078 -0.2279
 5705SOL    HW128751   3.787   2.630   4.652 -2.5067 -0.1126  0.8888
 5705SOL    HW228752   3.801   2.536   4.538 -2.6720 -1.5852  1.7351
 5706SOL     OW28753   2.717   3.134   2.478  0.2298  0.0630 -0.3753
 5706SOL    HW128754   2.803   3.092   2.470  0.3469  0.6206 -2.0992
 5706SOL    HW228755   2.703   3.150   2.385  0.0967  2.0945 -0.0080
 5707SOL     OW28756   1.966   1.539   1.984  0.0699 -0.0782  0.2363
 5707SOL    HW128757   2.044   1.528   2.037  0.6709  2.4743 -0.1016
 5707SOL    HW228758   1.910   1.561   2.058  0.4427 -1.4463  0.9332
 5708SOL     OW28759   0.261   3.276  12.916 -0.3777 -0.0142 -0.3166
 5708SOL    HW128760   0.180   3.227  12.909 -1.2918  1.4755 -0.1020
 5708SOL    HW228761   0.293   3.269  12.825  0.0901  2.4082 -0.3334
 5709SOL     OW28762   1.924   1.215  10.934  0.4017 -0.0610 -0.4779
 5709SOL    HW128763   1.878   1.186  11.013 -1.7139  4.3449 -0.0718
 5709SOL    HW228764   1.960   1.136  10.894  0.2170  0.7203 -2.1959
 5710SOL     OW28765   3.232   2.602  15.736  0.4683 -0.3234  0.3559
 5710SOL    HW128766   3.309   2.642  15.777  1.2474  0.3359 -1.7405
 5710SOL    HW228767   3.219   2.672  15.671  0.4864  1.3699  2.1616
 5711SOL     OW28768   3.637   2.447  14.627  0.2671 -0.0088 -0.7941
 5711SOL    HW128769   3.557   2.411  14.663  0.4504 -0.2979 -0.6759
 5711SOL    HW228770   3.673   2.506  14.694 -1.3570 -1.6339  1.5251
 5712SOL     OW28771   2.293   3.356   9.696 -0.1790 -0.0068  0.8612
 5712SOL    HW128772   2.375   3.338   9.648 -0.6809  0.5436 -0.2039
 5712SOL    HW228773   2.259   3.267   9.699 -1.7080  0.6170  1.6874
 5713SOL     OW28774   3.373   1.154  16.421  0.5306 -0.4109  0.1586
 5713SOL    HW128775   3.455   1.107  16.407 -0.3057 -2.5605  2.5285
 5713SOL    HW228776   3.409   1.232  16.464  0.7275 -0.7451  0.5928
 5714SOL     OW28777   1.339   3.661   8.885  0.1130 -0.2735  0.3862
 5714SOL    HW128778   1.297   3.639   8.802 -0.2222 -1.0597  0.7650
 5714SOL    HW228779   1.344   3.579   8.934  2.2919 -0.5091 -0.2380
 5715SOL     OW28780   1.487   0.461   9.731  0.4382 -0.5258  0.2500
 5715SOL    HW128781   1.471   0.509   9.649  2.1303  0.6231  0.6000
 5715SOL    HW228782   1.539   0.520   9.785  0.0070  1.3054 -1.3314
 5716SOL     OW28783   0.960   1.506  16.525 -1.0040  0.2940 -0.4363
 5716SOL    HW128784   0.866   1.505  16.545 -0.5551 -0.2783  1.5917
 5716SOL    HW228785   0.965   1.438  16.458 -2.5874  1.2695 -1.5542
 5717SOL     OW28786   0.187   0.623   9.224  0.0869 -0.0879  0.0108
 5717SOL    HW128787   0.223   0.653   9.308  1.1109 -1.4165  0.0504
 5717SOL    HW228788   0.267   0.575   9.204  1.2362  1.0555  1.8889
 5718SOL     OW28789   2.859   0.511   5.908 -0.0885 -0.5718 -0.5842
 5718SOL    HW128790   2.943   0.517   5.954 -1.1036  4.4760  0.5931
 5718SOL    HW228791   2.884   0.538   5.820  1.9380 -1.2555 -0.2175
 5719SOL     OW28792   1.345   2.266   6.054  0.4973 -0.1984 -0.1206
 5719SOL    HW128793   1.260   2.298   6.085  1.4634  1.5315  0.7504
 5719SOL    HW228794   1.365   2.195   6.115  2.8704  0.3840 -0.2284
 5720SOL     OW28795   1.811   0.670  10.090  0.0487 -0.1734  0.0114
 5720SOL    HW128796   1.847   0.686  10.177 -1.7256 -3.4652  1.3217
 5720SOL    HW228797   1.836   0.756  10.054 -1.8459  0.2377 -0.2953
 5721SOL     OW28798   1.054   2.448   2.966 -0.4641  0.3274 -0.1092
 5721SOL    HW128799   1.049   2.541   2.989  0.7370  0.9089 -2.2738
 5721SOL    HW228800   1.074   2.408   3.051  1.4802 -2.2058 -1.7550
 5722SOL     OW28801   2.524   4.162   1.992  0.0455  0.9798 -0.3606
 5722SOL    HW128802   2.488   4.224   1.929 -0.8921 -0.0683 -0.8542
 5722SOL    HW228803   2.444   4.142   2.040  2.4029 -2.3708  2.1944
 5723SOL     OW28804   2.996   2.510   5.873  0.7703 -0.3717  0.3481
 5723SOL    HW128805   2.983   2.579   5.808 -2.5334  0.7770  2.2553
 5723SOL    HW228806   2.994   2.566   5.951  0.7411 -0.5082  0.4450
 5724SOL     OW28807   2.235   1.137  10.040 -0.5242 -0.2032 -0.2434
 5724SOL    HW128808   2.290   1.089   9.978 -1.4391  0.8845 -1.8927
 5724SOL    HW228809   2.219   1.070  10.106  0.1073 -0.0763  0.0409
 5725SOL     OW28810   0.047   3.370   5.045  0.0342 -0.3640 -0.1184
 5725SOL    HW128811   0.079   3.458   5.025 -1.9560  0.1958 -0.8610
 5725SOL    HW228812   0.016   3.385   5.134  2.0968  0.9696  0.3701
 5726SOL     OW28813   0.822   1.821   6.108  0.3024  0.6924 -0.2235
 5726SOL    HW128814   0.867   1.892   6.062  0.4716  0.7834  0.0850
 5726SOL    HW228815   0.898   1.777   6.146 -0.9604 -1.4494 -0.1565
 5727SOL     OW28816   1.880   0.207   9.744 -0.4334 -0.3579  0.3661
 5727SOL    HW128817   1.861   0.128   9.693  0.3021  1.8174 -3.2527
 5727SOL    HW228818   1.975   0.206   9.758 -0.4735 -3.0222  0.6071
 5728SOL     OW28819   3.334   0.852   4.929 -0.1558 -0.1106 -0.1151
 5728SOL    HW128820   3.244   0.855   4.960 -0.3099 -2.5176 -0.3185
 5728SOL    HW228821   3.383   0.784   4.976 -1.0189  0.5553  1.7584
 5729SOL     OW28822   1.984   4.645   1.928  0.0599  0.2157 -0.1803
 5729SOL    HW128823   1.894   4.659   1.898 -0.1330  0.7310  0.6336
 5729SOL    HW228824   2.034   4.718   1.893 -0.6871  0.8796  0.1296
 5730SOL     OW28825   1.068   4.630   5.058  0.4266  0.1174 -0.2033
 5730SOL    HW128826   1.119   4.576   4.998  2.1165 -0.9992  2.2318
 5730SOL    HW228827   1.088   4.587   5.142 -0.3888  0.3380  0.1024
 5731SOL     OW28828   3.104   0.576   8.103 -0.4765  0.1204 -0.0503
 5731SOL    HW128829   3.061   0.610   8.024 -1.0009 -1.0869 -0.2738
 5731SOL    HW228830   3.151   0.655   8.130  0.0187 -0.1653 -0.0625
 5732SOL     OW28831   4.104   2.952   1.971 -0.0869  0.3656  0.3578
 5732SOL    HW128832   4.028   2.997   1.934  0.8599  2.1523  0.5703
 5732SOL    HW228833   4.097   2.977   2.063 -2.3584  2.3929 -0.3834
 5733SOL     OW28834   1.699   1.296  15.995 -0.2710  0.3293  0.4772
 5733SOL    HW128835   1.663   1.380  15.964 -0.0447  0.2534  0.0069
 5733SOL    HW228836   1.753   1.264  15.923 -0.9755  0.5242 -0.1463
 5734SOL     OW28837   1.301   3.771   3.207  0.1080  0.6693 -0.4113
 5734SOL    HW128838   1.286   3.784   3.300  0.3883  0.4278 -0.3307
 5734SOL    HW228839   1.313   3.864   3.187 -0.7490  0.4506 -1.9324
 5735SOL     OW28840   4.517   0.596   3.026 -0.4049 -0.2279  0.4074
 5735SOL    HW128841   4.426   0.614   3.053 -1.0870 -1.5792 -1.0209
 5735SOL    HW228842   4.560   0.669   3.069 -1.7794  0.4645  0.6236
 5736SOL     OW28843   0.681   3.643   6.599 -0.0315 -0.2699 -0.1451
 5736SOL    HW128844   0.601   3.601   6.631 -1.0238  0.7167 -1.3233
 5736SOL    HW228845   0.652   3.677   6.514 -1.1526 -3.9736 -1.2205
 5737SOL     OW28846   0.995   4.652   3.105 -0.0674 -0.5255 -0.2700
 5737SOL    HW128847   1.028   4.615   3.187  1.7295  0.2042 -0.6546
 5737SOL    HW228848   1.051   4.729   3.096  1.0690 -1.3281 -0.0584
 5738SOL     OW28849   2.064   0.727   0.284 -0.1677  0.4577  0.6388
 5738SOL    HW128850   2.112   0.797   0.240  0.7001  0.3796  1.4550
 5738SOL    HW228851   2.120   0.653   0.263  1.2814  1.8347 -0.3779
 5739SOL     OW28852   4.357   0.856  13.451  0.0394  0.1577  0.1922
 5739SOL    HW128853   4.419   0.813  13.510 -1.4441 -0.5576  1.2460
 5739SOL    HW228854   4.395   0.833  13.366  0.3556  1.8844 -0.1345
 5740SOL     OW28855   1.244   2.526   1.973  0.6580 -0.1674  0.0346
 5740SOL    HW128856   1.308   2.530   2.043  1.1939 -1.4283 -0.3809
 5740SOL    HW228857   1.288   2.497   1.892  0.9166  3.4945 -1.1115
 5741SOL     OW28858   4.671   1.385  10.987  0.0746  0.2474 -0.4329
 5741SOL    HW128859   4.698   1.454  11.048  2.6798  0.7294 -2.1282
 5741SOL    HW228860   4.643   1.313  11.044 -0.0102  1.6499  1.3306
 5742SOL     OW28861   1.323   0.089   7.679  0.0975  0.0323  0.6969
 5742SOL    HW128862   1.339   0.162   7.619 -0.9801 -2.0123 -2.1102
 5742SOL    HW228863   1.250   0.123   7.731  0.6429  3.9053 -1.0445
 5743SOL     OW28864   1.243   4.026   8.829  0.1788 -0.1586  0.0122
 5743SOL    HW128865   1.306   3.977   8.883  0.5197 -1.2705 -1.3736
 5743SOL    HW228866   1.236   3.968   8.753  1.1201  1.1809 -1.0810
 5744SOL     OW28867   1.358   4.608  11.149  0.4800  0.2745 -0.2438
 5744SOL    HW128868   1.446   4.583  11.175  0.8097  0.8787 -0.7757
 5744SOL    HW228869   1.327   4.660  11.223  0.6759 -1.1411  0.8317
 5745SOL     OW28870   2.362   4.575   5.227  0.3773 -0.6786  0.4166
 5745SOL    HW128871   2.439   4.580   5.284  1.5109  0.4240 -1.2178
 5745SOL    HW228872   2.318   4.499   5.265 -0.2332 -0.4529  0.1588
 5746SOL     OW28873   2.346   0.424   7.826  0.3244  0.2756  0.2769
 5746SOL    HW128874   2.372   0.450   7.914  0.8895 -2.4048  0.8961
 5746SOL    HW228875   2.278   0.362   7.852  0.1804  1.2386  2.1637
 5747SOL     OW28876   2.480   4.152  12.891  0.1215 -0.5246 -0.7055
 5747SOL    HW128877   2.485   4.238  12.849  2.8615 -1.0130 -1.3694
 5747SOL    HW228878   2.411   4.106  12.845 -2.4120  1.1708  1.3909
 5748SOL     OW28879   0.774   1.345  11.436 -0.0721 -0.1122 -0.4866
 5748SOL    HW128880   0.849   1.359  11.379  1.4762 -1.5771  1.1528
 5748SOL    HW228881   0.721   1.418  11.407 -1.0740  0.3110  2.3559
 5749SOL     OW28882   0.062   3.174   7.693  0.5585  0.0535  0.4685
 5749SOL    HW128883   0.100   3.231   7.626  1.4501 -0.1071  0.8318
 5749SOL    HW228884   0.077   3.230   7.770 -1.7738 -0.7189  1.4910
 5750SOL     OW28885   0.335   0.827   5.405  0.6796 -0.0611 -0.2008
 5750SOL    HW128886   0.256   0.870   5.437  1.3166  0.4639  0.6448
 5750SOL    HW228887   0.333   0.860   5.315 -1.1368 -0.3249 -0.2559
 5751SOL     OW28888   3.211   0.209   3.881 -0.5950 -0.1663  0.4346
 5751SOL    HW128889   3.261   0.272   3.934 -0.8779  0.5264 -0.1235
 5751SOL    HW228890   3.192   0.137   3.941 -1.7179  0.4556  0.8244
 5752SOL     OW28891   3.421   2.511   7.065 -0.4068 -0.2343 -0.3514
 5752SOL    HW128892   3.384   2.506   6.977 -1.7109 -0.0967  0.1888
 5752SOL    HW228893   3.444   2.604   7.073  2.8731 -1.1040  0.4250
 5753SOL     OW28894   2.480   0.491   3.154  0.1179  0.0951  0.0511
 5753SOL    HW128895   2.437   0.576   3.161 -0.5157 -0.2497  0.3390
 5753SOL    HW228896   2.418   0.442   3.209  0.0699  0.5071  0.3612
 5754SOL     OW28897   2.099   0.625   9.942  0.4847  0.3322  0.3742
 5754SOL    HW128898   2.020   0.580   9.971  1.1367 -0.4506  0.9265
 5754SOL    HW228899   2.102   0.697  10.006 -1.1125 -0.0076  0.8169
 5755SOL     OW28900   2.573   0.534   6.908 -0.5428  0.2410  0.9577
 5755SOL    HW128901   2.553   0.468   6.975  1.4709 -1.1216  0.2305
 5755SOL    HW228902   2.666   0.536   6.931  0.1693  0.5048 -2.0390
 5756SOL     OW28903   2.829   3.900   6.721  0.2475 -0.0208 -0.6969
 5756SOL    HW128904   2.793   3.970   6.776 -0.4676  0.0208 -1.2126
 5756SOL    HW228905   2.748   3.863   6.685  0.9546 -1.2692 -0.9979
 5757SOL     OW28906   1.228   1.255  12.699 -0.1838 -0.0789 -0.3628
 5757SOL    HW128907   1.263   1.221  12.782  2.1797  0.7144 -1.0327
 5757SOL    HW228908   1.169   1.180  12.690 -0.6354  0.6656 -3.3891
 5758SOL     OW28909   1.216   1.224  16.720  0.4469 -0.5956  0.2735
 5758SOL    HW128910   1.245   1.134  16.734  0.0874 -0.9562 -1.2795
 5758SOL    HW228911   1.228   1.231  16.625  1.4156  1.6183  0.5795
 5759SOL     OW28912   1.034   2.286   8.995  0.0607 -0.0507 -0.3678
 5759SOL    HW128913   1.007   2.199   8.965 -0.8103 -1.1931  3.7091
 5759SOL    HW228914   1.014   2.271   9.088  1.1088 -1.3523 -0.3489
 5760SOL     OW28915   2.608   1.729   3.207  0.6773 -0.2803  0.2117
 5760SOL    HW128916   2.611   1.666   3.278 -0.6920  0.4799  0.9569
 5760SOL    HW228917   2.516   1.758   3.208  1.2029  1.5017 -1.0043
 5761SOL     OW28918   3.499   0.463  13.928  0.2966  0.1329 -0.0921
 5761SOL    HW128919   3.527   0.519  14.000  2.7829 -0.9352 -0.2047
 5761SOL    HW228920   3.447   0.524  13.875 -1.1295  0.4473  1.6760
 5762SOL     OW28921   1.623   4.121   3.486 -0.2220  0.9918  0.5113
 5762SOL    HW128922   1.633   4.084   3.573  0.5280  0.7817  0.3355
 5762SOL    HW228923   1.546   4.176   3.502 -0.2507  0.8128  0.9617
 5763SOL     OW28924   1.729   2.285  14.922 -0.8784 -0.2061 -0.2500
 5763SOL    HW128925   1.666   2.317  14.857  1.0195  2.3915 -0.8079
 5763SOL    HW228926   1.720   2.344  14.997 -0.2986 -0.2373 -0.1557
 5764SOL     OW28927   2.868   3.123   7.811 -0.4477 -0.1985  0.1444
 5764SOL    HW128928   2.802   3.058   7.831  1.3790 -1.4153  2.1647
 5764SOL    HW228929   2.899   3.088   7.727 -0.4876 -3.2074  1.4051
 5765SOL     OW28930   1.714   2.581   8.870  0.2852  0.0436 -0.3975
 5765SOL    HW128931   1.740   2.655   8.815 -0.7023  0.7748  0.1284
 5765SOL    HW228932   1.714   2.622   8.957 -0.6576  0.5698 -0.6543
 5766SOL     OW28933   3.820   0.349   5.466  0.6749 -0.4303  0.0579
 5766SOL    HW128934   3.902   0.365   5.513  0.3963 -0.3273  0.5095
 5766SOL    HW228935   3.822   0.255   5.448 -0.5963 -0.3337 -0.6055
 5767SOL     OW28936   3.464   0.657   5.058 -0.0459 -0.2963 -0.7068
 5767SOL    HW128937   3.548   0.677   5.018  0.1618 -1.3733 -0.8090
 5767SOL    HW228938   3.479   0.665   5.152 -1.4277  0.5207 -0.5530
 5768SOL     OW28939   4.068   1.369  12.614 -0.1027  0.4027  0.7743
 5768SOL    HW128940   4.025   1.332  12.692 -1.9617 -0.9277 -0.8936
 5768SOL    HW228941   4.143   1.407  12.660  0.9405 -0.8425  0.0688
 5769SOL     OW28942   3.346   0.607   6.514  0.8242  0.0380 -0.0960
 5769SOL    HW128943   3.328   0.699   6.530  1.3401  0.0189  0.5763
 5769SOL    HW228944   3.435   0.594   6.547  0.4668  2.1927  1.6692
 5770SOL     OW28945   3.044   4.480  15.773 -0.5090  0.4942 -0.4234
 5770SOL    HW128946   2.978   4.549  15.781 -0.8419 -0.1092  2.3390
 5770SOL    HW228947   3.073   4.489  15.683 -1.1465  3.0152 -0.3775
 5771SOL     OW28948   2.985   2.550   7.524  0.5352  0.3753 -0.4549
 5771SOL    HW128949   3.075   2.529   7.498  0.2678 -1.3724  0.0651
 5771SOL    HW228950   2.997   2.618   7.590 -0.0407 -1.7838  1.8678
 5772SOL     OW28951   0.925   2.470   5.018  0.2017  0.0081  0.1309
 5772SOL    HW128952   0.881   2.423   4.947 -0.0017  0.3811  0.0115
 5772SOL    HW228953   1.013   2.435   5.008  1.1439  2.1944  0.8943
 5773SOL     OW28954   3.003   3.096   2.600 -0.1437  0.4764 -0.0019
 5773SOL    HW128955   2.972   3.178   2.639  0.5778  2.1362 -2.9070
 5773SOL    HW228956   3.095   3.104   2.623 -0.2487 -2.9675  1.5082
 5774SOL     OW28957   0.598   3.370   6.986 -0.3194 -0.0084 -0.0838
 5774SOL    HW128958   0.504   3.361   6.973 -0.2367  0.0865 -0.7654
 5774SOL    HW228959   0.611   3.464   6.999 -1.6439 -0.0523  1.4928
 5775SOL     OW28960   4.333   2.893   4.910 -0.3460  0.5801  0.0631
 5775SOL    HW128961   4.261   2.953   4.927 -1.3847 -0.9367  0.9978
 5775SOL    HW228962   4.405   2.925   4.965 -1.6909  0.9971  1.5810
 5776SOL     OW28963   0.015   1.894   2.694  0.3691  0.3680  0.0785
 5776SOL    HW128964   0.053   1.975   2.660  0.7226  0.3876  0.5137
 5776SOL    HW228965   4.706   1.857   2.618  1.3605  1.7649 -1.2083
 5777SOL     OW28966   3.536   3.179   5.382 -0.7763  0.4399  0.3793
 5777SOL    HW128967   3.506   3.112   5.443  1.7053 -2.4323 -1.5394
 5777SOL    HW228968   3.600   3.232   5.429  2.4613 -2.5155 -0.7196
 5778SOL     OW28969   2.349   1.202   8.940  0.0664  0.7271  0.3166
 5778SOL    HW128970   2.269   1.254   8.943 -1.3978 -1.3341 -3.1189
 5778SOL    HW228971   2.316   1.127   8.988  2.3135 -0.9044 -0.6555
 5779SOL     OW28972   3.919   2.040   7.254 -0.3675  0.5873 -0.2378
 5779SOL    HW128973   3.912   2.037   7.158 -1.0453 -0.2781 -0.1588
 5779SOL    HW228974   3.868   1.968   7.290  0.1045  0.2977 -0.1427
 5780SOL     OW28975   2.163   0.621  11.535  0.4594  0.3854 -0.0757
 5780SOL    HW128976   2.162   0.569  11.454 -1.0656  2.5242 -1.4295
 5780SOL    HW228977   2.169   0.554  11.603 -1.9898  2.2291  1.9267
 5781SOL     OW28978   4.120   4.509  13.489 -0.3117  0.4492  0.1783
 5781SOL    HW128979   4.134   4.500  13.583 -0.5156 -0.2659  0.1369
 5781SOL    HW228980   4.109   4.604  13.485  1.9330  0.7652  1.5801
 5782SOL     OW28981   0.667   0.261   6.284  0.2997 -0.1657  0.0889
 5782SOL    HW128982   0.605   0.332   6.303 -0.8812 -0.9954 -0.7143
 5782SOL    HW228983   0.618   0.203   6.226 -1.3153  0.2519  1.0123
 5783SOL     OW28984   4.057   1.618   2.052  0.2798  1.0516 -0.4402
 5783SOL    HW128985   4.042   1.663   1.969  1.2360  0.9362 -0.6848
 5783SOL    HW228986   4.131   1.670   2.083 -0.4086  0.7608  1.6618
 5784SOL     OW28987   0.155   3.490  12.638  0.3220  0.0285 -0.3267
 5784SOL    HW128988   0.196   3.487  12.724 -1.2902 -1.4308  0.4058
 5784SOL    HW228989   0.140   3.584  12.644  2.4650  0.3436 -0.0354
 5785SOL     OW28990   4.446   3.527   1.643 -0.3023 -0.2458  0.6479
 5785SOL    HW128991   4.386   3.485   1.580 -1.0799 -0.7188  1.6936
 5785SOL    HW228992   4.437   3.477   1.725 -0.3365 -0.5333  0.4703
 5786SOL     OW28993   4.245   3.978   8.802 -0.1689  0.0895  0.0641
 5786SOL    HW128994   4.340   3.968   8.796 -0.3626 -1.3324 -0.6288
 5786SOL    HW228995   4.225   3.885   8.791 -2.5180  0.5688  0.2827
 5787SOL     OW28996   3.602   0.055   7.712 -0.1086 -0.1897  0.1714
 5787SOL    HW128997   3.607   4.728   7.783  1.2820 -0.6122 -0.3147
 5787SOL    HW228998   3.694   0.046   7.685  0.4260 -0.8758  2.1952
 5788SOL     OW28999   0.443   0.646   9.520 -0.5764 -0.3406  0.8987
 5788SOL    HW129000   0.426   0.667   9.611  1.1226  0.4901  1.0355
 5788SOL    HW229001   0.367   0.680   9.473 -0.9396 -2.2935  0.0783
 5789SOL     OW29002   0.479   2.099   6.090 -0.3169  0.1667 -0.3510
 5789SOL    HW129003   0.467   2.022   6.145  1.5438  0.8455  0.9984
 5789SOL    HW229004   0.413   2.091   6.021 -0.3890 -0.5794 -0.1947
 5790SOL     OW29005   1.309   1.184   0.405  0.2780 -0.1154  0.4072
 5790SOL    HW129006   1.373   1.220   0.344  0.5595 -0.6064  0.4154
 5790SOL    HW229007   1.361   1.122   0.456 -0.1575 -0.4017  0.5026
 5791SOL     OW29008   0.854   3.195   2.603  0.1574 -0.1754  0.4215
 5791SOL    HW129009   0.778   3.138   2.614  0.0233 -0.5262 -2.2236
 5791SOL    HW229010   0.925   3.150   2.648  0.7793  1.6852  1.3220
 5792SOL     OW29011   3.484   4.574   1.943  0.3940 -0.9502  0.0358
 5792SOL    HW129012   3.500   4.641   2.010  0.3854 -0.6313 -0.2785
 5792SOL    HW229013   3.459   4.625   1.865  1.1412 -1.3791 -0.4804
 5793SOL     OW29014   3.792   0.590   8.347 -0.4559  0.1139  0.3072
 5793SOL    HW129015   3.834   0.670   8.314  0.3937 -0.2262  0.5781
 5793SOL    HW229016   3.763   0.548   8.266  1.0810 -1.2150  0.4648
 5794SOL     OW29017   4.648   0.734   2.488 -0.2010  0.0109 -0.0391
 5794SOL    HW129018   4.603   0.677   2.426  0.2991  0.9234 -1.2392
 5794SOL    HW229019   4.634   0.822   2.452 -1.1958  0.7922  2.2493
 5795SOL     OW29020   0.019   0.804   4.097  0.1325  0.2146  0.0197
 5795SOL    HW129021   0.092   0.838   4.046 -0.4835  2.0636  0.3695
 5795SOL    HW229022   0.054   0.802   4.186 -0.8253 -0.9898  0.3641
 5796SOL     OW29023   2.429   0.522  10.194  0.0972  0.8180 -0.1129
 5796SOL    HW129024   2.416   0.429  10.174 -1.6230  1.0142  0.1705
 5796SOL    HW229025   2.482   0.522  10.273 -1.4949 -1.1819  0.9446
 5797SOL     OW29026   1.338   3.352  12.747  0.4852  0.1362 -0.4292
 5797SOL    HW129027   1.324   3.409  12.671 -0.0401  1.0708  0.3675
 5797SOL    HW229028   1.424   3.316  12.729  0.6111 -0.2285  0.9261
 5798SOL     OW29029   1.867   2.308   3.895 -0.1703  0.6805  0.6191
 5798SOL    HW129030   1.918   2.372   3.945  0.9629  0.7652 -0.6697
 5798SOL    HW229031   1.888   2.326   3.803 -2.1086 -0.0322  0.0350
 5799SOL     OW29032   1.243   1.705   6.051  0.4025  0.2841  0.0626
 5799SOL    HW129033   1.283   1.754   5.979 -1.1980  0.7708 -0.4918
 5799SOL    HW229034   1.320   1.656   6.081  1.2484  0.7161 -1.4129
 5800SOL     OW29035   1.894   4.108  15.252  0.0745  0.1044 -0.1385
 5800SOL    HW129036   1.950   4.183  15.231  1.4812  0.1433  3.6997
 5800SOL    HW229037   1.896   4.063  15.168  1.4026 -0.0864 -0.0097
 5801SOL     OW29038   4.054   1.538   5.137 -0.1641  0.0043 -0.1639
 5801SOL    HW129039   4.036   1.632   5.143 -1.0872 -0.0531 -2.2447
 5801SOL    HW229040   4.095   1.523   5.222  2.7999 -2.3898 -1.9698
 5802SOL     OW29041   0.741   3.859   3.883 -0.0232  0.5485 -0.1267
 5802SOL    HW129042   0.646   3.850   3.879  0.2006 -1.4105 -1.2945
 5802SOL    HW229043   0.763   3.807   3.960 -1.1156  1.6142  0.8780
 5803SOL     OW29044   4.173   4.547   8.291  0.0269  0.3927  0.1205
 5803SOL    HW129045   4.249   4.492   8.307 -0.7650 -0.2497  1.7301
 5803SOL    HW229046   4.188   4.562   8.197 -2.0302 -1.9665 -0.6057
 5804SOL     OW29047   0.862   2.183  15.093  0.2431  0.0593  0.0052
 5804SOL    HW129048   0.906   2.110  15.050 -0.1940  0.3630 -0.9621
 5804SOL    HW229049   0.903   2.181  15.179 -1.0103 -0.4175  0.5937
 5805SOL     OW29050   2.671   2.935   4.277 -0.1857 -0.2628 -0.0529
 5805SOL    HW129051   2.663   3.019   4.233 -2.0333  0.1678  1.0956
 5805SOL    HW229052   2.752   2.902   4.238 -0.7603  0.0536 -1.4918
 5806SOL     OW29053   3.528   2.648   8.673  0.0657  0.4731  0.4577
 5806SOL    HW129054   3.447   2.616   8.632  1.0050 -2.1741  0.6396
 5806SOL    HW229055   3.555   2.711   8.606  0.7272  1.4812  1.6694
 5807SOL     OW29056   4.195   4.366  17.720 -0.0305 -0.1935 -0.5021
 5807SOL    HW129057   4.126   4.394  17.659 -3.1719 -0.6052  2.9091
 5807SOL    HW229058   4.245   4.446  17.735  0.3297 -0.5374  0.1099
 5808SOL     OW29059   1.322   4.492   8.821 -0.5949 -0.1612 -0.1770
 5808SOL    HW129060   1.267   4.570   8.814 -0.1610  0.1576  0.0030
 5808SOL    HW229061   1.403   4.536   8.796 -0.6385 -0.1176 -0.2404
 5809SOL     OW29062   1.407   0.125   3.406  0.2860  0.1577  0.0885
 5809SOL    HW129063   1.456   0.069   3.346  1.8370  2.1658 -0.5463
 5809SOL    HW229064   1.461   0.205   3.401  0.3413  0.1246  0.1594
 5810SOL     OW29065   2.744   0.818  15.368  0.4168 -0.4830  0.3430
 5810SOL    HW129066   2.660   0.861  15.380  0.3906 -0.6668  0.8105
 5810SOL    HW229067   2.749   0.774  15.452 -0.3374 -0.5395  0.3610
 5811SOL     OW29068   1.117   3.609  16.290 -0.2264 -0.9132 -0.0979
 5811SOL    HW129069   1.181   3.587  16.357  0.2983 -0.3700 -0.4271
 5811SOL    HW229070   1.087   3.520  16.269 -2.9312  0.9145 -3.8747
 5812SOL     OW29071   0.165   0.333  13.738  0.1044  0.4711 -0.0110
 5812SOL    HW129072   0.200   0.301  13.655 -0.9718 -1.0939  0.1331
 5812SOL    HW229073   0.201   0.273  13.803  0.5025 -1.2353 -1.8145
 5813SOL     OW29074   0.057   3.867   3.478  0.4934  0.8595 -0.2009
 5813SOL    HW129075   0.150   3.856   3.457  0.0864  0.0528 -1.5695
 5813SOL    HW229076   0.056   3.805   3.551 -0.1518  0.5148 -0.4976
 5814SOL     OW29077   3.720   0.748   3.442 -0.5190 -0.3875  0.0320
 5814SOL    HW129078   3.794   0.750   3.382 -0.3362 -0.7229  0.2496
 5814SOL    HW229079   3.735   0.821   3.503  0.3587 -0.3996 -0.1664
 5815SOL     OW29080   3.581   0.275   7.503 -0.4924 -0.2158  0.4816
 5815SOL    HW129081   3.588   0.280   7.598  2.5452 -3.3743  0.4163
 5815SOL    HW229082   3.662   0.233   7.474 -0.6554  0.4980 -1.0304
 5816SOL     OW29083   4.165   0.835  13.721 -0.0227  0.1384 -0.0192
 5816SOL    HW129084   4.205   0.832  13.808  0.6552 -1.0651 -0.3727
 5816SOL    HW229085   4.167   0.740  13.707  0.1774  0.1781 -0.2573
 5817SOL     OW29086   2.025   3.106   6.291 -0.8433 -0.0822  0.6920
 5817SOL    HW129087   1.981   3.024   6.267 -1.0308  1.1205 -3.1668
 5817SOL    HW229088   2.117   3.088   6.270 -1.0110 -0.5623  0.3484
 5818SOL     OW29089   0.813   1.764   1.000 -0.1853 -0.1816 -0.2154
 5818SOL    HW129090   0.846   1.837   1.052 -1.9498  0.7280 -0.3453
 5818SOL    HW229091   0.868   1.775   0.923 -0.3840  2.2461 -0.0104
 5819SOL     OW29092   0.009   3.718   4.537 -0.1156  0.1662  0.1728
 5819SOL    HW129093   0.078   3.729   4.603  0.0368 -0.7482  0.1751
 5819SOL    HW229094   4.713   3.807   4.529 -0.2977  0.0991  0.1775
 5820SOL     OW29095   3.449   3.840   2.272  0.5339  0.4575 -0.6573
 5820SOL    HW129096   3.513   3.906   2.247 -0.5110  1.7303  0.0225
 5820SOL    HW229097   3.386   3.852   2.200 -0.4279  0.1397  0.1221
 5821SOL     OW29098   0.181   2.799   3.282  0.2047 -0.0423  0.1066
 5821SOL    HW129099   0.236   2.757   3.216 -0.5459 -1.4798  0.3803
 5821SOL    HW229100   0.094   2.784   3.243  0.0006  0.8220  0.2350
 5822SOL     OW29101   0.146   1.613   2.691  0.0492  0.3566  0.5800
 5822SOL    HW129102   0.121   1.672   2.762 -2.4951 -1.0653  0.8708
 5822SOL    HW229103   0.078   1.546   2.698  0.9790 -0.4832  1.6108
 5823SOL     OW29104   2.918   4.246   1.119 -0.2194 -0.4344  0.0784
 5823SOL    HW129105   3.000   4.284   1.150 -1.3327  1.9968 -0.0141
 5823SOL    HW229106   2.954   4.170   1.072  2.1933  0.4853  0.4503
 5824SOL     OW29107   0.110   1.604   1.980 -0.1254  0.2240  0.3676
 5824SOL    HW129108   0.102   1.647   1.895  1.9193  0.2707  0.1924
 5824SOL    HW229109   0.205   1.590   1.974  0.1980  1.0964  3.5056
 5825SOL     OW29110   1.694   3.242   3.919  0.0476  0.0617 -0.2595
 5825SOL    HW129111   1.617   3.215   3.970  0.3081 -1.1187 -0.4859
 5825SOL    HW229112   1.691   3.168   3.859  0.9577 -0.5626  0.4771
 5826SOL     OW29113   2.691   3.993  12.878  0.6013 -0.0072  0.0725
 5826SOL    HW129114   2.720   4.013  12.789 -1.8091 -0.5548 -0.8496
 5826SOL    HW229115   2.623   4.060  12.868 -0.0831 -0.8282 -0.8948
 5827SOL     OW29116   0.899   3.154   5.363  0.0016  0.0595 -0.8359
 5827SOL    HW129117   0.858   3.111   5.288 -1.5655  1.7293 -0.9311
 5827SOL    HW229118   0.972   3.096   5.385 -0.3752  0.9478  2.8071
 5828SOL     OW29119   4.270   3.298   2.677 -0.4904 -0.3566 -0.0693
 5828SOL    HW129120   4.277   3.270   2.768 -0.5949  1.3162  0.4494
 5828SOL    HW229121   4.347   3.354   2.668  1.0318 -2.8152 -2.4179
 5829SOL     OW29122   2.198   2.142   3.753 -0.2197 -0.0424 -0.0047
 5829SOL    HW129123   2.217   2.052   3.724 -1.3431 -0.9589  2.0523
 5829SOL    HW229124   2.236   2.182   3.675  2.2712  1.2131  1.8761
 5830SOL     OW29125   0.358   1.406   1.938 -0.3053 -0.3497 -0.8645
 5830SOL    HW129126   0.294   1.369   1.877  0.3559 -0.0224 -1.7372
 5830SOL    HW229127   0.370   1.336   2.002 -2.9867  0.3569  0.4449
 5831SOL     OW29128   3.853   2.974   9.423  0.0779  0.3153  0.2186
 5831SOL    HW129129   3.931   2.935   9.383 -1.0993 -0.1245 -1.6217
 5831SOL    HW229130   3.823   3.033   9.354 -1.6650 -1.3013 -0.4003
 5832SOL     OW29131   3.551   1.186   3.375 -0.5478 -0.2245 -0.0914
 5832SOL    HW129132   3.596   1.104   3.397  1.1841  0.6824 -0.3112
 5832SOL    HW229133   3.467   1.150   3.347 -1.1699  0.8833  0.3382
 5833SOL     OW29134   4.139   0.878   0.710  0.0248 -0.2123  0.0722
 5833SOL    HW129135   4.079   0.848   0.642 -2.0342 -0.0191  1.7784
 5833SOL    HW229136   4.162   0.967   0.685  1.0185 -1.0188 -1.8606
 5834SOL     OW29137   3.751   3.582   0.007 -0.0419  0.2285 -0.6095
 5834SOL    HW129138   3.814   3.636  17.705 -0.2782  1.6625  0.6829
 5834SOL    HW229139   3.698   3.654   0.040 -0.2382  0.0930 -0.6330
 5835SOL     OW29140   1.662   2.021   6.995  0.0822  0.7067 -0.6067
 5835SOL    HW129141   1.603   1.997   6.925  0.8542  0.9109 -1.3293
 5835SOL    HW229142   1.744   1.992   6.956 -0.2554 -0.0253 -0.7571
 5836SOL     OW29143   0.230   0.100   1.446 -0.2440 -0.0089  0.0045
 5836SOL    HW129144   0.163   0.093   1.514  1.3016  2.5210  1.7501
 5836SOL    HW229145   0.181   0.061   1.373  1.4686 -1.8083 -0.1849
 5837SOL     OW29146   2.977   2.884  16.927  0.5855 -0.6012 -0.3780
 5837SOL    HW129147   3.045   2.877  16.860 -0.9777 -2.2361 -1.8062
 5837SOL    HW229148   2.901   2.838  16.892 -0.0417  2.0040 -2.4359
 5838SOL     OW29149   2.476   3.611   6.745 -0.2608  0.2997 -0.0669
 5838SOL    HW129150   2.521   3.534   6.779  1.4857  1.0554 -0.6442
 5838SOL    HW229151   2.385   3.580   6.740 -1.4607  3.7462  0.0953
 5839SOL     OW29152   0.965   0.442   1.838  0.0370  0.0579  0.4682
 5839SOL    HW129153   0.940   0.526   1.875 -0.8183  0.7468 -1.6655
 5839SOL    HW229154   0.996   0.473   1.754  0.1328  1.8030  1.1437
 5840SOL     OW29155   4.012   3.584  14.104 -0.3363  0.2728 -0.0889
 5840SOL    HW129156   4.088   3.627  14.065 -0.4581 -0.8471 -1.5728
 5840SOL    HW229157   3.996   3.638  14.182 -0.9215  0.3951 -0.2903
 5841SOL     OW29158   4.250   0.199   2.330  0.8062  0.2490  0.3199
 5841SOL    HW129159   4.260   0.290   2.304 -2.5801  0.3039 -0.8551
 5841SOL    HW229160   4.272   0.164   2.243 -1.1103  1.3040 -0.5793
 5842SOL     OW29161   1.129   2.389   1.511 -0.2329  0.1197 -0.2945
 5842SOL    HW129162   1.093   2.413   1.425  1.7257  4.0025 -0.0447
 5842SOL    HW229163   1.096   2.461   1.565 -0.8038  0.9363 -1.7180
 5843SOL     OW29164   2.741   0.597   3.407 -0.7042  0.0283  0.1354
 5843SOL    HW129165   2.725   0.551   3.490 -2.0789 -1.0821 -0.7669
 5843SOL    HW229166   2.801   0.535   3.365  0.9546 -0.1730  2.7368
 5844SOL     OW29167   2.599   3.881   9.818  0.6731 -0.1732 -0.1105
 5844SOL    HW129168   2.583   3.788   9.800 -0.0093 -0.6495  2.8073
 5844SOL    HW229169   2.552   3.905   9.898 -0.4316 -2.3750 -0.0880
 5845SOL     OW29170   3.809   0.971   2.939  0.1338 -0.0469 -0.3693
 5845SOL    HW129171   3.871   0.950   3.010  1.7084  1.5695 -1.2719
 5845SOL    HW229172   3.864   0.948   2.864  0.2238 -0.7705 -0.0798
 5846SOL     OW29173   1.654   1.810   5.525  0.3960 -0.0797 -0.4715
 5846SOL    HW129174   1.632   1.758   5.602  0.6471 -0.0799 -0.3999
 5846SOL    HW229175   1.717   1.870   5.564 -0.1747  0.1431  0.1135
 5847SOL     OW29176   0.816   4.317   6.887 -0.0530 -0.2016  0.1803
 5847SOL    HW129177   0.905   4.349   6.876  0.1103 -0.6704  0.1113
 5847SOL    HW229178   0.774   4.401   6.904  1.7981  0.4508  1.4243
 5848SOL     OW29179   4.526   4.496   6.389 -0.0654 -0.2049  0.5673
 5848SOL    HW129180   4.509   4.443   6.312 -1.9305  0.5505  0.4625
 5848SOL    HW229181   4.464   4.566   6.368 -0.3356  0.6182  3.9980
 5849SOL     OW29182   4.640   3.038   8.008 -0.7384  0.2346 -0.2005
 5849SOL    HW129183   4.708   2.985   7.967 -1.6574  0.5901 -2.2388
 5849SOL    HW229184   4.695   3.083   8.072  0.7286  0.4169 -1.5652
 5850SOL     OW29185   4.200   0.620  15.533  0.0509  0.0892  0.0196
 5850SOL    HW129186   4.111   0.654  15.520  0.3503  1.6682  2.1766
 5850SOL    HW229187   4.257   0.694  15.514 -0.4894  0.6290  0.5208
 5851SOL     OW29188   0.388   1.412  16.327  0.0753  0.0982 -0.4085
 5851SOL    HW129189   0.454   1.366  16.276  0.3492  0.4200 -0.3435
 5851SOL    HW229190   0.385   1.355  16.405 -0.4078  1.0111  0.2346
 5852SOL     OW29191   3.011   4.259   4.862 -0.2652  0.2175  0.1970
 5852SOL    HW129192   3.009   4.355   4.852 -0.0587  0.1138 -0.7956
 5852SOL    HW229193   3.089   4.241   4.915 -0.2606  0.3032  0.2210
 5853SOL     OW29194   1.789   3.004   9.009  0.2127  0.0724  0.7110
 5853SOL    HW129195   1.754   3.090   8.984  1.3726  0.2046 -0.5050
 5853SOL    HW229196   1.708   2.961   9.035 -0.5447  0.8715 -0.3061
 5854SOL     OW29197   2.676   2.605   1.502  0.5687 -0.4987 -0.6568
 5854SOL    HW129198   2.714   2.517   1.501  2.4049  0.2829  1.0196
 5854SOL    HW229199   2.606   2.598   1.566  1.1685  2.2703  0.3223
 5855SOL     OW29200   1.078   4.517   8.336 -0.1337  0.3153  0.0999
 5855SOL    HW129201   1.034   4.456   8.395 -0.7200  0.3006 -0.3503
 5855SOL    HW229202   1.018   4.590   8.351  0.5968  1.2674 -1.6147
 5856SOL     OW29203   3.577   0.250   5.267 -0.2728 -0.1043 -0.6044
 5856SOL    HW129204   3.523   0.241   5.346  1.1258 -1.0756  0.2518
 5856SOL    HW229205   3.520   0.313   5.223  0.2197  0.0044 -1.0910
 5857SOL     OW29206   1.720   0.861   0.678 -0.1413  0.3336 -0.1512
 5857SOL    HW129207   1.792   0.818   0.631  1.3233  1.2632  1.2834
 5857SOL    HW229208   1.738   0.952   0.657 -0.4132  0.5138  0.3989
 5858SOL     OW29209   1.055   1.322   8.405  0.0242 -0.6154  0.4842
 5858SOL    HW129210   1.033   1.229   8.413 -1.9908 -0.3625 -1.8107
 5858SOL    HW229211   1.002   1.358   8.476  1.5977 -0.2330  1.4583
 5859SOL     OW29212   0.342   0.621  16.055  0.1705 -0.6600  0.2162
 5859SOL    HW129213   0.296   0.646  15.975  1.1449  2.3555  0.5945
 5859SOL    HW229214   0.431   0.631  16.021 -0.1634 -0.2646 -0.5562
 5860SOL     OW29215   1.284   3.321  10.303  0.0206  0.7111 -0.3370
 5860SOL    HW129216   1.258   3.235  10.271  0.3879  0.8009 -0.8716
 5860SOL    HW229217   1.213   3.365  10.255 -1.4302 -1.1895  0.0461
 5861SOL     OW29218   3.066   4.173  16.497  0.6347 -0.5154  0.2045
 5861SOL    HW129219   3.081   4.096  16.442 -1.2088 -2.2024  2.0173
 5861SOL    HW229220   3.023   4.227  16.430  1.7879 -2.3603 -2.0437
 5862SOL     OW29221   3.394   4.332  11.624 -0.7912  0.1907 -0.6995
 5862SOL    HW129222   3.465   4.396  11.616 -0.0417 -0.5353  0.0960
 5862SOL    HW229223   3.419   4.255  11.573  1.6666  0.2023  0.4640
 5863SOL     OW29224   0.652   3.452   7.969 -0.1489 -0.3366  0.2602
 5863SOL    HW129225   0.606   3.412   8.043 -0.3558 -1.6569 -0.5818
 5863SOL    HW229226   0.734   3.403   7.973 -0.9527 -1.7561 -0.5905
 5864SOL     OW29227   1.400   0.754  13.633 -0.0811  0.9494 -0.2854
 5864SOL    HW129228   1.365   0.765  13.721 -0.7384 -3.6480  0.0458
 5864SOL    HW229229   1.480   0.708  13.659  0.3812  1.1812 -1.2885
 5865SOL     OW29230   3.801   4.371   3.443  0.3363  0.3279  0.0119
 5865SOL    HW129231   3.881   4.421   3.428  1.1176 -1.7030 -2.7383
 5865SOL    HW229232   3.827   4.297   3.498 -0.7531  1.4875  2.0569
 5866SOL     OW29233   0.646   2.504   8.850 -0.0828  0.2928 -0.6717
 5866SOL    HW129234   0.704   2.553   8.908 -1.4357 -1.1826  1.9374
 5866SOL    HW229235   0.700   2.442   8.801 -1.7029 -0.8441 -1.0205
 5867SOL     OW29236   2.311   0.231   5.859  0.2218  0.5032 -0.1347
 5867SOL    HW129237   2.218   0.234   5.836 -0.4720 -0.1226  2.5573
 5867SOL    HW229238   2.319   0.297   5.928  2.8019 -1.9708  1.8800
 5868SOL     OW29239   3.933   3.279   9.471 -0.3183  0.3968 -0.4068
 5868SOL    HW129240   3.885   3.311   9.395 -0.2217 -1.4988 -1.2427
 5868SOL    HW229241   3.869   3.302   9.539 -2.6482  0.1312 -2.5076
 5869SOL     OW29242   3.648   1.725   8.789 -0.4646 -0.2636 -0.1158
 5869SOL    HW129243   3.609   1.797   8.738  0.2596  0.4591  0.3599
 5869SOL    HW229244   3.723   1.694   8.739 -0.1968  1.6687 -0.9008
 5870SOL     OW29245   2.626   3.900   2.718  0.2896 -0.0834  0.0293
 5870SOL    HW129246   2.716   3.933   2.712  0.1249  0.4961  0.8594
 5870SOL    HW229247   2.619   3.858   2.632 -0.1036 -0.2729  0.1538
 5871SOL     OW29248   3.737   3.566   7.274  0.0119  0.9943  0.0491
 5871SOL    HW129249   3.800   3.501   7.306 -1.5621 -0.0780  0.9480
 5871SOL    HW229250   3.757   3.574   7.181 -0.7077  2.5322  0.0155
 5872SOL     OW29251   0.922   2.798   5.110  0.5917  0.5972  0.5852
 5872SOL    HW129252   0.852   2.782   5.046 -1.5721  3.8678  2.1428
 5872SOL    HW229253   0.873   2.832   5.184 -0.2157  1.2820 -0.2567
 5873SOL     OW29254   3.129   2.191   2.728 -0.2021  0.1465  0.0262
 5873SOL    HW129255   3.209   2.191   2.781 -1.0000  0.7171  1.2167
 5873SOL    HW229256   3.154   2.124   2.665 -2.7540 -0.4419 -0.3400
 5874SOL     OW29257   4.108   3.057  14.531 -0.5037 -0.2887  0.5251
 5874SOL    HW129258   4.053   3.009  14.469  1.9823 -2.0571 -0.3218
 5874SOL    HW229259   4.082   3.016  14.613 -0.5895  1.0634  1.1670
 5875SOL     OW29260   1.658   0.151   3.745 -0.5668 -0.6480  0.1069
 5875SOL    HW129261   1.725   0.188   3.687 -1.1497  0.8707  0.3887
 5875SOL    HW229262   1.706   0.102   3.812 -0.7171 -1.1521 -0.1539
 5876SOL     OW29263   2.865   4.211  14.183  0.5917  0.3203  0.7862
 5876SOL    HW129264   2.959   4.194  14.171  0.9639  1.7789  1.5840
 5876SOL    HW229265   2.871   4.266  14.261 -0.9048  2.1060 -0.3578
 5877SOL     OW29266   2.168   3.064   3.382 -0.1459  0.4493  0.0420
 5877SOL    HW129267   2.248   3.012   3.387  0.2461  1.1340  0.9453
 5877SOL    HW229268   2.099   3.003   3.356 -0.0251 -0.2796  1.4412
 5878SOL     OW29269   3.543   2.743   7.126 -0.0314 -0.1846  0.0628
 5878SOL    HW129270   3.625   2.696   7.140 -0.1897  0.1767  2.2020
 5878SOL    HW229271   3.565   2.822   7.077 -3.4317  0.7970  0.1078
 5879SOL     OW29272   3.967   3.824  15.147 -0.2814  0.1780 -0.3278
 5879SOL    HW129273   3.941   3.912  15.173  1.2691  0.5243  0.0717
 5879SOL    HW229274   4.062   3.821  15.163  0.0869  0.9928 -2.4526
 5880SOL     OW29275   3.417   2.633   3.701 -0.4254  0.1156 -0.2013
 5880SOL    HW129276   3.508   2.660   3.688 -0.4520 -0.2287 -1.1081
 5880SOL    HW229277   3.371   2.656   3.620  0.7845  0.4964 -0.7833
 5881SOL     OW29278   2.747   0.630  10.377  0.1705 -0.3760  0.4076
 5881SOL    HW129279   2.677   0.572  10.407  0.0499 -1.4935 -2.0268
 5881SOL    HW229280   2.712   0.710  10.416 -0.5406 -0.0349 -0.9180
 5882SOL     OW29281   1.840   0.838   6.002 -0.1305 -0.2549  0.3125
 5882SOL    HW129282   1.923   0.861   5.960  0.1618  0.7295  1.4362
 5882SOL    HW229283   1.793   0.777   5.945  0.1498  0.0303 -0.2188
 5883SOL     OW29284   3.387   2.981   0.446 -0.2804 -0.1285  0.7497
 5883SOL    HW129285   3.447   2.948   0.513 -0.0041 -0.9920  0.0683
 5883SOL    HW229286   3.405   2.938   0.363  0.9544  0.8794  0.4935
 5884SOL     OW29287   1.353   1.336   3.101 -0.6374  0.3025  0.0120
 5884SOL    HW129288   1.315   1.341   3.189 -0.8866 -2.7932  0.0659
 5884SOL    HW229289   1.325   1.246   3.086 -1.9977  0.4255  1.7280
 5885SOL     OW29290   1.517   3.877   6.344 -0.2452  0.1288 -0.2647
 5885SOL    HW129291   1.579   3.807   6.364 -0.0760  0.1989 -0.5453
 5885SOL    HW229292   1.441   3.843   6.392 -0.0748  0.5111  0.2675
 5886SOL     OW29293   3.352   4.074   1.808  0.2545 -0.0451 -0.3230
 5886SOL    HW129294   3.329   4.026   1.888  0.1918  0.7603  0.1418
 5886SOL    HW229295   3.366   4.161   1.846  1.7915 -0.5958  0.3808
 5887SOL     OW29296   1.699   0.842   7.100  0.3030  0.0423  0.0063
 5887SOL    HW129297   1.690   0.756   7.059 -0.8805 -0.8037  2.0616
 5887SOL    HW229298   1.752   0.822   7.177  0.8449 -0.6497 -0.5373
 5888SOL     OW29299   3.123   1.339   5.624  0.4104 -0.6657 -0.0773
 5888SOL    HW129300   3.141   1.264   5.567  2.3553  1.3688 -2.1324
 5888SOL    HW229301   3.136   1.412   5.564 -0.0747  0.0066  0.6343
 5889SOL     OW29302   4.177   3.742  14.788 -0.0824  0.1992 -0.7511
 5889SOL    HW129303   4.086   3.739  14.818 -0.1013 -0.4742 -0.8895
 5889SOL    HW229304   4.219   3.720  14.871 -2.2876 -0.8629  0.0838
 5890SOL     OW29305   2.919   0.916   9.115  0.5784 -0.2963 -0.1985
 5890SOL    HW129306   2.869   0.965   9.180 -0.4539  0.3184 -1.4324
 5890SOL    HW229307   2.902   0.985   9.050 -0.7635 -0.5891 -0.1624
 5891SOL     OW29308   4.038   1.329   7.350  0.1881  0.3841 -0.3292
 5891SOL    HW129309   4.031   1.361   7.440  1.8855  2.4981 -0.9697
 5891SOL    HW229310   4.037   1.233   7.359  1.3261  0.5482  1.3266
 5892SOL     OW29311   2.312   4.407  12.077 -1.0444 -0.1056  0.3098
 5892SOL    HW129312   2.311   4.311  12.074  2.4983 -0.1404 -0.5817
 5892SOL    HW229313   2.343   4.422  11.987  0.3543 -0.7120  0.6832
 5893SOL     OW29314   3.550   1.787   2.798  0.1144  0.3201 -0.6234
 5893SOL    HW129315   3.548   1.708   2.852  0.0767 -1.2842 -2.9617
 5893SOL    HW229316   3.541   1.752   2.709  1.5616  0.6341 -0.8850
 5894SOL     OW29317   2.172   1.807   6.191 -0.2269  0.7460 -0.3261
 5894SOL    HW129318   2.121   1.878   6.230  1.0884  1.1714  0.5754
 5894SOL    HW229319   2.202   1.851   6.111 -1.2524  0.7415 -0.7277
 5895SOL     OW29320   4.448   1.663   3.636  0.3733 -0.1417  0.0827
 5895SOL    HW129321   4.401   1.745   3.650 -0.4801 -0.8533  1.3966
 5895SOL    HW229322   4.381   1.613   3.589 -1.1111 -0.4523  2.5352
 5896SOL     OW29323   1.722   2.193  10.084 -0.3664  0.4321 -0.5356
 5896SOL    HW129324   1.632   2.161  10.087  0.0784 -0.7804  0.0255
 5896SOL    HW229325   1.764   2.122  10.133 -2.3913 -0.6999 -0.4523
 5897SOL     OW29326   3.735   1.649   5.874 -0.2682 -0.2312  0.4674
 5897SOL    HW129327   3.739   1.743   5.860  1.7415 -0.2993  0.6447
 5897SOL    HW229328   3.682   1.611   5.803  0.6287  1.3531 -1.0406
 5898SOL     OW29329   1.974   3.355   8.969 -0.3010  0.0653  0.0409
 5898SOL    HW129330   1.945   3.419   8.904 -0.3879 -0.4936 -0.4610
 5898SOL    HW229331   1.934   3.382   9.052  0.6668 -0.3378  0.6418
 5899SOL     OW29332   1.248   4.702  15.289 -0.3371  0.0158 -0.4449
 5899SOL    HW129333   1.268   4.612  15.317  1.1274  0.4604 -0.0576
 5899SOL    HW229334   1.253   0.012  15.372 -0.4596 -0.0471 -0.4010
 5900SOL     OW29335   3.115   0.089   1.469 -0.2823 -0.8493 -0.4203
 5900SOL    HW129336   3.176   0.102   1.397 -2.6254 -0.3148 -2.3178
 5900SOL    HW229337   3.039   0.048   1.427  0.2713  0.8278 -3.0773
 5901SOL     OW29338   4.393   2.986   7.904  0.4793  0.4201 -0.3206
 5901SOL    HW129339   4.485   2.988   7.932  1.0636  0.7443 -2.2620
 5901SOL    HW229340   4.382   3.057   7.841 -1.8761 -0.3753 -0.7871
 5902SOL     OW29341   2.067   0.245   5.730  0.3050  0.2480  0.3679
 5902SOL    HW129342   2.016   0.180   5.683  0.4253  1.2690 -1.1982
 5902SOL    HW229343   2.003   0.262   5.799  0.2070 -0.0260  0.3427
 5903SOL     OW29344   1.724   3.785   5.862 -0.0039  0.0841 -0.4491
 5903SOL    HW129345   1.670   3.749   5.933  0.7172 -2.4877 -1.2064
 5903SOL    HW229346   1.797   3.833   5.900  0.3595 -1.8346  1.2552
 5904SOL     OW29347   0.947   2.701   6.027  0.3033  0.3684 -0.1657
 5904SOL    HW129348   1.016   2.761   5.997 -0.0854  1.4396  1.0758
 5904SOL    HW229349   0.919   2.663   5.944  0.1936 -0.7955  0.4151
 5905SOL     OW29350   0.742   0.075   5.454  0.5465 -0.2130 -0.3016
 5905SOL    HW129351   0.796   4.734   5.452  1.8533  0.6604  0.7491
 5905SOL    HW229352   0.691   0.056   5.533  2.7104 -1.7563  0.7502
 5906SOL     OW29353   0.742   3.670   2.717 -0.3787  0.6106  0.0783
 5906SOL    HW129354   0.780   3.754   2.744 -0.0549  0.6169 -0.3791
 5906SOL    HW229355   0.763   3.665   2.623  1.4069  0.2467  0.5005
 5907SOL     OW29356   0.273   4.118   2.784  0.5848 -0.0515 -0.1837
 5907SOL    HW129357   0.326   4.110   2.705  0.4649  1.0532 -0.3648
 5907SOL    HW229358   0.243   4.208   2.779  3.0333  0.6187 -2.5464
 5908SOL     OW29359   1.261   1.327   4.275 -0.2679  0.0380  0.0693
 5908SOL    HW129360   1.281   1.400   4.217  0.7419 -0.5575 -0.3268
 5908SOL    HW229361   1.176   1.293   4.245  0.2081  0.4006 -1.7175
 5909SOL     OW29362   3.944   1.062   6.449 -0.1285 -0.1602 -0.3716
 5909SOL    HW129363   3.875   1.013   6.494  0.0087 -2.4031 -2.5536
 5909SOL    HW229364   3.994   1.095   6.524  0.6402  0.8586 -1.3445
 5910SOL     OW29365   3.330   0.544  17.580 -0.1178  0.6679  0.1592
 5910SOL    HW129366   3.336   0.542  17.485 -1.7844 -0.7955  0.0812
 5910SOL    HW229367   3.269   0.617  17.593  2.5522  2.5159  2.4695
 5911SOL     OW29368   2.606   1.974   6.068 -0.4965 -0.3593 -0.1781
 5911SOL    HW129369   2.635   1.887   6.094  0.0686 -0.0970  0.0767
 5911SOL    HW229370   2.672   2.031   6.108 -1.3718  0.2953  0.3166
 5912SOL     OW29371   0.570   4.007   6.065 -0.1057  0.4871  0.1388
 5912SOL    HW129372   0.506   3.936   6.070  0.4539  0.1019  1.7090
 5912SOL    HW229373   0.634   3.987   5.998  0.0942  0.0894  0.4522
 5913SOL     OW29374   4.439   0.375   4.262  0.3188  0.0753 -0.0960
 5913SOL    HW129375   4.400   0.317   4.197 -1.9440  0.3729  0.9753
 5913SOL    HW229376   4.475   0.452   4.218 -0.6326  0.0918 -0.8468
 5914SOL     OW29377   1.587   1.101   8.008 -0.2106 -0.0498  0.1543
 5914SOL    HW129378   1.511   1.046   8.023  0.3401 -1.7931 -3.2580
 5914SOL    HW229379   1.669   1.057   8.033  0.5132  1.4330  0.4031
 5915SOL     OW29380   0.380   2.316  11.713  0.1568 -0.3306 -0.5683
 5915SOL    HW129381   0.350   2.257  11.782  0.3340  0.4181  0.1435
 5915SOL    HW229382   0.469   2.285  11.697  0.4869  1.3999 -2.0707
 5916SOL     OW29383   0.051   3.898   5.473  0.3603 -0.7103  0.9822
 5916SOL    HW129384   4.720   3.893   5.541  1.5890 -2.5118  2.0653
 5916SOL    HW229385   0.123   3.897   5.535  2.2076  0.8080 -1.1499
 5917SOL     OW29386   3.965   3.152  14.178  0.2649 -0.8353 -0.4595
 5917SOL    HW129387   4.042   3.161  14.122  0.2123  0.2376 -0.3590
 5917SOL    HW229388   3.925   3.226  14.134  0.7701 -0.4813 -0.3230
 5918SOL     OW29389   4.192   0.564   7.942  0.1191 -0.1661  0.4811
 5918SOL    HW129390   4.145   0.525   8.016 -1.3499 -0.0554 -0.3922
 5918SOL    HW229391   4.255   0.492   7.937 -2.5703 -2.5351  0.8317
 5919SOL     OW29392   3.396   2.471   4.687  0.5457  0.7905  0.0560
 5919SOL    HW129393   3.428   2.480   4.597  0.4638 -2.5737 -0.2953
 5919SOL    HW229394   3.324   2.534   4.680  0.6707  1.2141  2.9432
 5920SOL     OW29395   2.656   2.564  16.604 -0.0522  0.6335  0.4228
 5920SOL    HW129396   2.644   2.558  16.509 -1.2355 -0.3247  0.6391
 5920SOL    HW229397   2.612   2.489  16.644 -1.6046  1.4193  0.1875
 5921SOL     OW29398   0.808   4.110  14.204  0.3496 -0.2524 -0.3060
 5921SOL    HW129399   0.901   4.130  14.206  0.3493 -0.2440 -0.3745
 5921SOL    HW229400   0.807   4.031  14.258 -1.6015 -0.6095 -0.8602
 5922SOL     OW29401   1.718   3.008  12.497  0.4603 -0.5659  0.2644
 5922SOL    HW129402   1.682   2.949  12.431  1.0744 -0.7820  0.1266
 5922SOL    HW229403   1.690   3.095  12.467 -1.1908 -0.4782  2.0661
 5923SOL     OW29404   0.523   2.132   5.055  0.2265 -0.1269 -0.3316
 5923SOL    HW129405   0.514   2.189   5.132 -0.7734 -0.3667 -0.2775
 5923SOL    HW229406   0.477   2.055   5.088  0.7225 -0.3159 -0.0698
 5924SOL     OW29407   1.076   1.882   9.984  0.1410  0.4662 -0.1200
 5924SOL    HW129408   1.117   1.897   9.899 -0.6901 -1.3732 -0.8367
 5924SOL    HW229409   1.035   1.801   9.954  0.2046  0.3629  0.0699
 5925SOL     OW29410   3.478   1.903   7.412 -0.8149  0.1228 -0.0369
 5925SOL    HW129411   3.444   1.895   7.322  1.7797  0.7963 -1.0639
 5925SOL    HW229412   3.571   1.916   7.394 -0.5573  0.4731  1.6230
 5926SOL     OW29413   1.919   3.298   6.956  0.2322 -0.1839  0.8645
 5926SOL    HW129414   1.953   3.229   7.013  2.7418  0.8556  0.5951
 5926SOL    HW229415   1.948   3.382   6.992  0.5457  0.6060 -1.2400
 5927SOL     OW29416   4.725   0.005   3.046 -0.3906 -0.0607  0.0360
 5927SOL    HW129417   0.006   4.661   2.999  1.8715  1.4664 -1.7000
 5927SOL    HW229418   4.719   0.063   2.970 -2.0227 -1.8974 -1.2380
 5928SOL     OW29419   3.048   1.086   4.717  0.0481  0.6894  0.3477
 5928SOL    HW129420   3.048   0.997   4.682  0.3116  1.1147 -0.7483
 5928SOL    HW229421   2.962   1.125   4.705  1.1771  2.9415 -0.4312
 5929SOL     OW29422   3.946   3.112   4.119  0.3546  0.0110  0.2960
 5929SOL    HW129423   3.918   3.053   4.188  2.5461  0.6098  1.6733
 5929SOL    HW229424   4.035   3.082   4.101  0.1547 -0.2411 -0.2840
 5930SOL     OW29425   4.359   3.028  17.065  0.1220  0.0412  0.6439
 5930SOL    HW129426   4.409   3.101  17.027 -1.8849  0.8538 -0.4189
 5930SOL    HW229427   4.290   3.022  16.999  0.9838 -0.8891 -0.1654
 5931SOL     OW29428   4.352   0.719  11.615 -0.6436  0.2444 -0.3362
 5931SOL    HW129429   4.399   0.676  11.544  1.0112  2.2670 -0.4656
 5931SOL    HW229430   4.409   0.770  11.672 -0.1500 -0.6072 -0.0665
 5932SOL     OW29431   1.419   0.184   9.229 -0.8916  0.4643  0.2036
 5932SOL    HW129432   1.324   0.190   9.232 -0.9453  0.3990 -1.1945
 5932SOL    HW229433   1.449   0.206   9.317  0.1173  0.7791 -0.2085
 5933SOL     OW29434   2.414   4.295   8.940 -0.2453  0.5678 -0.3760
 5933SOL    HW129435   2.341   4.330   8.889  0.2520  0.7698 -0.9428
 5933SOL    HW229436   2.445   4.213   8.902 -0.2824  1.6385 -2.7400
 5934SOL     OW29437   4.670   3.262  10.614 -0.1714 -0.3936 -0.7105
 5934SOL    HW129438   4.619   3.309  10.680  0.6119  1.2847 -1.2891
 5934SOL    HW229439   4.661   3.322  10.540  1.6996 -1.7136 -1.9962
 5935SOL     OW29440   4.066   3.264   6.996 -0.4022 -0.4352  0.1453
 5935SOL    HW129441   3.981   3.264   6.952 -0.0128 -2.3062 -0.6194
 5935SOL    HW229442   4.056   3.191   7.057 -1.6887 -1.0270 -0.7818
 5936SOL     OW29443   3.962   1.910  14.505 -0.3649 -0.4509 -0.0631
 5936SOL    HW129444   3.951   1.859  14.586 -0.0322  0.2809  0.4408
 5936SOL    HW229445   4.013   1.852  14.448  2.7716  0.9479  1.2662
 5937SOL     OW29446   1.782   0.039  13.259  0.3023  0.0173  0.3089
 5937SOL    HW129447   1.722   4.736  13.323 -0.3343 -1.2507 -1.0995
 5937SOL    HW229448   1.863   4.733  13.284 -0.2738 -1.0932  0.2475
 5938SOL     OW29449   0.018   3.241   2.971 -0.1105 -0.2925 -0.2424
 5938SOL    HW129450   4.718   3.238   3.059 -0.4037 -1.5834 -0.4079
 5938SOL    HW229451   0.103   3.266   3.007  0.5209 -1.4497 -0.9135
 5939SOL     OW29452   2.873   2.594   9.166 -0.1350 -0.8474 -0.4312
 5939SOL    HW129453   2.838   2.590   9.255 -2.0739  0.5562 -1.1136
 5939SOL    HW229454   2.858   2.503   9.140 -2.5459 -1.0383  1.6992
 5940SOL     OW29455   4.008   2.688  12.660  0.0391  0.0885 -0.6212
 5940SOL    HW129456   3.926   2.702  12.708 -0.6004 -0.5958 -1.5152
 5940SOL    HW229457   4.067   2.742  12.712 -0.7210 -1.5537  1.9637
 5941SOL     OW29458   3.703   0.226  16.864 -0.2259 -0.1159  0.0772
 5941SOL    HW129459   3.624   0.214  16.811  0.2115 -1.7775 -0.2124
 5941SOL    HW229460   3.744   0.280  16.797  2.8535 -0.2675  1.8161
 5942SOL     OW29461   2.097   3.048   2.857  0.4967  0.2837  0.6177
 5942SOL    HW129462   2.095   3.047   2.952 -1.6802  3.4379  0.6276
 5942SOL    HW229463   2.136   3.134   2.841  0.1932  0.4939  1.0058
 5943SOL     OW29464   1.934   2.814   8.223  0.1230  0.0292 -0.3599
 5943SOL    HW129465   1.905   2.780   8.138  1.5363  0.8908 -1.1841
 5943SOL    HW229466   2.010   2.869   8.203 -0.4225  0.6102 -0.8168
 5944SOL     OW29467   2.002   3.058  16.962  0.5946 -0.3740 -0.3863
 5944SOL    HW129468   1.964   3.058  16.874 -2.4895  0.1263  0.9564
 5944SOL    HW229469   2.096   3.052  16.944  0.6423 -0.3585 -0.1469
 5945SOL     OW29470   0.115   3.160   2.292  0.1805 -0.1216 -0.7713
 5945SOL    HW129471   0.207   3.149   2.269  0.0092 -2.2308 -0.4161
 5945SOL    HW229472   0.082   3.073   2.273 -0.6440 -0.0248  0.2227
 5946SOL     OW29473   0.501   0.024  10.467 -0.3565 -0.1142 -0.0332
 5946SOL    HW129474   0.561   0.097  10.449 -1.2462  0.0086 -2.4736
 5946SOL    HW229475   0.547   4.690  10.423 -0.4603 -0.7289  0.8498
 5947SOL     OW29476   0.774   1.108   2.563  0.5277  0.3467  0.2269
 5947SOL    HW129477   0.731   1.022   2.565  0.4308  0.3815 -0.4973
 5947SOL    HW229478   0.866   1.096   2.587  0.3919  1.0997  1.1024
 5948SOL     OW29479   0.044   0.397   7.690 -0.0537  0.3943 -0.1802
 5948SOL    HW129480   0.022   0.483   7.726  1.4639  1.0765 -0.8641
 5948SOL    HW229481   0.068   0.360   7.775 -0.7314  0.8447  0.2074
 5949SOL     OW29482   2.273   3.028  16.911  0.1763  0.1675 -0.0593
 5949SOL    HW129483   2.348   3.084  16.932 -0.3163  0.5306  0.7449
 5949SOL    HW229484   2.229   3.092  16.855  1.3373  2.0716  1.2090
 5950SOL     OW29485   0.927   0.815   9.837  0.3966 -0.0624  0.0029
 5950SOL    HW129486   1.007   0.765   9.821  1.6886  1.3498  2.0170
 5950SOL    HW229487   0.960   0.901   9.813  1.1042 -0.8812 -1.9324
 5951SOL     OW29488   3.339   3.674   8.864  0.4407  0.3008 -0.2464
 5951SOL    HW129489   3.325   3.755   8.915 -0.4495  0.4772 -0.7746
 5951SOL    HW229490   3.250   3.652   8.837 -0.5432  3.5977  0.2728
 5952SOL     OW29491   0.974   2.861   6.784 -0.3114 -0.5163  0.1059
 5952SOL    HW129492   0.893   2.840   6.738  0.3549 -0.4588 -1.0814
 5952SOL    HW229493   0.952   2.942   6.831  0.2801 -0.7621  0.8125
 5953SOL     OW29494   1.167   3.037  16.884  0.4670  0.5658 -0.1735
 5953SOL    HW129495   1.201   3.110  16.937 -1.2662  1.8330 -0.7657
 5953SOL    HW229496   1.244   2.986  16.863  0.6979  0.5794  0.6125
 5954SOL     OW29497   0.219   1.870   5.191  0.3459  0.6686 -0.3043
 5954SOL    HW129498   0.305   1.895   5.225  0.3202  0.0744  0.2016
 5954SOL    HW229499   0.180   1.801   5.244  0.9263  0.2607 -0.4025
 5955SOL     OW29500   1.631   3.108   4.358 -0.0661 -0.4533 -0.4701
 5955SOL    HW129501   1.662   3.068   4.439 -2.1063  2.7403  1.8549
 5955SOL    HW229502   1.716   3.148   4.337 -0.1375  1.1340  2.3520
 5956SOL     OW29503   2.443   1.649  10.786 -0.2794  0.5282  0.2475
 5956SOL    HW129504   2.483   1.571  10.826  0.7016  0.9052  0.0026
 5956SOL    HW229505   2.524   1.699  10.789 -0.1343  0.4380 -2.4078
 5957SOL     OW29506   0.335   1.287  17.239 -0.5742 -0.4592  0.2452
 5957SOL    HW129507   0.266   1.343  17.275 -1.1933  0.0750 -1.7623
 5957SOL    HW229508   0.396   1.277  17.312  0.2694 -0.3531 -0.4463
 5958SOL     OW29509   2.467   0.552   9.301  0.4511  0.1226  0.1998
 5958SOL    HW129510   2.487   0.645   9.313  0.0075  0.1892  0.4144
 5958SOL    HW229511   2.398   0.564   9.235  1.7837  0.7155 -1.0976
 5959SOL     OW29512   0.057   4.525  16.107 -0.5481 -0.2193 -0.6398
 5959SOL    HW129513   0.011   4.530  16.191  0.2918  2.0195 -0.3157
 5959SOL    HW229514   0.109   4.449  16.133  0.6209  0.5290 -0.7963
 5960SOL     OW29515   4.012   4.505   3.382  0.5309  0.7114 -0.3641
 5960SOL    HW129516   4.036   4.545   3.298 -1.6706  3.8987  0.5320
 5960SOL    HW229517   4.055   4.555   3.451  0.2237  1.6178 -0.8175
 5961SOL     OW29518   3.775   4.437  10.722  0.1518  0.2439  0.2064
 5961SOL    HW129519   3.754   4.381  10.796  2.0568 -0.0449  0.5446
 5961SOL    HW229520   3.861   4.397  10.709 -0.2830 -0.8438  0.6800
 5962SOL     OW29521   0.303   4.291   4.963 -0.0831 -0.0547 -0.4652
 5962SOL    HW129522   0.294   4.362   5.027  0.5842 -1.7069  1.4708
 5962SOL    HW229523   0.329   4.214   5.014  1.4570 -0.3418 -1.6780
 5963SOL     OW29524   1.741   3.008   2.375  0.0669 -0.1693 -0.5656
 5963SOL    HW129525   1.792   2.936   2.412 -1.3092  0.1798  2.0621
 5963SOL    HW229526   1.810   3.074   2.374 -1.5305  1.5783  2.3880
 5964SOL     OW29527   1.834   1.017   3.998 -0.8166 -0.2963  0.6490
 5964SOL    HW129528   1.753   0.988   4.040 -1.3686  0.5730  0.1957
 5964SOL    HW229529   1.891   0.941   4.007 -1.6769 -1.0202  0.0045
 5965SOL     OW29530   1.668   2.628  13.130 -0.1951  0.4582  0.5593
 5965SOL    HW129531   1.594   2.569  13.117 -0.1322  0.6530 -0.7507
 5965SOL    HW229532   1.633   2.665  13.211  1.8018  0.6680  1.3320
 5966SOL     OW29533   2.690   2.639   5.347  0.2629 -0.5232 -0.3132
 5966SOL    HW129534   2.652   2.621   5.261 -1.1847 -1.2923  0.4858
 5966SOL    HW229535   2.634   2.701   5.394 -1.5762 -0.8957 -2.0142
 5967SOL     OW29536   1.078   2.602   6.333 -0.3808  0.3164 -0.1448
 5967SOL    HW129537   1.136   2.664   6.378 -1.8960  1.7647 -0.1676
 5967SOL    HW229538   1.074   2.647   6.249 -0.3643  1.3016  0.3797
 5968SOL     OW29539   2.235   2.381   6.318 -0.0548 -0.3339 -0.0337
 5968SOL    HW129540   2.270   2.362   6.231  0.5005  0.1056  0.0894
 5968SOL    HW229541   2.305   2.344   6.372  0.5683  0.6116 -0.1831
 5969SOL     OW29542   0.644   0.877   6.649 -0.2722 -0.0258  0.6170
 5969SOL    HW129543   0.607   0.963   6.669  1.4938  0.8311  0.2236
 5969SOL    HW229544   0.694   0.897   6.570  1.0677  1.2518  1.7853
 5970SOL     OW29545   4.504   4.645   7.937  0.4220 -0.0691 -0.0691
 5970SOL    HW129546   4.568   4.596   7.885  0.9654 -0.5723  1.0775
 5970SOL    HW229547   4.422   4.635   7.889 -1.1799 -1.1652  2.8579
 5971SOL     OW29548   0.667   4.421   6.196 -0.0107 -0.1178 -0.0343
 5971SOL    HW129549   0.735   4.374   6.148 -2.2519 -1.2447 -2.1349
 5971SOL    HW229550   0.636   4.349   6.251  2.9161 -1.7167 -0.4902
 5972SOL     OW29551   4.489   0.411   2.523 -0.8115 -0.5695  0.2528
 5972SOL    HW129552   4.546   0.340   2.493  2.0427  1.1347  1.5993
 5972SOL    HW229553   4.498   0.467   2.446  0.3014  0.9175  1.4630
 5973SOL     OW29554   1.526   3.057   8.376  0.4173 -0.4781  0.3677
 5973SOL    HW129555   1.523   3.125   8.309 -1.3141  0.8462  1.8225
 5973SOL    HW229556   1.552   3.103   8.456 -0.1934 -0.6192  0.6485
 5974SOL     OW29557   2.003   0.892  10.062 -0.3542  0.6141 -0.0571
 5974SOL    HW129558   1.931   0.953  10.075 -1.3984 -0.4576 -0.8595
 5974SOL    HW229559   2.026   0.871  10.153 -0.0290 -1.0202 -0.5120
 5975SOL     OW29560   4.243   1.885   7.906 -0.0468  0.6510  0.1268
 5975SOL    HW129561   4.193   1.813   7.945 -0.7785  1.6002  0.9497
 5975SOL    HW229562   4.249   1.850   7.818  0.0063 -1.4720  0.9851
 5976SOL     OW29563   2.396   0.044   5.058  0.3805 -0.4620  0.3698
 5976SOL    HW129564   2.304   0.065   5.047  0.7175 -0.1320 -1.9701
 5976SOL    HW229565   2.382   4.700   5.107  1.2592 -1.3354 -0.7938
 5977SOL     OW29566   3.608   3.432   5.048  0.1295 -0.2499 -0.6081
 5977SOL    HW129567   3.612   3.437   5.144 -1.5948  1.4969 -0.6167
 5977SOL    HW229568   3.653   3.514   5.029  0.8440 -0.3036  0.8955
 5978SOL     OW29569   2.533   3.020   7.734 -0.1875  0.0726  0.5854
 5978SOL    HW129570   2.456   2.972   7.765 -1.7521  0.4952 -2.7147
 5978SOL    HW229571   2.598   2.952   7.753  0.6499  1.2867  2.0490
 5979SOL     OW29572   1.970   4.505  12.964  0.3928 -0.0968  0.0608
 5979SOL    HW129573   2.011   4.440  12.906  0.9981 -1.9717  2.5720
 5979SOL    HW229574   1.891   4.518  12.911  0.6051  2.0752  0.3026
 5980SOL     OW29575   0.156   3.481  16.878 -0.1170  0.4793  0.1652
 5980SOL    HW129576   0.080   3.513  16.928  1.1735  0.1230  2.3479
 5980SOL    HW229577   0.116   3.414  16.823  1.2010 -0.6994  0.6374
 5981SOL     OW29578   3.452   4.222   1.028 -0.2577 -0.1230  0.1802
 5981SOL    HW129579   3.471   4.197   1.118  0.2700 -0.9543 -0.1561
 5981SOL    HW229580   3.358   4.232   1.043 -0.4516 -0.1048 -1.0163
 5982SOL     OW29581   1.516   0.979  15.130  0.9288  0.0440 -0.1959
 5982SOL    HW129582   1.460   0.944  15.200 -1.1940 -0.1215 -1.9924
 5982SOL    HW229583   1.460   1.040  15.083  1.8590 -1.5455 -3.3464
 5983SOL     OW29584   0.411   4.148   8.013 -0.1986 -0.0889 -0.7253
 5983SOL    HW129585   0.492   4.164   8.060 -0.2219  2.4887 -1.6051
 5983SOL    HW229586   0.435   4.202   7.938 -0.4912  1.0979  0.0473
 5984SOL     OW29587   3.999   1.722   6.255 -0.5567 -0.2532  0.3996
 5984SOL    HW129588   3.983   1.805   6.300 -1.6382  0.8219 -1.9338
 5984SOL    HW229589   3.963   1.662   6.320  0.4197 -0.5952  0.6195
 5985SOL     OW29590   2.531   2.880  12.319  0.2706  0.2613 -0.2181
 5985SOL    HW129591   2.464   2.915  12.378 -1.7992  0.6599 -2.8126
 5985SOL    HW229592   2.514   2.935  12.243  2.1434  0.3420 -0.5645
 5986SOL     OW29593   2.535   4.481   8.421 -0.0735  0.0576 -0.2514
 5986SOL    HW129594   2.580   4.416   8.367 -2.2484 -1.9519  0.2996
 5986SOL    HW229595   2.605   4.545   8.434  0.8200 -0.1704 -3.9270
 5987SOL     OW29596   4.282   4.622   4.217  0.0917  0.0933 -0.0338
 5987SOL    HW129597   4.249   4.593   4.302 -3.1640  0.8294 -1.0608
 5987SOL    HW229598   4.346   4.687   4.246 -0.0512  0.8132 -1.3115
 5988SOL     OW29599   4.142   3.020   4.638  0.1444  0.2406  0.0004
 5988SOL    HW129600   4.177   3.109   4.633  0.7394 -0.0943 -1.5397
 5988SOL    HW229601   4.203   2.973   4.582 -2.5975 -0.9514 -2.0246
 5989SOL     OW29602   2.273   2.405  12.681  0.7210 -0.2840  0.0102
 5989SOL    HW129603   2.218   2.471  12.723  1.4209  0.8349 -0.8146
 5989SOL    HW229604   2.216   2.328  12.687 -0.4672  0.4163 -2.0571
 5990SOL     OW29605   2.491   3.176   0.564 -0.0344  0.5793 -0.0252
 5990SOL    HW129606   2.443   3.120   0.504  0.4284  0.2241 -0.0596
 5990SOL    HW229607   2.566   3.124   0.592 -0.1704  0.4505  0.1001
 5991SOL     OW29608   2.021   1.262   3.916  0.0797 -0.3609  0.2771
 5991SOL    HW129609   1.973   1.195   3.964 -1.9086 -0.0960 -1.3367
 5991SOL    HW229610   2.102   1.216   3.895  1.5417  1.8470  1.0885
 5992SOL     OW29611   0.810   2.663   4.656  0.0481  0.2498 -0.0263
 5992SOL    HW129612   0.879   2.681   4.592  0.4295  0.9440  0.5872
 5992SOL    HW229613   0.737   2.631   4.603 -0.2094 -1.4521  1.3621
 5993SOL     OW29614   0.147   2.558  17.582  0.1818 -0.9030  0.3467
 5993SOL    HW129615   0.106   2.635  17.542 -2.3709 -1.3032  2.1451
 5993SOL    HW229616   0.129   2.582  17.673 -0.1593  0.3341 -0.0490
 5994SOL     OW29617   0.137   2.915   8.995  0.0296 -0.0982  0.2642
 5994SOL    HW129618   0.173   2.920   9.083  1.5462  0.6871 -0.4138
 5994SOL    HW229619   0.059   2.971   8.999  0.1685 -0.0235  2.0762
 5995SOL     OW29620   2.890   4.006   2.713 -0.4127  0.8971 -0.3759
 5995SOL    HW129621   2.909   4.094   2.743 -2.5660  0.7873  1.2964
 5995SOL    HW229622   2.961   3.957   2.755 -0.8103  0.8200  0.2006
 5996SOL     OW29623   4.143   3.353   2.112 -0.3211  0.4401  0.6134
 5996SOL    HW129624   4.075   3.300   2.153  1.4269 -0.6869  2.0622
 5996SOL    HW229625   4.122   3.443   2.134  0.7679  0.8117  0.1012
 5997SOL     OW29626   0.459   1.916   5.316 -0.3018 -0.0846 -0.0916
 5997SOL    HW129627   0.417   1.968   5.385  2.1438  1.8590 -0.0528
 5997SOL    HW229628   0.552   1.932   5.332 -0.1194  0.0348 -1.2898
 5998SOL     OW29629   2.850   1.022   5.322  0.1231  0.4449  1.5912
 5998SOL    HW129630   2.946   1.021   5.323  0.1524  1.9030 -0.6283
 5998SOL    HW229631   2.829   0.928   5.326 -0.0582  0.3785 -0.6931
 5999SOL     OW29632   1.464   4.307   1.262 -0.1791 -0.1734  0.5164
 5999SOL    HW129633   1.553   4.337   1.243  0.1409 -1.0026  0.7038
 5999SOL    HW229634   1.482   4.220   1.299 -1.0785 -0.0426  1.2516
 6000SOL     OW29635   3.388   1.505   1.744 -0.6358  0.1256  0.3471
 6000SOL    HW129636   3.311   1.449   1.754  0.4264 -1.3967 -0.0202
 6000SOL    HW229637   3.400   1.497   1.649 -1.3177 -0.7943  0.3358
 6001SOL     OW29638   0.503   3.794   3.814 -0.1389  0.1230 -0.3151
 6001SOL    HW129639   0.480   3.708   3.848 -0.7740  0.2635 -0.3840
 6001SOL    HW229640   0.495   3.782   3.719  1.4163 -1.1828 -0.2581
 6002SOL     OW29641   3.165   4.072   5.766  0.2830 -0.2293 -0.5013
 6002SOL    HW129642   3.094   4.078   5.702 -1.6696 -0.5871  1.6093
 6002SOL    HW229643   3.125   4.023   5.838  0.0393 -0.4611 -0.7968
 6003SOL     OW29644   1.776   0.961   1.988  0.2206 -0.3073  0.2546
 6003SOL    HW129645   1.811   1.038   2.032 -1.7742 -0.4828  2.1082
 6003SOL    HW229646   1.730   1.002   1.914 -1.5103  1.7657  2.4743
 6004SOL     OW29647   1.200   3.716  17.602 -0.1541 -0.4231  0.0276
 6004SOL    HW129648   1.288   3.742  17.575 -0.0021 -2.2128 -1.2476
 6004SOL    HW229649   1.224   3.739  17.691 -1.1568  1.0780 -0.0909
 6005SOL     OW29650   4.075   0.552   2.126  0.0512  0.0500 -0.4519
 6005SOL    HW129651   3.998   0.577   2.176 -0.0446  0.1629 -0.6562
 6005SOL    HW229652   4.122   0.635   2.127 -0.8096  0.5836 -3.0546
 6006SOL     OW29653   1.069   3.310   4.744 -0.4282 -0.0683  0.2371
 6006SOL    HW129654   1.105   3.392   4.713  1.4515 -1.2698 -0.7647
 6006SOL    HW229655   1.109   3.254   4.678  2.3124  1.0735  0.9332
 6007SOL     OW29656   2.673   4.136   2.428 -0.1234 -0.0204 -0.6606
 6007SOL    HW129657   2.618   4.063   2.456 -0.5438  0.9947  1.2058
 6007SOL    HW229658   2.758   4.121   2.471 -0.3544 -2.2187 -0.9977
 6008SOL     OW29659   2.708   2.098   4.826  0.0348  0.4334 -0.5197
 6008SOL    HW129660   2.725   2.061   4.912 -1.3422  1.7213  0.3051
 6008SOL    HW229661   2.798   2.095   4.793 -0.1710 -2.6887 -0.7553
 6009SOL     OW29662   2.849   3.800   5.264 -0.4115  0.0228 -0.1345
 6009SOL    HW129663   2.769   3.824   5.311 -1.0148 -1.1420 -0.5777
 6009SOL    HW229664   2.853   3.708   5.289  1.2182  0.1745  0.1696
 6010SOL     OW29665   3.965   3.693   8.642 -0.5380 -0.3408 -0.4942
 6010SOL    HW129666   3.930   3.739   8.718  3.5289 -1.2794  1.9406
 6010SOL    HW229667   4.060   3.698   8.655 -0.6408  0.8318 -0.1985
 6011SOL     OW29668   3.645   2.947   6.989  0.4278 -0.3359  0.2043
 6011SOL    HW129669   3.708   2.966   6.920 -1.1332  2.5097 -0.4783
 6011SOL    HW229670   3.629   3.033   7.029  2.2186  0.6565 -1.2584
 6012SOL     OW29671   2.410   1.523   8.752 -0.4210 -0.6682 -0.6172
 6012SOL    HW129672   2.430   1.430   8.760  0.8227 -0.1982  1.6646
 6012SOL    HW229673   2.437   1.551   8.840 -1.5339 -0.4672 -0.3355
 6013SOL     OW29674   4.441   1.333   1.982  0.7320  0.0264  0.5697
 6013SOL    HW129675   4.471   1.424   1.973 -1.8452  0.8581  0.1553
 6013SOL    HW229676   4.354   1.340   2.021 -0.2205 -1.8686 -1.1955
 6014SOL     OW29677   0.635   4.316   8.360 -0.3170  0.3398  0.0917
 6014SOL    HW129678   0.569   4.277   8.418  0.1593  0.2349  0.5607
 6014SOL    HW229679   0.583   4.392   8.332 -1.3676  0.3116  1.9705
 6015SOL     OW29680   2.721   1.419   4.877  0.3958  0.3805 -0.0601
 6015SOL    HW129681   2.632   1.402   4.845  0.9468 -2.5658 -0.0820
 6015SOL    HW229682   2.703   1.414   4.971 -2.9944 -2.1283 -0.8362
 6016SOL     OW29683   0.605   2.049  13.286 -0.2867 -0.2960 -0.1774
 6016SOL    HW129684   0.692   2.085  13.271  1.0158 -2.3433  2.4087
 6016SOL    HW229685   0.574   2.126  13.334  0.0343 -1.8813  2.5647
 6017SOL     OW29686   3.476   4.336  16.431 -0.4617  0.3874  0.4534
 6017SOL    HW129687   3.429   4.306  16.509 -0.7805 -0.7097 -0.1534
 6017SOL    HW229688   3.514   4.252  16.405  2.7450  1.6604  1.0223
 6018SOL     OW29689   2.209   0.206   1.635  0.4617 -0.3528  0.3039
 6018SOL    HW129690   2.182   0.290   1.597 -0.3921 -1.1658 -0.8836
 6018SOL    HW229691   2.297   0.207   1.598  1.2721  0.1331  2.2095
 6019SOL     OW29692   4.510   0.653  14.633  0.1033  0.2554  0.2580
 6019SOL    HW129693   4.444   0.624  14.570 -0.1120  1.5935 -0.1215
 6019SOL    HW229694   4.573   0.691  14.573 -1.5328  3.4077  0.5642
 6020SOL     OW29695   1.872   1.325   6.286 -0.2862 -0.3019 -0.3734
 6020SOL    HW129696   1.857   1.237   6.253  3.3051 -0.6135 -1.1805
 6020SOL    HW229697   1.948   1.358   6.237  0.6510 -1.2442  0.4635
 6021SOL     OW29698   0.271   2.948   7.685 -0.2425 -0.2912 -0.7628
 6021SOL    HW129699   0.200   3.012   7.680 -0.8943 -0.7644  2.3038
 6021SOL    HW229700   0.262   2.912   7.597 -0.8305  1.3788 -1.3923
 6022SOL     OW29701   3.748   1.531   7.536 -0.2401 -0.0643 -0.4022
 6022SOL    HW129702   3.776   1.452   7.490  0.6537 -0.3187  0.5872
 6022SOL    HW229703   3.656   1.550   7.519  0.0687  0.6964 -1.2067
 6023SOL     OW29704   4.102   2.913   9.349 -0.1790  0.4218  0.9123
 6023SOL    HW129705   4.182   2.957   9.319  0.0300 -0.0100  0.8316
 6023SOL    HW229706   4.138   2.863   9.423 -3.9130 -4.3111 -0.4772
 6024SOL     OW29707   1.784   2.637   8.006 -0.3381 -0.4126  0.4182
 6024SOL    HW129708   1.730   2.619   8.084 -0.6238  2.3676  0.8360
 6024SOL    HW229709   1.751   2.563   7.954  0.2624 -0.4903  0.1514
 6025SOL     OW29710   3.855   2.239   5.468  0.2635 -0.3113 -0.5010
 6025SOL    HW129711   3.792   2.239   5.540 -0.8700  0.5926 -1.5031
 6025SOL    HW229712   3.894   2.152   5.478 -0.7284 -0.6672  0.2275
 6026SOL     OW29713   2.083   1.103  15.779 -0.3955  0.2801  0.4618
 6026SOL    HW129714   2.172   1.113  15.745 -0.5233 -0.9751 -0.2381
 6026SOL    HW229715   2.093   1.110  15.874  0.3829  0.1807  0.3885
 6027SOL     OW29716   0.810   3.708   6.834  0.5608  0.0626  0.0315
 6027SOL    HW129717   0.748   3.687   6.904 -1.3533  0.8111 -1.4211
 6027SOL    HW229718   0.751   3.695   6.760 -0.3057 -1.6156  1.0128
 6028SOL     OW29719   1.634   1.786   2.665 -0.5994  0.1094 -0.0989
 6028SOL    HW129720   1.620   1.770   2.758  1.3014 -0.2480  0.1156
 6028SOL    HW229721   1.709   1.844   2.650 -1.3291  0.9618 -0.5010
 6029SOL     OW29722   0.651   3.912   4.165 -0.0923 -0.0444  0.2634
 6029SOL    HW129723   0.625   3.820   4.163 -2.3413  0.5805  0.8537
 6029SOL    HW229724   0.584   3.951   4.222  1.2588  2.6094  0.0483
 6030SOL     OW29725   1.995   3.353  10.840  0.1311  0.3381 -0.6293
 6030SOL    HW129726   1.993   3.298  10.762  0.2973 -2.8747  1.6485
 6030SOL    HW229727   1.914   3.404  10.830 -0.3744 -0.1804  0.7312
 6031SOL     OW29728   0.522   3.229   5.176  0.2339  0.7601 -0.5722
 6031SOL    HW129729   0.580   3.251   5.102  1.3807 -0.1088  0.0547
 6031SOL    HW229730   0.435   3.231   5.137  0.1918 -0.4972 -0.5697
 6032SOL     OW29731   3.626   4.627  12.516 -0.3832 -0.0652 -0.1575
 6032SOL    HW129732   3.644   4.631  12.422 -0.4734 -0.7046 -0.1971
 6032SOL    HW229733   3.542   4.580  12.519 -0.2747 -0.1159  1.8611
 6033SOL     OW29734   1.838   4.187   6.372  0.5741 -0.0649 -0.8147
 6033SOL    HW129735   1.835   4.181   6.276 -1.7509  1.1701 -0.8160
 6033SOL    HW229736   1.769   4.126   6.397 -0.8890  0.9611 -2.3064
 6034SOL     OW29737   0.424   3.438  13.756  0.1697  0.3090  0.6372
 6034SOL    HW129738   0.330   3.428  13.770 -0.0201 -0.0018 -0.8314
 6034SOL    HW229739   0.453   3.471  13.841 -1.4325  1.5567  0.7169
 6035SOL     OW29740   3.697   3.905   2.465 -0.3038 -0.0719 -0.0081
 6035SOL    HW129741   3.625   3.877   2.522 -0.4017  1.6801  0.7447
 6035SOL    HW229742   3.769   3.909   2.528 -1.7330  2.7168  1.4801
 6036SOL     OW29743   3.706   1.008   3.564  0.0121 -0.3262  0.3338
 6036SOL    HW129744   3.633   1.003   3.626 -0.1664 -0.4141  0.1166
 6036SOL    HW229745   3.762   1.076   3.602  1.3396 -0.8349 -0.7293
 6037SOL     OW29746   4.089   2.310   6.430  0.0434 -0.5309  0.1181
 6037SOL    HW129747   4.022   2.377   6.440 -0.1146 -0.4163 -1.7572
 6037SOL    HW229748   4.136   2.307   6.513  0.3718  0.4849 -0.0314
 6038SOL     OW29749   2.952   3.852   7.499  0.3467  0.2035 -0.7643
 6038SOL    HW129750   2.938   3.852   7.405  2.4878  0.6308 -1.0798
 6038SOL    HW229751   2.936   3.944   7.520 -2.9192 -0.1315 -1.8336
 6039SOL     OW29752   3.210   3.755   1.506  0.0717  0.0285 -0.8089
 6039SOL    HW129753   3.191   3.695   1.433  2.0288 -2.4176  0.6800
 6039SOL    HW229754   3.292   3.718   1.540 -0.1936  0.0481 -0.1523
 6040SOL     OW29755   2.682   3.653   4.785 -0.5123 -0.1668  0.4465
 6040SOL    HW129756   2.768   3.693   4.798 -1.3644  1.7714  0.0031
 6040SOL    HW229757   2.642   3.663   4.872 -0.4822 -1.6700  0.6400
 6041SOL     OW29758   1.079   2.683   3.725 -0.3825 -0.1204 -0.1041
 6041SOL    HW129759   1.112   2.630   3.797  1.0795 -0.0234 -0.7178
 6041SOL    HW229760   1.067   2.613   3.660 -0.2970  0.5961 -0.9009
 6042SOL     OW29761   2.496   4.012   1.122 -0.3989 -0.1206  0.1789
 6042SOL    HW129762   2.445   4.055   1.191 -0.1702  0.1268  0.1908
 6042SOL    HW229763   2.464   4.064   1.048  0.8869 -0.6323 -0.7288
 6043SOL     OW29764   0.584   0.900  13.685  0.3442 -0.2749  0.0424
 6043SOL    HW129765   0.653   0.889  13.619  1.4144  3.5186  0.5304
 6043SOL    HW229766   0.505   0.891  13.631 -0.8981  2.0839  1.4762
 6044SOL     OW29767   3.768   3.825   0.329 -0.3029  0.2112  0.2383
 6044SOL    HW129768   3.838   3.816   0.264  0.7862 -2.4383  1.7532
 6044SOL    HW229769   3.815   3.822   0.413  1.0898 -1.4513 -0.5844
 6045SOL     OW29770   3.250   0.036   7.419  0.1322 -0.0599  0.3267
 6045SOL    HW129771   3.292   0.056   7.335 -1.3253 -3.4881 -1.2012
 6045SOL    HW229772   3.166   0.003   7.388  0.2985  0.5433 -0.7540
 6046SOL     OW29773   1.251   0.355  10.637  0.0551 -0.5348 -0.3519
 6046SOL    HW129774   1.288   0.343  10.549  2.2526 -1.1602  0.6774
 6046SOL    HW229775   1.304   0.294  10.688  0.1129 -0.8959 -0.8444
 6047SOL     OW29776   1.809   2.000   5.649  0.3601  0.3240 -0.3711
 6047SOL    HW129777   1.795   2.089   5.681 -1.2808 -0.4851  1.1415
 6047SOL    HW229778   1.892   1.978   5.691  0.0327  0.0375  0.1220
 6048SOL     OW29779   0.769   0.669   8.468 -0.0114 -0.3954 -0.5678
 6048SOL    HW129780   0.798   0.748   8.514  1.5396 -2.4069  1.8408
 6048SOL    HW229781   0.770   0.620   8.550  1.1252  1.5821  0.6148
 6049SOL     OW29782   4.312   4.489   5.173  0.1171 -0.4010  0.5631
 6049SOL    HW129783   4.299   4.453   5.085  1.5482  1.5241 -0.4412
 6049SOL    HW229784   4.221   4.492   5.203 -0.0900 -1.8816  0.1331
 6050SOL     OW29785   4.606   1.597   4.897  0.4292 -0.1737 -0.2332
 6050SOL    HW129786   4.648   1.683   4.886 -0.4451  0.2380 -0.3253
 6050SOL    HW229787   4.680   1.554   4.941  0.5152 -0.1193 -0.3254
 6051SOL     OW29788   1.325   4.453   3.622 -0.5398 -0.4035 -0.1177
 6051SOL    HW129789   1.349   4.518   3.689  0.2545  0.8409 -1.5986
 6051SOL    HW229790   1.384   4.379   3.635  1.2649  1.3306  1.6059
 6052SOL     OW29791   1.139   0.093  17.700 -0.2784 -0.3882  0.3605
 6052SOL    HW129792   1.069   0.099   0.018  0.0939 -0.7212  0.7975
 6052SOL    HW229793   1.215   0.082   0.011 -0.0762  1.9194  0.5009
 6053SOL     OW29794   3.551   0.644   0.114 -0.0456 -0.1027  0.0381
 6053SOL    HW129795   3.520   0.729   0.081  0.2422  0.7709  1.9823
 6053SOL    HW229796   3.483   0.621   0.178 -0.7321 -1.5057 -1.2144
 6054SOL     OW29797   2.920   2.378  17.135 -0.5828 -0.1459 -0.6884
 6054SOL    HW129798   2.858   2.316  17.174  1.6521 -1.0453  1.4676
 6054SOL    HW229799   2.878   2.464  17.141 -0.5419 -0.3200  2.2595
 6055SOL     OW29800   4.713   4.254   7.925 -0.5804 -0.3600  0.4928
 6055SOL    HW129801   4.678   4.316   7.860  2.4438 -0.3753 -1.1710
 6055SOL    HW229802   4.630   4.223   7.960 -0.6166 -1.0946 -0.2307
 6056SOL     OW29803   0.570   1.147   3.789  0.4560 -0.6239  0.4186
 6056SOL    HW129804   0.530   1.233   3.804  2.0361  0.1483  0.1465
 6056SOL    HW229805   0.636   1.166   3.723  1.9232 -3.0145  1.1920
 6057SOL     OW29806   4.129   2.394  10.832 -0.1781 -0.7915 -0.2324
 6057SOL    HW129807   4.222   2.413  10.834 -0.4088  0.3142  0.1449
 6057SOL    HW229808   4.125   2.407  10.926  2.1345  1.3118 -0.4493
 6058SOL     OW29809   0.445   0.003   5.077  0.3775 -0.2271  0.1113
 6058SOL    HW129810   0.446   0.086   5.029  1.4812 -0.5642 -0.4624
 6058SOL    HW229811   0.473   4.680   5.008 -1.9416  0.2549 -1.2499
 6059SOL     OW29812   2.038   4.711  14.820  0.1665 -0.5407 -0.5315
 6059SOL    HW129813   2.070   4.693  14.732 -0.3554  0.9973 -1.0289
 6059SOL    HW229814   2.067   0.065  14.820 -1.1368 -0.1291 -0.9673
 6060SOL     OW29815   1.764   1.027   6.878  0.2569 -0.1387  0.0319
 6060SOL    HW129816   1.777   0.958   6.943  1.1115  1.1201  1.2067
 6060SOL    HW229817   1.759   0.979   6.796 -0.8994  0.5628 -0.3152
 6061SOL     OW29818   2.479   4.450   7.562  0.4404 -0.0869 -0.4419
 6061SOL    HW129819   2.536   4.485   7.494 -1.9505  1.5743 -1.5805
 6061SOL    HW229820   2.431   4.383   7.512 -0.3533 -0.5443  0.9156
 6062SOL     OW29821   3.365   0.611   0.304  0.2326  0.2976 -0.2324
 6062SOL    HW129822   3.390   0.578   0.391  0.3825  0.3626 -0.2517
 6062SOL    HW229823   3.309   0.680   0.339  0.9220  0.6010  0.2834
 6063SOL     OW29824   1.899   4.704   6.635  0.3262  0.0250 -0.1799
 6063SOL    HW129825   1.858   4.652   6.565  0.9841 -0.1475 -0.4385
 6063SOL    HW229826   1.985   4.663   6.628  0.6768  0.9669 -1.4088
 6064SOL     OW29827   2.960   0.910   2.829 -0.2325  0.5768  0.2700
 6064SOL    HW129828   2.931   0.948   2.746 -1.2348  1.0585  0.8371
 6064SOL    HW229829   2.881   0.864   2.858 -1.0138  1.0689 -1.0545
 6065SOL     OW29830   0.700   2.333   9.580  0.3538  0.0237 -0.3269
 6065SOL    HW129831   0.630   2.309   9.640  1.1370 -2.7327 -0.4929
 6065SOL    HW229832   0.765   2.264   9.591  0.3870 -0.0571 -1.0241
 6066SOL     OW29833   0.682   0.743   9.408 -0.4507  0.5039  0.1860
 6066SOL    HW129834   0.600   0.758   9.454  0.0109 -3.0699  2.1337
 6066SOL    HW229835   0.739   0.719   9.481 -0.7002 -1.1325 -0.1561
 6067SOL     OW29836   1.335   3.817  11.231 -0.3775 -0.2554  0.2398
 6067SOL    HW129837   1.301   3.731  11.208  1.7931 -1.2568  0.7589
 6067SOL    HW229838   1.352   3.793  11.322  1.1980 -3.2565 -0.8763
 6068SOL     OW29839   1.508   0.403   7.652 -0.1407 -0.6087 -0.2088
 6068SOL    HW129840   1.472   0.335   7.595 -2.6754 -1.7232  2.6850
 6068SOL    HW229841   1.517   0.463   7.579  0.3997  0.3715  0.6652
 6069SOL     OW29842   2.387   2.526   5.905  0.0873 -0.3478  0.3507
 6069SOL    HW129843   2.378   2.568   5.820  2.2579 -0.5832  0.0057
 6069SOL    HW229844   2.457   2.574   5.948  1.3386 -1.9718  0.1269
 6070SOL     OW29845   0.680   2.386   0.199 -0.5932  0.1216 -0.7733
 6070SOL    HW129846   0.611   2.326   0.227 -0.7692  0.1007 -1.2545
 6070SOL    HW229847   0.690   2.446   0.272  1.5403 -1.8483  0.5424
 6071SOL     OW29848   4.407   0.805  15.417  0.1385  0.2344 -0.1353
 6071SOL    HW129849   4.401   0.755  15.336  0.0540  0.2785 -0.1568
 6071SOL    HW229850   4.491   0.772  15.449  1.1404  0.4611 -2.5589
 6072SOL     OW29851   2.768   4.441  13.461  0.4407 -0.0559  0.8565
 6072SOL    HW129852   2.786   4.359  13.507 -0.4080  1.1679  3.4020
 6072SOL    HW229853   2.694   4.403  13.415  0.8154  2.3452 -1.7185
 6073SOL     OW29854   0.437   4.253   5.358 -0.6527  0.4195  0.9952
 6073SOL    HW129855   0.475   4.321   5.414  0.4060  1.3258 -0.8119
 6073SOL    HW229856   0.510   4.216   5.308  0.4496  1.4954  1.8401
 6074SOL     OW29857   2.873   0.350   6.715  0.2331 -0.1356  0.1499
 6074SOL    HW129858   2.793   0.303   6.739  0.0399  0.0934 -0.0427
 6074SOL    HW229859   2.835   0.437   6.705  2.0336  0.5117 -1.0506
 6075SOL     OW29860   4.184   3.731   9.024  0.4234 -0.3969 -0.3521
 6075SOL    HW129861   4.167   3.696   8.937  0.4073  0.9201 -0.8809
 6075SOL    HW229862   4.098   3.706   9.057 -0.2855  1.7936 -0.5423
 6076SOL     OW29863   3.381   4.580   6.289 -0.2214 -0.1299  0.5522
 6076SOL    HW129864   3.474   4.601   6.294 -0.0793 -1.4779  3.8894
 6076SOL    HW229865   3.380   4.532   6.372 -2.6468 -0.9523  0.0674
 6077SOL     OW29866   3.586   0.918   7.837  0.3181 -0.4502 -0.1191
 6077SOL    HW129867   3.589   0.995   7.892 -1.7049 -2.5640  2.9470
 6077SOL    HW229868   3.606   0.849   7.900  0.6682 -0.0535  0.2033
 6078SOL     OW29869   4.353   2.172   1.898  0.2517 -0.3163 -0.5361
 6078SOL    HW129870   4.434   2.220   1.881  0.7697 -0.1007  2.5196
 6078SOL    HW229871   4.380   2.142   1.985 -1.1472 -0.0656 -0.0308
 6079SOL     OW29872   3.350   4.459   4.290  0.0866  0.3952 -0.3170
 6079SOL    HW129873   3.371   4.374   4.252 -0.1484  0.3902 -0.4340
 6079SOL    HW229874   3.347   4.517   4.214 -0.1424 -1.3112 -1.6139
 6080SOL     OW29875   0.646   3.327  16.757 -0.8292 -0.5085 -0.1381
 6080SOL    HW129876   0.626   3.353  16.667 -0.7084  1.3486  0.3785
 6080SOL    HW229877   0.554   3.329  16.783 -0.7668 -1.6750  0.1693
 6081SOL     OW29878   3.749   1.677   9.120  0.4476  0.2471 -0.4650
 6081SOL    HW129879   3.798   1.655   9.041 -0.0148  0.4620 -0.8155
 6081SOL    HW229880   3.720   1.764   9.092 -1.5902 -0.4232 -0.4700
 6082SOL     OW29881   4.593   0.054   7.465 -0.2628  0.3898  0.2624
 6082SOL    HW129882   4.608   0.101   7.383  1.9888 -0.9298 -0.0713
 6082SOL    HW229883   4.507   0.093   7.483 -0.3040  0.5436 -0.2656
 6083SOL     OW29884   3.946   4.688   5.981  0.5364 -0.1125  0.1224
 6083SOL    HW129885   4.004   4.651   5.914  0.1323  0.1055 -0.3425
 6083SOL    HW229886   3.971   4.623   6.047 -0.0407 -0.3349  0.1167
 6084SOL     OW29887   4.269   4.690   3.226  0.6114 -0.2399  0.7375
 6084SOL    HW129888   4.238   4.646   3.305 -2.5098  1.4504  0.4895
 6084SOL    HW229889   4.337   4.627   3.206 -0.4575 -0.6688 -1.5668
 6085SOL     OW29890   1.632   3.017   3.731  0.4449  0.2646 -0.4046
 6085SOL    HW129891   1.538   3.004   3.735 -0.1041  4.2603  0.0525
 6085SOL    HW229892   1.656   2.995   3.641 -0.4313  0.4948 -0.6858
 6086SOL     OW29893   0.452   4.606   2.690 -0.6042  0.1340 -0.5553
 6086SOL    HW129894   0.530   4.636   2.737 -0.2419  1.6345 -2.0841
 6086SOL    HW229895   0.398   4.564   2.756 -0.8977  1.2188 -0.1059
 6087SOL     OW29896   1.366   1.177   4.957  0.4870  0.0086  0.0643
 6087SOL    HW129897   1.329   1.266   4.950 -2.2583 -1.0703  0.8734
 6087SOL    HW229898   1.396   1.156   4.869  1.5467  1.5696  0.0552
 6088SOL     OW29899   3.333   3.320   3.686 -0.0150 -0.3313 -0.3412
 6088SOL    HW129900   3.356   3.400   3.734 -0.1728  1.1292 -2.7043
 6088SOL    HW229901   3.238   3.328   3.680 -0.2223 -3.3970 -1.1789
 6089SOL     OW29902   3.536   4.191  11.857 -0.1637 -0.4307 -0.3656
 6089SOL    HW129903   3.501   4.265  11.906 -0.3412 -1.9511  1.7942
 6089SOL    HW229904   3.585   4.241  11.792 -0.1860  2.6645  1.9864
 6090SOL     OW29905   3.121   3.096   6.178  0.1047 -0.1418  0.2156
 6090SOL    HW129906   3.206   3.088   6.135  0.1450  1.1267  0.0635
 6090SOL    HW229907   3.070   3.030   6.131  2.7927 -1.8102 -0.3902
 6091SOL     OW29908   1.744   1.893   4.799 -0.5837 -0.3217  0.6675
 6091SOL    HW129909   1.683   1.961   4.770 -0.8738 -0.4607  0.9578
 6091SOL    HW229910   1.823   1.945   4.812  0.2896 -1.5800  0.4122
 6092SOL     OW29911   0.887   3.147   0.606 -0.1913  0.0254  0.2830
 6092SOL    HW129912   0.853   3.223   0.654  1.6171  1.0101 -0.0021
 6092SOL    HW229913   0.954   3.175   0.544 -1.7661 -0.9288 -1.8623
 6093SOL     OW29914   3.150   4.630   8.453 -0.0544 -0.5881 -0.0392
 6093SOL    HW129915   3.164   4.698   8.519  2.5478 -0.3496 -0.8336
 6093SOL    HW229916   3.186   4.552   8.494  1.9102  1.2868  1.8129
 6094SOL     OW29917   1.698   2.826   3.049  0.3805 -0.3672 -0.2574
 6094SOL    HW129918   1.701   2.873   2.966  0.2970  2.9710  1.6294
 6094SOL    HW229919   1.720   2.898   3.108 -1.8744  0.1196  0.0023
 6095SOL     OW29920   3.862   1.193   4.839  0.2652 -0.5952 -0.2109
 6095SOL    HW129921   3.846   1.240   4.920  0.3922  0.8389 -1.0254
 6095SOL    HW229922   3.926   1.255   4.807 -0.2816  0.1018  0.0387
 6096SOL     OW29923   0.128   2.251   4.528  0.3711  0.6498 -0.0260
 6096SOL    HW129924   0.088   2.265   4.442  1.8512 -1.4171 -1.0510
 6096SOL    HW229925   0.219   2.244   4.502  0.2688 -0.5286 -0.0502
 6097SOL     OW29926   2.194   3.329   8.558 -0.4189 -0.4056  0.1306
 6097SOL    HW129927   2.107   3.294   8.576 -0.5795  0.1506  0.4073
 6097SOL    HW229928   2.222   3.276   8.482 -1.5193  0.4936 -0.8962
 6098SOL     OW29929   3.881   2.991   7.829  0.2798 -0.3954 -0.5510
 6098SOL    HW129930   3.864   2.940   7.908 -1.2366 -1.3233 -1.4620
 6098SOL    HW229931   3.961   3.041   7.847  0.3550 -1.2382  1.3898
 6099SOL     OW29932   0.593   0.043   5.717  0.2235  0.1960  0.5356
 6099SOL    HW129933   0.619   0.126   5.758  0.1380 -0.5741  2.1674
 6099SOL    HW229934   0.544   0.005   5.790 -0.1346  0.1290  0.2618
 6100SOL     OW29935   1.479   3.564   7.030 -0.4105  0.2508  0.1606
 6100SOL    HW129936   1.493   3.658   7.026  0.2814  0.1255 -0.4387
 6100SOL    HW229937   1.399   3.553   6.980 -0.0867 -1.1591 -0.0619
 6101SOL     OW29938   0.431   2.851   6.330  0.4609 -0.4506  0.5548
 6101SOL    HW129939   0.435   2.756   6.339  1.0448 -0.7082 -2.2906
 6101SOL    HW229940   0.338   2.872   6.321  0.2498 -1.5347  0.2352
 6102SOL     OW29941   2.847   1.433   8.650  0.5843  0.0651 -0.1860
 6102SOL    HW129942   2.759   1.399   8.666  0.0846  1.0848 -0.6891
 6102SOL    HW229943   2.905   1.362   8.676 -0.5116 -0.7377  0.0901
 6103SOL     OW29944   2.107   2.779   2.852  0.2433  0.1880 -0.7856
 6103SOL    HW129945   2.066   2.865   2.842  1.2966  1.2254  3.4915
 6103SOL    HW229946   2.198   2.803   2.869  0.3408 -1.0944  0.5421
 6104SOL     OW29947   3.255   1.116   8.483  0.0270  0.0626 -0.3958
 6104SOL    HW129948   3.234   1.122   8.390  2.2791  1.2177 -0.8220
 6104SOL    HW229949   3.307   1.036   8.495  0.7044  0.6821  0.8625
 6105SOL     OW29950   1.790   2.967   6.676 -0.0826  0.0660  0.2254
 6105SOL    HW129951   1.775   3.025   6.750  1.9719  1.5210 -0.5329
 6105SOL    HW229952   1.704   2.938   6.643 -0.2201  1.1338 -0.3546
 6106SOL     OW29953   2.714   1.272  16.990  0.4841 -0.1830 -0.6221
 6106SOL    HW129954   2.810   1.277  16.989  0.5067 -0.5642 -0.4770
 6106SOL    HW229955   2.686   1.336  17.054  1.3419  1.0628 -1.4825
 6107SOL     OW29956   0.600   0.410   0.910  0.2112  0.0424 -0.0969
 6107SOL    HW129957   0.685   0.412   0.865  1.7745 -4.0857  2.6857
 6107SOL    HW229958   0.559   0.337   0.864  1.1488 -1.1697  0.9964
 6108SOL     OW29959   0.051   4.440   2.994  0.3841 -0.2644  0.3820
 6108SOL    HW129960   0.133   4.413   2.953 -1.0621 -2.8829 -0.8351
 6108SOL    HW229961   4.718   4.411   2.935  2.0170 -0.6277 -1.3815
 6109SOL     OW29962   1.252   4.443  11.735 -0.2365 -0.1437 -0.4228
 6109SOL    HW129963   1.190   4.513  11.754 -0.2168 -0.6017  1.3724
 6109SOL    HW229964   1.294   4.441  11.821 -0.8069 -0.9028 -0.1625
 6110SOL     OW29965   2.930   0.228   5.278  0.4086  0.2078 -0.0079
 6110SOL    HW129966   2.910   0.305   5.330 -0.6392 -0.3568  0.4274
 6110SOL    HW229967   2.934   0.162   5.347  0.4279  1.6104  1.3226
 6111SOL     OW29968   0.818   1.694   3.572  0.0364 -0.4318  0.1437
 6111SOL    HW129969   0.853   1.756   3.636  0.0973  0.5958 -0.8861
 6111SOL    HW229970   0.788   1.629   3.636  1.4102  1.6369  2.8858
 6112SOL     OW29971   3.534   0.774  13.418 -0.1795 -0.0378  0.0320
 6112SOL    HW129972   3.543   0.788  13.324 -0.1026 -1.3265 -0.1465
 6112SOL    HW229973   3.551   0.858  13.462  0.1630  0.0688 -0.3061
 6113SOL     OW29974   3.609   3.966   7.187  0.0667  0.2348 -0.3770
 6113SOL    HW129975   3.576   4.056   7.187 -0.2668  0.1115 -0.5809
 6113SOL    HW229976   3.623   3.947   7.095 -0.3372 -0.1933 -0.3504
 6114SOL     OW29977   2.633   1.293   1.961 -0.0804 -0.1537 -0.7221
 6114SOL    HW129978   2.711   1.337   1.928  0.3002 -0.2140  0.0842
 6114SOL    HW229979   2.580   1.286   1.882 -2.0353  2.9839  0.3292
 6115SOL     OW29980   1.126   3.544   6.513  0.2803  0.0824  0.0825
 6115SOL    HW129981   1.210   3.564   6.555  1.1831  2.2641 -2.7984
 6115SOL    HW229982   1.087   3.495   6.586  1.0340  1.4960  1.4410
 6116SOL     OW29983   3.614   4.472   6.036 -0.5099  0.4559 -0.0586
 6116SOL    HW129984   3.586   4.395   6.087 -1.0476 -0.1774 -1.3214
 6116SOL    HW229985   3.642   4.525   6.111 -1.4752 -0.5471  1.0398
 6117SOL     OW29986   0.356   3.114  16.699 -0.4206  0.4015 -0.1962
 6117SOL    HW129987   0.278   3.094  16.752  0.8629 -0.7700  1.2449
 6117SOL    HW229988   0.391   3.186  16.750 -0.5631 -0.3065  0.9070
 6118SOL     OW29989   3.880   3.828   7.650  0.2798  0.0234  0.3441
 6118SOL    HW129990   3.882   3.890   7.577 -0.3140 -0.1939  0.1429
 6118SOL    HW229991   3.862   3.892   7.718  2.0167  0.5309  0.3266
 6119SOL     OW29992   1.410   1.103   3.658 -0.0891 -0.3290  0.0185
 6119SOL    HW129993   1.500   1.128   3.678 -0.4966  1.2363 -0.1351
 6119SOL    HW229994   1.414   1.008   3.647  0.7707 -0.3688  0.6493
 6120SOL     OW29995   0.569   1.534   4.484  0.0980  0.1056 -0.5666
 6120SOL    HW129996   0.610   1.616   4.513  0.4877  0.0074 -0.8458
 6120SOL    HW229997   0.648   1.494   4.448  0.4235 -0.6434  0.9672
 6121SOL     OW29998   2.226   4.558   6.215  0.2390  0.4916 -0.3016
 6121SOL    HW129999   2.185   4.488   6.266  0.6325  1.1916  0.9911
 6121SOL    HW230000   2.201   4.638   6.262 -0.5732  0.0299  0.0669
 6122SOL     OW30001   3.104   4.309   5.235  0.3421 -0.3043 -0.0799
 6122SOL    HW130002   3.094   4.258   5.315  1.4671 -0.6958 -0.1867
 6122SOL    HW230003   3.011   4.327   5.219  0.3131 -0.8139 -0.4917
 6123SOL     OW30004   1.192   4.488   5.885 -0.5999 -0.1926  0.0209
 6123SOL    HW130005   1.262   4.488   5.950  0.8731  0.1663 -1.5636
 6123SOL    HW230006   1.120   4.520   5.939 -1.0105  0.3426 -0.8390
 6124SOL     OW30007   3.137   4.661   8.814 -0.1119  0.8887  0.0892
 6124SOL    HW130008   3.138   4.591   8.880  1.1493 -0.3886 -1.2961
 6124SOL    HW230009   3.046   4.690   8.817 -0.3538  0.2964 -1.6047
 6125SOL     OW30010   1.241   2.537   5.611 -0.1969  0.0492  0.5537
 6125SOL    HW130011   1.241   2.448   5.577  0.8900  0.0884  0.4224
 6125SOL    HW230012   1.150   2.563   5.605 -0.0622 -0.1310 -2.1908
 6126SOL     OW30013   1.966   3.709  15.948 -0.0017  0.2785 -0.0526
 6126SOL    HW130014   2.018   3.684  15.872  0.5940  1.6588 -0.0961
 6126SOL    HW230015   1.919   3.784  15.912 -0.8335 -0.4592 -0.5092
 6127SOL     OW30016   3.546   3.681   6.974 -0.5460 -0.4659 -0.2609
 6127SOL    HW130017   3.518   3.772   6.964  0.5701 -0.0323  0.5520
 6127SOL    HW230018   3.641   3.692   6.970 -0.5895 -0.7778 -1.8027
 6128SOL     OW30019   1.184   3.276   5.258 -0.4853  0.1954  0.1120
 6128SOL    HW130020   1.256   3.220   5.285 -0.8469 -0.0631  0.5492
 6128SOL    HW230021   1.125   3.204   5.238 -1.0174  0.6801 -0.0660
 6129SOL     OW30022   0.518   2.891   3.309 -0.1862 -0.1964 -0.6113
 6129SOL    HW130023   0.439   2.928   3.349  1.3520  2.0188  0.3723
 6129SOL    HW230024   0.491   2.923   3.223 -0.6018 -1.8547 -1.1007
 6130SOL     OW30025   1.625   3.709   8.610  0.3016 -0.0505 -0.6081
 6130SOL    HW130026   1.623   3.784   8.669 -0.7572 -0.2489 -0.3869
 6130SOL    HW230027   1.534   3.680   8.606 -0.1544  1.7862 -3.2600
 6131SOL     OW30028   0.314   3.178   1.955  0.9638 -0.6316 -0.1194
 6131SOL    HW130029   0.362   3.159   1.874 -1.1086 -0.7645 -1.3308
 6131SOL    HW230030   0.325   3.273   1.951 -0.6096 -0.3826  1.5017
 6132SOL     OW30031   0.477   2.814   8.930  0.0697  0.0921  0.1083
 6132SOL    HW130032   0.448   2.723   8.921  2.3472 -0.5913 -0.2440
 6132SOL    HW230033   0.503   2.830   8.840 -0.3434 -0.5464 -0.1317
 6133SOL     OW30034   1.781   0.165  13.006 -0.5522 -0.6134 -0.7412
 6133SOL    HW130035   1.835   0.242  13.026 -1.5827 -0.0820  0.0039
 6133SOL    HW230036   1.796   0.111  13.083  2.0974  0.4989 -0.4732
 6134SOL     OW30037   1.851   4.607   4.411  0.7357  0.3499 -0.4840
 6134SOL    HW130038   1.756   4.611   4.420  0.6663  2.6929 -2.0583
 6134SOL    HW230039   1.865   4.514   4.394  1.2568  0.1668  0.9324
 6135SOL     OW30040   2.209   0.405  15.148  0.1584  0.1950 -0.3081
 6135SOL    HW130041   2.147   0.338  15.177  0.4034 -0.7913 -2.0625
 6135SOL    HW230042   2.191   0.478  15.207 -2.0614  0.6370 -1.5125
 6136SOL     OW30043   3.239   4.723  12.626 -0.1469 -0.6580 -0.1945
 6136SOL    HW130044   3.167   4.722  12.689 -0.6005  0.9992 -0.6744
 6136SOL    HW230045   3.235   0.077  12.595  2.0170  0.1950  2.0656
 6137SOL     OW30046   0.898   0.703   6.613 -0.5017 -0.1457 -0.3181
 6137SOL    HW130047   0.811   0.677   6.581 -1.1501 -0.1569  1.4917
 6137SOL    HW230048   0.898   0.679   6.705 -0.7138  1.8921  0.2129
 6138SOL     OW30049   0.673   0.236   9.283 -0.0002  1.6339 -0.7112
 6138SOL    HW130050   0.595   0.200   9.242  0.8482 -2.0247  0.8702
 6138SOL    HW230051   0.626   0.302   9.333  0.0176  0.7279  0.5238
 6139SOL     OW30052   3.922   0.069  16.899 -0.0075  0.1448 -0.3284
 6139SOL    HW130053   3.872   0.150  16.889 -0.3054  0.0860  0.6660
 6139SOL    HW230054   3.872   0.007  16.845 -1.3300 -0.6624  1.8269
 6140SOL     OW30055   1.691   4.675   7.432  0.1574 -0.2396  0.1282
 6140SOL    HW130056   1.762   4.671   7.368  0.3871  0.1775  0.3535
 6140SOL    HW230057   1.699   4.596   7.485 -0.6656  0.4706  1.3295
 6141SOL     OW30058   1.978   4.317   3.608 -0.0242 -0.2391  0.5511
 6141SOL    HW130059   2.001   4.375   3.535  0.5342  0.1461  1.0345
 6141SOL    HW230060   1.970   4.232   3.566 -1.1357  0.9184 -1.5837
 6142SOL     OW30061   2.294   0.947   7.216 -0.5283  0.0571  0.0907
 6142SOL    HW130062   2.325   0.929   7.305 -0.1711 -0.6480 -0.1768
 6142SOL    HW230063   2.274   0.857   7.192 -0.4527  0.7849 -2.6004
 6143SOL     OW30064   2.315   2.301   0.865 -0.2153  0.2394  0.1355
 6143SOL    HW130065   2.386   2.284   0.803  1.2113  0.6583  1.6576
 6143SOL    HW230066   2.354   2.301   0.952 -0.9725  0.0241  0.4776
 6144SOL     OW30067   2.721   3.635   5.853 -0.6146 -0.4965 -0.0194
 6144SOL    HW130068   2.772   3.713   5.874 -1.9697  0.1033  1.1009
 6144SOL    HW230069   2.790   3.572   5.871  0.0474  0.4977  0.8919
 6145SOL     OW30070   0.479   3.768   2.550  1.1648  0.0808  0.4993
 6145SOL    HW130071   0.479   3.864   2.547  1.1437  0.1465  2.7975
 6145SOL    HW230072   0.529   3.766   2.631  3.3483 -2.0675 -0.9144
 6146SOL     OW30073   1.881   2.651   8.508  0.1446 -0.1019 -0.2577
 6146SOL    HW130074   1.869   2.676   8.416 -1.3247 -2.5187 -0.7299
 6146SOL    HW230075   1.794   2.621   8.534  1.0547  0.0030  2.8903
 6147SOL     OW30076   3.739   1.079   9.090 -0.1834 -1.1420  0.5426
 6147SOL    HW130077   3.746   1.117   9.003 -0.7919 -0.9060  0.5948
 6147SOL    HW230078   3.812   1.120   9.135 -0.7667  1.4454 -0.8898
 6148SOL     OW30079   4.471   2.348   7.626  0.4444 -0.3481 -0.1067
 6148SOL    HW130080   4.412   2.368   7.553 -2.4333 -2.0570  1.7448
 6148SOL    HW230081   4.411   2.324   7.697 -0.0892 -1.0461 -0.7912
 6149SOL     OW30082   0.847   1.460   4.401  0.1216  0.2012  0.2573
 6149SOL    HW130083   0.891   1.419   4.327 -0.3723  2.6371 -1.4026
 6149SOL    HW230084   0.918   1.519   4.426  1.1505 -0.4386 -1.2350
 6150SOL     OW30085   0.024   1.702   2.236 -0.1148 -0.3502 -0.3351
 6150SOL    HW130086   0.078   1.640   2.187 -0.8454  0.2751 -1.9178
 6150SOL    HW230087   0.080   1.780   2.238 -0.8041  0.1290  0.0135
 6151SOL     OW30088   1.238   2.461  16.876 -0.2163  0.4522 -0.4587
 6151SOL    HW130089   1.253   2.466  16.971 -2.4569  2.6890 -0.2416
 6151SOL    HW230090   1.144   2.444  16.872 -0.0886 -0.6770  1.3099
 6152SOL     OW30091   0.281   3.280  16.499  0.3850  0.3106  0.1450
 6152SOL    HW130092   0.191   3.249  16.483  0.4733  1.3734 -2.4576
 6152SOL    HW230093   0.315   3.223  16.567 -1.1521  1.0235  1.5082
 6153SOL     OW30094   1.023   3.490  10.536  0.1646 -0.6918  0.6553
 6153SOL    HW130095   1.014   3.577  10.574  1.4316 -1.2739  2.2441
 6153SOL    HW230096   1.112   3.499  10.501 -0.2860 -1.4307 -0.6861
 6154SOL     OW30097   0.553   1.251   4.935 -0.1362 -0.0069  0.4087
 6154SOL    HW130098   0.567   1.306   4.857 -3.4353  0.5709  0.1957
 6154SOL    HW230099   0.630   1.195   4.928  1.3667  2.0383  0.4878
 6155SOL     OW30100   1.561   4.592   8.719  0.7386  0.3848 -0.3076
 6155SOL    HW130101   1.609   4.555   8.645  0.1806 -0.3032 -0.3290
 6155SOL    HW230102   1.563   4.685   8.699  1.0719  0.7486  1.3747
 6156SOL     OW30103   0.067   3.109   5.867  0.2669  0.0609  0.2921
 6156SOL    HW130104   0.106   3.195   5.849 -1.7308  0.9941  0.4616
 6156SOL    HW230105   4.737   3.141   5.927  1.0488  2.0413  0.1447
 6157SOL     OW30106   1.778   4.288   7.987 -0.1297 -0.1600 -0.3743
 6157SOL    HW130107   1.701   4.343   7.970  2.1105  2.8388 -0.7870
 6157SOL    HW230108   1.750   4.203   7.953  0.1534 -0.3557 -0.1050
 6158SOL     OW30109   1.495   2.585  14.261  0.0664 -0.2127  0.0619
 6158SOL    HW130110   1.410   2.629  14.264  0.2569  0.3221 -2.1817
 6158SOL    HW230111   1.508   2.583  14.166 -2.3878 -0.9254 -0.2631
 6159SOL     OW30112   3.110   4.391   7.190 -0.2835 -0.2252 -0.0686
 6159SOL    HW130113   3.179   4.457   7.186 -1.3507  0.9336  0.5756
 6159SOL    HW230114   3.036   4.432   7.146  0.5209 -0.4545 -1.6067
 6160SOL     OW30115   3.180   2.753   4.190  0.0720  0.1751  0.0024
 6160SOL    HW130116   3.274   2.759   4.208  0.8533 -0.2478 -3.8009
 6160SOL    HW230117   3.171   2.679   4.131  0.3534  0.2100 -0.0851
 6161SOL     OW30118   0.852   3.022   5.847  0.2197 -0.0576  0.3308
 6161SOL    HW130119   0.915   3.041   5.916 -1.5075 -1.1193  2.2245
 6161SOL    HW230120   0.920   2.992   5.787 -0.2576  1.3062 -0.9039
 6162SOL     OW30121   1.861   3.352  12.639  0.5350 -0.1413 -0.3260
 6162SOL    HW130122   1.919   3.411  12.591 -1.5852  1.2270 -1.2083
 6162SOL    HW230123   1.885   3.268  12.598 -0.1538 -0.4301 -0.1288
 6163SOL     OW30124   2.227   0.864   1.998 -0.0763  0.1827 -0.3319
 6163SOL    HW130125   2.240   0.898   2.086 -1.0290 -0.5816  0.1010
 6163SOL    HW230126   2.311   0.888   1.960  0.1836 -0.6992 -0.3230
 6164SOL     OW30127   0.614   2.473  10.311  0.1015 -0.0198  0.4242
 6164SOL    HW130128   0.671   2.428  10.249  1.0105  1.9631 -0.2021
 6164SOL    HW230129   0.651   2.456  10.398 -0.2981 -0.1263  0.5707
 6165SOL     OW30130   4.169   4.621   5.824  0.3636 -0.2534  0.0984
 6165SOL    HW130131   4.194   4.672   5.747  3.1007 -0.0010  1.1456
 6165SOL    HW230132   4.206   4.534   5.808  1.4996  0.5253 -1.4541
 6166SOL     OW30133   2.874   3.736   3.641  0.4873 -0.4958  0.0392
 6166SOL    HW130134   2.838   3.648   3.648 -0.1159 -0.0366  2.4767
 6166SOL    HW230135   2.820   3.786   3.701  1.3312 -0.1564  0.5257
 6167SOL     OW30136   2.924   4.521  16.707  0.1138  0.2561 -0.0067
 6167SOL    HW130137   2.929   4.426  16.713 -1.5785 -0.0432 -3.2141
 6167SOL    HW230138   2.875   4.539  16.787 -0.1803 -1.5970  0.2228
 6168SOL     OW30139   0.229   1.092   5.392 -0.2418 -0.1545  0.1281
 6168SOL    HW130140   0.274   1.159   5.444  0.3869 -0.3439 -0.1772
 6168SOL    HW230141   0.143   1.100   5.434 -0.0769  0.4432  0.3555
 6169SOL     OW30142   2.432   1.024  10.330 -0.5631 -0.1189 -0.0728
 6169SOL    HW130143   2.356   1.072  10.361 -1.7180 -2.2552  0.3432
 6169SOL    HW230144   2.384   0.954  10.287 -2.1363  0.7629  0.2526
 6170SOL     OW30145   4.614   1.615   9.067  0.1155  0.3295  0.1962
 6170SOL    HW130146   4.613   1.549   9.136 -0.5512  2.1124  1.8623
 6170SOL    HW230147   4.653   1.555   9.002  0.5516  0.5077  0.2913
 6171SOL     OW30148   2.553   0.356   2.110 -0.2284 -0.1491  0.0277
 6171SOL    HW130149   2.465   0.392   2.121  0.8835  2.2479  1.1184
 6171SOL    HW230150   2.557   0.358   2.014 -0.1230  0.8432  0.0573
 6172SOL     OW30151   1.597   2.773  11.345 -0.1652  0.3798  0.1132
 6172SOL    HW130152   1.542   2.695  11.336 -1.2834  1.1238  0.5386
 6172SOL    HW230153   1.628   2.771  11.254 -1.5287  0.9953 -0.3683
 6173SOL     OW30154   3.886   2.599  16.752  0.0298  0.1071  0.1578
 6173SOL    HW130155   3.927   2.650  16.682 -0.2533  0.9434  0.5895
 6173SOL    HW230156   3.934   2.632  16.828  1.8546  0.5008 -1.1675
 6174SOL     OW30157   2.067   3.193   4.779 -0.6764  0.5070  0.0017
 6174SOL    HW130158   2.046   3.120   4.721  0.6524 -0.7362  1.0780
 6174SOL    HW230159   1.988   3.188   4.833 -2.1066 -1.5299 -2.3287
 6175SOL     OW30160   0.445   4.630   3.514 -0.6718 -0.3269 -0.4669
 6175SOL    HW130161   0.502   4.589   3.449  0.4375 -0.6096  0.6809
 6175SOL    HW230162   0.440   4.560   3.579  0.0024 -0.1672 -0.2406
 6176SOL     OW30163   3.213   2.586   6.443 -0.1926 -0.7859  0.2733
 6176SOL    HW130164   3.241   2.559   6.356 -0.7911 -0.3620 -0.0542
 6176SOL    HW230165   3.295   2.592   6.491 -1.9959  2.1573  2.9797
 6177SOL     OW30166   1.357   4.247   7.041  0.1334 -0.0724 -0.0355
 6177SOL    HW130167   1.343   4.234   7.135 -1.5119  2.4666  0.0735
 6177SOL    HW230168   1.376   4.341   7.042 -0.8003  0.1286 -1.0324
 6178SOL     OW30169   0.535   1.838  14.709 -0.3854 -0.3916 -0.4477
 6178SOL    HW130170   0.616   1.812  14.754  0.5067 -1.6068 -2.7966
 6178SOL    HW230171   0.559   1.826  14.618 -0.3361 -1.3099 -0.3182
 6179SOL     OW30172   1.847   0.104   7.246  0.0175  0.2875  0.0307
 6179SOL    HW130173   1.918   0.097   7.310 -0.1629 -3.1661 -0.1452
 6179SOL    HW230174   1.853   0.197   7.224  2.3704  0.7143  2.5219
 6180SOL     OW30175   2.438   3.734   7.281  0.2217  0.1994  0.0131
 6180SOL    HW130176   2.346   3.761   7.270 -0.1567  0.1559  3.2590
 6180SOL    HW230177   2.438   3.638   7.284  0.8600  0.1562 -1.0749
 6181SOL     OW30178   3.238   4.447  13.001  0.2882 -0.3502 -0.4506
 6181SOL    HW130179   3.260   4.481  12.915 -0.0138  0.4208 -0.2300
 6181SOL    HW230180   3.316   4.448  13.056  0.2064  0.6851 -0.3622
 6182SOL     OW30181   1.061   4.095   9.031  0.5722 -0.9797 -0.2328
 6182SOL    HW130182   0.999   4.029   8.999 -0.9418  1.3171 -1.9581
 6182SOL    HW230183   1.141   4.074   8.983  1.5132 -0.9436  1.3108
 6183SOL     OW30184   2.348   4.092   0.599  0.0992 -0.3491 -0.1143
 6183SOL    HW130185   2.376   4.026   0.535  0.1312  1.3866 -1.9055
 6183SOL    HW230186   2.308   4.164   0.551 -0.1905 -0.3700  0.0998
 6184SOL     OW30187   0.086   0.611   9.695  0.1047 -0.4006  0.4100
 6184SOL    HW130188   0.020   0.548   9.665  0.8432 -1.8932  1.9009
 6184SOL    HW230189   0.149   0.556   9.742 -0.7060  0.2028  2.2267
 6185SOL     OW30190   0.294   2.948   4.205 -0.0681 -0.4528  0.7118
 6185SOL    HW130191   0.269   2.949   4.297 -3.4380  0.2084 -0.2168
 6185SOL    HW230192   0.375   2.897   4.206  0.2672  0.0787  0.6630
 6186SOL     OW30193   1.575   4.394  11.878 -0.0739  0.4475 -0.1260
 6186SOL    HW130194   1.484   4.416  11.898 -1.3642 -1.5000 -3.9192
 6186SOL    HW230195   1.579   4.339  11.957 -1.7375 -0.1628 -0.4746
 6187SOL     OW30196   1.258   1.187   9.728 -0.2081  0.8494  0.2112
 6187SOL    HW130197   1.274   1.185   9.823 -2.0697 -2.7064  0.4148
 6187SOL    HW230198   1.347   1.168   9.698 -0.7867 -1.8354  0.2382
 6188SOL     OW30199   4.092   2.274   6.045 -0.3261 -0.5703 -0.4341
 6188SOL    HW130200   4.169   2.306   6.092  0.6888 -0.8141 -1.9214
 6188SOL    HW230201   4.134   2.228   5.972 -1.8254 -0.4693 -1.3551
 6189SOL     OW30202   2.152   1.154   2.660 -0.8062  0.5874 -0.2067
 6189SOL    HW130203   2.210   1.078   2.652  0.3076  1.3825  0.2279
 6189SOL    HW230204   2.135   1.135   2.752  2.9238  1.1047  0.5855
 6190SOL     OW30205   4.071   4.469   6.131 -0.0470 -0.1439 -0.4560
 6190SOL    HW130206   4.081   4.404   6.200 -3.1470  0.3916  0.4718
 6190SOL    HW230207   4.022   4.419   6.066 -1.9218  1.2894 -0.1572
 6191SOL     OW30208   2.642   2.371   4.875  0.8321 -0.9733 -0.0502
 6191SOL    HW130209   2.590   2.340   4.950 -1.0445 -0.0094 -0.9440
 6191SOL    HW230210   2.656   2.288   4.829  1.5409 -0.9824  0.1838
 6192SOL     OW30211   2.580   4.446  16.732  0.4169  0.3058  0.3930
 6192SOL    HW130212   2.632   4.375  16.695 -0.3303  1.4979 -2.8891
 6192SOL    HW230213   2.600   4.438  16.826  0.2612  1.8877  0.5617
 6193SOL     OW30214   1.961   4.143   5.697 -0.3228 -0.0013  0.0780
 6193SOL    HW130215   2.020   4.108   5.630  0.4842 -0.2068  0.8972
 6193SOL    HW230216   1.874   4.134   5.658 -0.1569 -0.8230 -0.1043
 6194SOL     OW30217   3.401   2.509   3.968  0.0715  0.2105  0.4153
 6194SOL    HW130218   3.407   2.573   3.897  2.4349  1.1388  1.4428
 6194SOL    HW230219   3.491   2.483   3.986  0.0489  0.1062  0.3764
 6195SOL     OW30220   2.340   4.223   9.390 -0.3626 -0.1373  1.0330
 6195SOL    HW130221   2.258   4.193   9.353  0.6032 -1.7053  0.1536
 6195SOL    HW230222   2.372   4.279   9.320 -0.0874 -1.1526  0.3442
 6196SOL     OW30223   3.647   3.321   8.387  0.2152 -0.4795  0.2119
 6196SOL    HW130224   3.704   3.284   8.320 -1.2931 -4.4897  1.0998
 6196SOL    HW230225   3.704   3.373   8.444  1.5169  0.2333 -1.7573
 6197SOL     OW30226   3.898   0.034   5.671  0.3655 -0.0490 -0.0755
 6197SOL    HW130227   3.892   4.680   5.697  1.3497  0.3298  1.4742
 6197SOL    HW230228   3.853   0.030   5.586  0.1890  2.3277 -0.0962
 6198SOL     OW30229   4.567   3.625  10.085  0.1004 -0.0500  0.9672
 6198SOL    HW130230   4.562   3.609  10.179  1.6248 -1.3176  0.8224
 6198SOL    HW230231   4.524   3.711  10.086 -0.8328 -0.5220  1.6075
 6199SOL     OW30232   0.363   2.687   3.735  0.1475 -0.1780 -0.3654
 6199SOL    HW130233   0.432   2.730   3.684  0.6336 -0.5006  0.0188
 6199SOL    HW230234   0.295   2.681   3.668  0.9431 -1.6311 -1.0575
 6200SOL     OW30235   2.229   0.043   4.193 -0.0475  0.2224 -0.6688
 6200SOL    HW130236   2.271   0.096   4.260 -1.7853 -0.6824  1.1161
 6200SOL    HW230237   2.305   0.026   4.137  1.5720 -0.6217  1.7768
 6201SOL     OW30238   4.561   3.053   7.249  0.3374 -0.2763 -0.0147
 6201SOL    HW130239   4.627   2.993   7.214  0.2755 -0.3752  0.0386
 6201SOL    HW230240   4.561   3.026   7.341  0.8393 -1.6680 -0.4212
 6202SOL     OW30241   2.164   4.719  10.756  0.3555  0.0386 -0.0481
 6202SOL    HW130242   2.141   4.674  10.838  0.9261 -1.0789 -0.4968
 6202SOL    HW230243   2.260   4.715  10.758  0.3914  1.4258  0.9993
 6203SOL     OW30244   0.872   2.874   0.660  0.5251  0.1103 -0.5619
 6203SOL    HW130245   0.903   2.964   0.666 -0.0564  0.0675  3.0485
 6203SOL    HW230246   0.782   2.882   0.693  0.9831  0.5917  0.5888
 6204SOL     OW30247   2.714   2.248   3.642  0.0064 -0.0434 -0.2625
 6204SOL    HW130248   2.643   2.229   3.580  0.0341  1.9944 -0.9083
 6204SOL    HW230249   2.667   2.270   3.723 -0.2974  2.1537 -1.0619
 6205SOL     OW30250   4.382   1.317   5.063  0.3005 -0.5943 -0.0628
 6205SOL    HW130251   4.365   1.408   5.038  0.0422 -0.3473  1.0111
 6205SOL    HW230252   4.416   1.278   4.982 -1.2283 -0.0954 -0.9518
 6206SOL     OW30253   0.295   0.125   7.255 -0.2495 -0.3281 -0.5572
 6206SOL    HW130254   0.217   0.110   7.309 -0.0198 -0.0441 -0.1519
 6206SOL    HW230255   0.370   0.088   7.302  0.5079 -0.3139 -1.7520
 6207SOL     OW30256   0.391   0.514   8.546  0.3583 -0.0307 -0.6659
 6207SOL    HW130257   0.315   0.546   8.499 -1.2832 -3.7251 -0.5138
 6207SOL    HW230258   0.381   0.528   8.640  1.2267 -0.0298 -0.5730
 6208SOL     OW30259   4.211   0.431  15.092 -0.2987 -0.5663  0.0122
 6208SOL    HW130260   4.232   0.399  15.004 -0.0554  0.8478 -0.4490
 6208SOL    HW230261   4.273   0.380  15.143 -0.3546 -0.2936  0.3522
 6209SOL     OW30262   2.005   1.299   8.611 -0.2189  0.7851 -0.3277
 6209SOL    HW130263   2.003   1.384   8.656 -1.6498  0.3568  0.4212
 6209SOL    HW230264   2.070   1.249   8.660  0.0816  0.8512 -0.6569
 6210SOL     OW30265   2.999   0.252   4.418  0.1342  0.1549  0.2396
 6210SOL    HW130266   2.967   0.217   4.501 -1.0315 -1.0077 -0.7139
 6210SOL    HW230267   3.074   0.302   4.452 -1.7612  3.5037 -0.5423
 6211SOL     OW30268   2.030   3.949   2.977  0.1622 -0.0346 -0.2655
 6211SOL    HW130269   2.024   3.854   2.964  2.9041 -0.5266  2.1143
 6211SOL    HW230270   2.057   3.976   2.890  0.5962  0.8906  0.1567
 6212SOL     OW30271   3.586   3.272   1.457 -0.3922  0.3993  0.2035
 6212SOL    HW130272   3.500   3.243   1.486 -0.5015  1.3395  0.8014
 6212SOL    HW230273   3.568   3.260   1.364  0.4677  2.1973 -0.1874
 6213SOL     OW30274   4.587   2.989  14.484  0.3583 -0.1175 -0.3976
 6213SOL    HW130275   4.661   2.938  14.453 -0.2800 -1.5591  0.4520
 6213SOL    HW230276   4.587   2.974  14.579  0.5829 -0.8555 -0.5211
 6214SOL     OW30277   4.362   4.378   0.905  0.6436  0.0053 -0.0137
 6214SOL    HW130278   4.298   4.318   0.942  0.8025 -1.4617 -2.1109
 6214SOL    HW230279   4.299   4.446   0.880 -0.9080 -0.8963  1.4914
 6215SOL     OW30280   1.521   2.025   5.901  0.1028  0.6297 -0.4038
 6215SOL    HW130281   1.492   2.046   5.990 -0.5459  0.7101 -0.6335
 6215SOL    HW230282   1.611   1.995   5.916 -0.7354 -0.4974  2.2612
 6216SOL     OW30283   1.720   2.044   3.510  0.5009  0.1568 -0.0182
 6216SOL    HW130284   1.808   2.081   3.503 -0.1318  1.2073 -2.6080
 6216SOL    HW230285   1.729   1.995   3.592  0.3853  1.6409  0.8815
 6217SOL     OW30286   4.086   3.230  17.441 -0.3477  0.1172 -0.3169
 6217SOL    HW130287   4.100   3.241  17.535 -0.7023  1.2510 -0.3960
 6217SOL    HW230288   4.147   3.158  17.422  1.1153  1.3473 -0.3277
 6218SOL     OW30289   0.977   1.497   3.282  0.4132 -0.3476 -0.6757
 6218SOL    HW130290   0.925   1.576   3.299 -1.2801 -1.6217 -0.0026
 6218SOL    HW230291   1.014   1.471   3.366 -0.7343 -1.4854 -0.5201
 6219SOL     OW30292   4.698   3.085  17.088  0.7250  0.0504 -0.3422
 6219SOL    HW130293   4.646   3.141  17.030 -0.6595  0.4795  1.3065
 6219SOL    HW230294   4.690   3.102  17.182 -0.1296  0.7909 -0.5434
 6220SOL     OW30295   0.623   3.008   0.485  0.7530 -0.2217  0.1026
 6220SOL    HW130296   0.702   3.057   0.510  1.4939 -0.5514 -1.5201
 6220SOL    HW230297   0.665   2.928   0.453  1.9307  0.3693  0.1395
 6221SOL     OW30298   0.966   4.653  17.502 -0.1620 -0.0113 -0.2702
 6221SOL    HW130299   0.898   4.651  17.569  1.3469 -1.9107  1.2183
 6221SOL    HW230300   1.044   4.691  17.544 -1.0765 -1.0736  2.3662
 6222SOL     OW30301   1.004   3.930   2.574 -0.7979  0.4492 -0.3021
 6222SOL    HW130302   0.956   3.903   2.652 -1.2818  0.1630 -0.6987
 6222SOL    HW230303   1.092   3.946   2.608 -0.9147  0.0717  0.1798
 6223SOL     OW30304   4.277   2.089   8.361 -0.1996  0.5621 -0.1561
 6223SOL    HW130305   4.324   2.010   8.386 -0.5481  0.4443  0.1228
 6223SOL    HW230306   4.285   2.140   8.441  1.5020  3.6223 -2.2766
 6224SOL     OW30307   3.131   3.962   2.516 -0.6313  0.3570  0.4506
 6224SOL    HW130308   3.066   3.908   2.561 -0.7635 -0.6028 -0.8877
 6224SOL    HW230309   3.081   3.991   2.439 -0.6651  1.6041  0.9536
 6225SOL     OW30310   3.690   0.647  16.003 -0.2615  0.4590 -0.6814
 6225SOL    HW130311   3.621   0.712  15.987 -1.4391 -1.0146 -1.5941
 6225SOL    HW230312   3.732   0.651  15.917  2.5042 -1.2604  0.5750
 6226SOL     OW30313   3.348   1.590   3.568 -0.0776 -0.7971  0.5148
 6226SOL    HW130314   3.378   1.584   3.659 -0.0425 -2.0858  0.4300
 6226SOL    HW230315   3.420   1.532   3.544  0.0684 -1.3158  2.1907
 6227SOL     OW30316   3.599   2.203   7.377 -0.2210 -0.2016  0.1045
 6227SOL    HW130317   3.546   2.154   7.440  2.0803 -0.4957  1.8083
 6227SOL    HW230318   3.690   2.180   7.395 -0.2303 -0.8672 -0.6993
 6228SOL     OW30319   2.694   4.313   3.501  0.4352  0.5421 -0.1966
 6228SOL    HW130320   2.646   4.368   3.563  0.7816 -0.4742  0.9510
 6228SOL    HW230321   2.670   4.348   3.415 -2.2522 -0.7021  0.0557
 6229SOL     OW30322   4.522   0.245   5.336  0.2729  0.4668 -0.1722
 6229SOL    HW130323   4.543   0.314   5.399 -1.9879  0.0707  1.0269
 6229SOL    HW230324   4.612   0.213   5.328  0.3810  0.4216  1.1667
 6230SOL     OW30325   2.671   1.439   1.727  0.3153  0.1229 -0.7202
 6230SOL    HW130326   2.583   1.402   1.728  1.0610 -1.5948  0.0377
 6230SOL    HW230327   2.646   1.532   1.729  1.1351  0.3375 -0.5042
 6231SOL     OW30328   1.028   3.126   8.826 -0.3299  0.0325 -0.5858
 6231SOL    HW130329   1.101   3.185   8.807 -0.0268 -0.2626 -0.3468
 6231SOL    HW230330   1.073   3.073   8.892 -4.0822 -0.4857  1.5871
 6232SOL     OW30331   3.070   0.280   8.766  0.0669 -0.0288  0.3022
 6232SOL    HW130332   3.127   0.311   8.837  1.6220 -1.5317 -0.2976
 6232SOL    HW230333   3.048   0.196   8.807 -2.3000  0.6853  0.4841
 6233SOL     OW30334   3.768   2.802   6.364  0.4705  0.0822 -0.2984
 6233SOL    HW130335   3.848   2.755   6.340  1.3837  1.4635  0.0188
 6233SOL    HW230336   3.759   2.773   6.455 -0.3495  0.4624 -0.2551
 6234SOL     OW30337   0.465   1.322   9.602  0.7783  1.1267  0.1442
 6234SOL    HW130338   0.388   1.309   9.658 -0.5193 -1.5444 -2.2964
 6234SOL    HW230339   0.532   1.332   9.669 -0.0684  2.0446  0.8661
 6235SOL     OW30340   1.699   2.592   8.265 -0.7183 -0.2015 -0.5717
 6235SOL    HW130341   1.708   2.682   8.296 -3.0346  0.1277 -0.8399
 6235SOL    HW230342   1.604   2.590   8.279 -0.9029  0.4454 -1.7710
 6236SOL     OW30343   1.382   2.731   5.028 -0.3552  0.2526  0.1483
 6236SOL    HW130344   1.455   2.749   5.087 -0.7782  0.9423  0.4480
 6236SOL    HW230345   1.429   2.702   4.949 -0.8800  0.1571 -0.1305
 6237SOL     OW30346   0.158   3.149   4.070  0.0459  0.6080  0.2870
 6237SOL    HW130347   0.074   3.129   4.028  0.5224  0.3209 -0.5115
 6237SOL    HW230348   0.191   3.066   4.106 -0.4436  0.7436  1.0627
 6238SOL     OW30349   2.671   3.254   8.909  0.0379  0.1584  0.4066
 6238SOL    HW130350   2.608   3.314   8.870  1.6867 -0.2618 -2.9629
 6238SOL    HW230351   2.606   3.190   8.938 -1.3654  1.6457  0.4748
 6239SOL     OW30352   2.504   0.945   8.000 -0.2074 -0.5332  0.0841
 6239SOL    HW130353   2.524   1.038   8.005 -0.5480 -0.5631  1.7375
 6239SOL    HW230354   2.511   0.919   8.091 -1.0693  1.5255  0.7322
 6240SOL     OW30355   4.396   2.775   4.363 -0.2280  0.2083 -0.7150
 6240SOL    HW130356   4.352   2.824   4.293 -0.2962 -0.8851 -1.4289
 6240SOL    HW230357   4.466   2.731   4.315 -0.6330 -0.4656 -0.6822
 6241SOL     OW30358   0.015   4.560   2.210  0.1941 -0.2608  0.3603
 6241SOL    HW130359   4.703   4.580   2.130  2.3157 -0.6014 -1.0058
 6241SOL    HW230360   4.727   4.631   2.270 -1.2992 -0.0045 -0.5562
 6242SOL     OW30361   0.395   2.306  10.598  0.2551  0.3130 -0.0285
 6242SOL    HW130362   0.478   2.261  10.581  1.2678  1.8431  0.9006
 6242SOL    HW230363   0.367   2.252  10.672  1.4134 -0.4562 -0.1602
 6243SOL     OW30364   1.637   4.080   0.619  0.0445 -0.5321  0.3910
 6243SOL    HW130365   1.645   4.030   0.701 -1.1094  0.4060  1.0766
 6243SOL    HW230366   1.724   4.119   0.609 -1.0655  1.5351 -1.1890
 6244SOL     OW30367   1.149   0.056  16.329 -0.0052  0.3015 -0.2757
 6244SOL    HW130368   1.068   0.105  16.347 -0.1578  0.6839 -2.0144
 6244SOL    HW230369   1.141   4.721  16.391  0.3018  0.1744 -0.3851
 6245SOL     OW30370   3.355   3.682   6.347  0.5482  0.4534  0.3105
 6245SOL    HW130371   3.447   3.681   6.371  0.7471  0.4298 -0.4321
 6245SOL    HW230372   3.338   3.589   6.360  1.2012  0.3176  0.1660
 6246SOL     OW30373   2.265   1.254   9.449 -0.1399 -0.3131  0.1027
 6246SOL    HW130374   2.210   1.176   9.455 -0.8708  0.1670 -0.3780
 6246SOL    HW230375   2.201   1.325   9.448  1.8497  1.4545 -2.2495
 6247SOL     OW30376   0.794   2.209   4.476 -0.1565  0.0174 -0.2899
 6247SOL    HW130377   0.855   2.140   4.502 -0.5987  0.2156  1.2989
 6247SOL    HW230378   0.732   2.188   4.546  2.6452 -0.7223  1.9865
 6248SOL     OW30379   0.919   4.117   7.195  0.0077  0.3534 -0.3904
 6248SOL    HW130380   0.875   4.119   7.280  1.7168  2.6842  0.4420
 6248SOL    HW230381   0.999   4.065   7.205 -0.6938 -0.6231  0.1455
 6249SOL     OW30382   2.279   3.355   6.733 -0.2504 -0.2969 -0.1319
 6249SOL    HW130383   2.231   3.303   6.668  0.4808  0.2849 -1.1409
 6249SOL    HW230384   2.353   3.296   6.741 -0.1378 -0.0677  0.5637
 6250SOL     OW30385   0.254   1.161   1.456 -0.3067  0.6263 -0.5076
 6250SOL    HW130386   0.271   1.191   1.367 -0.3016 -3.4081 -1.8876
 6250SOL    HW230387   0.214   1.076   1.438 -0.8499  0.7220  0.1938
 6251SOL     OW30388   0.676   3.970  17.252 -0.2706 -0.4146  0.0455
 6251SOL    HW130389   0.749   4.033  17.254 -0.4270 -0.1549 -2.3573
 6251SOL    HW230390   0.687   3.939  17.162 -1.1026  0.0937 -0.2382
 6252SOL     OW30391   0.710   3.081   3.549  0.0710  0.1415  0.0513
 6252SOL    HW130392   0.729   3.144   3.479 -0.2933 -0.6769 -0.7833
 6252SOL    HW230393   0.626   3.120   3.573 -0.1321 -0.1180 -0.2495
 6253SOL     OW30394   1.379   3.536   8.150  0.0153  0.6509  0.1958
 6253SOL    HW130395   1.353   3.498   8.066 -1.0385 -1.3067  1.4139
 6253SOL    HW230396   1.298   3.527   8.200  0.2695  0.5691  0.5905
 6254SOL     OW30397   2.603   4.504   4.571 -0.5369  0.0538 -0.0903
 6254SOL    HW130398   2.525   4.518   4.625 -0.0180 -1.0720  0.9541
 6254SOL    HW230399   2.634   4.595   4.576  1.0301 -0.4829  0.0078
 6255SOL     OW30400   4.601   2.626   1.308  0.1567  0.0662  0.2934
 6255SOL    HW130401   4.658   2.549   1.313  1.0236  0.7512  0.7577
 6255SOL    HW230402   4.518   2.596   1.269  0.0123 -0.0832  0.7218
 6256SOL     OW30403   3.340   4.358   1.898  0.1538 -0.1479  0.5427
 6256SOL    HW130404   3.417   4.414   1.903  0.2780 -0.0289 -2.7861
 6256SOL    HW230405   3.302   4.381   1.983 -1.3571  0.5843 -0.3344
 6257SOL     OW30406   0.802   0.400  11.005  0.4022 -0.1701 -0.0515
 6257SOL    HW130407   0.865   0.372  11.072 -1.2241 -0.1155  1.4946
 6257SOL    HW230408   0.805   0.495  11.020  1.7792 -0.0341 -1.2232
 6258SOL     OW30409   2.858   0.014   3.375  0.0231 -0.3785 -0.1490
 6258SOL    HW130410   2.766   0.006   3.400  0.8962 -0.2670  3.1255
 6258SOL    HW230411   2.882   0.084   3.435  0.1082  0.3207 -1.0008
 6259SOL     OW30412   1.645   3.114  17.287  0.0792 -0.1886 -0.1330
 6259SOL    HW130413   1.588   3.069  17.225 -1.3389 -0.7302  1.5526
 6259SOL    HW230414   1.729   3.068  17.278  0.1944 -0.1928  0.8878
 6260SOL     OW30415   0.200   3.653   6.193 -0.6370  0.0454 -0.1325
 6260SOL    HW130416   0.120   3.696   6.223 -1.4132 -0.4980 -1.4618
 6260SOL    HW230417   0.225   3.616   6.278 -1.7152  0.2532  0.2702
 6261SOL     OW30418   2.944   4.363  13.883  0.0574 -0.6509 -0.6976
 6261SOL    HW130419   2.973   4.389  13.970  0.6911 -0.5376 -0.9422
 6261SOL    HW230420   2.850   4.383  13.884  0.0210 -0.8785  0.0034
 6262SOL     OW30421   1.625   3.718   1.758  0.3179  0.0580 -0.2971
 6262SOL    HW130422   1.619   3.623   1.762 -1.0032  0.1477  0.0301
 6262SOL    HW230423   1.705   3.734   1.708  1.0323  1.5390  1.3236
 6263SOL     OW30424   3.848   2.306   7.851  0.6032  0.1156 -0.1690
 6263SOL    HW130425   3.902   2.229   7.869 -0.0205 -0.4314 -0.6507
 6263SOL    HW230426   3.779   2.275   7.793 -0.9656  1.8712  0.7745
 6264SOL     OW30427   2.158   4.577   8.346 -0.1864  0.1485  0.4474
 6264SOL    HW130428   2.245   4.587   8.307  0.0780 -2.2132  0.4068
 6264SOL    HW230429   2.173   4.533   8.430 -1.8634  0.6444  0.9980
 6265SOL     OW30430   4.639   3.936   2.070 -0.5857 -0.3672 -0.1185
 6265SOL    HW130431   4.565   3.946   2.009 -0.3696 -1.6196 -0.5740
 6265SOL    HW230432   4.705   3.914   2.004 -0.5448  0.9857 -0.5439
 6266SOL     OW30433   0.700   4.585   9.362 -1.0453 -0.0066 -0.1022
 6266SOL    HW130434   0.730   4.556   9.449 -0.3716 -0.0075 -0.3348
 6266SOL    HW230435   0.774   4.556   9.309 -1.5709 -1.1624 -0.2071
 6267SOL     OW30436   1.886   4.701   4.760  0.5007  0.7209 -0.1966
 6267SOL    HW130437   1.861   0.043   4.712 -0.5053  1.4911  1.6312
 6267SOL    HW230438   1.816   4.638   4.743 -0.0017  0.5496  2.5176
 6268SOL     OW30439   3.725   1.978   4.788  0.2140 -0.1450  0.4809
 6268SOL    HW130440   3.764   1.969   4.701 -2.0153  0.3452 -0.5621
 6268SOL    HW230441   3.653   2.039   4.776  0.3901  0.1741  1.0428
 6269SOL     OW30442   3.806   2.933   3.221 -0.2723  0.1636 -0.1323
 6269SOL    HW130443   3.817   2.906   3.130 -0.2291  1.5316 -0.5350
 6269SOL    HW230444   3.714   2.960   3.223  0.0915  1.6592 -2.4881
 6270SOL     OW30445   4.381   3.460   1.901  0.6258 -0.0425  1.2008
 6270SOL    HW130446   4.372   3.422   1.989 -1.5523 -0.6733  0.7048
 6270SOL    HW230447   4.397   3.552   1.923 -1.1168  0.7111 -0.7179
 6271SOL     OW30448   1.438   0.789   7.786 -0.1095 -0.3403 -0.0396
 6271SOL    HW130449   1.357   0.785   7.736  1.1746 -1.2734 -2.0412
 6271SOL    HW230450   1.477   0.869   7.751  0.6798 -0.1027  1.3581
 6272SOL     OW30451   2.468   2.260   6.381  0.2236  0.0483  0.2150
 6272SOL    HW130452   2.490   2.168   6.369 -0.1501 -0.2130  1.6054
 6272SOL    HW230453   2.526   2.283   6.453  1.1326  0.6351 -0.7018
 6273SOL     OW30454   3.704   0.819   9.134 -0.1175 -0.0825  0.1161
 6273SOL    HW130455   3.704   0.912   9.109  1.5868  0.0794  0.7303
 6273SOL    HW230456   3.707   0.820   9.229  0.2637 -0.0482  0.1037
 6274SOL     OW30457   4.654   2.520   3.520  0.0919 -0.0827 -0.2772
 6274SOL    HW130458   4.624   2.522   3.429 -0.6426  0.7443 -0.0313
 6274SOL    HW230459   4.652   2.426   3.536 -1.1494  0.0989  0.6998
 6275SOL     OW30460   0.196   3.523   2.967 -0.0253 -0.0641 -0.8057
 6275SOL    HW130461   0.237   3.437   2.958  0.5514  0.2883 -1.5784
 6275SOL    HW230462   0.252   3.576   2.910  0.1781  0.7066  0.1108
 6276SOL     OW30463   3.454   4.070   3.630 -0.2753 -0.3068  0.1190
 6276SOL    HW130464   3.448   4.161   3.660 -2.6268 -0.7981  1.1800
 6276SOL    HW230465   3.383   4.067   3.566  0.4771 -0.3800 -0.7069
 6277SOL     OW30466   3.577   3.202   7.059  0.2568  0.4269  0.0548
 6277SOL    HW130467   3.653   3.235   7.106 -0.7450  0.9524  1.3087
 6277SOL    HW230468   3.519   3.277   7.074  0.7565  0.3754  2.2193
 6278SOL     OW30469   3.851   2.553  14.788 -0.1525  0.5961  0.5693
 6278SOL    HW130470   3.855   2.479  14.848  2.7455  1.5261  1.5298
 6278SOL    HW230471   3.942   2.585  14.784  0.8066 -2.3038 -0.6272
 6279SOL     OW30472   3.000   1.134  14.884 -0.1746 -0.1068  0.1040
 6279SOL    HW130473   3.036   1.213  14.926 -0.8404  0.5437 -0.5510
 6279SOL    HW230474   2.981   1.175  14.800 -2.1989  1.2574  1.2195
 6280SOL     OW30475   0.148   1.186   8.372  0.1752 -0.4577  0.3418
 6280SOL    HW130476   0.152   1.282   8.363 -0.5385 -0.4511  0.1047
 6280SOL    HW230477   0.237   1.177   8.405  1.2948 -1.4835 -2.9936
 6281SOL     OW30478   2.093   2.344   5.330 -0.6400 -0.2323 -0.4112
 6281SOL    HW130479   2.035   2.327   5.256 -0.2859  1.8263 -1.1809
 6281SOL    HW230480   2.072   2.438   5.330 -0.6490 -0.2340  0.6554
 6282SOL     OW30481   2.927   1.147  11.411 -0.1631  0.0922  0.3273
 6282SOL    HW130482   2.953   1.238  11.407  1.5441 -0.4535 -0.9341
 6282SOL    HW230483   2.831   1.148  11.406 -0.1926 -1.9839  0.4333
 6283SOL     OW30484   0.884   1.841  17.548 -0.2060 -0.2193 -0.0858
 6283SOL    HW130485   0.892   1.791  17.467  1.3385 -0.9462  0.5076
 6283SOL    HW230486   0.795   1.810  17.565 -1.1106  2.6668  0.5572
 6284SOL     OW30487   3.605   2.794   4.889 -0.0076 -0.0227 -0.0360
 6284SOL    HW130488   3.662   2.774   4.963 -0.0309 -1.1403 -0.3226
 6284SOL    HW230489   3.579   2.704   4.869  0.3275 -0.0674 -0.2569
 6285SOL     OW30490   0.790   3.394   6.238  0.3155 -0.2972  0.3883
 6285SOL    HW130491   0.771   3.412   6.146 -0.6583 -0.1440  0.6166
 6285SOL    HW230492   0.841   3.470   6.265 -0.1648  0.2327 -0.2052
 6286SOL     OW30493   4.598   0.976   6.220 -0.2748  0.3912 -0.4601
 6286SOL    HW130494   4.655   1.032   6.272 -1.2294  2.4081 -1.5903
 6286SOL    HW230495   4.647   0.965   6.139  1.1128  0.7057  0.3467
 6287SOL     OW30496   4.261   1.211   8.348 -0.2195 -0.3226 -0.7645
 6287SOL    HW130497   4.220   1.298   8.352  1.2919  0.4638 -2.3216
 6287SOL    HW230498   4.200   1.171   8.286 -0.7931 -1.8417  0.7920
 6288SOL     OW30499   2.597   0.684   7.566 -0.3398  0.0554  0.4680
 6288SOL    HW130500   2.602   0.760   7.624  0.3314  1.8156 -1.8733
 6288SOL    HW230501   2.512   0.643   7.577  0.1219 -0.5700  1.6658
 6289SOL     OW30502   3.753   3.268   7.218 -0.1878  0.3691 -0.5801
 6289SOL    HW130503   3.833   3.307   7.254 -0.8245  1.3070 -0.1877
 6289SOL    HW230504   3.722   3.227   7.299 -4.4907  1.4658 -1.6462
 6290SOL     OW30505   1.178   3.534   4.626  0.3521 -0.1452  0.3346
 6290SOL    HW130506   1.256   3.583   4.601 -1.2238  1.6482 -1.0748
 6290SOL    HW230507   1.104   3.558   4.570  1.9631 -1.8132 -2.5075
 6291SOL     OW30508   1.990   1.738   5.612  0.2516 -0.1123  0.0515
 6291SOL    HW130509   2.009   1.778   5.527  0.7420  0.2880  0.3502
 6291SOL    HW230510   2.029   1.790   5.682  1.0761  0.3782 -0.7738
 6292SOL     OW30511   3.835   1.353   7.781 -0.0025  0.2112  0.1887
 6292SOL    HW130512   3.773   1.338   7.708  1.4088  0.5903 -1.0899
 6292SOL    HW230513   3.772   1.358   7.852  0.8065 -0.8089  0.9787
 6293SOL     OW30514   3.339   4.348   6.830 -0.1204  0.3716  0.0322
 6293SOL    HW130515   3.284   4.425   6.844  2.7225  2.3516  0.2239
 6293SOL    HW230516   3.270   4.284   6.849  0.7019  0.3088  2.8037
 6294SOL     OW30517   2.802   2.238   6.877  0.3793  0.1533 -0.0202
 6294SOL    HW130518   2.859   2.204   6.946 -0.9808 -0.7381  0.6609
 6294SOL    HW230519   2.728   2.276   6.924 -0.4969 -0.1777 -1.1380
 6295SOL     OW30520   2.147   4.545   7.902  0.3751  0.1677  0.8180
 6295SOL    HW130521   2.075   4.571   7.960 -1.0860 -1.2570 -0.3559
 6295SOL    HW230522   2.117   4.459   7.873 -0.4281  0.7394 -0.0532
 6296SOL     OW30523   4.218   0.052   7.178 -0.1626 -0.1149  0.2127
 6296SOL    HW130524   4.226   0.130   7.234  1.4777 -1.3891  1.7652
 6296SOL    HW230525   4.136   0.017   7.211 -0.6430 -0.0596 -0.9395
 6297SOL     OW30526   1.830   3.697   8.436 -0.1912 -0.3168  0.5971
 6297SOL    HW130527   1.755   3.707   8.494 -1.9681 -0.8832 -1.6212
 6297SOL    HW230528   1.813   3.626   8.375  1.7164 -2.4329  2.5190
 6298SOL     OW30529   1.575   4.544   5.825  0.1624  0.1554  0.3733
 6298SOL    HW130530   1.534   4.594   5.754  2.2190  1.9158  0.4439
 6298SOL    HW230531   1.657   4.589   5.844  0.1593  0.4618 -0.3259
 6299SOL     OW30532   3.217   3.373  13.720  0.0880  0.0767  0.2736
 6299SOL    HW130533   3.207   3.281  13.748 -1.2775  0.7089  1.8766
 6299SOL    HW230534   3.276   3.400  13.791  0.3295  0.2252  0.0141
 6300SOL     OW30535   0.651   1.296   9.827 -0.1026 -0.9578 -0.0311
 6300SOL    HW130536   0.593   1.353   9.878 -0.2518 -2.3086  1.3247
 6300SOL    HW230537   0.670   1.217   9.878 -2.0062 -1.2252  0.2755
 6301SOL     OW30538   4.262   0.515   5.040  0.4716  0.3340 -0.1394
 6301SOL    HW130539   4.342   0.519   5.092 -0.2598 -0.3593  1.0333
 6301SOL    HW230540   4.216   0.441   5.079  0.7415 -0.0898 -0.6330
 6302SOL     OW30541   1.330   1.880   5.798 -0.4275 -0.3347 -0.2745
 6302SOL    HW130542   1.389   1.810   5.770 -0.1383 -0.3668  0.4240
 6302SOL    HW230543   1.391   1.949   5.824  1.0783 -1.5720 -0.5813
 6303SOL     OW30544   3.976   0.295   0.039 -0.1904 -0.4035 -0.4219
 6303SOL    HW130545   3.954   0.283  17.694 -1.4582  1.4783 -0.3657
 6303SOL    HW230546   3.907   0.358   0.061 -1.4194 -1.7365 -0.4718
 6304SOL     OW30547   0.429   4.011   0.187 -0.2040  0.2031 -0.4490
 6304SOL    HW130548   0.507   4.029   0.135 -0.1926  0.9458 -0.1767
 6304SOL    HW230549   0.412   3.917   0.183 -1.1232  0.3342  0.3262
 6305SOL     OW30550   2.701   4.410   5.624 -0.8304  0.0143 -0.1603
 6305SOL    HW130551   2.797   4.406   5.630 -0.8780  0.4308  0.8055
 6305SOL    HW230552   2.675   4.398   5.715  1.1965 -0.5409  0.3596
 6306SOL     OW30553   2.976   2.970   6.728  0.1376 -0.1501 -0.1822
 6306SOL    HW130554   2.992   2.878   6.707  1.8815  0.0468  0.2342
 6306SOL    HW230555   3.034   2.983   6.803  0.0580 -0.2280 -0.1069
 6307SOL     OW30556   0.196   1.545   5.223 -0.7973  0.3705 -0.8905
 6307SOL    HW130557   0.265   1.568   5.286  1.4304  0.6869 -3.4326
 6307SOL    HW230558   0.232   1.458   5.203  1.4183  0.7571  1.3330
 6308SOL     OW30559   3.681   4.736  17.568 -0.0272 -0.0695 -0.8990
 6308SOL    HW130560   3.699   4.670  17.501  0.3328 -1.6310  0.7425
 6308SOL    HW230561   3.588   0.009  17.551 -0.3026 -2.6999 -0.9145
 6309SOL     OW30562   0.954   2.572   6.764 -0.3534 -0.1798 -0.0573
 6309SOL    HW130563   0.972   2.584   6.858 -2.7191  0.1277  0.3584
 6309SOL    HW230564   0.953   2.667   6.752  0.8235 -0.4143 -1.9747
 6310SOL     OW30565   3.342   3.027   6.989 -0.3955 -0.3029  0.0462
 6310SOL    HW130566   3.422   3.077   7.007 -0.4491 -0.3991  0.5634
 6310SOL    HW230567   3.320   3.028   6.896 -0.4282 -0.5258  0.0506
 6311SOL     OW30568   2.372   4.364   3.791 -0.4748  0.1473 -0.5822
 6311SOL    HW130569   2.442   4.417   3.754  0.4751  0.5231  1.7526
 6311SOL    HW230570   2.407   4.278   3.769  1.1640  0.7724 -0.4210
 6312SOL     OW30571   2.903   4.611   1.199 -0.0404 -0.4349 -0.6002
 6312SOL    HW130572   2.987   4.602   1.155  0.5301  0.8014  0.2369
 6312SOL    HW230573   2.864   4.659   1.126 -0.5932 -0.6447 -0.4442
 6313SOL     OW30574   1.438   3.240   9.130  0.1778 -0.0900 -0.3425
 6313SOL    HW130575   1.345   3.227   9.152  0.1812 -0.9720 -0.8499
 6313SOL    HW230576   1.462   3.191   9.209 -0.5964  1.2333  0.7354
 6314SOL     OW30577   3.495   3.102  11.402  0.3127 -0.4397 -0.5007
 6314SOL    HW130578   3.562   3.079  11.466  2.0734  0.5201 -1.9833
 6314SOL    HW230579   3.521   3.189  11.373  0.0631 -0.2137 -0.0419
 6315SOL     OW30580   3.102   1.332  15.019 -0.6222  0.2322  0.0947
 6315SOL    HW130581   3.123   1.419  15.054  1.3043 -0.4906  0.7511
 6315SOL    HW230582   3.086   1.292  15.104  0.4950  2.0853  1.1983
 6316SOL     OW30583   0.686   0.228  11.771  0.2276 -0.2196 -0.3380
 6316SOL    HW130584   0.674   0.319  11.742  0.8765  0.2769  0.9566
 6316SOL    HW230585   0.674   0.176  11.692 -0.3325  1.6976 -1.5261
 6317SOL     OW30586   1.312   1.950   3.603  0.2454  0.2882  0.0208
 6317SOL    HW130587   1.226   1.907   3.606  0.4053 -0.2680 -3.0934
 6317SOL    HW230588   1.314   2.005   3.681 -2.0497  0.2007  0.1384
 6318SOL     OW30589   0.384   4.380   5.865 -0.8589 -0.1980 -0.6822
 6318SOL    HW130590   0.373   4.297   5.911 -1.4401 -0.5987 -1.5394
 6318SOL    HW230591   0.305   4.379   5.812 -0.7576 -2.1731 -0.7945
 6319SOL     OW30592   3.948   3.573   2.451 -0.3894  0.2695  0.1987
 6319SOL    HW130593   3.947   3.662   2.415 -1.3989  0.2584  0.1898
 6319SOL    HW230594   4.034   3.573   2.492  0.1301  0.4114 -0.8888
 6320SOL     OW30595   2.456   1.864   6.823  0.2424  0.1912  0.6596
 6320SOL    HW130596   2.468   1.845   6.916  0.6629  0.3327  0.6309
 6320SOL    HW230597   2.516   1.937   6.808  0.8076  0.0992  2.5346
 6321SOL     OW30598   3.523   3.356   2.539  0.1394  0.1564  0.1284
 6321SOL    HW130599   3.575   3.288   2.582 -0.1588  0.6296  1.2356
 6321SOL    HW230600   3.564   3.436   2.573 -0.3748  0.1889  0.6599
 6322SOL     OW30601   3.588   3.631   6.464 -0.2591  0.1052  0.6327
 6322SOL    HW130602   3.679   3.606   6.477  0.4370  2.1052 -0.4631
 6322SOL    HW230603   3.547   3.622   6.550  0.2867  1.4018  1.0310
 6323SOL     OW30604   1.427   4.441   6.002 -0.0462 -0.3305  0.4292
 6323SOL    HW130605   1.466   4.354   5.993 -1.4117 -0.8120 -0.7368
 6323SOL    HW230606   1.482   4.485   5.937 -1.2129  0.6628  0.1256
 6324SOL     OW30607   2.321   2.547   4.245  0.1962  0.3661 -0.6524
 6324SOL    HW130608   2.348   2.557   4.336 -1.4975  0.7390 -0.1907
 6324SOL    HW230609   2.351   2.630   4.209  1.6781  0.3537  0.5679
 6325SOL     OW30610   3.248   0.428   5.422  0.5114 -0.3225  0.5145
 6325SOL    HW130611   3.169   0.383   5.452 -1.2915  0.2685 -3.2772
 6325SOL    HW230612   3.315   0.398   5.483  1.5275 -0.6333 -0.7440
 6326SOL     OW30613   2.596   4.396   3.250 -0.1218 -0.1662 -0.3125
 6326SOL    HW130614   2.623   4.483   3.221  1.7185 -0.4288  0.6437
 6326SOL    HW230615   2.543   4.374   3.173  0.4941  2.4766 -1.4865
 6327SOL     OW30616   3.561   2.631   1.710 -0.0348  0.4479 -0.3033
 6327SOL    HW130617   3.652   2.605   1.692 -0.2089 -1.0210  0.9394
 6327SOL    HW230618   3.537   2.558   1.767  1.2104 -0.9245 -1.5493
 6328SOL     OW30619   3.895   1.760  15.355 -0.0115 -0.5894 -0.4890
 6328SOL    HW130620   3.884   1.705  15.433 -1.4334 -3.8998 -3.0075
 6328SOL    HW230621   3.897   1.693  15.286  1.1510 -0.7701 -0.2876
 6329SOL     OW30622   4.514   4.683   0.582  0.0346  0.1964 -0.0280
 6329SOL    HW130623   4.462   4.700   0.661  0.6599 -1.6656  0.7913
 6329SOL    HW230624   4.600   4.706   0.616 -0.6393  0.8870  1.2251
 6330SOL     OW30625   2.679   1.551   9.664  0.7849 -0.1222  1.0770
 6330SOL    HW130626   2.610   1.484   9.666 -1.3051  2.0793  2.7528
 6330SOL    HW230627   2.664   1.577   9.754  0.5293 -1.1001  1.3185
 6331SOL     OW30628   3.747   0.650   5.981  0.5744  0.2949 -0.0610
 6331SOL    HW130629   3.712   0.627   5.894 -1.3637 -0.7443  0.9886
 6331SOL    HW230630   3.805   0.574   5.992  1.4741  1.1191  0.8842
 6332SOL     OW30631   2.696   0.709   4.679 -0.3944 -0.0099  0.1464
 6332SOL    HW130632   2.623   0.771   4.674  0.6927  1.0625 -2.2286
 6332SOL    HW230633   2.650   0.639   4.631  1.6746 -1.0021 -0.3889
 6333SOL     OW30634   3.448   1.494   3.810 -0.2554  0.5856  0.3869
 6333SOL    HW130635   3.534   1.536   3.815  1.0000 -1.7518 -1.5990
 6333SOL    HW230636   3.422   1.504   3.902  0.1370 -0.1040  0.5768
 6334SOL     OW30637   2.575   3.661   3.439 -0.0933  0.4255 -0.3268
 6334SOL    HW130638   2.531   3.694   3.518 -1.1143  0.7079 -1.0211
 6334SOL    HW230639   2.515   3.593   3.408 -0.3076  0.3136  0.3240
 6335SOL     OW30640   2.240   0.172   9.512  0.4250  0.3876 -0.7398
 6335SOL    HW130641   2.210   0.237   9.576 -1.7649  0.2989 -1.6829
 6335SOL    HW230642   2.294   0.227   9.456  0.1258  0.0026 -1.3980
 6336SOL     OW30643   4.326   4.410   4.536 -0.0167  0.2826 -0.0261
 6336SOL    HW130644   4.396   4.439   4.595  1.2995  2.4559 -2.6542
 6336SOL    HW230645   4.244   4.446   4.570  0.7879  2.8739 -0.8202
 6337SOL     OW30646   1.256   3.263   8.739  0.1010  0.0203  0.1006
 6337SOL    HW130647   1.290   3.188   8.690  2.0875  1.3892 -0.6124
 6337SOL    HW230648   1.323   3.330   8.725  1.4905 -1.2397  0.6961
 6338SOL     OW30649   1.866   0.990   1.529 -0.3891 -0.1887 -0.1340
 6338SOL    HW130650   1.863   1.062   1.465  1.0733  0.2923  0.3259
 6338SOL    HW230651   1.890   1.037   1.609  2.4741 -3.3457  0.8656
 6339SOL     OW30652   1.790   0.203   6.580 -0.1210  0.2388  0.1049
 6339SOL    HW130653   1.834   0.127   6.619 -1.1449 -1.2159 -1.5591
 6339SOL    HW230654   1.861   0.241   6.530  1.0531  0.2878  1.8155
 6340SOL     OW30655   3.143   1.392   7.088 -0.1873  0.4726  0.3900
 6340SOL    HW130656   3.166   1.299   7.079  0.7533  0.7476 -0.0092
 6340SOL    HW230657   3.145   1.421   6.997 -2.6058  2.0382  0.8404
 6341SOL     OW30658   2.875   4.715   7.671 -0.5571 -0.1082 -0.0376
 6341SOL    HW130659   2.960   4.730   7.712 -0.0411  0.3389 -1.2627
 6341SOL    HW230660   2.821   4.673   7.738 -1.3640  2.7265  1.1139
 6342SOL     OW30661   2.204   0.492  15.959 -0.0348 -0.2431 -0.1531
 6342SOL    HW130662   2.113   0.508  15.934  0.5943  2.2524 -0.8546
 6342SOL    HW230663   2.237   0.499  15.869 -3.2715 -0.4255 -1.3485
 6343SOL     OW30664   2.329   3.631   4.782  0.1256 -0.5578 -0.0072
 6343SOL    HW130665   2.317   3.542   4.813  1.6137 -0.3709  1.1100
 6343SOL    HW230666   2.421   3.639   4.804 -0.7729 -1.6255  4.1106
 6344SOL     OW30667   1.573   3.037  16.214 -0.1675  0.4787 -0.1921
 6344SOL    HW130668   1.608   3.089  16.142  0.2995  0.8128  0.2817
 6344SOL    HW230669   1.526   2.966  16.171  2.2273 -0.6074 -1.0229
 6345SOL     OW30670   4.021   0.628   5.409 -0.1068 -0.0055  0.7617
 6345SOL    HW130671   4.043   0.668   5.325 -1.5396 -0.1514  0.3326
 6345SOL    HW230672   3.938   0.592   5.378  0.8427  1.2831 -3.2914
 6346SOL     OW30673   2.957   1.788   6.182 -0.4264 -0.2415 -0.3873
 6346SOL    HW130674   2.965   1.876   6.144  0.6340 -0.2974 -0.2941
 6346SOL    HW230675   2.982   1.804   6.273  1.3624 -3.0843 -0.3742
 6347SOL     OW30676   3.367   0.302   6.487 -0.2303 -0.9959  0.3017
 6347SOL    HW130677   3.279   0.318   6.522  1.0414  1.1196  2.5144
 6347SOL    HW230678   3.398   0.393   6.484 -0.5449 -0.8595  1.2242
 6348SOL     OW30679   2.300   0.692   8.515 -0.3334  0.0306 -0.2179
 6348SOL    HW130680   2.281   0.608   8.473 -0.7922  0.4610 -0.8786
 6348SOL    HW230681   2.372   0.663   8.571  0.2603 -0.1817 -1.0852
 6349SOL     OW30682   1.368   4.105   3.231 -0.2766  0.3081  0.5177
 6349SOL    HW130683   1.288   4.131   3.276 -0.0954  1.5007  0.1543
 6349SOL    HW230684   1.378   4.185   3.180 -0.1809  1.2810  2.0672
 6350SOL     OW30685   2.676   0.244  13.707  0.4645 -0.0347  0.5700
 6350SOL    HW130686   2.760   0.200  13.715  1.7467  2.4245  0.6422
 6350SOL    HW230687   2.684   0.330  13.747 -0.4380  1.3572 -2.2565
 6351SOL     OW30688   0.195   0.736   9.459 -0.4037  0.1245  0.1616
 6351SOL    HW130689   0.159   0.818   9.426  1.5189  1.1675  0.5953
 6351SOL    HW230690   0.141   0.707   9.532 -2.0529  0.3205 -0.9993
 6352SOL     OW30691   3.874   2.090   9.061  0.1918  0.1594  0.0488
 6352SOL    HW130692   3.929   2.104   9.138 -1.5608 -0.5838  1.4405
 6352SOL    HW230693   3.927   2.033   9.006  1.4385  1.5278 -0.1450
 6353SOL     OW30694   1.402   4.331  14.408 -0.5205 -0.1539  0.1658
 6353SOL    HW130695   1.346   4.406  14.424 -2.5627 -1.6862  0.1537
 6353SOL    HW230696   1.453   4.371  14.337 -2.5401  1.7563 -0.1949
 6354SOL     OW30697   3.616   2.011   2.091 -0.1136 -0.1381 -0.4178
 6354SOL    HW130698   3.566   2.009   2.173  0.5692 -1.4327 -0.0315
 6354SOL    HW230699   3.635   1.918   2.081 -0.7672 -0.5512  1.9917
 6355SOL     OW30700   0.132   1.963   2.055  0.1235  0.0831  0.5454
 6355SOL    HW130701   0.178   1.978   1.972 -1.6751  0.9430 -0.2933
 6355SOL    HW230702   0.073   1.892   2.030 -0.3818 -0.1360  2.3507
 6356SOL     OW30703   2.996   3.593   2.003 -0.2196  0.1310 -0.2346
 6356SOL    HW130704   3.072   3.538   1.985 -1.1748 -1.8325  1.7614
 6356SOL    HW230705   2.936   3.528   2.039  0.5521 -0.9082 -0.8083
 6357SOL     OW30706   2.071   3.478   1.303 -0.0300 -0.6588 -0.3126
 6357SOL    HW130707   2.098   3.540   1.235  1.0851 -0.5499  0.2291
 6357SOL    HW230708   2.000   3.529   1.343 -0.0178 -0.3635 -0.6622
 6358SOL     OW30709   1.892   1.159   1.750 -0.2058  0.3763 -0.3093
 6358SOL    HW130710   1.797   1.154   1.760 -0.5000  2.7919 -1.8783
 6358SOL    HW230711   1.917   1.220   1.819  0.0506 -2.8259  2.4319
 6359SOL     OW30712   0.486   0.597   5.791  0.5586  0.0154  0.0864
 6359SOL    HW130713   0.494   0.509   5.826  1.0743  0.2558  0.5648
 6359SOL    HW230714   0.470   0.585   5.697  0.5200  1.2236 -0.0607
 6360SOL     OW30715   1.358   1.230  12.452 -0.1464 -0.7858 -0.7612
 6360SOL    HW130716   1.273   1.194  12.477 -1.7409  3.8347  0.4265
 6360SOL    HW230717   1.383   1.270  12.536 -0.5535  1.3904 -1.6790
 6361SOL     OW30718   3.968   4.192   3.863  0.1021  0.3948  0.1225
 6361SOL    HW130719   4.030   4.166   3.794  2.1893 -1.9912  2.8843
 6361SOL    HW230720   3.968   4.110   3.912  0.8287 -0.0743 -0.6540
 6362SOL     OW30721   2.129   0.391  11.708  0.3854  0.0178  0.3435
 6362SOL    HW130722   2.042   0.381  11.670  0.4399  0.5582  0.0855
 6362SOL    HW230723   2.117   0.379  11.803  0.0054  0.9458  0.4056
 6363SOL     OW30724   2.147   4.008   2.721 -0.0170 -0.2313 -0.0456
 6363SOL    HW130725   2.220   4.066   2.742 -1.1097  3.0344 -5.1469
 6363SOL    HW230726   2.196   3.950   2.662  1.0819  0.9849 -0.3227
 6364SOL     OW30727   0.320   3.301   9.479 -0.1238  0.0516  0.4254
 6364SOL    HW130728   0.371   3.281   9.557  1.8617 -1.0084 -1.1689
 6364SOL    HW230729   0.231   3.280   9.509 -1.0322  1.0854 -1.4913
 6365SOL     OW30730   1.678   1.983   5.079 -0.7208 -0.0047 -0.1270
 6365SOL    HW130731   1.688   2.054   5.016 -0.4284 -0.8707 -1.0612
 6365SOL    HW230732   1.740   2.017   5.143 -1.7117  0.0545  0.7966
 6366SOL     OW30733   0.348   0.747   6.003  0.4877  0.6767 -0.6784
 6366SOL    HW130734   0.391   0.697   5.934  2.8496  1.3177  0.3482
 6366SOL    HW230735   0.319   0.821   5.949  0.5186  0.8763 -0.4210
 6367SOL     OW30736   0.435   2.849   4.583 -0.0517 -0.0695 -0.0412
 6367SOL    HW130737   0.422   2.882   4.672 -0.0680 -1.0288  0.3135
 6367SOL    HW230738   0.482   2.766   4.593  1.9782  1.1943  0.7779
 6368SOL     OW30739   1.531   2.202   7.149  0.3815  0.4942 -0.4814
 6368SOL    HW130740   1.575   2.136   7.096 -1.2348  0.0927 -1.3157
 6368SOL    HW230741   1.480   2.150   7.212  2.0246 -0.4090  0.1053
 6369SOL     OW30742   3.009   1.437   5.122  0.1912 -0.0323 -0.6421
 6369SOL    HW130743   2.948   1.364   5.135  3.1189 -2.6796 -1.7679
 6369SOL    HW230744   3.092   1.392   5.135  0.1530 -0.0031 -0.3162
 6370SOL     OW30745   1.710   3.308   1.120 -0.4179 -0.2819 -0.4690
 6370SOL    HW130746   1.692   3.290   1.212 -0.9560  2.8070 -0.0009
 6370SOL    HW230747   1.804   3.289   1.119 -0.4390 -0.3793 -0.7289
 6371SOL     OW30748   3.749   1.618   5.439  0.0337  0.0197 -0.2782
 6371SOL    HW130749   3.812   1.629   5.367  1.8224  0.1846  1.3089
 6371SOL    HW230750   3.783   1.679   5.505  1.8517 -1.5402  0.2127
 6372SOL     OW30751   4.343   1.561   8.240 -0.0812  0.0494  0.1126
 6372SOL    HW130752   4.360   1.484   8.185  1.5446  1.6031 -1.5183
 6372SOL    HW230753   4.431   1.591   8.261 -0.7661  1.6141  0.7118
 6373SOL     OW30754   3.354   0.554  17.309 -0.4794  0.1744 -0.0710
 6373SOL    HW130755   3.372   0.636  17.263 -0.0939  0.1385  0.0241
 6373SOL    HW230756   3.420   0.496  17.271  2.3664  2.8837  0.7775
 6374SOL     OW30757   4.325   1.259   3.139  0.2546 -0.3864 -0.3288
 6374SOL    HW130758   4.240   1.215   3.143  1.2955 -2.3316  0.0786
 6374SOL    HW230759   4.376   1.184   3.107  0.6228 -0.7161  1.0293
 6375SOL     OW30760   3.246   0.327   8.170 -0.1398  0.1638  0.4867
 6375SOL    HW130761   3.333   0.319   8.210 -0.2632 -1.3441  0.4396
 6375SOL    HW230762   3.221   0.417   8.190  0.2753  0.6964 -1.3448
 6376SOL     OW30763   2.698   0.690  15.096 -0.6801  0.8676 -0.6291
 6376SOL    HW130764   2.736   0.760  15.149 -1.4651  2.9988 -2.8582
 6376SOL    HW230765   2.608   0.712  15.120 -0.8194 -1.4036  0.9598
 6377SOL     OW30766   1.179   4.051  13.872 -0.3008  0.1998 -0.3453
 6377SOL    HW130767   1.173   4.061  13.777 -0.9796  1.1690 -0.1966
 6377SOL    HW230768   1.254   4.103  13.900 -0.3778  0.3049 -0.3356
 6378SOL     OW30769   2.638   1.089   2.979 -0.5058 -0.0382  0.0068
 6378SOL    HW130770   2.720   1.122   3.017 -0.4403 -0.8512  0.5624
 6378SOL    HW230771   2.613   1.165   2.927  0.6830  0.4618  0.1707
 6379SOL     OW30772   2.307   0.931   4.788  0.0042 -0.2574 -0.8701
 6379SOL    HW130773   2.232   0.975   4.749 -0.2033  2.8510  3.1546
 6379SOL    HW230774   2.282   0.838   4.795  0.0692 -0.2545 -0.6000
 6380SOL     OW30775   4.066   2.281   3.950 -0.2702 -0.1163  0.6394
 6380SOL    HW130776   4.107   2.355   3.905 -1.8012  0.8048  0.7558
 6380SOL    HW230777   3.979   2.277   3.908  0.6571  1.3409 -1.4281
 6381SOL     OW30778   1.037   1.136   3.962  0.1651  0.3203  0.5569
 6381SOL    HW130779   1.131   1.132   3.977 -0.1241 -1.2589  1.9734
 6381SOL    HW230780   1.025   1.045   3.937  3.9530  0.1295 -0.4623
 6382SOL     OW30781   2.320   0.853   7.473  0.3053 -0.1235 -0.7293
 6382SOL    HW130782   2.334   0.771   7.521  1.5546  0.9182  0.7182
 6382SOL    HW230783   2.225   0.854   7.462  0.0635  0.7804  1.2851
 6383SOL     OW30784   2.960   2.298   3.896 -0.0757  0.5961 -0.1486
 6383SOL    HW130785   2.921   2.272   3.813  2.2171 -0.1359 -0.9762
 6383SOL    HW230786   2.896   2.265   3.960  1.1553  1.0082  1.3047
 6384SOL     OW30787   0.741   4.229   7.362 -0.2535 -0.1520 -0.8541
 6384SOL    HW130788   0.706   4.317   7.349 -1.5386 -0.6655 -0.9531
 6384SOL    HW230789   0.756   4.244   7.456 -0.0397 -0.4723 -0.8381
 6385SOL     OW30790   1.333   0.549   6.142 -0.8005 -0.2544  0.0908
 6385SOL    HW130791   1.247   0.561   6.101 -0.3814 -1.3562 -1.1264
 6385SOL    HW230792   1.316   0.473   6.198 -3.2177  0.4444  0.2785
 6386SOL     OW30793   2.606   2.384  10.007  0.4752  0.0199  0.1130
 6386SOL    HW130794   2.601   2.414  10.098  0.2009  1.4627 -0.3730
 6386SOL    HW230795   2.567   2.297  10.006 -0.5684  0.4940 -1.0852
 6387SOL     OW30796   2.698   1.960   2.624 -0.1376 -0.1324 -0.3972
 6387SOL    HW130797   2.735   1.891   2.678  4.5481  1.3795 -1.6511
 6387SOL    HW230798   2.613   1.986   2.660  0.0718 -0.4518  0.3049
 6388SOL     OW30799   4.229   3.819   9.651  0.5108 -0.7016  0.1662
 6388SOL    HW130800   4.188   3.808   9.737 -0.1359  0.3642 -0.0133
 6388SOL    HW230801   4.318   3.831   9.684  0.3857 -0.3734  0.3847
 6389SOL     OW30802   1.746   0.592   7.718 -0.1512  0.0980  0.3965
 6389SOL    HW130803   1.758   0.671   7.667  2.1027 -0.3274  0.2543
 6389SOL    HW230804   1.681   0.542   7.668 -0.5271  0.3316  0.6487
 6390SOL     OW30805   0.063   0.992  12.299 -0.5834  0.1845 -0.5275
 6390SOL    HW130806   0.091   1.076  12.335  0.9742 -0.1300 -1.0087
 6390SOL    HW230807   0.140   0.939  12.320 -1.4840 -1.8505 -2.2978
 6391SOL     OW30808   0.611   4.438   3.337  0.0188 -0.4935  0.2584
 6391SOL    HW130809   0.654   4.355   3.359  2.6012  0.8912  0.4335
 6391SOL    HW230810   0.532   4.412   3.290  0.0005 -0.3929  0.2339
 6392SOL     OW30811   1.479   0.717   8.901 -0.1448 -0.2176  0.0012
 6392SOL    HW130812   1.398   0.733   8.853  1.1855 -1.4397 -2.6256
 6392SOL    HW230813   1.534   0.682   8.831  2.4660 -0.4572  2.1484
 6393SOL     OW30814   2.185   2.396   3.246  0.2077  0.3110  0.0952
 6393SOL    HW130815   2.197   2.485   3.213 -0.1179 -0.2051 -1.4363
 6393SOL    HW230816   2.089   2.404   3.249  0.1082 -1.0942  0.8028
 6394SOL     OW30817   2.395   1.366   6.864 -0.5897 -0.0256  0.1630
 6394SOL    HW130818   2.322   1.378   6.802 -0.8872  0.9771  0.7124
 6394SOL    HW230819   2.364   1.286   6.907 -2.0137  1.8225  2.5710
 6395SOL     OW30820   3.645   4.340   0.531  0.7947 -0.7058 -0.1542
 6395SOL    HW130821   3.691   4.420   0.503 -0.2985 -0.1931 -0.4698
 6395SOL    HW230822   3.563   4.357   0.485  1.5504 -1.6236 -1.7992
 6396SOL     OW30823   3.618   4.424   7.859 -0.8215  0.2877  0.8249
 6396SOL    HW130824   3.611   4.352   7.920 -1.1871 -0.1887  0.2170
 6396SOL    HW230825   3.562   4.393   7.788  2.1282 -1.0208 -0.9578
 6397SOL     OW30826   2.801   2.110  16.407 -0.0938 -0.1528  0.0696
 6397SOL    HW130827   2.880   2.057  16.401 -0.1452 -0.2183 -0.0282
 6397SOL    HW230828   2.752   2.077  16.331  0.4543 -0.9618  0.0726
 6398SOL     OW30829   0.289   2.637   6.141  0.3995  0.3412 -0.2991
 6398SOL    HW130830   0.326   2.707   6.086  1.3091  0.6005  0.6518
 6398SOL    HW230831   0.330   2.564   6.094  0.7642  0.4462 -0.1391
 6399SOL     OW30832   4.202   2.283   3.388  0.8536 -0.4827 -0.1007
 6399SOL    HW130833   4.167   2.350   3.447  1.1985 -0.9379  0.6188
 6399SOL    HW230834   4.152   2.296   3.308 -1.1853 -1.4595  1.0148
 6400SOL     OW30835   0.959   3.635  13.210  0.3176  0.0862  0.2028
 6400SOL    HW130836   1.012   3.715  13.210  0.7764 -0.2258 -3.2885
 6400SOL    HW230837   1.015   3.564  13.241 -0.7327 -0.9494 -0.2521
 6401SOL     OW30838   4.037   1.455   4.137  0.0287  0.0346 -0.1898
 6401SOL    HW130839   4.067   1.522   4.075  0.6826  1.5365  1.7502
 6401SOL    HW230840   4.115   1.433   4.188 -2.1857 -0.8042  2.8161
 6402SOL     OW30841   0.777   3.754   8.466 -0.3656 -0.4639  0.6495
 6402SOL    HW130842   0.794   3.767   8.559  2.2119 -1.2766  0.2862
 6402SOL    HW230843   0.773   3.843   8.432  1.0500  0.0468  1.8057
 6403SOL     OW30844   2.626   3.399   6.859 -0.3636  0.5035  0.0813
 6403SOL    HW130845   2.652   3.316   6.819 -2.6822 -0.3418  0.3248
 6403SOL    HW230846   2.710   3.444   6.863 -1.2441  2.2310 -0.9398
 6404SOL     OW30847   0.271   1.156   1.796 -0.0194 -0.1758  0.2635
 6404SOL    HW130848   0.219   1.168   1.876  0.7236 -0.3824  0.7724
 6404SOL    HW230849   0.211   1.121   1.731  1.7262 -2.3213 -0.1724
 6405SOL     OW30850   4.457   0.705   5.558 -0.9368 -0.1350  0.4037
 6405SOL    HW130851   4.393   0.718   5.628 -0.2125  1.7701  0.7150
 6405SOL    HW230852   4.526   0.770   5.573  0.3519 -1.1006 -1.2329
 6406SOL     OW30853   4.477   0.556   7.618 -0.5905 -0.4637  0.0936
 6406SOL    HW130854   4.406   0.608   7.656 -1.7830 -1.3081 -1.0195
 6406SOL    HW230855   4.545   0.568   7.685  0.5628  1.5734 -1.4628
 6407SOL     OW30856   2.601   1.074   5.397  0.4972  0.3745  0.5096
 6407SOL    HW130857   2.585   1.166   5.379 -0.5855 -0.0039 -0.4744
 6407SOL    HW230858   2.695   1.065   5.378  0.5538  0.8451  0.5807
 6408SOL     OW30859   3.974   0.113  14.731  0.1557  0.3323  0.3954
 6408SOL    HW130860   4.068   0.110  14.749 -0.2873  1.3131  2.8520
 6408SOL    HW230861   3.956   0.031  14.778 -2.6845  1.8389  1.9660
 6409SOL     OW30862   2.128   3.336   3.022  0.1377  0.1130 -0.1029
 6409SOL    HW130863   2.093   3.387   2.949  1.9523  2.7732  0.8886
 6409SOL    HW230864   2.216   3.326   2.987  0.5119  0.9308  0.5921
 6410SOL     OW30865   1.246   1.823   4.450 -0.5928 -0.1092  0.1926
 6410SOL    HW130866   1.253   1.860   4.538 -1.7789 -1.3380  0.8119
 6410SOL    HW230867   1.282   1.894   4.398 -0.1186 -1.3676 -1.2063
 6411SOL     OW30868   0.551   3.431   4.474  0.4900 -0.4753 -0.4890
 6411SOL    HW130869   0.593   3.402   4.555 -0.3500  0.2173  0.1895
 6411SOL    HW230870   0.470   3.380   4.469  0.1578 -0.0997  1.0691
 6412SOL     OW30871   3.283   3.567   3.808  0.1002  0.1497  0.0157
 6412SOL    HW130872   3.252   3.537   3.893 -0.7003  3.6488  0.9340
 6412SOL    HW230873   3.282   3.657   3.838  0.1152  0.0829  0.2156
 6413SOL     OW30874   3.665   3.632  14.933 -0.3659  0.2744  0.0567
 6413SOL    HW130875   3.571   3.619  14.950  0.0215 -1.6570  0.6984
 6413SOL    HW230876   3.665   3.615  14.839  1.3755  1.0488 -0.0717
 6414SOL     OW30877   1.318   1.763   0.994 -0.2880  0.2690 -0.4637
 6414SOL    HW130878   1.329   1.807   0.910 -1.2703  1.0366 -0.1902
 6414SOL    HW230879   1.395   1.786   1.046 -1.3484 -1.3877  1.8659
 6415SOL     OW30880   3.187   1.523   2.883 -0.6139  0.3393 -0.3391
 6415SOL    HW130881   3.210   1.461   2.953 -0.1639  0.3129 -0.5115
 6415SOL    HW230882   3.119   1.477   2.833 -1.5245  0.2608  0.9441
 6416SOL     OW30883   3.133   4.087   3.597 -0.2469  0.0842 -0.5406
 6416SOL    HW130884   3.092   4.075   3.682 -1.3664 -1.5539 -1.3228
 6416SOL    HW230885   3.067   4.134   3.546 -2.2140  0.0596  1.9856
 6417SOL     OW30886   2.538   1.512   9.323  0.0031  1.0843  0.8099
 6417SOL    HW130887   2.453   1.553   9.312 -0.4582 -0.0662  0.1371
 6417SOL    HW230888   2.519   1.419   9.324  0.2030  1.0340  0.1764
 6418SOL     OW30889   2.761   4.332   4.407  0.0432 -0.3269 -0.0971
 6418SOL    HW130890   2.804   4.264   4.458 -0.1104 -0.8351 -0.6448
 6418SOL    HW230891   2.751   4.406   4.466 -0.0070  0.9335 -1.6638
 6419SOL     OW30892   1.332   3.326   7.692  0.3115  0.1289  0.0079
 6419SOL    HW130893   1.317   3.415   7.660  1.0195 -0.0583 -0.8387
 6419SOL    HW230894   1.354   3.335   7.785  0.0173  1.3269 -0.0434
 6420SOL     OW30895   4.249   1.400   3.382 -0.2516 -0.1041  0.4663
 6420SOL    HW130896   4.234   1.306   3.375 -0.3923 -0.0491  0.0285
 6420SOL    HW230897   4.241   1.431   3.292  1.6561 -1.6278 -0.2377
 6421SOL     OW30898   0.495   2.943   9.284 -0.2186 -0.6219  0.3226
 6421SOL    HW130899   0.421   2.940   9.345  0.0206 -0.9825  0.5983
 6421SOL    HW230900   0.525   2.855   9.309  1.1642  0.7171  3.3466
 6422SOL     OW30901   2.750   2.884  17.309  0.1410 -0.3011 -0.0293
 6422SOL    HW130902   2.680   2.879  17.244 -0.4179 -1.9692  0.7107
 6422SOL    HW230903   2.704   2.923  17.383 -0.4816  1.5322 -1.3825
 6423SOL     OW30904   0.083   1.867   4.585 -0.2126 -0.2675  0.4381
 6423SOL    HW130905   0.016   1.915   4.633  0.4954  0.6906  0.4620
 6423SOL    HW230906   0.055   1.881   4.495 -2.0169  0.3403  1.0986
 6424SOL     OW30907   1.046   4.077   6.372 -0.0215 -0.2827 -0.1210
 6424SOL    HW130908   0.963   4.072   6.326 -2.3387  0.3154  4.0434
 6424SOL    HW230909   1.025   4.140   6.442  1.6172 -0.5608  0.6334
 6425SOL     OW30910   4.661   3.660   1.599  0.3231  0.2171  0.0518
 6425SOL    HW130911   4.725   3.589   1.603  0.5666  0.3355 -1.4314
 6425SOL    HW230912   4.579   3.615   1.622  0.5298 -1.9143 -3.3008
 6426SOL     OW30913   4.597   0.292  14.815  0.0873 -0.3644 -0.5032
 6426SOL    HW130914   4.585   0.200  14.839  0.4644 -0.6949 -1.5971
 6426SOL    HW230915   4.587   0.292  14.720 -0.2224  1.2486 -0.4767
 6427SOL     OW30916   2.542   3.053   7.200  0.2824 -0.0217  0.2444
 6427SOL    HW130917   2.612   2.998   7.236  1.1503  0.2907 -0.9611
 6427SOL    HW230918   2.595   3.129   7.180  2.7923 -1.6002  0.9208
 6428SOL     OW30919   0.116   4.183   3.365 -0.3579 -0.1497 -0.1457
 6428SOL    HW130920   0.182   4.138   3.312  0.7629  1.3232  0.0131
 6428SOL    HW230921   0.117   4.271   3.327  3.5443 -1.0030 -2.0179
 6429SOL     OW30922   3.886   3.068   3.739 -0.3700  0.6838  0.3092
 6429SOL    HW130923   3.840   3.073   3.655  4.3623  2.0997 -2.2031
 6429SOL    HW230924   3.963   3.124   3.731 -0.4390  1.1286  2.8849
 6430SOL     OW30925   0.919   0.032   0.424 -0.1251 -0.1505  0.2608
 6430SOL    HW130926   0.923   0.097   0.354  1.4112 -1.2498 -0.6659
 6430SOL    HW230927   1.006   4.731   0.410  0.6069  1.5761  0.1363
 6431SOL     OW30928   2.466   0.522   4.481  0.1322  0.3786 -0.5022
 6431SOL    HW130929   2.485   0.608   4.442  2.1849  1.4465  2.7859
 6431SOL    HW230930   2.425   0.540   4.566  4.5230 -0.9786  1.8959
 6432SOL     OW30931   3.289   2.361   3.246  0.0160 -0.5875 -0.7318
 6432SOL    HW130932   3.220   2.421   3.275  1.8773  1.5193 -0.7431
 6432SOL    HW230933   3.367   2.398   3.286  0.0483 -0.3423 -1.0217
 6433SOL     OW30934   1.100   4.276   2.064 -0.1159  0.3898 -0.5279
 6433SOL    HW130935   1.153   4.355   2.051  0.3092 -0.0136 -1.2664
 6433SOL    HW230936   1.159   4.211   2.026  1.5042  0.7646  1.3824
 6434SOL     OW30937   1.897   0.828  15.893  0.6689  0.2143  0.2513
 6434SOL    HW130938   1.839   0.817  15.969 -1.2469  2.6165 -0.8773
 6434SOL    HW230939   1.975   0.860  15.939 -0.0822 -0.4520  2.0115
 6435SOL     OW30940   2.680   4.242   8.315  0.3469 -0.1325 -0.1101
 6435SOL    HW130941   2.640   4.236   8.228 -1.8079 -3.4848  1.1149
 6435SOL    HW230942   2.615   4.205   8.375 -0.8700 -0.2441 -1.4895
 6436SOL     OW30943   0.734   2.036  10.368  0.7200 -0.1640 -0.1344
 6436SOL    HW130944   0.806   2.035  10.431 -0.3065  2.0254  1.0912
 6436SOL    HW230945   0.759   1.975  10.299  0.3695  0.2470 -0.6270
 6437SOL     OW30946   4.155   1.201   7.656  0.6891  0.5822  0.5500
 6437SOL    HW130947   4.241   1.224   7.623  1.0317 -1.9212 -0.3225
 6437SOL    HW230948   4.176   1.146   7.732  5.5623  1.8890  0.1312
 6438SOL     OW30949   2.373   4.492  10.477  0.1681 -0.7041  0.1046
 6438SOL    HW130950   2.444   4.431  10.497  0.3360 -0.7022 -0.4934
 6438SOL    HW230951   2.327   4.498  10.561  1.6499  0.0810  0.8545
 6439SOL     OW30952   0.241   0.405  14.059 -0.6264 -0.2617 -0.1048
 6439SOL    HW130953   0.248   0.493  14.022  0.8126 -0.9674 -1.4898
 6439SOL    HW230954   0.300   0.356  14.002 -0.8653 -1.6890  0.8758
 6440SOL     OW30955   0.555   4.677   8.872 -0.1949 -0.1840 -0.3615
 6440SOL    HW130956   0.516   4.646   8.790  0.7120 -1.6144 -0.2580
 6440SOL    HW230957   0.480   4.729   8.900  0.8772  0.8164  0.6250
 6441SOL     OW30958   4.646   3.784   9.049  0.0718  0.1935  0.9770
 6441SOL    HW130959   4.685   3.726   9.115 -0.9602  0.3548  1.7430
 6441SOL    HW230960   4.692   3.763   8.968 -1.6282 -2.5728  0.7191
 6442SOL     OW30961   0.490   0.035   0.483 -0.0517  0.2550 -0.1208
 6442SOL    HW130962   0.432   0.111   0.488 -0.4441  0.1019 -2.2762
 6442SOL    HW230963   0.574   0.075   0.505  0.2687 -0.2122 -0.4972
 6443SOL     OW30964   2.560   2.700   8.089 -0.3757 -0.3013 -0.1476
 6443SOL    HW130965   2.518   2.719   8.005 -0.0389  1.2083  0.0323
 6443SOL    HW230966   2.651   2.706   8.060 -1.2972  0.6474 -2.8986
 6444SOL     OW30967   3.125   2.837   1.806 -0.0423  0.1637  0.0830
 6444SOL    HW130968   3.207   2.801   1.840 -0.0095 -1.1549 -1.3950
 6444SOL    HW230969   3.114   2.920   1.852  0.3244  0.3493 -0.1629
 6445SOL     OW30970   3.860   2.348   7.488  0.5922 -0.7097  0.3602
 6445SOL    HW130971   3.904   2.406   7.551  0.1040  1.3510 -1.2050
 6445SOL    HW230972   3.771   2.379   7.503  0.2994 -0.5434 -1.7854
 6446SOL     OW30973   2.482   4.160   6.084  0.0052 -0.2449 -0.2593
 6446SOL    HW130974   2.517   4.119   6.005 -0.2891  0.7705 -0.9229
 6446SOL    HW230975   2.530   4.242   6.078  0.3064 -0.3564  0.6968
 6447SOL     OW30976   0.825   1.894   9.790  0.1742  0.1106  0.4445
 6447SOL    HW130977   0.828   1.799   9.783  0.9392  0.2715 -1.4062
 6447SOL    HW230978   0.866   1.915   9.707 -0.3466 -0.4827  0.0395
 6448SOL     OW30979   0.422   0.200   3.986  0.3104  0.6150  0.3843
 6448SOL    HW130980   0.377   0.284   3.993  1.5091  1.3010 -0.2358
 6448SOL    HW230981   0.380   0.157   3.911 -0.0157 -2.5423  2.3640
 6449SOL     OW30982   3.670   1.238   6.971 -0.3733  0.1109  0.1836
 6449SOL    HW130983   3.583   1.210   7.001 -0.2792 -0.0363  0.3187
 6449SOL    HW230984   3.714   1.154   6.962 -1.2945 -0.0612 -2.7263
 6450SOL     OW30985   1.660   3.444   6.603 -0.1636 -0.4316 -0.7999
 6450SOL    HW130986   1.713   3.388   6.547 -2.3090 -1.8786 -1.3787
 6450SOL    HW230987   1.719   3.459   6.678 -0.4319  1.0555 -0.8898
 6451SOL     OW30988   1.032   3.276   4.368 -0.0345  0.2993  0.2184
 6451SOL    HW130989   1.025   3.334   4.444 -0.4439 -0.0011  0.4135
 6451SOL    HW230990   1.033   3.187   4.401  1.0961 -0.8073 -2.8071
 6452SOL     OW30991   1.298   1.051   1.386  0.4642 -0.2054 -0.2810
 6452SOL    HW130992   1.214   1.015   1.358  1.2686 -2.3071 -0.0055
 6452SOL    HW230993   1.276   1.089   1.471 -2.2346 -2.5051  0.0439
 6453SOL     OW30994   4.510   2.446   7.289 -0.2030  0.0390  0.4484
 6453SOL    HW130995   4.538   2.354   7.286  2.3951  0.8398  0.5739
 6453SOL    HW230996   4.426   2.436   7.335 -0.1012  2.4684  1.1539
 6454SOL     OW30997   4.685   3.391   2.277  0.0479  0.3606  0.3279
 6454SOL    HW130998   4.604   3.370   2.230  0.3404 -0.4455  0.1758
 6454SOL    HW230999   4.725   3.304   2.275  0.3759  0.4727  2.0119
 6455SOL     OW31000   3.752   3.125   7.634 -0.0228  0.4221  0.6212
 6455SOL    HW131001   3.678   3.097   7.688  0.2739  1.2245  1.4199
 6455SOL    HW231002   3.815   3.085   7.693  0.7474  1.3970  0.4517
 6456SOL     OW31003   0.112   3.594   6.915 -0.4964  0.0514  0.9195
 6456SOL    HW131004   0.136   3.675   6.961 -2.3420  0.7882  0.6001
 6456SOL    HW231005   0.018   3.584   6.930 -0.3588 -1.4010  0.8142
 6457SOL     OW31006   2.965   4.175   8.125  0.7495  0.2634  0.0265
 6457SOL    HW131007   2.925   4.260   8.104  3.1829  0.9072 -2.0061
 6457SOL    HW231008   2.912   4.134   8.193 -1.9168  0.2187 -2.0173
 6458SOL     OW31009   2.237   1.495   8.053 -0.0079 -0.2076 -0.0759
 6458SOL    HW131010   2.148   1.521   8.031  0.0584  1.1782  1.2535
 6458SOL    HW231011   2.226   1.421   8.112 -1.6810  0.0690 -0.0371
 6459SOL     OW31012   3.711   3.553   2.603  0.0172 -0.2767  0.1037
 6459SOL    HW131013   3.788   3.553   2.546 -1.1624  1.7915 -1.5091
 6459SOL    HW231014   3.755   3.600   2.673 -0.0493 -1.6161  1.0432
 6460SOL     OW31015   0.203   0.607  13.832  0.5904 -0.0452  0.6649
 6460SOL    HW131016   0.195   0.514  13.812  1.3344 -0.2093  1.1351
 6460SOL    HW231017   0.167   0.649  13.754 -0.8163 -0.9407  0.8321
 6461SOL     OW31018   0.578   1.555   1.985  0.3926  0.2525  0.0604
 6461SOL    HW131019   0.504   1.499   1.962  0.2641  0.7272 -0.6831
 6461SOL    HW231020   0.622   1.507   2.055 -0.0415 -1.9930 -1.2019
 6462SOL     OW31021   3.742   4.455   1.991  0.0483  0.1037  0.9334
 6462SOL    HW131022   3.662   4.489   1.952 -0.5369  0.9707  2.9077
 6462SOL    HW231023   3.719   4.390   2.057  4.8762 -1.5246  1.0426
 6463SOL     OW31024   3.900   0.995   8.491 -0.6394  0.4802  0.1911
 6463SOL    HW131025   3.928   0.906   8.514  0.4132  1.1292  1.4304
 6463SOL    HW231026   3.804   0.996   8.493 -0.6756 -2.4857  1.5538
 6464SOL     OW31027   1.790   3.869   6.522  0.2845 -0.1958  0.3273
 6464SOL    HW131028   1.728   3.903   6.587 -1.4784 -1.1397 -0.8347
 6464SOL    HW231029   1.873   3.889   6.564 -0.4621 -1.7042  2.4844
 6465SOL     OW31030   1.822   0.658   3.818  0.5482  0.3853  0.2827
 6465SOL    HW131031   1.770   0.610   3.883  0.6544  1.9998  1.5562
 6465SOL    HW231032   1.892   0.685   3.876  0.7187  0.5964 -0.0227
 6466SOL     OW31033   2.556   4.733   6.925 -0.2033 -0.0338  0.5915
 6466SOL    HW131034   2.472   4.725   6.969 -0.2918  0.8225  0.5871
 6466SOL    HW231035   2.561   4.652   6.875 -0.3845 -0.5015  1.3390
 6467SOL     OW31036   2.848   0.211   2.067 -0.0987  0.1518 -0.6081
 6467SOL    HW131037   2.901   0.251   2.137 -1.2687  1.1087 -0.2752
 6467SOL    HW231038   2.795   0.153   2.122  1.1192 -1.4548 -1.1301
 6468SOL     OW31039   1.520   1.490   7.563  0.0804 -0.0370  0.1404
 6468SOL    HW131040   1.479   1.405   7.581  0.4845 -0.5209 -1.1779
 6468SOL    HW231041   1.612   1.469   7.580 -0.3607 -0.9147  1.4191
 6469SOL     OW31042   2.948   4.199   1.478  0.2325 -0.6525 -0.2853
 6469SOL    HW131043   2.898   4.149   1.413  0.2134 -1.3438  0.2650
 6469SOL    HW231044   3.001   4.126   1.510  0.3347 -0.3158  0.3279
 6470SOL     OW31045   3.237   0.974  13.368 -0.0005  0.5537  0.6091
 6470SOL    HW131046   3.282   0.899  13.407 -1.1224 -0.7819 -0.6840
 6470SOL    HW231047   3.298   1.009  13.302 -0.9957  0.4132 -0.3766
 6471SOL     OW31048   0.987   1.047   8.365 -0.3050 -0.0134 -0.1144
 6471SOL    HW131049   1.044   1.072   8.292  0.5612  2.1519  1.2817
 6471SOL    HW231050   0.906   1.059   8.317 -0.2207 -4.0412 -1.2455
 6472SOL     OW31051   0.787   3.241   6.805  0.1762 -0.1674  0.0192
 6472SOL    HW131052   0.712   3.240   6.865 -0.2981  0.3011 -0.5604
 6472SOL    HW231053   0.856   3.196   6.853 -1.4257  2.3105  4.6655
 6473SOL     OW31054   1.082   4.698   4.225 -1.0234  0.0913 -0.3790
 6473SOL    HW131055   1.024   4.687   4.301  0.5739 -0.8108  0.7064
 6473SOL    HW231056   1.023   4.677   4.153 -1.9694 -0.3514  0.5177
 6474SOL     OW31057   1.960   0.774   0.652  0.2244  0.0162 -0.0419
 6474SOL    HW131058   1.993   0.828   0.724 -2.2360 -0.3419  1.3789
 6474SOL    HW231059   2.016   0.697   0.664 -1.3850 -1.3497 -1.2791
 6475SOL     OW31060   0.553   0.214   9.744 -0.3144 -0.3495 -0.1121
 6475SOL    HW131061   0.582   0.186   9.831 -1.2874 -1.1299 -0.0410
 6475SOL    HW231062   0.624   0.277   9.726 -1.0995  0.6142  0.1449
 6476SOL     OW31063   0.754   3.333  17.179  0.0303  0.1986  0.5007
 6476SOL    HW131064   0.754   3.261  17.243  0.1946  0.2928  0.6078
 6476SOL    HW231065   0.812   3.297  17.113 -0.2316 -0.7921  0.8079
 6477SOL     OW31066   4.501   2.981   8.782  0.0030  0.0161  0.0808
 6477SOL    HW131067   4.510   2.892   8.816  0.6889 -0.1435 -0.5182
 6477SOL    HW231068   4.413   2.971   8.745  0.1162 -0.9682  0.0779
 6478SOL     OW31069   3.244   2.416  14.911  0.1722  0.3204 -0.4112
 6478SOL    HW131070   3.186   2.340  14.915  0.0593  0.4081 -0.3652
 6478SOL    HW231071   3.279   2.430  14.999  2.9442 -1.1312 -1.2762
 6479SOL     OW31072   0.972   4.161   3.883 -0.0127  0.0480 -0.1597
 6479SOL    HW131073   0.997   4.075   3.916  0.3009  0.6575  1.2077
 6479SOL    HW231074   1.012   4.222   3.945 -0.0131  0.4896 -0.5973
 6480SOL     OW31075   0.705   1.430  14.540 -0.4958 -0.7070 -0.9362
 6480SOL    HW131076   0.800   1.441  14.551 -0.2577 -0.4389 -3.2075
 6480SOL    HW231077   0.692   1.351  14.592 -0.9573  0.4219  0.6676
 6481SOL     OW31078   3.900   2.153   3.604 -0.8058 -0.1975 -0.4196
 6481SOL    HW131079   3.853   2.131   3.685 -1.5775 -2.0897 -1.3894
 6481SOL    HW231080   3.971   2.090   3.601 -1.8012 -1.2586 -1.3894
 6482SOL     OW31081   4.008   0.852  11.018 -0.2737 -0.4816 -0.4313
 6482SOL    HW131082   4.056   0.845  10.936 -0.5497  0.6664 -0.6830
 6482SOL    HW231083   3.930   0.800  10.999  0.7867 -1.2811 -2.5732
 6483SOL     OW31084   2.243   0.984   8.013 -0.0674  0.7591  0.6687
 6483SOL    HW131085   2.333   0.968   7.985 -0.8155 -1.6674 -0.4217
 6483SOL    HW231086   2.199   0.899   8.006  1.5910 -0.0088 -0.5848
 6484SOL     OW31087   3.086   2.562   3.699 -0.4507 -0.0086  0.0771
 6484SOL    HW131088   3.020   2.509   3.654 -1.1232  0.5218  0.4410
 6484SOL    HW231089   3.151   2.577   3.631  0.8969 -1.9330  0.9200
 6485SOL     OW31090   1.802   2.534   6.654  0.1665  0.2921  0.5999
 6485SOL    HW131091   1.803   2.517   6.748  2.3705 -1.4984  0.2415
 6485SOL    HW231092   1.759   2.458   6.616  3.6067 -1.7805  0.8647
 6486SOL     OW31093   2.505   0.516  16.023 -0.7518 -0.8601  0.2296
 6486SOL    HW131094   2.426   0.570  16.030 -0.1701 -0.0117  0.2495
 6486SOL    HW231095   2.469   0.445  15.970  0.6193 -0.4964 -1.1749
 6487SOL     OW31096   2.007   0.325   9.085  0.7056  0.1746 -0.2015
 6487SOL    HW131097   2.094   0.287   9.094  0.2876 -0.2849  1.9904
 6487SOL    HW231098   1.957   0.264   9.140 -0.3772 -0.6246 -2.0684
 6488SOL     OW31099   0.484   3.505   9.723 -0.2374  0.1777 -0.5028
 6488SOL    HW131100   0.519   3.531   9.638  0.0728  0.3190 -0.3329
 6488SOL    HW231101   0.562   3.466   9.762 -2.2985 -2.9348  0.5389
 6489SOL     OW31102   1.148   4.091   6.130 -0.0204 -0.5560 -0.4862
 6489SOL    HW131103   1.137   4.084   6.224 -2.0327  1.0493 -0.6016
 6489SOL    HW231104   1.090   4.166   6.114  0.7643  0.3012  0.6238
 6490SOL     OW31105   3.922   3.860   5.872 -0.2699 -0.3078 -0.4453
 6490SOL    HW131106   3.903   3.924   5.941  1.2384 -0.3363 -0.0023
 6490SOL    HW231107   3.888   3.784   5.919 -1.6500 -0.2293 -1.3109
 6491SOL     OW31108   1.027   1.402   9.093 -0.1522  0.0683 -0.2174
 6491SOL    HW131109   0.983   1.345   9.155  0.6768 -2.4475 -1.9302
 6491SOL    HW231110   1.108   1.354   9.075 -0.1194 -0.6579  1.8910
 6492SOL     OW31111   3.475   2.518   6.569  0.3613 -0.2652 -0.2708
 6492SOL    HW131112   3.450   2.439   6.616  0.7153  1.0260  2.0777
 6492SOL    HW231113   3.522   2.482   6.493  0.5123 -0.5289 -0.0526
 6493SOL     OW31114   1.355   4.083   0.542  0.6269  0.1469  0.4915
 6493SOL    HW131115   1.439   4.075   0.587 -0.5837 -0.9073  2.5509
 6493SOL    HW231116   1.296   4.094   0.616  1.0642  1.9451  0.5650
 6494SOL     OW31117   0.814   0.253   1.148 -0.0213 -0.0283 -0.3324
 6494SOL    HW131118   0.754   0.224   1.217 -0.6786 -0.4290 -1.0700
 6494SOL    HW231119   0.803   0.176   1.092 -2.3104 -0.1124  0.1976
 6495SOL     OW31120   1.319   0.458   0.587  0.1955  0.3716  0.1706
 6495SOL    HW131121   1.247   0.521   0.580  0.1197  0.1236 -1.4643
 6495SOL    HW231122   1.269   0.378   0.569 -0.5303  0.6486  1.0054
 6496SOL     OW31123   0.540   2.305  13.394  0.1009 -0.0226  0.0616
 6496SOL    HW131124   0.572   2.309  13.484  0.9825  0.1859 -0.2676
 6496SOL    HW231125   0.592   2.376  13.357  1.8760 -0.5115  1.6738
 6497SOL     OW31126   1.057   2.669   5.339 -0.2121  0.1466  0.2913
 6497SOL    HW131127   1.134   2.621   5.310 -0.3671  0.4204 -0.5696
 6497SOL    HW231128   1.032   2.720   5.262  0.6194 -2.0347 -1.3927
 6498SOL     OW31129   2.325   1.757   3.225  0.0178  0.2100 -0.2495
 6498SOL    HW131130   2.360   1.840   3.259  0.4751  0.8892 -2.3822
 6498SOL    HW231131   2.258   1.788   3.165 -0.3724 -1.4248 -0.6474
 6499SOL     OW31132   2.472   4.327   7.799  0.2039  0.4582  0.5886
 6499SOL    HW131133   2.471   4.402   7.859 -1.3213 -0.1356  1.3307
 6499SOL    HW231134   2.464   4.381   7.721  2.7825 -2.0896 -1.4117
 6500SOL     OW31135   1.820   3.978  11.031 -0.4265 -0.6078 -0.7117
 6500SOL    HW131136   1.864   3.896  11.010 -3.6210 -2.7539  0.8167
 6500SOL    HW231137   1.747   3.944  11.084 -2.2747  1.5272 -1.8724
 6501SOL     OW31138   4.245   3.030   8.706 -1.0337 -0.6600  0.1143
 6501SOL    HW131139   4.213   3.036   8.796  1.4688 -1.7452  1.0734
 6501SOL    HW231140   4.158   3.017   8.669 -0.8296 -2.8452  0.4248
 6502SOL     OW31141   0.281   4.471   7.497  0.4458 -0.5917 -0.1012
 6502SOL    HW131142   0.309   4.401   7.438 -0.2808 -1.4629  0.5866
 6502SOL    HW231143   0.189   4.488   7.481  0.4865 -0.7017 -0.4454
 6503SOL     OW31144   2.956   4.658   4.330  0.0350  0.0243  0.4945
 6503SOL    HW131145   2.951   0.007   4.288 -2.3892 -0.3916 -0.0712
 6503SOL    HW231146   2.921   4.613   4.254 -0.1875  2.9888 -1.1673
 6504SOL     OW31147   0.569   0.611   2.481  0.0974  0.1243  0.3634
 6504SOL    HW131148   0.567   0.560   2.561 -3.3846  1.2544  0.9998
 6504SOL    HW231149   0.595   0.549   2.412  0.4495 -0.7353  1.2722
 6505SOL     OW31150   1.323   3.761   6.493 -0.5645 -0.2482  0.3695
 6505SOL    HW131151   1.357   3.674   6.515 -0.2127  0.1143  1.2813
 6505SOL    HW231152   1.306   3.805   6.576 -0.4365  0.1041  0.2085
 6506SOL     OW31153   3.279   3.452   4.473  0.6005  0.1070  0.1296
 6506SOL    HW131154   3.330   3.453   4.392 -0.2214  3.5326 -0.3373
 6506SOL    HW231155   3.225   3.529   4.454 -1.0550 -0.8130  1.1189
 6507SOL     OW31156   2.820   2.638   7.943 -0.3137  0.4063  0.0434
 6507SOL    HW131157   2.849   2.574   7.878 -0.7786  1.3148 -1.0508
 6507SOL    HW231158   2.851   2.593   8.022 -2.9014 -0.1334  0.7399
 6508SOL     OW31159   1.787   1.518   6.821 -0.5111  0.2952  0.1223
 6508SOL    HW131160   1.804   1.427   6.797  2.3883  1.1862 -1.1134
 6508SOL    HW231161   1.693   1.525   6.803 -0.5803 -3.5840 -1.0579
 6509SOL     OW31162   2.406   2.563   1.291  0.3858 -0.4249 -0.2180
 6509SOL    HW131163   2.466   2.634   1.268  1.8106 -1.7574 -0.6776
 6509SOL    HW231164   2.327   2.597   1.332 -0.5742 -1.1213 -1.5107
 6510SOL     OW31165   2.292   3.817   4.468 -0.0354  0.2777  0.3746
 6510SOL    HW131166   2.239   3.882   4.423 -0.1410 -0.3057 -0.3470
 6510SOL    HW231167   2.335   3.869   4.536  0.2976 -1.5266  1.5711
 6511SOL     OW31168   3.885   3.556   1.997 -0.2629 -0.0921 -0.3034
 6511SOL    HW131169   3.955   3.570   2.060 -1.5795  0.5173  1.0211
 6511SOL    HW231170   3.934   3.549   1.915 -0.2749 -0.2307 -0.2984
 6512SOL     OW31171   1.244   3.412   5.021 -0.3875  0.3744 -0.4426
 6512SOL    HW131172   1.255   3.373   5.108  0.0929  1.3534 -0.0726
 6512SOL    HW231173   1.291   3.350   4.964 -0.2640  1.5502 -1.6133
 6513SOL     OW31174   0.197   3.511   8.449 -0.1312 -0.1165 -0.0828
 6513SOL    HW131175   0.273   3.567   8.430  0.2004 -0.6073 -0.1931
 6513SOL    HW231176   0.119   3.562   8.429 -0.2540  0.2017  1.2092
 6514SOL     OW31177   1.565   3.605   3.793 -0.1607  0.2299 -0.1349
 6514SOL    HW131178   1.507   3.539   3.831  0.6472 -0.9308 -0.9166
 6514SOL    HW231179   1.502   3.671   3.766 -0.3579 -0.9541 -2.5967
 6515SOL     OW31180   3.937   0.444   6.717  0.0314  0.3178  0.9698
 6515SOL    HW131181   3.932   0.474   6.808 -1.0110 -1.1579  1.4070
 6515SOL    HW231182   4.030   0.434   6.699 -0.0806  3.7919 -1.6229
 6516SOL     OW31183   0.778   0.754  11.092  0.2480  0.0526 -0.1958
 6516SOL    HW131184   0.702   0.720  11.044  1.0844 -1.4305 -0.4598
 6516SOL    HW231185   0.793   0.823  11.028 -0.5112 -1.0087 -1.5265
 6517SOL     OW31186   1.662   2.634   3.988 -0.3419 -0.2627  0.2933
 6517SOL    HW131187   1.620   2.593   3.913  2.5864 -0.4507 -1.2426
 6517SOL    HW231188   1.689   2.721   3.958 -2.3017  0.4683  0.6763
 6518SOL     OW31189   1.570   0.632  12.125 -0.4324  0.4862 -0.3742
 6518SOL    HW131190   1.492   0.582  12.098  0.0147 -1.3444  1.7185
 6518SOL    HW231191   1.635   0.562  12.136 -0.8919  0.0548 -0.3859
 6519SOL     OW31192   4.386   1.947   2.421 -0.3521 -0.0238 -0.7329
 6519SOL    HW131193   4.461   1.899   2.457 -0.1228  1.5790  0.8922
 6519SOL    HW231194   4.415   2.034   2.448 -0.4585  0.4987 -2.3227
 6520SOL     OW31195   2.997   1.058   3.068  0.6145 -1.0344 -0.0020
 6520SOL    HW131196   2.974   1.006   2.991 -0.7707 -0.0929 -0.2218
 6520SOL    HW231197   3.091   1.070   3.055  0.4080 -0.3255 -0.7923
 6521SOL     OW31198   1.130   1.434   7.405 -0.1622 -0.3086 -0.7228
 6521SOL    HW131199   1.183   1.386   7.468  0.9954 -1.5197 -2.6047
 6521SOL    HW231200   1.168   1.398   7.325 -0.0868 -1.6390 -0.0883
 6522SOL     OW31201   2.265   1.690   1.872 -0.2682 -0.5496  0.2464
 6522SOL    HW131202   2.352   1.724   1.893 -0.6697  1.1609 -0.8137
 6522SOL    HW231203   2.197   1.753   1.899 -0.6479 -0.1086 -1.7372
 6523SOL     OW31204   4.359   2.941   4.137 -0.0055  0.5856  0.2624
 6523SOL    HW131205   4.268   2.920   4.119  0.8391 -1.7728 -1.2371
 6523SOL    HW231206   4.405   2.860   4.115 -0.1311  0.9398 -1.3001
 6524SOL     OW31207   0.389   0.292   0.391 -0.3286 -0.7848 -0.0117
 6524SOL    HW131208   0.319   0.329   0.336 -0.5307  2.2495  2.2708
 6524SOL    HW231209   0.458   0.353   0.365 -0.4565 -0.6325  0.0068
 6525SOL     OW31210   1.794   3.888   5.595 -0.1432  0.3190  0.7627
 6525SOL    HW131211   1.782   3.854   5.684  1.4018  1.1706  1.2818
 6525SOL    HW231212   1.887   3.872   5.580 -0.0880  2.6118 -1.2836
 6526SOL     OW31213   3.766   3.240   5.536 -0.6497 -0.3273  0.3330
 6526SOL    HW131214   3.745   3.220   5.628  0.8316 -2.5006  0.1872
 6526SOL    HW231215   3.799   3.153   5.515 -2.8073 -0.9959 -0.2695
 6527SOL     OW31216   4.495   2.984   2.564  0.5739 -0.7829 -0.4576
 6527SOL    HW131217   4.513   3.055   2.627  0.1200  1.1235 -2.4817
 6527SOL    HW231218   4.507   2.915   2.629  1.8921  1.1091  1.3349
 6528SOL     OW31219   2.061   0.905   5.821  0.4246 -0.2620 -0.5236
 6528SOL    HW131220   2.055   0.827   5.767  0.9796  1.1273 -2.6096
 6528SOL    HW231221   2.105   0.970   5.766 -0.6358 -0.5871 -1.7461
 6529SOL     OW31222   0.011   2.607   7.361  0.2437  0.1554 -0.1442
 6529SOL    HW131223   4.701   2.534   7.321 -0.3361 -0.3062  1.3834
 6529SOL    HW231224   4.732   2.601   7.455  1.1120 -2.0782 -0.1423
 6530SOL     OW31225   2.874   3.703  10.187  0.0299  0.5616  0.0688
 6530SOL    HW131226   2.871   3.766  10.115  1.8426  1.6694  0.9762
 6530SOL    HW231227   2.959   3.659  10.175 -0.4742 -0.9545  1.9950
 6531SOL     OW31228   0.911   0.786   7.851 -0.6441  0.6728 -0.1797
 6531SOL    HW131229   0.902   0.770   7.945 -0.0760  1.5019  0.0190
 6531SOL    HW231230   0.871   0.708   7.814 -0.8523  1.1535 -0.9812
 6532SOL     OW31231   2.716   1.006   9.259  0.0314 -0.4092 -0.7568
 6532SOL    HW131232   2.650   0.968   9.201 -1.4538 -1.5035  1.6488
 6532SOL    HW231233   2.698   0.974   9.348  0.4226 -1.1769 -0.9603
 6533SOL     OW31234   0.744   0.168   7.715 -0.2982  0.1140 -0.4002
 6533SOL    HW131235   0.717   0.220   7.639  1.0400  2.8011  0.9380
 6533SOL    HW231236   0.661   0.172   7.763 -0.0908 -0.7076  0.0165
 6534SOL     OW31237   4.008   4.352   4.333  0.2882 -0.0801 -0.5568
 6534SOL    HW131238   3.986   4.376   4.242 -1.3719  0.6692  0.0369
 6534SOL    HW231239   4.043   4.263   4.327 -0.0978 -0.4096  2.0753
 6535SOL     OW31240   2.088   0.964   9.817 -0.0969  0.2215  0.2814
 6535SOL    HW131241   2.020   0.963   9.750  0.4956 -1.6040 -0.3027
 6535SOL    HW231242   2.039   0.930   9.891  0.7829 -3.9322 -1.0731
 6536SOL     OW31243   3.134   2.984   3.348  0.2836  0.5162 -0.7504
 6536SOL    HW131244   3.171   3.029   3.272  1.9897 -0.6251 -0.5980
 6536SOL    HW231245   3.186   3.016   3.423 -1.5091  2.3367 -0.2977
 6537SOL     OW31246   2.947   1.658   4.978  0.4084  0.7573 -0.2111
 6537SOL    HW131247   2.853   1.671   4.995  0.5046 -0.1826  1.0841
 6537SOL    HW231248   2.958   1.575   5.025  2.0940  0.0787 -1.7977
 6538SOL     OW31249   0.808   1.102   4.577  0.5698  0.1598  0.3570
 6538SOL    HW131250   0.827   1.192   4.549 -3.0547  0.5776 -0.7361
 6538SOL    HW231251   0.809   1.062   4.490  3.4339 -1.5340  1.1719
 6539SOL     OW31252   1.548   2.458   6.012 -0.0297  0.6926  0.1577
 6539SOL    HW131253   1.595   2.412   6.081  0.5703 -0.2226 -0.8673
 6539SOL    HW231254   1.459   2.424   6.021  0.8819 -1.9362 -0.7307
 6540SOL     OW31255   3.980   4.200  15.379 -0.4982 -0.7243 -0.3557
 6540SOL    HW131256   3.940   4.173  15.296 -0.9617 -0.1643 -0.3210
 6540SOL    HW231257   3.939   4.145  15.445 -0.1145  0.8981  1.2373
 6541SOL     OW31258   3.075   3.149   0.762 -0.0153 -0.3502 -0.2883
 6541SOL    HW131259   3.031   3.148   0.847 -0.3528  1.8763 -0.4195
 6541SOL    HW231260   3.030   3.077   0.719 -1.0759  0.6272 -0.8127
 6542SOL     OW31261   3.224   0.419   8.489  0.0660 -0.4342 -0.0044
 6542SOL    HW131262   3.271   0.502   8.502 -0.9362  0.5222 -2.4462
 6542SOL    HW231263   3.134   0.449   8.503  0.4718  0.8338 -0.0688
 6543SOL     OW31264   0.156   3.637   4.936  0.1606 -0.0783  0.3068
 6543SOL    HW131265   0.238   3.599   4.968  1.1256 -0.4695 -2.6312
 6543SOL    HW231266   0.170   3.666   4.846 -2.3580 -2.1322 -0.7565
 6544SOL     OW31267   2.837   4.454   8.412 -0.0354  0.6948 -0.2061
 6544SOL    HW131268   2.791   4.380   8.374 -0.0103  2.4392 -3.6377
 6544SOL    HW231269   2.880   4.415   8.488 -3.4005 -1.7282  0.4407
 6545SOL     OW31270   2.111   1.506   3.658  0.0501 -0.7009  0.6602
 6545SOL    HW131271   2.090   1.538   3.570 -0.2920  2.5771  1.9099
 6545SOL    HW231272   2.087   1.576   3.720 -0.7953 -0.1622 -0.2687
 6546SOL     OW31273   2.222   1.982   3.501  0.4269 -0.2349 -0.0827
 6546SOL    HW131274   2.306   1.986   3.455  0.9579 -0.1545  0.8922
 6546SOL    HW231275   2.182   2.044   3.440  1.1407 -1.7907 -2.1256
 6547SOL     OW31276   2.073   2.460   2.451 -0.3660 -0.0052 -0.0093
 6547SOL    HW131277   2.168   2.474   2.443 -0.3319 -0.7979 -1.0164
 6547SOL    HW231278   2.068   2.365   2.459 -0.9338  0.0383  0.1033
 6548SOL     OW31279   2.315   0.055   7.518  0.3288  0.4154  0.2850
 6548SOL    HW131280   2.320   0.151   7.518 -1.2407  0.5099 -1.3011
 6548SOL    HW231281   2.256   0.031   7.589  1.4135 -0.6756  0.8170
 6549SOL     OW31282   3.771   0.342   4.811  0.4273  0.3059  0.0530
 6549SOL    HW131283   3.731   0.288   4.880 -0.0431  0.0490 -0.4240
 6549SOL    HW231284   3.740   0.292   4.736  1.1815  1.2097 -0.8595
 6550SOL     OW31285   2.344   2.616   3.177  0.0330 -0.0825 -0.3924
 6550SOL    HW131286   2.327   2.658   3.092 -0.8333  0.3394 -0.0024
 6550SOL    HW231287   2.429   2.651   3.203  0.8302 -2.0434 -0.3970
 6551SOL     OW31288   4.647   1.024   6.930 -0.5375  0.9234  0.1615
 6551SOL    HW131289   4.722   1.020   6.870 -2.4095 -1.0227 -2.0482
 6551SOL    HW231290   4.688   1.030   7.016  0.7813 -1.7251 -0.2808
 6552SOL     OW31291   3.898   2.175   6.249 -0.7981 -0.5381  0.0802
 6552SOL    HW131292   3.950   2.221   6.315 -0.1978 -2.1787  0.7691
 6552SOL    HW231293   3.947   2.193   6.169 -2.4332  1.2658 -0.4934
 6553SOL     OW31294   0.132   1.843  15.166 -0.1428  0.3147 -0.1903
 6553SOL    HW131295   0.165   1.758  15.136  0.0711 -0.0237  1.0418
 6553SOL    HW231296   0.129   1.826  15.260  0.0131 -2.2454 -0.6558
 6554SOL     OW31297   1.315   0.997   3.086  0.2177 -0.1629  0.0738
 6554SOL    HW131298   1.275   0.995   2.999 -2.5755  0.8034  1.3252
 6554SOL    HW231299   1.243   1.004   3.149  1.0192 -1.6935  1.1436
 6555SOL     OW31300   0.477   1.314   5.213 -0.1895 -0.0511 -0.3204
 6555SOL    HW131301   0.495   1.284   5.124  1.6646  0.8966 -0.2637
 6555SOL    HW231302   0.541   1.384   5.222 -0.2411 -0.0587  0.0842
 6556SOL     OW31303   0.343   3.889   4.862 -0.0496 -0.4600  0.0876
 6556SOL    HW131304   0.429   3.848   4.871 -0.4154 -0.9390  1.4746
 6556SOL    HW231305   0.339   3.949   4.936  1.2200  0.2344 -0.4151
 6557SOL     OW31306   0.365   1.659   7.124 -0.8283 -0.1796  0.2054
 6557SOL    HW131307   0.433   1.726   7.133 -0.8028 -0.3177  1.0599
 6557SOL    HW231308   0.405   1.577   7.152  1.6158  1.5191  1.7193
 6558SOL     OW31309   2.053   2.414   8.262 -0.1739 -0.3844  0.3792
 6558SOL    HW131310   2.107   2.339   8.285  1.2675  1.1030  1.9217
 6558SOL    HW231311   2.095   2.488   8.307 -1.3418  1.0571 -0.8893
 6559SOL     OW31312   3.716   1.081   5.079 -0.1982 -0.1545 -0.0691
 6559SOL    HW131313   3.621   1.068   5.085 -0.0565  0.0487  2.5831
 6559SOL    HW231314   3.740   1.047   5.165  1.1280 -1.2301 -0.8572
 6560SOL     OW31315   0.032   0.911   2.676  0.1910 -0.5890 -0.4563
 6560SOL    HW131316   0.067   0.884   2.761 -2.2604  1.1982  1.1161
 6560SOL    HW231317   0.002   0.832   2.630 -0.5573  0.0774 -1.1207
 6561SOL     OW31318   2.670   1.348   6.811  0.2615 -0.0578  0.2859
 6561SOL    HW131319   2.584   1.310   6.831  0.6136 -0.3747  1.1971
 6561SOL    HW231320   2.646   1.435   6.777 -0.3682 -1.3211 -2.4925
 6562SOL     OW31321   4.385   0.736   4.275  0.6652  0.3985  0.3431
 6562SOL    HW131322   4.397   0.797   4.202 -1.1435 -0.7625 -0.9327
 6562SOL    HW231323   4.314   0.677   4.252  1.5104  0.2650 -1.9504
 6563SOL     OW31324   4.321   3.520   3.979 -0.6886 -0.3941  0.2516
 6563SOL    HW131325   4.373   3.575   3.920 -0.2256 -0.8798  0.2064
 6563SOL    HW231326   4.343   3.430   3.955 -0.5790 -0.2242 -0.2939
 6564SOL     OW31327   4.613   4.208  11.966  0.1340  0.0347  0.2761
 6564SOL    HW131328   4.540   4.270  11.971  0.3134  0.2867 -0.2039
 6564SOL    HW231329   4.678   4.269  11.931  0.2161 -0.2063  0.0088
 6565SOL     OW31330   1.524   1.066   6.298  0.0220 -0.3300  0.0825
 6565SOL    HW131331   1.477   1.064   6.381  1.1084 -0.4150  0.7004
 6565SOL    HW231332   1.467   1.130   6.257  2.5715  1.3111 -0.9210
 6566SOL     OW31333   1.682   1.682   1.053 -0.0338  0.1425 -1.0979
 6566SOL    HW131334   1.663   1.599   1.097  1.9452  0.6637  0.7165
 6566SOL    HW231335   1.601   1.729   1.074 -0.2090 -0.2459 -0.9058
 6567SOL     OW31336   3.722   1.887   2.560 -0.5361 -0.0796 -0.5534
 6567SOL    HW131337   3.800   1.901   2.506  0.2028  1.4617  0.8868
 6567SOL    HW231338   3.751   1.938   2.636 -0.3069  0.4678 -1.0004
 6568SOL     OW31339   1.039   4.202   4.552 -0.3178 -0.3422  0.1005
 6568SOL    HW131340   0.979   4.233   4.484  2.0309  0.8972 -1.3999
 6568SOL    HW231341   1.123   4.232   4.516  0.3227 -1.2429  0.8592
 6569SOL     OW31342   2.571   1.938  13.522 -0.1502  0.1537 -0.2681
 6569SOL    HW131343   2.492   1.970  13.566 -0.9626  0.0398 -1.6529
 6569SOL    HW231344   2.602   2.004  13.461  1.7202  1.3548  1.9939
 6570SOL     OW31345   0.934   1.594  11.048 -0.1700  0.2070  0.1835
 6570SOL    HW131346   0.952   1.511  11.091 -0.6922 -1.2725 -2.4337
 6570SOL    HW231347   0.975   1.663  11.101  0.9710  0.2214 -0.7217
 6571SOL     OW31348   0.742   2.437   7.167 -0.0144 -0.1791  0.4549
 6571SOL    HW131349   0.734   2.348   7.203 -0.3340 -1.0304 -1.7699
 6571SOL    HW231350   0.717   2.420   7.076 -0.5783  0.7106  0.4524
 6572SOL     OW31351   1.618   3.194   6.017 -0.2672 -0.3075 -0.3406
 6572SOL    HW131352   1.598   3.222   5.927 -0.4784  1.5239  0.2646
 6572SOL    HW231353   1.688   3.258   6.035 -1.8102  1.5144 -0.7522
 6573SOL     OW31354   4.110   3.795   4.961 -0.0572  0.2996 -0.4005
 6573SOL    HW131355   4.190   3.779   4.911 -0.8869 -0.5835 -1.4567
 6573SOL    HW231356   4.130   3.874   5.011 -0.6858  0.4410 -0.3701
 6574SOL     OW31357   3.038   3.321  16.326 -0.4141  0.0054 -0.3903
 6574SOL    HW131358   3.049   3.371  16.245  2.8339 -0.7140 -0.4002
 6574SOL    HW231359   2.944   3.324  16.343 -0.6586 -2.1231 -1.3920
 6575SOL     OW31360   2.139   0.834   8.744  0.1812 -0.3298  0.5113
 6575SOL    HW131361   2.094   0.833   8.829  0.6588 -3.0086  0.7327
 6575SOL    HW231362   2.218   0.780   8.743  0.6251  0.3067  1.1308
 6576SOL     OW31363   4.421   3.327   2.187 -0.1327 -0.2911  0.5246
 6576SOL    HW131364   4.388   3.381   2.259  0.8642  2.0865 -0.8187
 6576SOL    HW231365   4.338   3.289   2.157  0.2405 -1.2625  0.6988
 6577SOL     OW31366   3.740   3.394  17.553 -0.0759 -0.1086 -0.3947
 6577SOL    HW131367   3.766   3.466  17.496 -0.3578 -0.6139 -1.1567
 6577SOL    HW231368   3.751   3.435  17.639  1.2213  2.0930 -1.6013
 6578SOL     OW31369   4.016   0.163   5.321  0.1889 -0.2670  0.3217
 6578SOL    HW131370   4.109   0.170   5.340  0.0086 -1.4073  1.6423
 6578SOL    HW231371   4.007   0.094   5.255  1.9786 -0.3091  0.1350
 6579SOL     OW31372   1.692   4.318  13.429  0.1034  0.2132 -0.3405
 6579SOL    HW131373   1.730   4.344  13.345  0.4894  1.6089  0.2614
 6579SOL    HW231374   1.772   4.300  13.478 -0.2097  0.7124  0.3419
 6580SOL     OW31375   2.311   2.914   8.288 -0.4363  0.0106  0.0907
 6580SOL    HW131376   2.404   2.936   8.290  0.1855 -2.3352 -2.4934
 6580SOL    HW231377   2.297   2.917   8.193 -1.7865  1.1295  0.3267
 6581SOL     OW31378   2.178   2.912   8.030  0.7408 -0.0594  0.5778
 6581SOL    HW131379   2.095   2.921   7.984  0.5064 -0.1571  0.9781
 6581SOL    HW231380   2.240   2.888   7.961  0.1686  1.4689 -0.4593
 6582SOL     OW31381   0.465   3.661   5.216 -0.4143 -0.7169  0.0769
 6582SOL    HW131382   0.556   3.672   5.243 -0.7186 -1.9030  1.5791
 6582SOL    HW231383   0.425   3.647   5.302  0.7157  1.4151  0.9670
 6583SOL     OW31384   2.021   2.337   7.795 -0.2355 -0.0762 -0.2432
 6583SOL    HW131385   2.004   2.370   7.883  2.8257 -0.9643  0.6769
 6583SOL    HW231386   2.061   2.252   7.811  0.5527  0.5462  1.0602
 6584SOL     OW31387   0.256   1.162   7.593 -0.5537 -0.2404 -0.2126
 6584SOL    HW131388   0.166   1.182   7.567 -0.3844 -0.4780 -0.9819
 6584SOL    HW231389   0.256   1.070   7.569  0.0141  0.2947 -2.2896
 6585SOL     OW31390   3.126   1.409  12.877  0.0028 -0.2350 -0.2544
 6585SOL    HW131391   3.160   1.320  12.877 -1.0984 -0.6576 -0.9897
 6585SOL    HW231392   3.032   1.398  12.888 -0.2087  0.2217 -1.6631
 6586SOL     OW31393   0.795   0.002   6.737 -0.0667 -0.1629 -0.6803
 6586SOL    HW131394   0.769   0.036   6.652 -3.5910  0.7404  0.7522
 6586SOL    HW231395   0.835   0.076   6.783 -1.8040 -0.5446  1.4285
 6587SOL     OW31396   3.869   3.534  15.120  0.5057 -0.1584 -0.9349
 6587SOL    HW131397   3.894   3.598  15.186 -0.7482 -1.4149  0.7482
 6587SOL    HW231398   3.779   3.555  15.094  0.0038 -1.1706  0.0197
 6588SOL     OW31399   1.303   0.605   6.639 -0.3559 -0.5840 -0.0910
 6588SOL    HW131400   1.388   0.629   6.677  0.2293  0.1843 -1.8987
 6588SOL    HW231401   1.244   0.679   6.646  0.3711 -0.2547  2.5049
 6589SOL     OW31402   4.025   1.471  16.420  0.0772  0.1948  0.2088
 6589SOL    HW131403   4.084   1.399  16.442  1.0250  0.4130 -1.5883
 6589SOL    HW231404   4.076   1.541  16.461 -0.2308 -0.0047  0.9338
 6590SOL     OW31405   4.672   4.211   4.581  0.3993 -0.1159  0.1193
 6590SOL    HW131406   4.633   4.259   4.654  2.2923  2.2035 -0.3844
 6590SOL    HW231407   4.619   4.237   4.505  0.2591 -0.4785  0.0958
 6591SOL     OW31408   1.753   4.001   2.996 -0.1108 -0.3660  0.6107
 6591SOL    HW131409   1.838   3.960   3.014  1.1140  1.5326 -0.7483
 6591SOL    HW231410   1.734   3.977   2.905  0.7267  3.1366 -0.5101
 6592SOL     OW31411   0.216   0.923   3.936  0.5529 -0.1031  0.4396
 6592SOL    HW131412   0.213   0.999   3.878 -0.9655 -0.1450  0.4534
 6592SOL    HW231413   0.297   0.892   3.897  0.6486  1.5500 -0.6582
 6593SOL     OW31414   3.966   1.790  10.632  0.1191 -0.0968  0.7542
 6593SOL    HW131415   4.044   1.792  10.687  0.4460 -0.7892  0.3022
 6593SOL    HW231416   3.996   1.778  10.542 -1.4374  0.7604  0.1162
 6594SOL     OW31417   4.710   0.279   6.975  0.2206  0.1248 -0.8356
 6594SOL    HW131418   0.051   0.333   6.961 -0.8308  1.8858  0.2250
 6594SOL    HW231419   4.649   0.313   6.910 -0.8986 -1.0897 -0.4092
 6595SOL     OW31420   3.176   2.702  17.002  0.2634 -0.3454  0.4001
 6595SOL    HW131421   3.110   2.762  17.036  0.2753  1.2706 -2.4271
 6595SOL    HW231422   3.237   2.752  16.947  2.2422 -1.8718  1.1918
 6596SOL     OW31423   4.347   2.716   9.164 -0.3298 -0.0940  0.1605
 6596SOL    HW131424   4.367   2.809   9.170  0.8135 -0.2856 -0.6881
 6596SOL    HW231425   4.252   2.722   9.169 -0.4203 -1.6748  0.4750
 6597SOL     OW31426   3.149   4.727   4.667 -0.3531  0.1369  0.0462
 6597SOL    HW131427   3.195   4.650   4.631  1.3980  1.2178 -0.0118
 6597SOL    HW231428   3.154   4.704   4.760  0.7402 -1.1764 -0.3247
 6598SOL     OW31429   3.482   4.155   6.369  0.0379 -0.2878  0.0152
 6598SOL    HW131430   3.485   4.192   6.280  1.3624 -1.2586 -0.3421
 6598SOL    HW231431   3.561   4.101   6.364 -1.4459 -2.6116  1.7592
 6599SOL     OW31432   3.463   4.069   4.455  0.3135 -0.3772 -0.3697
 6599SOL    HW131433   3.463   3.989   4.507  0.2934  1.5571  2.5980
 6599SOL    HW231434   3.550   4.106   4.447 -0.0072  0.2191 -1.1456
 6600SOL     OW31435   2.189   1.000   9.040 -0.5018 -0.1937 -0.4130
 6600SOL    HW131436   2.178   0.934   9.108  2.7832 -0.3970 -0.0474
 6600SOL    HW231437   2.119   1.060   9.065  0.7145  0.2598  1.9163
 6601SOL     OW31438   3.697   0.259   3.046 -0.1438 -0.0672  0.1010
 6601SOL    HW131439   3.791   0.265   3.060 -0.4562  3.0697  0.7192
 6601SOL    HW231440   3.661   0.347   3.056  0.8972  0.2833  0.7126
 6602SOL     OW31441   2.971   3.871   1.983 -0.3231 -0.4298  0.3051
 6602SOL    HW131442   2.963   3.779   2.009  0.0313 -0.7478 -0.7433
 6602SOL    HW231443   2.888   3.877   1.935  0.1879  1.2840 -0.3693
 6603SOL     OW31444   1.112   0.040   4.768 -0.5212  0.0587  0.3947
 6603SOL    HW131445   1.044   4.716   4.738  1.2024 -1.9737  0.5672
 6603SOL    HW231446   1.112   0.049   4.863  0.0930 -0.2790  0.4258
 6604SOL     OW31447   1.819   2.046   2.700  0.3855 -0.1531  0.1417
 6604SOL    HW131448   1.858   2.037   2.787  0.6571 -0.0513  0.0320
 6604SOL    HW231449   1.756   2.117   2.710  1.2109  0.4590  1.0229
 6605SOL     OW31450   4.174   3.609   2.601  0.2806 -0.4950  0.0047
 6605SOL    HW131451   4.177   3.581   2.693  0.1454  0.4318  0.2941
 6605SOL    HW231452   4.225   3.690   2.608 -0.0481 -0.3076  0.2405
 6606SOL     OW31453   3.986   2.723  15.619  0.0937  0.5096 -0.1912
 6606SOL    HW131454   3.939   2.703  15.539  0.9644 -0.4551 -0.4649
 6606SOL    HW231455   4.020   2.636  15.640 -1.9501  0.0712  1.3223
 6607SOL     OW31456   0.324   1.749  16.190  0.8180 -0.2707  0.0236
 6607SOL    HW131457   0.344   1.709  16.274  2.4235 -1.6043 -1.0042
 6607SOL    HW231458   0.411   1.779  16.165 -0.3599  1.5164 -1.9753
 6608SOL     OW31459   0.352   4.026  12.202  0.1303  0.0452 -0.2437
 6608SOL    HW131460   0.390   4.114  12.211 -0.4468  0.2078  0.6176
 6608SOL    HW231461   0.367   3.992  12.290  1.0131 -0.7379 -0.7049
 6609SOL     OW31462   4.072   0.557  13.986 -0.6149  0.2148  0.1527
 6609SOL    HW131463   3.987   0.595  13.964 -1.0681 -0.9605 -0.1016
 6609SOL    HW231464   4.122   0.557  13.905 -0.9757  1.8348 -0.0677
 6610SOL     OW31465   3.235   1.357  13.196 -0.2896  0.0834  0.0124
 6610SOL    HW131466   3.317   1.309  13.211  1.4188  2.5042 -1.5805
 6610SOL    HW231467   3.187   1.288  13.151 -0.7678 -1.2728  2.5940
 6611SOL     OW31468   0.816   2.311   8.760 -0.4602 -0.3393  0.1327
 6611SOL    HW131469   0.788   2.220   8.758  0.3479 -0.5478 -1.2464
 6611SOL    HW231470   0.866   2.321   8.679  1.0461 -0.2903  1.0487
 6612SOL     OW31471   2.831   1.696  13.882  0.1060  0.1718  0.1480
 6612SOL    HW131472   2.891   1.765  13.910 -0.4467  0.1061  1.5142
 6612SOL    HW231473   2.827   1.715  13.789 -0.2214 -1.1218 -0.1049
 6613SOL     OW31474   3.649   3.526   0.782  0.4160 -0.0023 -0.1113
 6613SOL    HW131475   3.564   3.485   0.767 -0.0731  0.6232  0.9504
 6613SOL    HW231476   3.696   3.528   0.699 -1.3023 -0.4378 -1.0943
 6614SOL     OW31477   2.858   4.234   1.766  0.7275  0.5165  0.2791
 6614SOL    HW131478   2.840   4.256   1.674 -2.2840 -0.7691  0.5443
 6614SOL    HW231479   2.879   4.141   1.756 -0.1146  0.0422  3.0812
 6615SOL     OW31480   1.182   0.119  14.908  1.1507 -0.1800 -0.1254
 6615SOL    HW131481   1.109   0.114  14.847 -1.5899 -1.3523  3.2482
 6615SOL    HW231482   1.245   0.180  14.869 -1.3342  2.5684  0.1555
 6616SOL     OW31483   3.925   2.430   4.439 -0.6163  0.2317  1.1895
 6616SOL    HW131484   4.011   2.407   4.475  0.2664  0.6990 -0.5892
 6616SOL    HW231485   3.950   2.397   4.352  0.2432  1.8033  0.8446
 6617SOL     OW31486   0.826   2.749   7.456 -0.0488 -0.0950  0.2645
 6617SOL    HW131487   0.796   2.806   7.527 -0.3640  0.4716 -0.3261
 6617SOL    HW231488   0.919   2.732   7.471 -0.0032  1.2475  1.4839
 6618SOL     OW31489   0.478   0.220   0.755  0.1252 -0.0514  0.0853
 6618SOL    HW131490   0.389   0.207   0.722 -0.2510 -0.9960  1.4851
 6618SOL    HW231491   0.532   0.223   0.676 -2.5701 -0.8496 -1.7706
 6619SOL     OW31492   0.550   1.905   7.704 -0.3780  0.0329 -0.0207
 6619SOL    HW131493   0.577   1.821   7.740 -0.6348  0.4799  1.1966
 6619SOL    HW231494   0.555   1.890   7.609 -0.3908 -4.4629  0.6913
 6620SOL     OW31495   2.667   0.355   4.129  0.3498  0.3601  0.0622
 6620SOL    HW131496   2.741   0.385   4.076  1.4377 -1.3014  0.6299
 6620SOL    HW231497   2.703   0.380   4.214 -1.0520  0.0578  0.7467
 6621SOL     OW31498   2.602   4.398   2.343 -0.3154  0.3680 -0.0918
 6621SOL    HW131499   2.631   4.308   2.355 -0.8553  0.0218 -1.3987
 6621SOL    HW231500   2.693   4.428   2.346  0.3050 -1.7088  1.8983
 6622SOL     OW31501   2.163   2.488   1.506 -0.0748  0.7078 -0.7086
 6622SOL    HW131502   2.179   2.564   1.450  0.5989  1.9191  1.1289
 6622SOL    HW231503   2.197   2.516   1.591 -0.1697  0.0778 -0.4596
 6623SOL     OW31504   4.222   1.608   3.985 -0.2620  0.0314 -0.4824
 6623SOL    HW131505   4.301   1.651   3.952  0.0901 -0.2263  0.0238
 6623SOL    HW231506   4.222   1.632   4.078  0.6708 -0.5048 -0.3442
 6624SOL     OW31507   4.279   2.827   2.216 -0.3529  0.4743  0.5695
 6624SOL    HW131508   4.371   2.852   2.225 -0.7034  2.4870 -1.1757
 6624SOL    HW231509   4.230   2.905   2.242  0.4671  0.8188  1.0892
 6625SOL     OW31510   0.833   3.185  13.342 -0.2527 -0.4752  0.0245
 6625SOL    HW131511   0.801   3.215  13.257  2.3282  1.1359 -0.3859
 6625SOL    HW231512   0.902   3.251  13.354 -0.7911  0.4343 -1.8794
 6626SOL     OW31513   2.190   1.418   4.268  0.6076 -0.2966  0.0632
 6626SOL    HW131514   2.159   1.448   4.354 -0.2355  0.2260 -0.4309
 6626SOL    HW231515   2.253   1.350   4.294  0.3456  0.1933  2.0192
 6627SOL     OW31516   4.606   0.436   5.496 -0.2395  0.0808  0.0803
 6627SOL    HW131517   4.550   0.449   5.572 -2.8710  0.7466 -1.9419
 6627SOL    HW231518   4.697   0.428   5.524  0.2454  1.7989 -1.0143
 6628SOL     OW31519   1.702   3.385  12.029 -0.4308  0.3807 -0.0122
 6628SOL    HW131520   1.786   3.342  12.049 -0.4250  0.4526  0.1217
 6628SOL    HW231521   1.729   3.467  11.989 -0.1824  0.3416  0.0704
 6629SOL     OW31522   3.812   2.801  17.518 -0.3584 -0.2091 -0.0770
 6629SOL    HW131523   3.733   2.779  17.468  1.0068  0.2534 -2.3981
 6629SOL    HW231524   3.812   2.896  17.505 -2.7979 -0.4582 -1.8917
 6630SOL     OW31525   2.024   3.172   5.369  0.3572  0.0356 -0.0533
 6630SOL    HW131526   2.052   3.161   5.460  0.2055 -1.0484 -0.1377
 6630SOL    HW231527   2.039   3.264   5.348  0.8671  0.2889  1.4532
 6631SOL     OW31528   1.897   0.926   0.043 -0.2211  0.9234 -0.3750
 6631SOL    HW131529   1.992   0.919   0.044 -0.2743  0.2372 -0.4751
 6631SOL    HW231530   1.876   0.833   0.036 -1.0299  1.1162 -0.5910
 6632SOL     OW31531   4.534   2.494   1.641  0.2962  0.0627 -0.0136
 6632SOL    HW131532   4.579   2.423   1.686 -0.4450 -0.4458 -0.0623
 6632SOL    HW231533   4.552   2.473   1.549  0.4370 -2.4484  0.5805
 6633SOL     OW31534   2.165   3.098  12.003  0.2838 -0.4371  0.5173
 6633SOL    HW131535   2.210   3.025  11.962  0.9796  0.2952 -0.0202
 6633SOL    HW231536   2.170   3.076  12.096 -2.1919 -1.7239  0.3459
 6634SOL     OW31537   3.996   1.637   7.090  0.6043 -0.7117 -0.2124
 6634SOL    HW131538   3.998   1.648   7.185  0.2317  1.0621 -0.4191
 6634SOL    HW231539   3.987   1.542   7.082 -2.1187 -0.5164  0.6832
 6635SOL     OW31540   3.777   0.638   4.424  0.2993 -0.4187 -0.4997
 6635SOL    HW131541   3.851   0.593   4.465  0.4861  0.3720  0.0417
 6635SOL    HW231542   3.774   0.712   4.485  1.9878 -0.2835 -0.5930
 6636SOL     OW31543   0.448   2.047   3.167  0.0366 -0.5769 -0.0225
 6636SOL    HW131544   0.416   2.081   3.084 -2.5585  1.4687  1.8138
 6636SOL    HW231545   0.369   2.060   3.220 -0.8193  0.4544 -1.5631
 6637SOL     OW31546   2.984   4.298   8.621 -0.7920  0.1143 -0.3055
 6637SOL    HW131547   2.944   4.329   8.702  1.3714  1.4704  0.2695
 6637SOL    HW231548   3.079   4.295   8.637 -0.6192  1.3134 -1.1287
 6638SOL     OW31549   2.937   3.134   4.951 -1.6030  0.0645 -0.2174
 6638SOL    HW131550   3.004   3.073   4.919 -1.2539  0.0916  0.4585
 6638SOL    HW231551   2.911   3.170   4.867  1.0023  1.5436 -0.3726
 6639SOL     OW31552   4.202   2.314   9.434  0.1072 -0.6129 -0.0951
 6639SOL    HW131553   4.176   2.350   9.518 -2.3685  1.1013 -1.5878
 6639SOL    HW231554   4.292   2.286   9.447  0.6815  1.5041  0.4292
 6640SOL     OW31555   0.868   4.348   5.254  0.2918 -0.2640 -0.1636
 6640SOL    HW131556   0.798   4.333   5.190  1.2591 -1.9194 -0.8412
 6640SOL    HW231557   0.862   4.272   5.313 -1.1446  0.9165  1.2195
 6641SOL     OW31558   0.934   3.514   4.514 -0.4962 -1.2912 -0.0039
 6641SOL    HW131559   0.875   3.560   4.454  0.2669 -1.4637 -0.8847
 6641SOL    HW231560   0.869   3.470   4.569 -0.5698 -2.3631 -0.9684
 6642SOL     OW31561   0.010   0.605   6.199 -0.0690 -0.1029 -0.6237
 6642SOL    HW131562   0.048   0.678   6.248 -1.2145  1.0287 -1.4096
 6642SOL    HW231563   4.703   0.554   6.266 -1.5071  0.6831 -0.9904
 6643SOL     OW31564   4.132   3.824   2.916 -0.5038  0.4598 -0.0969
 6643SOL    HW131565   4.159   3.882   2.986  0.6903  0.0058 -0.1757
 6643SOL    HW231566   4.155   3.873   2.837  0.9830  0.1789  0.1635
 6644SOL     OW31567   4.371   3.181   7.720 -0.2341 -0.2827  0.4203
 6644SOL    HW131568   4.332   3.266   7.742  0.0136 -0.2953  0.9020
 6644SOL    HW231569   4.295   3.140   7.679  0.8456 -3.6871  1.8298
 6645SOL     OW31570   2.270   0.372   2.101  0.2926 -0.2798  0.5581
 6645SOL    HW131571   2.180   0.404   2.098  0.9646  1.5489 -0.0334
 6645SOL    HW231572   2.258   0.308   2.030  0.7605  1.0428 -0.7030
 6646SOL     OW31573   1.401   0.448  10.917 -0.2630  1.0357  0.0927
 6646SOL    HW131574   1.469   0.504  10.954  1.2822 -2.0632  1.9588
 6646SOL    HW231575   1.361   0.429  11.001 -2.4027  2.0547 -0.7051
 6647SOL     OW31576   1.027   1.521  11.586  0.3768 -0.1590 -0.1415
 6647SOL    HW131577   0.984   1.521  11.671 -2.2630 -0.5902 -1.4871
 6647SOL    HW231578   1.110   1.558  11.618 -0.2719 -0.5561  1.9349
 6648SOL     OW31579   4.221   4.425   3.006 -0.2575  0.3068 -0.4457
 6648SOL    HW131580   4.184   4.382   2.929  0.1541  0.1947 -0.5817
 6648SOL    HW231581   4.145   4.473   3.039  0.4188  2.1793 -1.6379
 6649SOL     OW31582   2.780   4.331  15.027 -0.2304 -0.6962 -0.4254
 6649SOL    HW131583   2.851   4.343  14.964 -0.0973 -5.8673 -1.2532
 6649SOL    HW231584   2.818   4.276  15.096 -0.0894 -0.2890 -0.1812
 6650SOL     OW31585   0.766   2.814   6.610  0.4637  0.3657 -0.4646
 6650SOL    HW131586   0.789   2.727   6.575  0.4507  0.2057 -0.0693
 6650SOL    HW231587   0.757   2.873   6.535  1.3378  0.0595 -0.8094
 6651SOL     OW31588   2.822   2.163  10.677  0.4418  0.2952 -0.3291
 6651SOL    HW131589   2.884   2.227  10.643  1.5569 -0.2644  0.6223
 6651SOL    HW231590   2.854   2.080  10.641 -0.1228 -0.7232  1.4987
 6652SOL     OW31591   3.924   0.911  11.330 -0.3460 -0.0640 -0.5332
 6652SOL    HW131592   3.971   0.935  11.251  1.9929 -0.0247  0.8757
 6652SOL    HW231593   3.998   0.878  11.382 -1.0381 -1.6680 -0.5364
 6653SOL     OW31594   4.487   1.934  12.013 -0.2911  0.2379  0.2328
 6653SOL    HW131595   4.428   1.968  12.080 -0.7746 -0.1215 -0.0011
 6653SOL    HW231596   4.452   1.846  11.997  0.1413 -0.0132  0.6921
 6654SOL     OW31597   4.622   0.700   3.594 -1.1447 -0.9723 -0.0709
 6654SOL    HW131598   4.573   0.752   3.530 -1.2991 -0.7104  0.2580
 6654SOL    HW231599   4.652   0.638   3.528  0.8715  0.8708 -0.8851
 6655SOL     OW31600   2.578   2.352   3.849 -0.6958 -0.1462  0.2505
 6655SOL    HW131601   2.555   2.269   3.890 -1.6557 -0.4006 -0.8216
 6655SOL    HW231602   2.582   2.398   3.933 -0.5330 -1.8735  1.1904
 6656SOL     OW31603   0.040   0.224   8.161 -0.0300  0.1201  0.1291
 6656SOL    HW131604   4.735   0.254   8.241 -1.8170 -0.0610 -0.7631
 6656SOL    HW231605   4.699   0.208   8.109  0.0818  0.1482 -0.0472
 6657SOL     OW31606   0.438   1.239   8.219  0.7350 -0.3616 -0.2312
 6657SOL    HW131607   0.459   1.244   8.126 -0.4779  0.5343 -0.4626
 6657SOL    HW231608   0.524   1.252   8.259  1.8626 -0.4753 -2.5957
 6658SOL     OW31609   0.993   4.358   7.260  0.1925  0.0480  0.3432
 6658SOL    HW131610   1.018   4.405   7.180  0.5475 -0.7311 -0.0039
 6658SOL    HW231611   0.956   4.280   7.218 -0.3463  1.4949 -1.9022
 6659SOL     OW31612   3.222   0.427  13.058  0.4585 -0.3076  0.2009
 6659SOL    HW131613   3.156   0.431  12.989  0.7228 -2.1453 -0.1536
 6659SOL    HW231614   3.183   0.485  13.124 -0.4583 -1.2623  0.4990
 6660SOL     OW31615   2.390   3.694   9.203  0.5654  0.2019 -0.6987
 6660SOL    HW131616   2.306   3.673   9.161 -1.2859  0.9357  2.6744
 6660SOL    HW231617   2.439   3.618   9.172  1.1155  0.2680  0.0211
 6661SOL     OW31618   4.143   2.868   2.776 -0.2774  0.1984 -0.1470
 6661SOL    HW131619   4.211   2.820   2.824  0.4150  0.4209 -0.9019
 6661SOL    HW231620   4.111   2.917   2.852  1.8738 -1.6564  1.9658
 6662SOL     OW31621   2.663   0.508   3.662  0.2376 -0.0190  0.2027
 6662SOL    HW131622   2.717   0.435   3.693 -0.2964 -0.6829 -0.4353
 6662SOL    HW231623   2.611   0.527   3.740  0.4389 -0.5764  0.4774
 6663SOL     OW31624   4.362   2.635   2.051  0.6291 -0.2214 -0.7916
 6663SOL    HW131625   4.377   2.711   1.994 -1.1541 -0.2933 -1.3861
 6663SOL    HW231626   4.352   2.679   2.136  0.0475 -2.8293  0.4816
 6664SOL     OW31627   4.613   1.082   4.155  0.3604 -0.9805  0.5354
 6664SOL    HW131628   4.695   1.120   4.188 -1.2610  1.8127  1.3540
 6664SOL    HW231629   4.591   1.040   4.238 -0.0337  0.4312  1.1480
 6665SOL     OW31630   0.343   0.004   9.862 -0.5512 -0.0857  0.1608
 6665SOL    HW131631   0.390   0.013   9.945  0.8324  1.5363 -0.7966
 6665SOL    HW231632   0.267   0.058   9.882  0.4661  0.6767  1.9679
 6666SOL     OW31633   3.954   0.404  16.044  0.0626  0.0910  0.0085
 6666SOL    HW131634   3.933   0.450  16.125 -3.1538 -0.4475 -0.5186
 6666SOL    HW231635   3.872   0.354  16.045  1.1724 -1.7063  1.4937
 6667SOL     OW31636   1.945   1.970   3.875 -0.1244 -0.1324 -0.0868
 6667SOL    HW131637   1.934   1.955   3.781  2.2153 -1.4283 -0.1325
 6667SOL    HW231638   1.993   2.053   3.882 -0.7262  0.1273  0.8819
 6668SOL     OW31639   2.864   0.849   3.193 -0.0326 -0.0632 -0.2574
 6668SOL    HW131640   2.929   0.915   3.169 -0.1072  0.9588  2.4015
 6668SOL    HW231641   2.914   0.771   3.219 -3.1533 -1.1517  2.4713
 6669SOL     OW31642   4.622   3.900   5.699  0.0785 -0.1984  0.7105
 6669SOL    HW131643   4.628   3.984   5.742 -0.5331  0.0247  0.3614
 6669SOL    HW231644   4.639   3.852   5.780 -0.7006 -1.1040  0.3400
 6670SOL     OW31645   2.468   3.272   6.464  0.7737 -0.0033  0.4701
 6670SOL    HW131646   2.558   3.294   6.439  0.5899  1.0788  0.7813
 6670SOL    HW231647   2.476   3.225   6.548 -0.2081  0.5026  0.8436
 6671SOL     OW31648   0.685   1.317   8.438 -0.0920  0.2813  0.3200
 6671SOL    HW131649   0.755   1.365   8.482 -1.7680  1.1182  2.0883
 6671SOL    HW231650   0.729   1.257   8.378  0.0543  1.2282 -0.5195
 6672SOL     OW31651   2.583   0.234  12.015 -0.3098  0.0062 -0.1078
 6672SOL    HW131652   2.565   0.152  12.062  1.5029  0.5907  1.6140
 6672SOL    HW231653   2.655   0.207  11.958  1.2002  1.3362  1.1750
 6673SOL     OW31654   1.493   2.729   4.501 -0.0780  0.1439  0.3616
 6673SOL    HW131655   1.512   2.686   4.417  0.4906  1.4909 -0.2133
 6673SOL    HW231656   1.415   2.677   4.519  0.4516 -1.4739 -1.9427
 6674SOL     OW31657   0.984   1.061   9.115 -0.6445  0.3429 -0.2261
 6674SOL    HW131658   0.913   1.124   9.120 -0.4525  0.6065 -0.8385
 6674SOL    HW231659   0.968   1.005   9.191  2.0408 -2.5298 -1.7883
 6675SOL     OW31660   3.538   2.993  11.142  0.1100  0.2078 -0.2732
 6675SOL    HW131661   3.502   3.009  11.228  0.6944 -0.2721  0.0631
 6675SOL    HW231662   3.565   2.901  11.141  1.1340  0.5094 -2.6626
 6676SOL     OW31663   4.511   3.957   1.829  0.0780 -0.4537 -0.1765
 6676SOL    HW131664   4.486   4.049   1.827  2.1262  0.1379  1.4179
 6676SOL    HW231665   4.570   3.947   1.753  0.3653  0.4159 -0.0739
 6677SOL     OW31666   1.030   4.105  16.679 -0.0568 -0.0575  0.5705
 6677SOL    HW131667   1.095   4.055  16.727 -1.1815 -0.7289  1.3978
 6677SOL    HW231668   0.989   4.150  16.753 -1.3101 -0.1679 -0.0451
 6678SOL     OW31669   4.295   2.651   2.704 -0.0418  0.0577 -0.0568
 6678SOL    HW131670   4.206   2.620   2.722  0.7864 -1.6938  0.9955
 6678SOL    HW231671   4.280   2.671   2.612  2.1105  2.7265  0.1824
 6679SOL     OW31672   1.333   3.293   6.471 -1.2172  0.7574 -0.2145
 6679SOL    HW131673   1.242   3.287   6.441 -0.9980 -1.1865 -0.5056
 6679SOL    HW231674   1.379   3.288   6.388 -0.5682  0.7911  0.1425
 6680SOL     OW31675   3.309   1.613   4.927  0.3341 -0.2640 -0.1645
 6680SOL    HW131676   3.258   1.544   4.886 -1.4290  1.4566 -0.8746
 6680SOL    HW231677   3.313   1.577   5.016 -2.0766 -1.1617 -0.4140
 6681SOL     OW31678   2.205   1.825   1.536 -0.2364 -0.1127 -0.2507
 6681SOL    HW131679   2.229   1.739   1.570 -0.5932  0.8452  2.4081
 6681SOL    HW231680   2.292   1.865   1.529 -0.9147  1.5960  1.1106
 6682SOL     OW31681   0.249   1.759   3.751  0.1656  0.3894  0.1860
 6682SOL    HW131682   0.288   1.732   3.834 -2.1076 -0.1053  1.0850
 6682SOL    HW231683   0.158   1.769   3.779 -0.2622 -2.1491 -0.2840
 6683SOL     OW31684   1.286   1.609   8.707 -0.0220 -0.3176  0.3036
 6683SOL    HW131685   1.299   1.526   8.753  0.8449 -0.6918 -0.6220
 6683SOL    HW231686   1.363   1.623   8.652 -1.6984  1.5452 -1.5511
 6684SOL     OW31687   0.142   3.370  13.715 -0.0216  0.0549  0.1641
 6684SOL    HW131688   0.151   3.458  13.678 -1.6796  0.6063  1.0922
 6684SOL    HW231689   0.068   3.341  13.661  1.1200 -1.9349 -0.3536
 6685SOL     OW31690   2.204   1.178   1.621  0.0726  0.6094  0.0136
 6685SOL    HW131691   2.183   1.250   1.679 -1.0333  0.1162  0.2183
 6685SOL    HW231692   2.158   1.104   1.661 -0.0420  0.1824 -0.9005
 6686SOL     OW31693   1.422   1.964   7.450  0.1966  0.6487 -0.3519
 6686SOL    HW131694   1.475   1.918   7.515 -0.0957  0.4244 -0.2740
 6686SOL    HW231695   1.426   1.907   7.373 -1.8229  0.5094 -0.3531
 6687SOL     OW31696   3.640   3.597   1.029 -0.1924  0.0634 -0.1148
 6687SOL    HW131697   3.630   3.586   0.935  1.1424 -1.8607 -0.0462
 6687SOL    HW231698   3.687   3.517   1.055 -0.5377 -0.3733 -0.8421
 6688SOL     OW31699   4.451   1.971   2.116  0.5700  0.3204  0.1092
 6688SOL    HW131700   4.541   2.003   2.120  0.7120 -0.1538  0.7340
 6688SOL    HW231701   4.434   1.962   2.209 -0.2099 -1.5598 -0.2139
 6689SOL     OW31702   0.512   0.622   7.454 -0.3293  0.2943  0.4345
 6689SOL    HW131703   0.477   0.596   7.539  0.7776 -2.2769  0.1065
 6689SOL    HW231704   0.523   0.715   7.474  1.8691  0.3153 -0.8404
 6690SOL     OW31705   2.452   1.254  16.584 -0.3010 -0.2952  0.3530
 6690SOL    HW131706   2.445   1.185  16.651 -1.4838  0.3383  0.8981
 6690SOL    HW231707   2.361   1.278  16.604 -0.1138 -0.7946  1.8806
 6691SOL     OW31708   0.851   0.910   8.602  0.2550 -0.5014  0.3244
 6691SOL    HW131709   0.906   0.905   8.681  1.9859  2.8256 -0.6753
 6691SOL    HW231710   0.910   0.952   8.539 -0.1855  0.0952  0.3088
 6692SOL     OW31711   0.398   0.355   2.631 -0.4624  0.0261 -0.2826
 6692SOL    HW131712   0.418   0.367   2.724  0.0370 -0.8812 -0.2687
 6692SOL    HW231713   0.341   0.432   2.624 -1.5771 -0.5324  2.2286
 6693SOL     OW31714   4.483   4.020   4.411  0.2925 -0.0741  0.7271
 6693SOL    HW131715   4.485   4.112   4.383 -1.0428 -0.2405  0.1035
 6693SOL    HW231716   4.429   4.024   4.490  2.4597 -2.0873  2.3056
 6694SOL     OW31717   2.117   0.145   1.893 -0.3166  0.3363  0.3787
 6694SOL    HW131718   2.124   0.176   1.803  0.7639  0.9062  0.6457
 6694SOL    HW231719   2.209   0.163   1.916  0.1779  0.1132 -1.4625
 6695SOL     OW31720   0.506   0.923   7.682 -0.3098  0.0333  0.2073
 6695SOL    HW131721   0.464   0.973   7.751 -0.3274 -1.8116  1.5390
 6695SOL    HW231722   0.513   0.995   7.620  1.7434 -0.1732  0.2026
 6696SOL     OW31723   1.075   0.678   6.362 -0.4300  0.4646 -0.2983
 6696SOL    HW131724   1.016   0.649   6.293 -3.5674 -1.2761  3.1145
 6696SOL    HW231725   1.028   0.707   6.440  1.0981  3.0796 -0.3723
 6697SOL     OW31726   0.115   1.865   3.242  0.2132  0.1592  0.0239
 6697SOL    HW131727   0.038   1.808   3.235  2.1561 -2.2481 -1.5080
 6697SOL    HW231728   0.188   1.807   3.260  1.7261  1.1637 -2.8506
 6698SOL     OW31729   1.534   1.197   3.410 -0.0172 -0.4878 -0.1917
 6698SOL    HW131730   1.454   1.250   3.417 -0.3193 -0.9369 -0.2580
 6698SOL    HW231731   1.552   1.184   3.503  1.0670  2.7204  0.0455
 6699SOL     OW31732   4.437   1.469  17.164 -0.9536  0.5478  0.5362
 6699SOL    HW131733   4.407   1.503  17.080  0.1750  1.8441  0.6642
 6699SOL    HW231734   4.529   1.493  17.165 -1.0772  1.0872 -0.9176
 6700SOL     OW31735   4.154   2.497  17.406 -0.1618  0.0696  0.1003
 6700SOL    HW131736   4.244   2.530  17.417 -0.0914 -0.0862 -0.0132
 6700SOL    HW231737   4.145   2.439  17.481 -1.4556 -0.8037 -0.7374
 6701SOL     OW31738   3.295   3.664  15.391  0.1612  0.1009 -0.4315
 6701SOL    HW131739   3.297   3.647  15.297 -1.3524 -0.7046 -0.3209
 6701SOL    HW231740   3.213   3.713  15.396  0.5078  0.6791 -0.3804
 6702SOL     OW31741   0.411   3.075   5.785 -0.1379 -0.6053  0.3750
 6702SOL    HW131742   0.343   3.138   5.809 -1.2736 -1.5113 -0.4474
 6702SOL    HW231743   0.486   3.133   5.776 -1.2604  0.7910 -0.0115
 6703SOL     OW31744   4.132   3.360  16.893  0.4060  1.0883  0.1528
 6703SOL    HW131745   4.200   3.406  16.942 -0.0399 -0.1738  1.9289
 6703SOL    HW231746   4.083   3.314  16.960  2.7069 -1.4895  0.0898
 6704SOL     OW31747   1.853   4.683   2.567  0.0130 -0.0263  0.4347
 6704SOL    HW131748   1.875   4.651   2.654  2.1011  0.2857  0.0250
 6704SOL    HW231749   1.882   4.603   2.524 -1.0337 -0.3594  0.3551
 6705SOL     OW31750   0.387   4.326   8.789  0.2266 -0.2970 -0.4891
 6705SOL    HW131751   0.301   4.363   8.769  1.1475  2.9264  1.6377
 6705SOL    HW231752   0.357   4.250   8.839  0.4258  0.6125  0.9802
 6706SOL     OW31753   2.728   4.195   6.445 -0.6398  0.0137  0.3246
 6706SOL    HW131754   2.736   4.288   6.465 -1.0474 -0.0611  0.8466
 6706SOL    HW231755   2.668   4.151   6.505  0.4130 -0.6385  0.8879
 6707SOL     OW31756   0.629   4.304  10.735  0.4210 -0.5204 -0.1609
 6707SOL    HW131757   0.720   4.294  10.706 -0.3931 -0.6542 -2.7279
 6707SOL    HW231758   0.602   4.389  10.699 -1.4849 -1.3424 -0.6497
 6708SOL     OW31759   1.773   0.011  13.870  0.3246  0.2091  0.3093
 6708SOL    HW131760   1.824   0.029  13.791 -0.5151 -1.9829 -0.7341
 6708SOL    HW231761   1.802   0.088  13.919  0.7822  1.1171 -1.4129
 6709SOL     OW31762   1.852   0.098   1.060 -0.6588  0.4130 -0.2954
 6709SOL    HW131763   1.856   0.171   1.122  0.6245  0.4094 -0.3714
 6709SOL    HW231764   1.760   0.103   1.034 -0.3143  1.6690 -1.2740
 6710SOL     OW31765   1.478   1.731   9.224 -0.2570  0.0779 -0.6045
 6710SOL    HW131766   1.477   1.643   9.261 -0.9422 -0.0613 -0.9552
 6710SOL    HW231767   1.530   1.775   9.291 -0.1180  0.5578 -1.0323
 6711SOL     OW31768   0.919   1.906   1.235  0.1960 -0.1373  0.0218
 6711SOL    HW131769   0.842   1.914   1.291  1.1813  2.1002  1.0812
 6711SOL    HW231770   0.986   1.884   1.301 -0.9571 -1.1586  0.8533
 6712SOL     OW31771   3.975   0.910   4.325 -0.1866  0.1673  0.3498
 6712SOL    HW131772   3.929   0.880   4.247  1.5154 -2.4210  0.3573
 6712SOL    HW231773   3.907   0.938   4.386 -2.2795 -3.0279 -0.5305
 6713SOL     OW31774   3.095   2.896   0.996  0.1764 -0.1143  0.5378
 6713SOL    HW131775   3.098   2.982   1.038  1.3055  0.5229 -0.8510
 6713SOL    HW231776   3.001   2.874   0.999 -0.1153  0.9837 -0.7534
 6714SOL     OW31777   0.745   3.941   5.863 -0.7418 -0.3985  0.2462
 6714SOL    HW131778   0.731   3.864   5.808 -0.8504 -1.3954  1.6621
 6714SOL    HW231779   0.837   3.924   5.880 -0.6035  1.1114  1.0095
 6715SOL     OW31780   2.374   1.776   7.513  0.2838  0.3613 -0.1090
 6715SOL    HW131781   2.354   1.760   7.605  0.1693  1.3552  0.0381
 6715SOL    HW231782   2.427   1.700   7.492 -0.4643 -0.6749  1.7657
 6716SOL     OW31783   1.326   2.536   6.605 -0.2666  0.3953  0.8010
 6716SOL    HW131784   1.411   2.500   6.578  0.1264  0.6590  1.6949
 6716SOL    HW231785   1.341   2.630   6.609 -0.3724  0.4878 -1.1143
 6717SOL     OW31786   1.776   4.245   2.374  0.0069 -0.2073  0.3553
 6717SOL    HW131787   1.852   4.204   2.415 -0.5718 -1.0901  0.5333
 6717SOL    HW231788   1.780   4.201   2.289  0.4719  2.0917 -0.8148
 6718SOL     OW31789   2.717   4.178  11.798 -1.0021  0.0965  0.2047
 6718SOL    HW131790   2.746   4.262  11.763  2.0029 -0.5743  1.0340
 6718SOL    HW231791   2.767   4.125  11.736 -1.6824  0.4023 -0.6025
 6719SOL     OW31792   2.441   4.615   4.314 -0.0350 -0.4755 -0.1748
 6719SOL    HW131793   2.454   4.529   4.274 -0.4485 -0.7116  0.1935
 6719SOL    HW231794   2.506   4.613   4.383  0.0998 -1.9639 -0.3473
 6720SOL     OW31795   0.701   0.319   2.549  0.4457 -1.0152  0.2063
 6720SOL    HW131796   0.692   0.225   2.533  1.8033 -0.6935 -2.3273
 6720SOL    HW231797   0.613   0.340   2.581  1.2755  0.1613  1.7195
 6721SOL     OW31798   3.163   2.399   9.496 -0.1201  0.4471 -0.5696
 6721SOL    HW131799   3.152   2.494   9.505 -1.9153  0.2754 -1.1033
 6721SOL    HW231800   3.116   2.358   9.568  0.0556  0.7211 -0.2991
 6722SOL     OW31801   1.506   0.883   2.559 -0.3259  0.0682 -0.1985
 6722SOL    HW131802   1.460   0.966   2.569  0.3691  0.6466 -1.6643
 6722SOL    HW231803   1.520   0.863   2.651  0.7794  3.1714  0.3077
 6723SOL     OW31804   1.246   4.169   2.319  0.2485 -0.1727  0.4780
 6723SOL    HW131805   1.282   4.156   2.407  0.7170 -0.1849  0.2837
 6723SOL    HW231806   1.298   4.242   2.285  0.0517 -0.3286 -0.1561
 6724SOL     OW31807   1.157   3.372   1.447 -0.0076  0.0600 -0.4208
 6724SOL    HW131808   1.147   3.334   1.534  0.1087 -1.1774 -0.9556
 6724SOL    HW231809   1.149   3.461   1.481 -0.6148  0.6627 -2.0848
 6725SOL     OW31810   1.261   1.329  16.953 -0.4789 -0.4767  0.3216
 6725SOL    HW131811   1.221   1.416  16.952 -0.9166 -0.6798  0.1376
 6725SOL    HW231812   1.247   1.292  16.866 -0.0743 -0.6181  0.3153
 6726SOL     OW31813   4.264   4.359   5.842 -0.2918  0.2478 -0.2760
 6726SOL    HW131814   4.276   4.386   5.933 -0.7310  1.2609 -0.5122
 6726SOL    HW231815   4.293   4.269   5.830 -0.3729  0.1364  0.3395
 6727SOL     OW31816   1.254   2.270   5.414 -0.1484  0.2834 -0.1008
 6727SOL    HW131817   1.348   2.276   5.396 -0.2203  0.4667 -0.4302
 6727SOL    HW231818   1.235   2.177   5.403 -1.6438  0.5005  0.7476
 6728SOL     OW31819   3.191   0.241   3.601  0.6622 -0.1990 -0.4851
 6728SOL    HW131820   3.230   0.300   3.536 -0.6392  2.1453  0.8819
 6728SOL    HW231821   3.234   0.283   3.676 -1.7713  1.5381 -0.0695
 6729SOL     OW31822   2.476   1.659   6.303 -0.5263 -0.1794 -0.2840
 6729SOL    HW131823   2.537   1.718   6.259 -0.4486  1.7548  2.4029
 6729SOL    HW231824   2.394   1.696   6.270 -0.4305  0.2219 -0.0740
 6730SOL     OW31825   0.814   2.049   3.546  0.1127 -0.4860  0.3641
 6730SOL    HW131826   0.778   1.983   3.606 -0.4770 -1.1742 -0.7429
 6730SOL    HW231827   0.822   2.122   3.606 -2.2548 -2.5944  3.2405
 6731SOL     OW31828   2.729   4.282   3.838 -0.1365  0.3933  0.3848
 6731SOL    HW131829   2.802   4.322   3.792 -0.1705  1.9693  1.6817
 6731SOL    HW231830   2.689   4.356   3.885 -1.5213  1.2141 -2.0928
 6732SOL     OW31831   1.047   2.567  16.043 -0.1718 -0.2332  0.1667
 6732SOL    HW131832   1.084   2.542  15.959  1.8363  0.0883  0.9456
 6732SOL    HW231833   1.047   2.661  16.029 -1.5729 -0.0777  1.1358
 6733SOL     OW31834   4.712   2.837   5.767 -0.4706  0.3219 -0.2332
 6733SOL    HW131835   0.027   2.907   5.806  0.8464 -0.0955 -1.2405
 6733SOL    HW231836   0.024   2.758   5.789 -2.3893 -1.0081 -0.7460
 6734SOL     OW31837   2.751   1.499   9.156 -0.4821  0.1968 -0.0265
 6734SOL    HW131838   2.747   1.407   9.130  0.9039 -0.3184  1.6193
 6734SOL    HW231839   2.675   1.501   9.214 -0.3393 -2.4340  0.2785
 6735SOL     OW31840   3.667   4.692   5.880 -0.2149  0.4018  0.3599
 6735SOL    HW131841   3.760   4.710   5.894  0.0952 -1.8576  1.2804
 6735SOL    HW231842   3.652   4.624   5.946 -0.1569 -0.8470 -0.9060
 6736SOL     OW31843   4.178   1.001   7.856  0.1017  0.0294 -0.2908
 6736SOL    HW131844   4.158   0.919   7.809  0.5062 -0.8073  1.0039
 6736SOL    HW231845   4.096   1.028   7.897  0.7637  2.0758 -0.3531
 6737SOL     OW31846   4.236   4.316   7.135 -0.3000  0.2346 -0.2926
 6737SOL    HW131847   4.291   4.363   7.198  1.4346 -1.8587 -0.2781
 6737SOL    HW231848   4.219   4.383   7.069 -1.8902  1.4617  1.3713
 6738SOL     OW31849   4.529   2.424   4.101 -0.2458 -0.6152 -0.8992
 6738SOL    HW131850   4.565   2.336   4.089  0.7262 -0.4570  0.7189
 6738SOL    HW231851   4.485   2.440   4.018 -1.6926 -1.0302 -0.2121
 6739SOL     OW31852   3.717   4.441   0.979  0.7092 -0.0200  0.0727
 6739SOL    HW131853   3.720   4.532   0.948  1.2268  0.6506  2.0288
 6739SOL    HW231854   3.624   4.438   0.999 -0.0927  2.1061 -3.3419
 6740SOL     OW31855   4.094   3.038   8.952 -0.4874 -0.4564 -0.1760
 6740SOL    HW131856   4.052   2.984   9.019 -1.3310 -0.6461 -0.8626
 6740SOL    HW231857   4.018   3.057   8.897 -1.5587  0.1356  1.4954
 6741SOL     OW31858   2.606   3.245   9.299  0.0317 -0.3365  0.1832
 6741SOL    HW131859   2.682   3.289   9.338  1.1165 -2.0512  0.0138
 6741SOL    HW231860   2.533   3.271   9.355  1.1356  1.9426  0.5640
 6742SOL     OW31861   2.336   4.030   4.638  0.5126 -0.0126  0.6558
 6742SOL    HW131862   2.404   4.056   4.576  1.2422  0.6257  1.7323
 6742SOL    HW231863   2.388   4.012   4.717  0.2726 -1.5951  0.4684
 6743SOL     OW31864   4.476   1.208   4.819 -0.3568 -0.1496 -0.0372
 6743SOL    HW131865   4.549   1.146   4.816  1.5005  1.9696  1.0664
 6743SOL    HW231866   4.405   1.155   4.784 -0.8213  0.6308 -0.2719
 6744SOL     OW31867   1.454   0.542   2.780 -0.1736 -0.2302  0.1397
 6744SOL    HW131868   1.517   0.613   2.789  0.7389 -0.7993 -1.6323
 6744SOL    HW231869   1.445   0.537   2.685 -0.2620 -0.6261  0.1685
 6745SOL     OW31870   4.087   3.478  11.503  0.8193  0.1744 -0.7070
 6745SOL    HW131871   4.120   3.568  11.504 -1.7403  1.0821  1.1301
 6745SOL    HW231872   4.087   3.453  11.410 -2.5763  1.3761 -1.0397
 6746SOL     OW31873   2.998   3.305   1.849 -0.0164  0.2384 -0.7567
 6746SOL    HW131874   2.947   3.249   1.789 -0.3703 -1.0546  0.7568
 6746SOL    HW231875   2.942   3.312   1.926  1.2568  1.8483  0.0101
 6747SOL     OW31876   1.243   1.451   8.276 -0.2365  0.0827  0.1044
 6747SOL    HW131877   1.306   1.385   8.248  0.5013 -0.6439  3.4186
 6747SOL    HW231878   1.178   1.397   8.322 -0.3871  1.0821  1.0777
 6748SOL     OW31879   0.072   3.204   6.373  0.1741 -0.3900 -0.0818
 6748SOL    HW131880   0.027   3.128   6.336  1.6680 -0.5158 -1.6590
 6748SOL    HW231881   0.008   3.275   6.369  4.3893  3.4371  0.9241
 6749SOL     OW31882   3.138   1.710  14.573  0.3563  0.1002  0.7835
 6749SOL    HW131883   3.169   1.667  14.492 -1.6135 -1.3726  0.8005
 6749SOL    HW231884   3.098   1.636  14.619 -0.2493 -0.3228 -0.4023
 6750SOL     OW31885   3.177   1.030   2.487 -0.1825  0.5319 -0.5476
 6750SOL    HW131886   3.106   0.967   2.475  0.7452 -0.6138 -0.0228
 6750SOL    HW231887   3.173   1.037   2.583 -0.6824 -0.1025 -0.5253
 6751SOL     OW31888   2.126   4.416   6.418 -0.6345  0.1940 -0.0775
 6751SOL    HW131889   2.204   4.430   6.471 -1.8129  0.2627  1.6666
 6751SOL    HW231890   2.105   4.323   6.431  1.9432 -0.7530 -2.8497
 6752SOL     OW31891   3.549   4.380  14.982  0.4523  0.5665 -0.2838
 6752SOL    HW131892   3.624   4.438  14.992  1.5471 -1.1756  1.5999
 6752SOL    HW231893   3.474   4.428  14.946 -0.5217 -1.7643 -1.3443
 6753SOL     OW31894   4.465   4.417   9.129  0.2067  0.3195  0.2960
 6753SOL    HW131895   4.553   4.446   9.103  0.0027 -0.8343 -1.7214
 6753SOL    HW231896   4.473   4.445   9.220 -0.2776  1.3464  0.0256
 6754SOL     OW31897   4.553   4.374   1.410 -0.1020  0.5412 -0.1705
 6754SOL    HW131898   4.638   4.411   1.431 -0.4023  1.5120 -0.6855
 6754SOL    HW231899   4.540   4.415   1.324 -3.0132  2.1581  1.0267
 6755SOL     OW31900   2.952   2.450  12.607  0.1135  0.1960  0.8572
 6755SOL    HW131901   2.968   2.429  12.699  0.2701 -1.0905  0.5270
 6755SOL    HW231902   2.993   2.536  12.613  1.5900 -0.3983 -0.9801
 6756SOL     OW31903   2.426   4.409   9.172 -0.2122 -0.6592  0.3250
 6756SOL    HW131904   2.425   4.377   9.082  0.1697  1.8900 -0.5864
 6756SOL    HW231905   2.505   4.462   9.159 -0.6361  0.3526  1.7943
 6757SOL     OW31906   2.741   3.294   5.870  0.2601  0.0077  0.0845
 6757SOL    HW131907   2.696   3.262   5.792  0.9889  0.9817 -0.7204
 6757SOL    HW231908   2.808   3.232   5.898  1.3759  0.9382 -0.5656
 6758SOL     OW31909   2.739   1.455  13.974 -0.6088 -0.7760  0.2101
 6758SOL    HW131910   2.766   1.541  13.943 -1.3646 -0.0382  1.5698
 6758SOL    HW231911   2.647   1.457  13.946 -0.3074 -0.6919 -0.7891
 6759SOL     OW31912   3.985   3.822   0.133  0.4012 -0.1096  0.1800
 6759SOL    HW131913   4.004   3.916   0.123 -0.4450  0.3032  2.5714
 6759SOL    HW231914   3.941   3.796   0.052 -0.3855  2.0134 -0.0699
 6760SOL     OW31915   4.182   2.971  15.151  0.1054  0.2718  0.6762
 6760SOL    HW131916   4.093   2.983  15.185 -1.0147 -0.3043 -2.0815
 6760SOL    HW231917   4.185   2.876  15.143 -0.6247  0.4571 -1.6092
 6761SOL     OW31918   2.130   1.339   5.671 -0.4044  0.6638 -0.5678
 6761SOL    HW131919   2.063   1.335   5.603 -2.2687  1.7736  1.1928
 6761SOL    HW231920   2.185   1.263   5.651 -0.6301  0.4622 -0.4178
 6762SOL     OW31921   2.946   0.457  13.510 -0.4209 -0.1689  0.4499
 6762SOL    HW131922   2.864   0.444  13.461 -0.2603 -1.1009  0.4348
 6762SOL    HW231923   2.912   0.447  13.599 -3.9296  1.9422 -0.6383
 6763SOL     OW31924   0.855   0.623  15.937  0.0115  0.3255 -0.2206
 6763SOL    HW131925   0.927   0.600  15.995 -1.5491 -1.0952  1.1530
 6763SOL    HW231926   0.871   0.712  15.906  2.2849  0.1593  0.4896
 6764SOL     OW31927   2.740   1.383   7.300 -0.2670  0.2939 -0.1150
 6764SOL    HW131928   2.661   1.330   7.290  1.3473 -1.8802 -1.5183
 6764SOL    HW231929   2.809   1.322   7.273 -0.1027 -0.6269  2.3755
 6765SOL     OW31930   4.727   1.787  11.935 -0.0042 -0.6248 -0.0447
 6765SOL    HW131931   4.657   1.838  11.975 -1.5723 -3.3292  0.6753
 6765SOL    HW231932   4.675   1.753  11.862 -0.0492  1.0955 -0.8132
 6766SOL     OW31933   2.579   1.127  15.890 -0.4570  0.5549 -0.0159
 6766SOL    HW131934   2.604   1.219  15.881 -2.8801  1.3386  1.1782
 6766SOL    HW231935   2.493   1.135  15.848 -0.2880 -1.1604 -0.6834
 6767SOL     OW31936   1.133   4.172   3.369 -0.2927  0.5557 -0.3404
 6767SOL    HW131937   1.169   4.240   3.426 -0.2015  0.1156  0.1319
 6767SOL    HW231938   1.113   4.102   3.432  2.9473  1.0167  1.1645
 6768SOL     OW31939   3.862   4.502   3.763 -0.7341  0.2423 -0.3323
 6768SOL    HW131940   3.819   4.417   3.771 -0.1827  0.1527  1.6018
 6768SOL    HW231941   3.948   4.470   3.733 -0.4982  1.6783 -1.1742
 6769SOL     OW31942   1.478   2.316  14.363 -0.3133  0.1317  0.0007
 6769SOL    HW131943   1.477   2.402  14.322 -1.8184 -0.3397 -0.9402
 6769SOL    HW231944   1.412   2.328  14.431  1.4216 -0.0506  1.7132
 6770SOL     OW31945   2.100   2.853   2.193  0.2937  0.1444 -0.0559
 6770SOL    HW131946   2.195   2.854   2.185  0.1556 -2.7146 -2.1520
 6770SOL    HW231947   2.075   2.772   2.149  0.5107  0.8361 -1.4259
 6771SOL     OW31948   4.703   1.567  15.328  0.2464 -0.0409  0.3936
 6771SOL    HW131949   4.614   1.597  15.344 -0.3373  0.4376 -3.6127
 6771SOL    HW231950   4.684   1.495  15.267 -0.8638  1.0668 -0.5638
 6772SOL     OW31951   2.900   1.382   1.874 -0.4883  0.7285  0.8091
 6772SOL    HW131952   2.855   1.386   1.790  1.0886 -0.9327 -0.1077
 6772SOL    HW231953   2.899   1.473   1.906 -1.3302  0.4246  1.6349
 6773SOL     OW31954   0.885   1.426   8.596 -0.0571  0.0303 -0.0699
 6773SOL    HW131955   0.908   1.365   8.665  3.2007  1.7797  0.3950
 6773SOL    HW231956   0.877   1.509   8.643 -1.6413  0.3526 -0.9061
 6774SOL     OW31957   3.235   0.043   4.375 -1.0282  0.1758  0.5295
 6774SOL    HW131958   3.243   0.031   4.469  1.6306 -0.9021  0.1836
 6774SOL    HW231959   3.148   0.007   4.358 -0.4445 -2.0539  2.3286
 6775SOL     OW31960   2.971   2.655  14.789  0.4020  0.1357 -0.7820
 6775SOL    HW131961   2.922   2.677  14.710 -0.6946  1.6179  0.3124
 6775SOL    HW231962   3.037   2.598  14.749 -0.8329 -0.1271 -2.4229
 6776SOL     OW31963   4.038   0.794   8.902  0.3736 -0.0003  0.0154
 6776SOL    HW131964   4.003   0.879   8.929  2.1992  1.1380 -1.1448
 6776SOL    HW231965   4.084   0.819   8.822 -3.1023  0.0345 -1.9486
 6777SOL     OW31966   4.468   0.185   6.761  0.2263  0.3105  0.1595
 6777SOL    HW131967   4.514   0.111   6.720  0.2545 -0.2054  1.1251
 6777SOL    HW231968   4.408   0.136   6.817 -0.3913 -2.0690 -2.5891
 6778SOL     OW31969   1.013   2.102   1.822  0.8244  0.1566  0.1050
 6778SOL    HW131970   1.008   2.006   1.828 -1.3859  0.2703 -0.0723
 6778SOL    HW231971   1.075   2.109   1.749  2.8500 -2.1592  1.5867
 6779SOL     OW31972   3.473   1.268   3.050 -0.0514  0.0499 -1.0192
 6779SOL    HW131973   3.442   1.179   3.063  1.0455  0.1163  2.0561
 6779SOL    HW231974   3.547   1.265   2.989  0.0506  1.9471 -0.9994
 6780SOL     OW31975   0.149   3.864  16.957  0.2250 -0.0788 -0.2496
 6780SOL    HW131976   0.128   3.927  17.026  1.7770 -0.6241  0.7342
 6780SOL    HW231977   0.233   3.899  16.927 -0.7410  0.3424 -2.4284
 6781SOL     OW31978   3.022   2.729   3.903 -0.3829  0.1098 -0.0496
 6781SOL    HW131979   3.050   2.654   3.851 -0.0968 -0.5227  1.0085
 6781SOL    HW231980   3.108   2.769   3.916 -0.3110 -0.2271  0.4957
 6782SOL     OW31981   0.249   1.803   2.891 -0.2040 -0.0391 -0.0934
 6782SOL    HW131982   0.277   1.845   2.810  1.0141 -0.2990  0.1980
 6782SOL    HW231983   0.335   1.795   2.931 -1.0233  1.0134  1.8514
 6783SOL     OW31984   3.696   0.668   0.663 -0.2655  0.0802  0.1863
 6783SOL    HW131985   3.721   0.725   0.590 -1.0761  2.1068  1.4956
 6783SOL    HW231986   3.776   0.658   0.715 -1.3199 -1.8098  1.4521
 6784SOL     OW31987   1.175   1.901   0.544 -0.0815 -0.0153  0.0352
 6784SOL    HW131988   1.175   1.888   0.449 -0.2495 -0.8764  0.1493
 6784SOL    HW231989   1.100   1.957   0.564  0.5726  0.3737  1.4189
 6785SOL     OW31990   3.400   3.225   7.964 -0.1677 -0.4564 -0.1121
 6785SOL    HW131991   3.362   3.295   7.911 -1.5920  0.0697  1.5929
 6785SOL    HW231992   3.485   3.258   7.991  0.4334 -1.3422 -0.9170
 6786SOL     OW31993   0.837   0.602   6.850  0.4915 -0.0793 -0.2780
 6786SOL    HW131994   0.767   0.634   6.907 -0.0194 -2.2700  0.3122
 6786SOL    HW231995   0.902   0.582   6.917 -1.2505 -0.9051  1.1720
 6787SOL     OW31996   0.152   0.465   3.811 -0.8537  0.5189 -0.3488
 6787SOL    HW131997   0.068   0.459   3.857 -1.0149  1.0288 -0.5759
 6787SOL    HW231998   0.141   0.421   3.727 -0.1289  1.7762 -1.1030
 6788SOL     OW31999   1.357   0.747   7.503  0.1441  0.3241  0.2628
 6788SOL    HW132000   1.390   0.764   7.415  0.2438 -1.4708 -0.0479
 6788SOL    HW232001   1.411   0.674   7.534  2.0085  2.0958  1.1635
 6789SOL     OW32002   4.703   1.377  13.084  0.3816 -0.1221  0.3983
 6789SOL    HW132003   0.037   1.423  13.129  2.0669 -2.3684  0.0589
 6789SOL    HW232004   4.629   1.407  13.136  0.4746 -0.9192  0.9954
 6790SOL     OW32005   2.364   1.675   5.185  0.2264  0.1173 -0.5083
 6790SOL    HW132006   2.455   1.646   5.189  0.6743  1.1740 -2.8835
 6790SOL    HW232007   2.320   1.595   5.214 -0.6392  0.6089 -0.4650
 6791SOL     OW32008   3.345   0.924   7.258 -0.1985 -0.1973  0.2155
 6791SOL    HW132009   3.406   0.850   7.248  1.2640  0.9012  0.9709
 6791SOL    HW232010   3.269   0.869   7.277 -0.3054 -0.0425  0.2300
 6792SOL     OW32011   0.780   3.247   3.340 -0.1329 -0.3405 -0.0862
 6792SOL    HW132012   0.757   3.196   3.262 -1.2919  0.9421 -0.5714
 6792SOL    HW232013   0.829   3.322   3.306  2.0591 -1.1081  1.3994
 6793SOL     OW32014   3.596   3.411  13.952  0.0575 -0.0786 -0.0276
 6793SOL    HW132015   3.654   3.335  13.960 -0.8549 -0.7984 -0.3091
 6793SOL    HW232016   3.589   3.433  13.860 -0.0010 -2.1144 -0.5121
 6794SOL     OW32017   4.730   1.371  17.060 -0.0709  0.2240 -0.1231
 6794SOL    HW132018   0.065   1.338  17.005 -2.4214 -1.7273 -2.0168
 6794SOL    HW232019   0.009   1.464  17.075  3.6103 -0.4306  0.1526
 6795SOL     OW32020   3.012   4.177   0.342 -0.0222  0.3322 -0.1043
 6795SOL    HW132021   3.019   4.238   0.415  2.5161 -0.2832  0.1714
 6795SOL    HW232022   3.104   4.157   0.326  0.0425  0.7456 -0.2407
 6796SOL     OW32023   4.097   2.099  17.117 -0.6359  0.3478  0.2975
 6796SOL    HW132024   4.164   2.128  17.179 -1.1109  0.1215  0.9248
 6796SOL    HW232025   4.076   2.021  17.169  1.7957  0.2296  1.1144
 6797SOL     OW32026   4.669   2.747   0.519 -0.2631  0.2532  0.9651
 6797SOL    HW132027   4.717   2.674   0.557  2.1543  0.2031 -2.1292
 6797SOL    HW232028   4.696   2.819   0.576 -2.7898  2.4147 -0.5381
 6798SOL     OW32029   1.702   1.663   9.035  0.0370  0.1166  0.3442
 6798SOL    HW132030   1.612   1.694   9.042  0.1925  0.2598  1.5600
 6798SOL    HW232031   1.704   1.567   9.040  1.4296  0.1293 -0.1361
 6799SOL     OW32032   2.766   4.396  12.643 -0.0390 -0.6823  0.0917
 6799SOL    HW132033   2.799   4.483  12.622 -0.9958 -0.4402 -0.3996
 6799SOL    HW232034   2.791   4.338  12.571 -0.2583 -1.0819  0.3342
 6800SOL     OW32035   1.015   1.501  11.325  0.1992 -0.0736  0.2076
 6800SOL    HW132036   1.008   1.541  11.412  1.3249 -0.4335  0.4705
 6800SOL    HW232037   1.108   1.475  11.327  0.4050  0.6546  0.1312
 6801SOL     OW32038   3.743   0.565  12.154 -0.4229 -0.3743 -0.6173
 6801SOL    HW132039   3.780   0.485  12.116  1.1776  0.6158 -1.1631
 6801SOL    HW232040   3.803   0.578  12.227 -0.9845 -0.4054 -0.1598
 6802SOL     OW32041   1.592   2.515  15.797  0.6695  0.4131 -0.2066
 6802SOL    HW132042   1.657   2.447  15.814  1.3237  0.5317 -2.3232
 6802SOL    HW232043   1.641   2.583  15.751 -2.2224  3.7990  1.7205
 6803SOL     OW32044   0.337   1.678  17.428 -0.5290 -0.0508 -0.3650
 6803SOL    HW132045   0.393   1.744  17.386 -1.5371  0.4165 -0.9981
 6803SOL    HW232046   0.371   1.686  17.517 -0.3362  0.4169 -0.4814
 6804SOL     OW32047   4.602   0.226   8.432 -0.2341  0.4337 -0.2664
 6804SOL    HW132048   4.589   0.134   8.406 -0.3802  0.5887 -0.7395
 6804SOL    HW232049   4.522   0.269   8.401  0.1244  1.7896  0.7123
 6805SOL     OW32050   4.502   1.606   1.954  0.1290 -0.1066  0.6069
 6805SOL    HW132051   4.563   1.678   1.935 -0.5058  0.0625 -0.7374
 6805SOL    HW232052   4.434   1.619   1.888  0.1684 -0.9967  0.3926
 6806SOL     OW32053   3.941   1.157  14.620  0.0006  0.0521 -0.2011
 6806SOL    HW132054   4.034   1.151  14.642  0.0978  1.1654 -0.3157
 6806SOL    HW232055   3.919   1.064  14.610 -0.7593  0.0730  1.3679
 6807SOL     OW32056   0.165   3.192   3.719 -0.3480 -0.5891  0.1019
 6807SOL    HW132057   0.106   3.183   3.644  3.5374 -0.6642 -2.9698
 6807SOL    HW232058   0.119   3.142   3.787  0.5115  1.6212  2.2975
 6808SOL     OW32059   1.230   0.549   9.322  0.0580 -0.0081  0.6518
 6808SOL    HW132060   1.291   0.556   9.248 -0.9892  1.1412 -0.0923
 6808SOL    HW232061   1.158   0.604   9.292 -1.2725 -2.3300 -0.4222
 6809SOL     OW32062   2.132   3.842   6.158  0.2927  0.3971 -0.3668
 6809SOL    HW132063   2.153   3.935   6.146  1.9299  0.1741  0.7693
 6809SOL    HW232064   2.216   3.799   6.172  0.9492  1.6065 -0.6232
 6810SOL     OW32065   4.180   4.536  13.744 -0.3636  0.4316  0.4666
 6810SOL    HW132066   4.148   4.575  13.825  0.3319 -0.4838  1.1716
 6810SOL    HW232067   4.198   4.448  13.776 -1.0157  0.5912  1.2695
 6811SOL     OW32068   2.664   1.835   4.676 -0.3827  0.3850 -0.4828
 6811SOL    HW132069   2.725   1.761   4.675  0.6674  1.2445  1.3510
 6811SOL    HW232070   2.604   1.797   4.741  1.4285 -0.5205  0.6718
 6812SOL     OW32071   3.215   0.522  13.815 -0.0422  0.0773  0.0988
 6812SOL    HW132072   3.147   0.457  13.801  1.0557 -0.3082 -3.2746
 6812SOL    HW232073   3.187   0.592  13.756 -0.8349  0.0916  0.4833
 6813SOL     OW32074   2.784   1.122  16.424 -0.0363 -0.0190  0.5947
 6813SOL    HW132075   2.829   1.168  16.495  3.3375  1.9492 -2.8344
 6813SOL    HW232076   2.856   1.060  16.412  0.1705 -0.1419  2.5103
 6814SOL     OW32077   0.152   2.409   6.822  0.5028  0.5558  0.0844
 6814SOL    HW132078   0.215   2.385   6.754  1.0628 -0.3570  0.9380
 6814SOL    HW232079   0.129   2.317   6.835 -0.9206  0.6364 -1.8554
 6815SOL     OW32080   2.355   2.598   5.182 -0.3608 -0.5561  0.2817
 6815SOL    HW132081   2.334   2.622   5.092  2.7148 -0.4524 -0.3975
 6815SOL    HW232082   2.442   2.637   5.187 -1.1404  0.9701  1.8737
 6816SOL     OW32083   1.388   2.189   2.434 -0.3048 -0.7485 -0.2834
 6816SOL    HW132084   1.328   2.250   2.476  2.9456  1.4043  1.2043
 6816SOL    HW232085   1.442   2.157   2.506  0.1732 -0.8884 -0.7020
 6817SOL     OW32086   4.252   1.901  15.160 -0.2359 -0.6431 -0.0428
 6817SOL    HW132087   4.228   1.812  15.136  2.1709 -0.8809 -1.5908
 6817SOL    HW232088   4.326   1.872  15.213  1.0710  1.3077 -0.7937
 6818SOL     OW32089   3.097   0.561   1.813 -0.1731  0.2686 -0.1223
 6818SOL    HW132090   3.121   0.516   1.732  0.3950  0.3365  0.0059
 6818SOL    HW232091   3.083   0.488   1.873 -0.2949  2.0943  2.0786
 6819SOL     OW32092   1.474   0.363   9.024 -0.6953 -0.0544  0.0573
 6819SOL    HW132093   1.454   0.438   9.080  0.3814  1.7538 -1.9957
 6819SOL    HW232094   1.470   0.298   9.095  0.3706 -0.5303 -0.3144
 6820SOL     OW32095   2.270   4.229  10.879  1.0422  0.2029 -0.5514
 6820SOL    HW132096   2.242   4.165  10.945 -0.8981 -0.3957 -1.9487
 6820SOL    HW232097   2.341   4.173  10.845 -0.3144 -0.2921 -2.5776
 6821SOL     OW32098   0.139   0.271   6.561 -0.0800 -0.6801 -0.3872
 6821SOL    HW132099   0.156   0.317   6.643  1.3358 -0.6239 -0.7112
 6821SOL    HW232100   0.144   0.178   6.585  0.4334  0.1385  2.6759
 6822SOL     OW32101   0.681   3.445  11.985 -0.1507  0.5118 -0.8442
 6822SOL    HW132102   0.762   3.476  11.944  0.3350  0.4267  0.0481
 6822SOL    HW232103   0.708   3.356  12.009 -1.7314  0.3738  0.4214
 6823SOL     OW32104   1.479   2.308   8.331 -0.0500 -0.2634  0.4419
 6823SOL    HW132105   1.469   2.213   8.339  0.1655 -0.4527 -1.6161
 6823SOL    HW232106   1.461   2.335   8.421 -0.8649  0.0992  0.1703
 6824SOL     OW32107   0.482   0.876   2.552 -0.6706 -0.3508 -0.0195
 6824SOL    HW132108   0.497   0.782   2.541 -0.2630 -0.1886 -0.8491
 6824SOL    HW232109   0.519   0.890   2.639 -2.9777 -2.3255  1.3057
 6825SOL     OW32110   1.622   0.072   6.091 -0.2357  0.5822  0.1044
 6825SOL    HW132111   1.684   4.736   6.088 -0.8402  0.0366  1.0252
 6825SOL    HW232112   1.617   0.077   6.186 -0.0472  0.2520  0.1352
 6826SOL     OW32113   3.770   0.848   8.712  0.2391  0.3751 -0.4424
 6826SOL    HW132114   3.752   0.941   8.698  0.0246  0.1279 -1.8209
 6826SOL    HW232115   3.695   0.836   8.770 -1.5537  0.0141 -2.7838
 6827SOL     OW32116   3.898   1.760   5.209  0.7732  0.4059 -0.2029
 6827SOL    HW132117   3.945   1.838   5.239  0.9136  0.4351 -0.5015
 6827SOL    HW232118   3.818   1.790   5.166  0.1951 -0.0340  0.5737
 6828SOL     OW32119   4.363   2.669   5.134 -0.1844 -0.8784 -0.2557
 6828SOL    HW132120   4.323   2.740   5.083 -1.6708 -1.1535  0.5117
 6828SOL    HW232121   4.417   2.620   5.072 -0.8348  0.5161 -1.9424
 6829SOL     OW32122   4.295   2.160   4.705  0.3004  0.1948 -0.6728
 6829SOL    HW132123   4.315   2.225   4.772  1.0433 -0.5167 -0.1918
 6829SOL    HW232124   4.330   2.213   4.634  0.6869 -0.7113 -1.1577
 6830SOL     OW32125   2.988   4.718   7.343  0.2527 -0.1738  0.6838
 6830SOL    HW132126   2.974   4.634   7.387 -0.4173  0.7822  2.2983
 6830SOL    HW232127   2.949   4.706   7.257  1.3034  1.2267  0.0248
 6831SOL     OW32128   0.216   0.400   8.812  0.8267 -0.2921  0.3036
 6831SOL    HW132129   0.158   0.350   8.754  1.7272  0.7938 -1.5635
 6831SOL    HW232130   0.162   0.474   8.839  2.7153  1.4576 -0.6377
 6832SOL     OW32131   2.129   2.786  16.649  0.4793  0.6325  0.2937
 6832SOL    HW132132   2.194   2.844  16.689  2.7944 -1.8299  0.1423
 6832SOL    HW232133   2.050   2.808  16.698 -1.5436  0.4640 -2.8480
 6833SOL     OW32134   0.431   3.502   6.690 -0.3528 -0.1068 -0.9926
 6833SOL    HW132135   0.336   3.508   6.676 -0.5566 -0.6034  0.2063
 6833SOL    HW232136   0.457   3.412   6.667  1.9861 -0.0750  1.5298
 6834SOL     OW32137   2.633   2.339  16.101 -0.1909 -0.0316 -0.0629
 6834SOL    HW132138   2.573   2.336  16.027  0.3888  2.0475 -0.6142
 6834SOL    HW232139   2.639   2.246  16.126 -0.2492  0.1220  0.5165
 6835SOL     OW32140   3.446   3.561   9.311 -0.1862  0.0628  0.0627
 6835SOL    HW132141   3.373   3.511   9.276  0.2129  0.8701 -1.9548
 6835SOL    HW232142   3.494   3.498   9.364 -0.3950 -0.4773 -0.3872
 6836SOL     OW32143   3.976   3.298  12.341 -0.3877  0.1994  0.4153
 6836SOL    HW132144   3.931   3.259  12.266 -1.6743  2.0281  0.2532
 6836SOL    HW232145   3.908   3.311  12.407 -0.4035  3.7677 -0.3276
 6837SOL     OW32146   1.580   0.027   4.827 -0.3670  0.3798 -0.4636
 6837SOL    HW132147   1.537   0.091   4.885 -0.6697 -1.3341  1.1911
 6837SOL    HW232148   1.652   0.085   4.802 -0.3509  0.4839 -0.1826
 6838SOL     OW32149   3.214   2.920  10.379 -0.1962 -0.0937 -0.0304
 6838SOL    HW132150   3.256   3.006  10.372  4.0801 -2.1221  1.0744
 6838SOL    HW232151   3.213   2.905  10.473 -0.1747  0.1464  0.0090
 6839SOL     OW32152   4.567   0.489  12.557  0.0719 -0.0887  0.5450
 6839SOL    HW132153   4.504   0.562  12.554  0.5427  0.2663 -1.3500
 6839SOL    HW232154   4.508   0.420  12.585 -0.2401  0.2139  0.6275
 6840SOL     OW32155   1.488   1.844   7.235 -0.1183  0.3802  0.1664
 6840SOL    HW132156   1.545   1.883   7.169  0.4957  0.2975  0.6445
 6840SOL    HW232157   1.551   1.787   7.279 -1.4727 -0.0977  1.4870
 6841SOL     OW32158   3.910   1.604  15.583  0.2642  0.3957 -0.2638
 6841SOL    HW132159   3.827   1.610  15.630  0.5915 -2.5958  0.6883
 6841SOL    HW232160   3.955   1.529  15.621 -0.8231 -1.1921 -2.0888
 6842SOL     OW32161   2.219   0.341   6.317  0.6385  0.3393  0.3769
 6842SOL    HW132162   2.310   0.344   6.289  0.7256  0.1699  0.6488
 6842SOL    HW232163   2.182   0.417   6.271 -0.1067 -0.2504  0.0094
 6843SOL     OW32164   0.511   4.522  11.420  0.3989 -0.0823 -0.5091
 6843SOL    HW132165   0.529   4.429  11.400  2.5524  0.4142 -0.8684
 6843SOL    HW232166   0.448   4.541  11.351 -0.1706 -1.0443 -0.2545
 6844SOL     OW32167   4.028   3.935   8.435  0.0478  0.1480 -0.6056
 6844SOL    HW132168   4.016   3.841   8.453 -0.7151 -0.1585 -2.7698
 6844SOL    HW232169   3.998   3.969   8.520  0.9580 -2.9919  0.9651
 6845SOL     OW32170   1.238   2.657   8.740 -0.3812 -0.7939 -0.1521
 6845SOL    HW132171   1.277   2.570   8.750 -1.6593 -1.3647 -0.0754
 6845SOL    HW232172   1.151   2.616   8.741 -1.1071  0.7727  0.6487
 6846SOL     OW32173   4.429   3.110   0.754 -0.2847 -0.0292 -0.1755
 6846SOL    HW132174   4.353   3.075   0.801  1.9777 -2.2045  1.9445
 6846SOL    HW232175   4.397   3.095   0.665 -2.1008 -0.3907  0.5368
 6847SOL     OW32176   0.235   4.349  11.986 -0.7201  1.0180 -0.0494
 6847SOL    HW132177   0.219   4.364  12.079 -1.7334  2.0540 -0.3911
 6847SOL    HW232178   0.319   4.396  11.980  0.3458 -0.7892  0.4965
 6848SOL     OW32179   3.632   3.489   5.628 -0.6651 -0.1099 -0.1294
 6848SOL    HW132180   3.692   3.425   5.589  0.1237 -0.7402  2.1565
 6848SOL    HW232181   3.651   3.564   5.572  0.7939  0.2371  0.8547
 6849SOL     OW32182   4.126   1.725   8.199 -0.1754 -0.0081 -0.2218
 6849SOL    HW132183   4.214   1.689   8.213 -0.2140  1.1660  3.0992
 6849SOL    HW232184   4.086   1.648   8.160 -1.0357 -0.0781  0.7982
 6850SOL     OW32185   0.794   1.933  10.116  0.2513 -0.4566 -0.0152
 6850SOL    HW132186   0.766   1.880  10.041  0.1128 -1.4630  0.7615
 6850SOL    HW232187   0.883   1.902  10.131  0.8405  0.8659 -0.8030
 6851SOL     OW32188   4.208   2.112   2.627  0.0261  0.1097 -0.5034
 6851SOL    HW132189   4.115   2.131   2.631 -0.0106 -0.1715 -0.0428
 6851SOL    HW232190   4.244   2.200   2.615 -0.0923  0.2004 -0.2043
 6852SOL     OW32191   1.888   3.697  16.221  0.4643  0.3955  0.2803
 6852SOL    HW132192   1.925   3.784  16.238  0.3133  0.5251 -0.0505
 6852SOL    HW232193   1.907   3.700  16.127 -0.3643  1.1460  0.1489
 6853SOL     OW32194   4.622   0.032   6.308  0.0610 -0.4727 -0.5153
 6853SOL    HW132195   4.632   0.126   6.321 -0.9914 -0.3454 -0.6058
 6853SOL    HW232196   4.538   0.016   6.350 -0.5866  1.6387 -1.0126
 6854SOL     OW32197   0.579   2.307   9.839  0.2452 -0.1458  0.6515
 6854SOL    HW132198   0.523   2.248   9.890 -0.4977  0.0021 -0.0001
 6854SOL    HW232199   0.661   2.264   9.863  0.6501  0.6859  0.7577
 6855SOL     OW32200   2.179   1.920   4.255  0.2363  0.1574 -0.0734
 6855SOL    HW132201   2.122   1.844   4.243  1.3186 -0.6043 -0.4308
 6855SOL    HW232202   2.235   1.890   4.184  1.8971  4.3252 -0.5290
 6856SOL     OW32203   2.227   0.077   5.393  0.1229  0.1995  0.0909
 6856SOL    HW132204   2.285   0.035   5.330 -3.6962 -2.2790 -1.7293
 6856SOL    HW232205   2.201   0.002   5.447  0.4948  0.8888  1.2352
 6857SOL     OW32206   2.662   3.279  13.831  0.6742 -1.0929  0.5440
 6857SOL    HW132207   2.683   3.264  13.739 -0.9026  2.4447 -0.4098
 6857SOL    HW232208   2.687   3.371  13.840  0.3298 -0.8931 -0.4914
 6858SOL     OW32209   2.855   3.721   0.259  0.3903  0.1222  0.4954
 6858SOL    HW132210   2.926   3.681   0.308  1.8938  0.9168 -1.0153
 6858SOL    HW232211   2.840   3.799   0.313  0.5420  1.9836 -2.1473
 6859SOL     OW32212   0.112   1.136   9.995  0.2247  0.3045  0.0541
 6859SOL    HW132213   0.055   1.210   9.976 -0.5380  0.0895  1.5528
 6859SOL    HW232214   0.170   1.169  10.063 -0.0481  3.4414 -1.2665
 6860SOL     OW32215   3.190   0.017   5.412  0.0503  0.4900 -0.2969
 6860SOL    HW132216   3.096   0.006   5.424  0.3916 -0.6881  1.2310
 6860SOL    HW232217   3.220   4.700   5.339  1.3463  2.1121 -0.9718
 6861SOL     OW32218   2.034   3.253   5.955 -0.7225  0.0634  0.8595
 6861SOL    HW132219   2.102   3.301   6.002 -0.7979  0.7789  0.2214
 6861SOL    HW232220   1.955   3.289   5.994 -1.0902  0.8043 -0.5818
 6862SOL     OW32221   4.307   2.103  10.648 -0.1609 -0.0683  0.7712
 6862SOL    HW132222   4.284   2.133  10.560 -1.5114 -0.4263  1.0016
 6862SOL    HW232223   4.297   2.008  10.639 -0.7489  0.1468 -0.7265
 6863SOL     OW32224   1.275   0.254   8.571  0.6330 -0.3626 -0.3693
 6863SOL    HW132225   1.357   0.233   8.615 -0.3033  0.1782  1.6275
 6863SOL    HW232226   1.283   0.350   8.571  1.9847 -0.4705 -0.1872
 6864SOL     OW32227   1.849   3.340   2.140  0.1562 -0.1685 -0.3662
 6864SOL    HW132228   1.864   3.331   2.234  3.1573 -0.7561 -0.8795
 6864SOL    HW232229   1.825   3.251   2.114 -0.1838 -0.3126  0.4578
 6865SOL     OW32230   4.273   1.701   4.255 -0.1098 -0.3883  0.2535
 6865SOL    HW132231   4.268   1.780   4.308  1.5192 -0.8603  1.1244
 6865SOL    HW232232   4.365   1.673   4.257 -0.1254 -0.1874  2.8952
 6866SOL     OW32233   1.447   0.633   9.510 -0.2701 -0.8951 -1.0027
 6866SOL    HW132234   1.374   0.659   9.454 -1.0297  1.1658  0.9286
 6866SOL    HW232235   1.520   0.656   9.453 -1.2604 -4.7324 -3.7946
 6867SOL     OW32236   4.573   3.751  16.622 -0.2536  0.2464  0.6631
 6867SOL    HW132237   4.557   3.833  16.669 -1.4654  0.3189  0.1319
 6867SOL    HW232238   4.662   3.736  16.652  0.7040  3.3102 -0.6869
 6868SOL     OW32239   0.713   2.417  12.981  0.2537  0.4755  0.0110
 6868SOL    HW132240   0.797   2.387  12.945 -0.0560  0.2371 -0.5198
 6868SOL    HW232241   0.677   2.456  12.901  0.7688  1.8314  0.4391
 6869SOL     OW32242   2.753   3.216   9.696  0.1884 -0.0975 -0.3707
 6869SOL    HW132243   2.803   3.138   9.672  1.9892  0.8703  0.2240
 6869SOL    HW232244   2.722   3.175   9.777 -0.1695  1.6877  0.3996
 6870SOL     OW32245   4.246   3.370   1.525 -0.6055  0.2224  0.2955
 6870SOL    HW132246   4.155   3.340   1.533 -0.2327 -1.0619 -0.1884
 6870SOL    HW232247   4.292   3.311   1.585 -1.1985  1.2685  1.7687
 6871SOL     OW32248   1.927   1.766   2.832 -0.1217 -0.0327  0.2139
 6871SOL    HW132249   1.921   1.678   2.869 -1.4660  1.0372  2.5769
 6871SOL    HW232250   1.879   1.827   2.888  1.2435  0.3892  0.8972
 6872SOL     OW32251   3.295   3.893   2.016 -0.1138  0.5420 -0.1855
 6872SOL    HW132252   3.276   3.821   1.956  0.8916 -1.2265  1.5982
 6872SOL    HW232253   3.214   3.885   2.065  1.3573 -1.9399  1.8360
 6873SOL     OW32254   3.849   0.595   2.914  0.4332  0.3386  0.1039
 6873SOL    HW132255   3.862   0.504   2.942  0.4493  0.1962 -0.3510
 6873SOL    HW232256   3.755   0.594   2.898  0.2650  0.5491  1.1085
 6874SOL     OW32257   3.469   0.870   4.313 -0.4238 -0.4577  0.0294
 6874SOL    HW132258   3.531   0.909   4.252 -0.3610  0.4552  0.6625
 6874SOL    HW232259   3.526   0.839   4.384  1.4017  1.1772 -0.7148
 6875SOL     OW32260   1.674   3.359   3.615  0.2930  0.2421  0.2528
 6875SOL    HW132261   1.705   3.294   3.677  1.1688  0.3481 -0.0703
 6875SOL    HW232262   1.708   3.438   3.657  0.2329  1.3332 -1.7253
 6876SOL     OW32263   0.058   1.622  16.789  0.2563  0.1135  0.1900
 6876SOL    HW132264   0.043   1.614  16.884  2.3445  0.6677  0.5553
 6876SOL    HW232265   4.706   1.631  16.754  0.2438 -1.6122 -0.2340
 6877SOL     OW32266   1.923   4.596   9.413 -0.4276 -0.6778 -0.1926
 6877SOL    HW132267   2.004   4.569   9.456 -0.6447 -0.8320  0.1229
 6877SOL    HW232268   1.886   4.656   9.478 -0.2725  1.5953 -2.2044
 6878SOL     OW32269   2.771   2.799   6.459 -0.8300 -0.6179  0.6040
 6878SOL    HW132270   2.696   2.754   6.499 -1.4809 -0.7863 -0.7988
 6878SOL    HW232271   2.839   2.748   6.503  0.0375 -1.3828 -1.6270
 6879SOL     OW32272   4.710   1.151   5.475  0.4443 -0.4098 -0.0135
 6879SOL    HW132273   4.678   1.203   5.401 -0.6837 -0.1947  0.6275
 6879SOL    HW232274   4.686   1.214   5.542  1.8348  0.1634 -0.0550
 6880SOL     OW32275   2.931   0.557   9.418  0.4594  0.2971 -0.2176
 6880SOL    HW132276   2.865   0.536   9.484 -0.3377 -2.7669 -1.9947
 6880SOL    HW232277   3.002   0.497   9.441 -0.3466 -0.0153  1.5047
 6881SOL     OW32278   0.257   2.078   5.871  0.5638 -0.0744  0.1757
 6881SOL    HW132279   0.241   2.024   5.793 -0.5493  1.7500 -0.8633
 6881SOL    HW232280   0.178   2.053   5.920 -0.2484 -0.2395 -1.2287
 6882SOL     OW32281   2.957   3.174   2.957  0.1934  0.1073  0.0652
 6882SOL    HW132282   2.903   3.252   2.969  1.4320  1.1946 -1.3798
 6882SOL    HW232283   2.914   3.143   2.877  2.5205 -1.0448 -0.7392
 6883SOL     OW32284   2.561   1.003   7.443 -0.2989  0.3334 -0.1543
 6883SOL    HW132285   2.530   1.083   7.485 -0.5598  0.3060 -0.2922
 6883SOL    HW232286   2.497   0.941   7.479  1.1344 -0.3810  1.1454
 6884SOL     OW32287   4.054   0.974   5.847  0.9629 -0.6067 -0.1759
 6884SOL    HW132288   3.961   0.990   5.837  0.9423 -0.6908 -0.1218
 6884SOL    HW232289   4.087   1.051   5.894  0.1306 -0.2614 -0.1630
 6885SOL     OW32290   2.523   0.269   9.620  0.3022 -0.1852 -0.3613
 6885SOL    HW132291   2.518   0.253   9.714 -3.7417  1.8147 -0.2657
 6885SOL    HW232292   2.618   0.258   9.611  0.4251 -0.9221  1.9843
 6886SOL     OW32293   2.432   0.445   3.844 -0.0827  0.2052 -0.1524
 6886SOL    HW132294   2.430   0.465   3.937  4.1681  0.3846 -0.1310
 6886SOL    HW232295   2.425   0.350   3.856 -1.9070  0.4017  0.3929
 6887SOL     OW32296   3.914   0.815  17.050 -0.0023  0.2358  0.3001
 6887SOL    HW132297   3.999   0.838  17.011 -0.0187  1.4632  1.0249
 6887SOL    HW232298   3.942   0.750  17.114  0.1085  1.3212  1.3407
 6888SOL     OW32299   1.651   3.754   1.013 -0.8376 -0.2131 -0.5927
 6888SOL    HW132300   1.637   3.691   0.942 -3.1320 -0.1178 -0.1936
 6888SOL    HW232301   1.645   3.836   0.965 -1.9324 -0.8273 -1.4878
 6889SOL     OW32302   1.575   1.082   3.142  0.4055 -0.1353 -0.0741
 6889SOL    HW132303   1.490   1.050   3.112 -1.2195  1.7596  2.6788
 6889SOL    HW232304   1.554   1.103   3.232  0.5942  0.8291 -0.2571
 6890SOL     OW32305   1.716   2.121   6.583 -0.9879 -0.8785 -0.0316
 6890SOL    HW132306   1.730   2.065   6.659  0.7011 -0.6676 -0.1911
 6890SOL    HW232307   1.675   2.199   6.620  1.2704 -0.1930  1.0158
 6891SOL     OW32308   0.117   3.355   0.120 -0.5150 -0.6400  0.1710
 6891SOL    HW132309   0.159   3.441   0.126 -0.7755 -0.4460 -0.8130
 6891SOL    HW232310   0.191   3.296   0.137  0.3750  0.0912 -1.1436
 6892SOL     OW32311   2.016   3.171  11.755  0.4298 -0.1866 -0.0281
 6892SOL    HW132312   2.084   3.179  11.822 -1.0575  0.0765  1.4556
 6892SOL    HW232313   2.004   3.076  11.763 -1.9429 -0.0137 -1.6074
 6893SOL     OW32314   3.591   2.098   4.513 -0.4679 -0.1354  0.1246
 6893SOL    HW132315   3.653   2.063   4.449  0.0728 -0.2423  0.7075
 6893SOL    HW232316   3.586   2.189   4.484 -1.2829 -0.3304 -0.3542
 6894SOL     OW32317   0.095   1.163  10.343  0.2954  0.2766  0.1820
 6894SOL    HW132318   0.018   1.170  10.286  0.1507  2.0575  0.6021
 6894SOL    HW232319   0.068   1.134  10.430  1.4344 -1.7770 -0.1401
 6895SOL     OW32320   3.961   3.966  17.172 -0.2740  0.4890  0.0739
 6895SOL    HW132321   4.047   3.994  17.201  0.4525 -0.3976 -1.2317
 6895SOL    HW232322   3.989   3.922  17.092  0.6608 -0.4859  0.9186
 6896SOL     OW32323   2.121   3.016  12.295 -0.3119  0.8630 -0.4294
 6896SOL    HW132324   2.139   2.935  12.343  0.6542  0.6933 -1.0851
 6896SOL    HW232325   2.083   3.071  12.364  0.8919 -0.6328  1.4068
 6897SOL     OW32326   1.409   0.766   4.313  0.4742  0.2691 -0.0986
 6897SOL    HW132327   1.384   0.682   4.276  0.0022  0.5140 -0.3347
 6897SOL    HW232328   1.352   0.826   4.266 -0.8180 -1.1973 -0.3874
 6898SOL     OW32329   1.638   4.132   9.889 -0.1113 -0.6544  0.3743
 6898SOL    HW132330   1.622   4.090   9.973  0.8522 -0.9720  0.3945
 6898SOL    HW232331   1.553   4.171   9.869  0.1649 -0.5814 -0.6333
 6899SOL     OW32332   4.460   1.246   0.545 -0.1620  0.2869  0.0204
 6899SOL    HW132333   4.504   1.316   0.498 -0.1169 -0.6361 -1.3021
 6899SOL    HW232334   4.510   1.258   0.626 -0.2246 -1.2531  0.2890
 6900SOL     OW32335   0.318   0.112   3.719 -0.3962  0.1768 -0.7265
 6900SOL    HW132336   0.340   0.044   3.656  0.1240 -0.8517  0.5781
 6900SOL    HW232337   0.370   0.178   3.672  0.5558 -0.4582 -0.5576
 6901SOL     OW32338   0.766   2.933  11.928  0.1671  0.0587  0.0435
 6901SOL    HW132339   0.798   2.850  11.892  2.7133  1.2638 -0.5344
 6901SOL    HW232340   0.673   2.929  11.907  0.2987  3.3781 -1.1328
 6902SOL     OW32341   4.372   3.441   7.030 -0.2467  0.6843 -0.4802
 6902SOL    HW132342   4.403   3.387   7.103 -0.8682  0.8787 -0.0740
 6902SOL    HW232343   4.350   3.370   6.969  1.6496 -0.0522 -0.3087
 6903SOL     OW32344   3.570   1.183  11.494 -0.1749  0.8337  0.0113
 6903SOL    HW132345   3.519   1.104  11.474  0.4863  0.2796  0.5064
 6903SOL    HW232346   3.582   1.171  11.588 -2.0728 -0.2913  0.1000
 6904SOL     OW32347   1.211   1.420   6.297  0.2648  0.4019  0.2157
 6904SOL    HW132348   1.293   1.427   6.247  1.2740  0.3024  1.8289
 6904SOL    HW232349   1.153   1.473   6.242 -0.4294 -0.4339  0.1489
 6905SOL     OW32350   3.921   2.972   8.150 -0.0047 -0.3912 -0.2362
 6905SOL    HW132351   4.009   2.970   8.113 -0.5132 -0.2739 -1.4388
 6905SOL    HW232352   3.908   3.067   8.159 -0.5880 -0.6006  1.1350
 6906SOL     OW32353   1.467   3.001   4.192  0.6771  0.5277 -0.5066
 6906SOL    HW132354   1.524   3.038   4.259 -2.7136 -0.0530  2.7445
 6906SOL    HW232355   1.450   3.080   4.142 -0.4351 -0.4666 -1.7082
 6907SOL     OW32356   0.707   1.517   3.824 -0.3287  0.0642  0.4120
 6907SOL    HW132357   0.767   1.542   3.894  1.9907 -1.2492 -1.0697
 6907SOL    HW232358   0.662   1.442   3.862  0.5422  0.5396  2.3748
 6908SOL     OW32359   3.351   2.502   6.224  0.0598  0.1707 -0.2968
 6908SOL    HW132360   3.410   2.438   6.263 -0.3935 -0.3999 -0.5483
 6908SOL    HW232361   3.403   2.533   6.150 -0.6869 -0.3400 -1.0266
 6909SOL     OW32362   2.993   4.493   1.552  0.1688 -0.1228  0.2318
 6909SOL    HW132363   2.968   4.407   1.519  1.1645  0.7320 -2.7466
 6909SOL    HW232364   3.051   4.470   1.625  1.4074 -0.9947 -1.0420
 6910SOL     OW32365   1.137   0.767   5.768 -0.2812  0.7627 -0.3283
 6910SOL    HW132366   1.056   0.719   5.785 -0.3499  0.9886 -0.0110
 6910SOL    HW232367   1.203   0.701   5.788 -2.0257 -0.0275  2.8145
 6911SOL     OW32368   1.363   3.992   2.968  0.4419 -0.0576 -0.1246
 6911SOL    HW132369   1.400   4.052   3.032 -1.6132  0.5430  0.4943
 6911SOL    HW232370   1.281   4.039   2.951  0.3840  0.1480  0.7421
 6912SOL     OW32371   1.693   1.204   7.420 -0.1637  0.8383 -0.3522
 6912SOL    HW132372   1.697   1.280   7.479  0.1005  0.8444 -0.3755
 6912SOL    HW232373   1.650   1.240   7.342 -1.4828 -2.1640 -1.0002
 6913SOL     OW32374   3.288   2.942   6.432 -0.1126  0.0085  0.5562
 6913SOL    HW132375   3.238   3.004   6.378 -0.7205 -1.7499 -0.8986
 6913SOL    HW232376   3.302   2.871   6.369  0.0090 -0.5749  1.2397
 6914SOL     OW32377   4.040   2.923   4.862 -0.8193 -0.4295 -0.3684
 6914SOL    HW132378   3.997   2.978   4.928  0.2405  0.0313 -0.0537
 6914SOL    HW232379   4.057   2.983   4.790  1.1193  0.3249  0.7232
 6915SOL     OW32380   3.905   3.265   4.669  0.0976  0.0575 -0.1271
 6915SOL    HW132381   3.888   3.172   4.681  3.0267 -0.4820 -0.2168
 6915SOL    HW232382   3.931   3.266   4.577  0.5617 -1.8517 -0.0151
 6916SOL     OW32383   4.270   1.104   4.690  0.1761 -0.1731 -0.3266
 6916SOL    HW132384   4.289   1.092   4.597  1.1717 -0.4864 -0.0864
 6916SOL    HW232385   4.182   1.068   4.685 -0.0615  0.4141 -0.2952
 6917SOL     OW32386   2.084   3.087   8.989  0.4546  0.6748 -0.5111
 6917SOL    HW132387   2.032   3.027   8.935 -0.0844 -0.6147  1.4279
 6917SOL    HW232388   2.058   3.172   8.954  1.8401  0.2435 -2.5633
 6918SOL     OW32389   3.293   2.314   3.810 -0.1291  0.3735  0.0367
 6918SOL    HW132390   3.348   2.358   3.876  0.2135 -0.6774  0.4450
 6918SOL    HW232391   3.212   2.364   3.806 -0.4784 -0.1237  0.9301
 6919SOL     OW32392   3.328   2.184   9.478 -0.1258 -0.2044  0.1536
 6919SOL    HW132393   3.275   2.263   9.474  1.2973  0.7023 -0.5102
 6919SOL    HW232394   3.257   2.123   9.500  0.7074 -1.0235  0.5552
 6920SOL     OW32395   3.273   0.768   0.500 -0.0335  0.3755  0.2541
 6920SOL    HW132396   3.227   0.829   0.558  1.3720 -0.2457  2.0479
 6920SOL    HW232397   3.360   0.808   0.502  1.2103 -2.3370  0.7701
 6921SOL     OW32398   3.908   0.095   7.681 -0.0592 -0.7204  0.3357
 6921SOL    HW132399   3.904   0.142   7.764  1.6125  0.1067 -0.0532
 6921SOL    HW232400   3.928   0.169   7.624  0.1449  0.4771  1.9732
 6922SOL     OW32401   2.313   2.289   2.195  0.1867  0.2639  0.0570
 6922SOL    HW132402   2.327   2.209   2.247  2.8030  0.8655  0.2510
 6922SOL    HW232403   2.221   2.273   2.174  0.6566  0.6767 -2.2237
 6923SOL     OW32404   1.946   0.366  13.065  0.1630  0.1270 -0.7780
 6923SOL    HW132405   1.965   0.428  12.995  3.2539 -0.8674 -0.8423
 6923SOL    HW232406   1.995   0.416  13.130  0.4640  0.0940 -0.9814
 6924SOL     OW32407   2.630   2.703   4.003 -0.1570 -0.6557 -0.0927
 6924SOL    HW132408   2.642   2.798   3.994  1.5514 -1.1540 -3.2813
 6924SOL    HW232409   2.669   2.666   3.924 -1.3706  0.8597 -1.4140
 6925SOL     OW32410   3.733   3.455   0.255  0.2962 -0.4423 -0.1514
 6925SOL    HW132411   3.638   3.465   0.247  0.3584 -0.9024 -1.5127
 6925SOL    HW232412   3.752   3.492   0.169 -0.5754  3.0529  1.1547
 6926SOL     OW32413   3.645   4.241   2.181 -0.1864  0.1075 -0.4240
 6926SOL    HW132414   3.610   4.162   2.141 -1.6645 -0.1698  1.4521
 6926SOL    HW232415   3.587   4.256   2.255  1.1606 -1.2114  0.8913
 6927SOL     OW32416   4.577   0.483  17.067 -0.5674 -0.2595 -0.3055
 6927SOL    HW132417   4.589   0.459  17.159  2.3601 -1.0536 -0.8974
 6927SOL    HW232418   4.663   0.465  17.029 -1.3288 -3.1221 -0.7364
 6928SOL     OW32419   0.669   2.857   8.261 -0.2918 -0.3494 -0.4882
 6928SOL    HW132420   0.643   2.781   8.312  2.5822 -0.6878  0.4366
 6928SOL    HW232421   0.630   2.934   8.303 -0.4933 -1.0082  0.5219
 6929SOL     OW32422   3.151   2.357   8.427  0.5191 -0.2658 -0.7144
 6929SOL    HW132423   3.223   2.409   8.461  0.8442 -1.1198 -0.1023
 6929SOL    HW232424   3.158   2.397   8.340  0.8375 -3.2124 -2.0538
 6930SOL     OW32425   2.165   3.459   3.748 -0.7035  0.1317  0.6721
 6930SOL    HW132426   2.109   3.407   3.690  1.0353  0.2789 -1.1457
 6930SOL    HW232427   2.144   3.410   3.828  0.8355 -0.0965  0.9307
 6931SOL     OW32428   2.214   0.174   9.945  0.3967  0.3842  0.1485
 6931SOL    HW132429   2.136   0.163  10.000  1.0545 -1.2508  0.7639
 6931SOL    HW232430   2.185   0.104   9.886 -0.2830 -0.4296  1.4471
 6932SOL     OW32431   4.510   1.963   4.220  0.1046 -0.1046 -0.1115
 6932SOL    HW132432   4.472   1.923   4.141  0.6428  0.4801 -0.6636
 6932SOL    HW232433   4.424   1.969   4.262  0.7432  0.7303  1.0865
 6933SOL     OW32434   3.144   1.689   5.313  0.1893 -0.2552  0.2032
 6933SOL    HW132435   3.234   1.669   5.287 -0.4580 -3.8563  0.7612
 6933SOL    HW232436   3.099   1.633   5.250 -0.5392  0.0362  0.4640
 6934SOL     OW32437   0.053   0.192  14.086 -0.5314  0.3518 -0.3963
 6934SOL    HW132438   0.091   0.278  14.069  1.6476 -0.8040 -1.3094
 6934SOL    HW232439   0.088   0.152  14.006  0.2918 -1.3276  0.7955
 6935SOL     OW32440   4.634   4.081   3.493 -1.2749 -0.1644  0.1493
 6935SOL    HW132441   4.689   4.002   3.498  2.0568  2.2042  1.1381
 6935SOL    HW232442   4.695   4.141   3.449 -1.4545 -0.3016 -0.2887
 6936SOL     OW32443   4.626   1.779   2.466  0.0793  0.0800  0.0893
 6936SOL    HW132444   4.648   1.818   2.381 -2.6458  0.8231 -0.2823
 6936SOL    HW232445   4.644   1.687   2.446  1.1539  0.4071 -0.4227
 6937SOL     OW32446   0.737   1.421   1.635  0.2609 -0.0468  0.3346
 6937SOL    HW132447   0.702   1.427   1.546  3.5085  2.1720 -0.7731
 6937SOL    HW232448   0.672   1.359   1.668  0.2059  1.4081  2.9853
 6938SOL     OW32449   4.022   0.675   3.778 -0.0077 -0.4551  0.3888
 6938SOL    HW132450   4.107   0.635   3.799  0.0992 -0.1049  0.6191
 6938SOL    HW232451   4.055   0.763   3.757  0.3444 -1.3058 -2.7065
 6939SOL     OW32452   1.985   1.885   3.593  0.5506 -0.3231 -0.5293
 6939SOL    HW132453   1.965   1.798   3.557 -0.9740  0.3373 -1.2525
 6939SOL    HW232454   2.073   1.902   3.558  0.9244 -2.0773 -0.4671
 6940SOL     OW32455   3.771   3.342   3.427  0.1487  0.3297  0.3053
 6940SOL    HW132456   3.727   3.402   3.367 -0.1805  0.3872  0.6015
 6940SOL    HW232457   3.698   3.283   3.446 -0.9400  1.5554 -0.1022
 6941SOL     OW32458   0.896   3.587   8.116 -0.1817 -0.3728  0.0873
 6941SOL    HW132459   0.828   3.653   8.098  0.9015  1.0133  1.0427
 6941SOL    HW232460   0.971   3.646   8.126 -1.6216  1.5296 -0.2343
 6942SOL     OW32461   0.037   2.876   1.182  0.1442  0.0694  0.2008
 6942SOL    HW132462   0.087   2.944   1.227  1.4731 -0.8998  0.1686
 6942SOL    HW232463   0.010   2.820   1.255 -1.6554  0.2794 -0.2972
 6943SOL     OW32464   0.446   4.400   3.968  0.1254  0.6001  0.6811
 6943SOL    HW132465   0.372   4.427   4.023  0.5553  2.6673  0.2404
 6943SOL    HW232466   0.476   4.336   4.033 -1.5640  0.6165  1.4860
 6944SOL     OW32467   2.454   1.193   6.497 -0.2894 -0.1130 -0.3068
 6944SOL    HW132468   2.487   1.132   6.562 -0.6072  1.6558  1.5329
 6944SOL    HW232469   2.461   1.280   6.537  2.7612  0.3678 -1.8818
 6945SOL     OW32470   3.657   4.636   6.278 -0.1320  0.2714 -0.0553
 6945SOL    HW132471   3.694   4.560   6.323  1.9090  0.6745 -1.0576
 6945SOL    HW232472   3.652   4.705   6.344 -1.0096 -0.6030  0.7876
 6946SOL     OW32473   4.632   3.216   8.434  0.4573  0.0069  0.1975
 6946SOL    HW132474   4.617   3.302   8.395  2.0001  0.5490  0.8156
 6946SOL    HW232475   4.561   3.225   8.497  1.7095  0.3225  1.5764
 6947SOL     OW32476   0.088   3.222   9.553 -0.2035 -0.0859 -0.4221
 6947SOL    HW132477   0.033   3.278   9.608  0.5942 -0.8837  1.1720
 6947SOL    HW232478   0.038   3.140   9.550  0.6179 -0.5999 -0.0812
 6948SOL     OW32479   3.364   3.660  11.662 -0.5435 -0.6274  0.4056
 6948SOL    HW132480   3.379   3.754  11.651  2.6867 -1.4870 -2.3477
 6948SOL    HW232481   3.435   3.649  11.725 -2.0440 -2.0438  1.8338
 6949SOL     OW32482   3.268   2.694   4.896 -0.2510 -0.4842 -0.3954
 6949SOL    HW132483   3.293   2.734   4.813  1.9039 -1.2431 -0.1040
 6949SOL    HW232484   3.175   2.684   4.875 -0.5624 -1.5854  1.5736
 6950SOL     OW32485   0.647   1.910   7.191  0.0469 -0.3326 -0.3196
 6950SOL    HW132486   0.590   1.928   7.116  0.5600  0.9856 -0.3863
 6950SOL    HW232487   0.727   1.881   7.148  0.5752  3.2095 -1.7132
 6951SOL     OW32488   1.563   1.983   7.851  0.2946  0.1099 -0.5541
 6951SOL    HW132489   1.653   2.012   7.863 -0.1831  1.5755 -0.4719
 6951SOL    HW232490   1.575   1.933   7.770 -1.8207  0.8298 -1.3367
 6952SOL     OW32491   4.562   3.956   4.163 -0.1144  0.0630 -0.6176
 6952SOL    HW132492   4.650   3.921   4.169 -0.7843 -1.3330  0.9307
 6952SOL    HW232493   4.542   3.979   4.253  0.4918  0.6665 -0.6356
 6953SOL     OW32494   1.627   2.587   1.581 -0.0089 -0.6172  0.3046
 6953SOL    HW132495   1.705   2.535   1.562 -0.0417 -0.1786 -1.0157
 6953SOL    HW232496   1.556   2.539   1.539 -0.4161  1.0335 -0.8902
 6954SOL     OW32497   0.452   0.916   1.659 -0.0868  0.2422 -0.3061
 6954SOL    HW132498   0.521   0.905   1.724 -1.2832  1.0651  1.0855
 6954SOL    HW232499   0.391   0.849   1.690 -1.4861  0.8116 -1.7801
 6955SOL     OW32500   1.466   2.690   9.304  0.0562 -0.0664  0.1157
 6955SOL    HW132501   1.375   2.720   9.302 -0.2661 -1.0030  0.3683
 6955SOL    HW232502   1.502   2.740   9.377  0.5297  0.5136 -0.5207
 6956SOL     OW32503   3.054   0.347   1.960 -0.5023  0.4814  0.0964
 6956SOL    HW132504   3.088   0.358   2.049 -0.1445 -0.0140  0.0262
 6956SOL    HW232505   2.976   0.295   1.980  0.2074 -0.5860  0.1125
 6957SOL     OW32506   1.245   4.133   5.546 -0.3151 -0.3802 -0.1249
 6957SOL    HW132507   1.316   4.176   5.593 -0.3504 -0.3749 -0.0754
 6957SOL    HW232508   1.194   4.104   5.623 -0.9308 -2.8807 -1.4653
 6958SOL     OW32509   3.434   4.261   4.814  0.3022  0.3867  0.6554
 6958SOL    HW132510   3.381   4.256   4.734  0.2427 -0.1709  0.7336
 6958SOL    HW232511   3.369   4.249   4.883 -0.3218  0.3315  0.0596
 6959SOL     OW32512   0.434   0.547   7.717  0.1715  0.0838 -0.0163
 6959SOL    HW132513   0.366   0.489   7.683 -0.7059  1.4368 -0.6094
 6959SOL    HW232514   0.458   0.508   7.801  0.6961 -0.9702 -0.6689
 6960SOL     OW32515   4.515   0.560   6.035  0.2643 -0.0183  0.6206
 6960SOL    HW132516   4.602   0.568   6.074 -0.0489  1.9666  0.9270
 6960SOL    HW232517   4.454   0.553   6.108  2.4284 -1.5151  2.3036
 6961SOL     OW32518   1.146   2.293   3.256  0.0724  0.4585  0.4593
 6961SOL    HW132519   1.191   2.373   3.283  1.0129  0.4683 -1.1363
 6961SOL    HW232520   1.203   2.255   3.189  0.7120  2.5155 -0.1530
 6962SOL     OW32521   4.059   2.128   1.627  0.5827 -0.2420  0.2025
 6962SOL    HW132522   4.080   2.161   1.540 -2.6422  0.3612 -0.3572
 6962SOL    HW232523   3.969   2.095   1.621  0.5985 -0.1617 -0.5265
 6963SOL     OW32524   4.529   1.964  15.406 -0.4841  0.2020 -0.2068
 6963SOL    HW132525   4.531   1.888  15.346  2.3996 -1.0073  1.4157
 6963SOL    HW232526   4.604   1.949  15.464  0.8873 -0.1992 -2.0738
 6964SOL     OW32527   0.754   2.717   1.223 -0.1658  0.3265 -0.3977
 6964SOL    HW132528   0.839   2.691   1.189 -0.2429  1.7114 -1.6506
 6964SOL    HW232529   0.707   2.750   1.146 -1.1937 -0.2899 -0.0338
 6965SOL     OW32530   4.583   3.941  16.313  0.1691  0.2629  0.2321
 6965SOL    HW132531   4.562   3.881  16.385 -0.5442  3.2381  2.5418
 6965SOL    HW232532   4.598   3.882  16.240 -0.9803 -0.7636  0.8259
 6966SOL     OW32533   4.016   1.517   0.516 -0.2107  0.7054 -0.4819
 6966SOL    HW132534   4.009   1.422   0.507 -0.3084  0.5827  0.9259
 6966SOL    HW232535   4.073   1.509   0.592  1.1514 -0.3517 -1.6138
 6967SOL     OW32536   4.364   1.947  10.936  0.3552 -0.9613 -0.0501
 6967SOL    HW132537   4.330   2.031  10.966 -0.7258 -1.5550  0.3844
 6967SOL    HW232538   4.441   1.970  10.884 -0.2024  2.4301  0.6732
 6968SOL     OW32539   0.615   0.155   1.341  0.0904  0.2608  0.4891
 6968SOL    HW132540   0.547   0.218   1.367 -1.5286 -1.8462  1.4373
 6968SOL    HW232541   0.583   0.075   1.383 -1.0014 -0.5125 -1.8049
 6969SOL     OW32542   2.770   0.916  11.776  0.3386 -0.3420  0.2652
 6969SOL    HW132543   2.693   0.963  11.808 -0.0420 -0.3110 -0.6760
 6969SOL    HW232544   2.733   0.834  11.743  1.3036 -0.5925 -0.2014
 6970SOL     OW32545   0.864   2.386   4.750 -0.2407  0.1237  0.3000
 6970SOL    HW132546   0.843   2.305   4.703  1.3513  1.4224 -2.7254
 6970SOL    HW232547   0.807   2.451   4.709 -0.7611 -1.7490 -1.9878
 6971SOL     OW32548   4.361   1.451   2.336  0.5801  0.2362  0.1424
 6971SOL    HW132549   4.424   1.382   2.315  1.1965  0.9093 -0.2705
 6971SOL    HW232550   4.400   1.530   2.299  0.8766 -1.6650 -3.6053
 6972SOL     OW32551   1.848   2.069   1.652 -0.5391 -0.1301  0.1856
 6972SOL    HW132552   1.777   2.004   1.653  0.5494 -1.3408 -1.2160
 6972SOL    HW232553   1.807   2.120   1.582 -1.1974 -0.9419 -0.0265
 6973SOL     OW32554   2.466   4.593  14.655  0.2363  0.0429 -0.4768
 6973SOL    HW132555   2.518   4.514  14.670 -1.3131 -0.9456 -0.4111
 6973SOL    HW232556   2.516   4.656  14.708 -0.4065  1.7924 -1.9687
 6974SOL     OW32557   2.212   2.649   6.375 -0.5340  0.2874  0.7077
 6974SOL    HW132558   2.193   2.645   6.469 -2.3562 -0.6373  0.2871
 6974SOL    HW232559   2.200   2.558   6.346  3.1684 -1.0221  3.2661
 6975SOL     OW32560   2.794   2.692   7.194  0.2338  0.2524 -0.3277
 6975SOL    HW132561   2.729   2.751   7.232  0.6635  1.0262 -0.7996
 6975SOL    HW232562   2.868   2.747   7.169  1.2797 -1.3395 -0.6705
 6976SOL     OW32563   2.514   0.039   7.764  0.4094  0.4422 -0.6775
 6976SOL    HW132564   2.544   0.127   7.785 -0.5104  0.1646  1.8402
 6976SOL    HW232565   2.498   0.041   7.670 -0.2531  0.4215 -0.5726
 6977SOL     OW32566   0.604   2.120   1.733  0.6118  0.5750  0.1574
 6977SOL    HW132567   0.589   2.206   1.693 -3.0709 -1.5101 -2.9151
 6977SOL    HW232568   0.573   2.132   1.823  0.2542 -0.6224  0.1826
 6978SOL     OW32569   2.961   0.040   2.533 -0.2163 -0.1409 -0.0299
 6978SOL    HW132570   3.031   0.087   2.487 -1.4784  0.2845 -1.5246
 6978SOL    HW232571   3.007   0.005   2.609  0.5713  0.3721 -0.2666
 6979SOL     OW32572   2.915   3.279   1.342 -0.1730 -0.2963 -0.2161
 6979SOL    HW132573   2.901   3.188   1.369  1.7365  0.7184  4.1817
 6979SOL    HW232574   2.892   3.335   1.415  0.7495 -0.1313 -0.0516
 6980SOL     OW32575   4.242   4.040   5.022 -0.0781 -0.1960 -0.0638
 6980SOL    HW132576   4.291   4.031   5.104  1.1896  2.2842 -0.5280
 6980SOL    HW232577   4.304   4.097   4.976 -1.0696 -0.1780 -1.3621
 6981SOL     OW32578   3.227   1.392   6.549  0.1619  0.0180  0.5924
 6981SOL    HW132579   3.149   1.430   6.509 -0.8774 -0.0943  2.5427
 6981SOL    HW232580   3.297   1.454   6.527 -0.8146  1.1144  0.5640
 6982SOL     OW32581   4.262   2.801   7.365 -0.0460  0.6102 -0.0090
 6982SOL    HW132582   4.237   2.803   7.273 -0.7731  2.1405  0.2278
 6982SOL    HW232583   4.357   2.789   7.370  0.1519  0.8171 -3.1708
 6983SOL     OW32584   1.067   1.325   6.533 -0.3958  0.9189 -0.8109
 6983SOL    HW132585   1.123   1.359   6.463  0.3147  0.2441 -0.5729
 6983SOL    HW232586   1.082   1.378   6.611 -1.6410 -0.9480  0.7016
 6984SOL     OW32587   4.558   3.397   8.154  0.0715 -0.0567 -0.5965
 6984SOL    HW132588   4.534   3.305   8.142  0.4902 -0.1583 -0.6794
 6984SOL    HW232589   4.519   3.417   8.238  0.4532 -1.6796 -0.0263
 6985SOL     OW32590   3.827   4.486   5.698  0.6100 -0.3802  0.3854
 6985SOL    HW132591   3.814   4.437   5.780 -0.2336 -0.1802  0.3625
 6985SOL    HW232592   3.752   4.452   5.650  0.3965  1.2135 -0.4000
 6986SOL     OW32593   3.956   4.558   2.653  0.2206  0.3559  0.1783
 6986SOL    HW132594   3.921   4.485   2.602 -1.2052  1.4136 -0.3287
 6986SOL    HW232595   3.890   4.622   2.627 -1.4396 -0.2204  2.9529
 6987SOL     OW32596   0.229   4.095  17.692 -0.2019 -0.0240  0.0427
 6987SOL    HW132597   0.141   4.129  17.703  0.4407  1.7153 -0.1360
 6987SOL    HW232598   0.265   4.110   0.032  2.7935 -2.2865 -0.7838
 6988SOL     OW32599   0.121   4.498  17.503 -0.2750  0.0605 -0.1540
 6988SOL    HW132600   0.149   4.430  17.564  2.4281  0.3416 -1.0761
 6988SOL    HW232601   0.202   4.544  17.480  0.2974 -1.6661 -1.6027
 6989SOL     OW32602   2.880   2.419   7.796 -0.1572 -0.3121  0.0970
 6989SOL    HW132603   2.823   2.371   7.856 -0.8572  2.3674  1.5660
 6989SOL    HW232604   2.961   2.376   7.824  0.7541  1.4949  0.2358
 6990SOL     OW32605   3.563   0.826   8.905  0.5082 -0.4859 -0.3283
 6990SOL    HW132606   3.583   0.822   8.998 -3.2313 -1.1818  0.4359
 6990SOL    HW232607   3.513   0.746   8.888 -0.5850 -0.1105  1.1616
 6991SOL     OW32608   3.323   3.691   3.557  0.8068  0.1808 -0.4517
 6991SOL    HW132609   3.302   3.653   3.643  0.8516 -0.7860 -0.8625
 6991SOL    HW232610   3.250   3.646   3.515  0.0686  0.0087  1.0084
 6992SOL     OW32611   0.924   2.414   2.392  0.1832  0.1404  0.7632
 6992SOL    HW132612   0.975   2.477   2.342 -1.9256  1.0878 -0.1817
 6992SOL    HW232613   0.874   2.479   2.442 -0.2277 -0.3169  0.9417
 6993SOL     OW32614   1.470   3.156  12.265  0.2430  0.2252  0.0935
 6993SOL    HW132615   1.446   3.107  12.344  0.8269 -2.1944 -1.2126
 6993SOL    HW232616   1.566   3.152  12.264  0.1720 -1.5353 -0.6047
 6994SOL     OW32617   1.342   1.653   8.047  0.3380 -0.1659  0.0798
 6994SOL    HW132618   1.309   1.606   8.124 -0.0943  3.3363  2.0646
 6994SOL    HW232619   1.422   1.697   8.078  0.7507 -0.6628 -0.2716
 6995SOL     OW32620   0.579   0.585   2.759 -0.3022 -0.2676 -0.3917
 6995SOL    HW132621   0.651   0.541   2.803 -0.2403  0.5615  0.3355
 6995SOL    HW232622   0.512   0.561   2.823 -1.7230 -1.4679 -2.3356
 6996SOL     OW32623   3.722   0.312  13.937  0.2801  0.2202  0.6398
 6996SOL    HW132624   3.762   0.341  14.019  1.5597  0.8291 -0.2009
 6996SOL    HW232625   3.638   0.356  13.928  0.5917  0.7156  0.1811
 6997SOL     OW32626   3.367   2.762   1.888  0.1301  0.1895  0.4156
 6997SOL    HW132627   3.398   2.724   1.806  1.1257 -1.9808  1.8102
 6997SOL    HW232628   3.397   2.689   1.941 -2.1223  0.2816  1.8273
 6998SOL     OW32629   1.431   1.212   6.040  0.7212  0.4117  0.2530
 6998SOL    HW132630   1.518   1.250   6.034  0.1716  1.5185 -0.7652
 6998SOL    HW232631   1.451   1.127   6.002 -1.3115 -0.0962  0.2961
 6999SOL     OW32632   3.856   4.138   1.220  0.4051 -0.2905  0.2340
 6999SOL    HW132633   3.795   4.211   1.231  0.6419  0.3362 -2.4939
 6999SOL    HW232634   3.853   4.102   1.308  0.5095  0.1890  0.4334
 7000SOL     OW32635   2.853   1.681  15.956  0.2768  0.4692 -0.3865
 7000SOL    HW132636   2.871   1.683  16.050  0.8751 -1.3136 -0.4536
 7000SOL    HW232637   2.920   1.622  15.920 -1.1852  0.2019 -2.6221
 7001SOL     OW32638   2.947   4.230   3.458  0.5924  0.0624 -0.7370
 7001SOL    HW132639   2.966   4.308   3.407  0.2756  0.6973  0.1086
 7001SOL    HW232640   2.853   4.245   3.468  0.4680 -1.3387  0.3576
 7002SOL     OW32641   1.658   1.354   8.441 -0.7939 -0.0896  0.2491
 7002SOL    HW132642   1.690   1.264   8.437  0.2467  0.3118 -0.4857
 7002SOL    HW232643   1.733   1.402   8.405 -1.0892  0.6474  0.6076
 7003SOL     OW32644   0.141   3.600  11.114  0.1228 -0.3378  0.1352
 7003SOL    HW132645   0.062   3.606  11.060  0.9378  0.6407 -0.9543
 7003SOL    HW232646   0.157   3.693  11.129 -1.0966  0.0782 -1.0657
 7004SOL     OW32647   4.112   3.644   7.337 -0.0617  0.2739  0.2140
 7004SOL    HW132648   4.104   3.691   7.254  1.9896  0.4384  0.1052
 7004SOL    HW232649   4.181   3.696   7.378 -0.2163  1.9302 -1.5933
 7005SOL     OW32650   0.446   3.233   6.669  0.0932  0.5683  0.2091
 7005SOL    HW132651   0.388   3.160   6.649  0.5138  0.9777 -2.4265
 7005SOL    HW232652   0.471   3.211   6.759 -2.8639 -1.1028  0.6014
 7006SOL     OW32653   2.397   2.323   6.087  0.5175 -0.2263 -0.0315
 7006SOL    HW132654   2.378   2.407   6.045  3.3839  0.5636  0.2709
 7006SOL    HW232655   2.382   2.264   6.013  1.7716 -1.8358  0.9942
 7007SOL     OW32656   4.677   4.361   4.047 -0.1789  0.5493  0.0791
 7007SOL    HW132657   4.641   4.434   4.097  0.5872  0.9754  0.0007
 7007SOL    HW232658   0.017   4.336   4.098 -1.7091 -2.2327  1.0419
 7008SOL     OW32659   4.019   4.477  15.371  0.6178  0.7286 -0.4638
 7008SOL    HW132660   4.010   4.382  15.369  0.1304  0.7847 -1.2183
 7008SOL    HW232661   4.047   4.483  15.462  1.4181  0.4349 -0.6956
 7009SOL     OW32662   1.280   0.464   1.963  0.3375 -0.1457  0.2242
 7009SOL    HW132663   1.338   0.540   1.958  0.0034  0.0161 -1.3931
 7009SOL    HW232664   1.306   0.411   1.887  1.8625  0.6864  0.1668
 7010SOL     OW32665   3.355   1.342   2.326 -0.7420  1.0124  0.0062
 7010SOL    HW132666   3.373   1.433   2.303 -2.5264  1.6671  1.1946
 7010SOL    HW232667   3.446   1.316   2.337 -0.8591  0.9878  0.9566
 7011SOL     OW32668   2.252   3.217   8.311 -0.1115 -0.0162 -0.0016
 7011SOL    HW132669   2.254   3.190   8.219  1.9190  0.2470 -0.0482
 7011SOL    HW232670   2.320   3.157   8.343  0.2017  0.6530  0.5784
 7012SOL     OW32671   2.724   3.959   1.566  0.0756 -0.4159 -0.8369
 7012SOL    HW132672   2.782   3.891   1.530 -0.4458 -0.2292 -2.0172
 7012SOL    HW232673   2.721   4.017   1.490 -0.2247 -0.5457 -0.9211
 7013SOL     OW32674   4.181   0.928   8.727 -0.0331 -0.2106  0.6004
 7013SOL    HW132675   4.146   1.007   8.687  2.4360  0.4091 -0.3126
 7013SOL    HW232676   4.274   0.945   8.714 -0.4748  0.5047 -1.6166
 7014SOL     OW32677   0.450   0.480   8.837 -0.1279 -0.5557 -0.0787
 7014SOL    HW132678   0.361   0.447   8.829 -0.4490  0.1562  0.4667
 7014SOL    HW232679   0.463   0.480   8.932 -1.5027 -1.2256  0.1174
 7015SOL     OW32680   3.208   1.511   0.258  0.0538  0.1659  0.1397
 7015SOL    HW132681   3.221   1.565   0.180 -1.6634 -1.1144 -1.0189
 7015SOL    HW232682   3.278   1.546   0.314 -0.9195  0.5533  1.1123
 7016SOL     OW32683   1.869   3.931   8.261  0.5186  0.2930 -0.3742
 7016SOL    HW132684   1.902   3.968   8.343 -0.5196  3.0633 -1.1911
 7016SOL    HW232685   1.861   3.837   8.274 -0.5827  0.4308  0.0048
 7017SOL     OW32686   4.275   2.603   8.787  0.1545  0.4080  0.2815
 7017SOL    HW132687   4.187   2.609   8.750 -0.0749  2.6131  1.1760
 7017SOL    HW232688   4.262   2.557   8.870  2.2416 -0.8940 -0.1190
 7018SOL     OW32689   2.795   4.476   6.505  0.6109  0.4615 -0.7258
 7018SOL    HW132690   2.817   4.548   6.564  0.3826 -0.0453 -0.0153
 7018SOL    HW232691   2.848   4.509   6.432  0.7934  0.7512 -0.4633
 7019SOL     OW32692   0.150   3.800   2.238 -0.0739  0.3710  0.1093
 7019SOL    HW132693   0.149   3.722   2.181 -0.7224 -0.5606  1.3963
 7019SOL    HW232694   0.073   3.785   2.293 -0.3622 -1.7690 -0.8521
 7020SOL     OW32695   4.162   2.329   1.791 -0.0725  0.5601  0.4429
 7020SOL    HW132696   4.227   2.274   1.836 -1.4874 -0.8014  0.8314
 7020SOL    HW232697   4.142   2.277   1.713  1.0589  1.6314 -0.5463
 7021SOL     OW32698   3.595   0.809  16.628  0.3797  0.2160 -0.1677
 7021SOL    HW132699   3.537   0.734  16.643  2.0943 -1.0576  0.0268
 7021SOL    HW232700   3.596   0.832  16.721 -0.2420 -0.6676  0.0565
 7022SOL     OW32701   1.889   1.409   8.888 -0.3788 -0.1614 -0.1816
 7022SOL    HW132702   1.826   1.458   8.836  0.3893  1.5063  0.4583
 7022SOL    HW232703   1.839   1.408   8.970 -0.7921 -1.2605 -0.4517
 7023SOL     OW32704   4.187   4.506   6.925  0.3535  0.2740  0.6488
 7023SOL    HW132705   4.209   4.596   6.947 -0.1243  0.2082  1.3874
 7023SOL    HW232706   4.236   4.490   6.845 -2.2739  0.7222 -1.0267
 7024SOL     OW32707   1.316   0.503   4.254 -0.3516  0.5353  0.0137
 7024SOL    HW132708   1.252   0.454   4.306 -0.6680  1.5643  0.6009
 7024SOL    HW232709   1.328   0.453   4.173 -1.6005  1.9211 -1.0311
 7025SOL     OW32710   3.002   0.795   8.640  0.1387  0.2449 -0.3160
 7025SOL    HW132711   2.945   0.731   8.682 -0.3624  1.7248  1.2808
 7025SOL    HW232712   3.083   0.795   8.691 -1.0223  0.7318  1.5415
 7026SOL     OW32713   4.266   3.531   6.650 -0.0552  0.0519  0.0648
 7026SOL    HW132714   4.360   3.523   6.633  0.1496  3.5008 -0.3761
 7026SOL    HW232715   4.224   3.485   6.577 -0.2375  0.6853 -0.2297
 7027SOL     OW32716   2.293   2.306   3.497  0.2834  0.0603 -0.3118
 7027SOL    HW132717   2.324   2.393   3.522  3.5770 -0.5726 -2.0426
 7027SOL    HW232718   2.255   2.311   3.409  0.1630  0.6837 -0.2223
 7028SOL     OW32719   0.154   3.702   7.288 -0.1266  0.4257  0.3032
 7028SOL    HW132720   0.217   3.735   7.351  0.0626 -0.6138  0.6605
 7028SOL    HW232721   0.151   3.770   7.221 -1.1033  0.1699  0.0820
 7029SOL     OW32722   1.733   0.720  11.417 -0.1883  0.6630 -0.1461
 7029SOL    HW132723   1.715   0.812  11.440 -1.7751  0.0321  1.1663
 7029SOL    HW232724   1.794   0.682  11.480  2.2176  4.4393 -0.1839
 7030SOL     OW32725   2.330   4.446   2.888 -0.3649 -0.6267  0.8665
 7030SOL    HW132726   2.308   4.531   2.927 -0.5910 -0.6215  0.7225
 7030SOL    HW232727   2.272   4.449   2.812 -0.5111 -0.0957  0.9962
 7031SOL     OW32728   3.308   1.610   6.238 -0.0494 -0.1699  0.1681
 7031SOL    HW132729   3.266   1.545   6.181  0.8669  0.5359 -1.3187
 7031SOL    HW232730   3.327   1.551   6.311 -0.2268  0.6345  0.8532
 7032SOL     OW32731   3.953   2.704   8.255  0.1471 -0.1574 -0.2953
 7032SOL    HW132732   4.032   2.682   8.206  0.9092  0.1797  0.8045
 7032SOL    HW232733   3.927   2.789   8.219 -4.9979 -1.9469 -0.8056
 7033SOL     OW32734   0.548   3.508  15.112 -0.4280  0.7241  0.3706
 7033SOL    HW132735   0.501   3.586  15.139 -0.6574 -0.0790  2.2919
 7033SOL    HW232736   0.640   3.536  15.112  0.4359 -2.0910 -0.2734
 7034SOL     OW32737   4.144   2.381   4.605  0.0539  0.6795  0.3830
 7034SOL    HW132738   4.159   2.474   4.622  0.9865  0.5854  0.1015
 7034SOL    HW232739   4.108   2.359   4.691 -1.3733  2.7197  0.2993
 7035SOL     OW32740   0.250   4.531   5.119  0.2398 -0.2790  0.1070
 7035SOL    HW132741   0.322   4.592   5.102  0.0620 -0.3084 -0.7815
 7035SOL    HW232742   0.210   4.566   5.199  0.8393  0.0214  0.2763
 7036SOL     OW32743   2.313   0.883   6.839  0.0165 -0.1522  0.2018
 7036SOL    HW132744   2.269   0.906   6.757  0.4671 -1.4435 -0.4027
 7036SOL    HW232745   2.234   0.854   6.885  0.3362  2.7433  2.5706
 7037SOL     OW32746   3.641   1.995   5.406 -0.1256  0.1496  0.4506
 7037SOL    HW132747   3.599   2.048   5.473  1.0233  0.5750  0.8394
 7037SOL    HW232748   3.629   2.035   5.319  0.4961  0.0470  0.3149
 7038SOL     OW32749   0.074   3.694  13.893 -0.3711 -0.3526 -0.4899
 7038SOL    HW132750   0.109   3.717  13.807  0.9811 -0.7534 -0.0445
 7038SOL    HW232751   0.155   3.675  13.940 -1.1267 -2.6505 -0.1443
 7039SOL     OW32752   4.599   1.997  13.296 -0.5285  0.1070 -0.3145
 7039SOL    HW132753   4.613   2.091  13.284 -0.7656  0.6199  3.4450
 7039SOL    HW232754   4.605   1.955  13.210  1.1465  0.9698 -0.6058
 7040SOL     OW32755   1.619   4.020   0.923 -0.1637  0.7814  0.3595
 7040SOL    HW132756   1.623   4.114   0.940 -4.6613  0.2120  4.6012
 7040SOL    HW232757   1.528   4.005   0.897 -0.0321  0.6586 -0.0382
 7041SOL     OW32758   0.020   4.026   5.245  0.0732  0.1283  0.1506
 7041SOL    HW132759   4.728   3.949   5.195 -1.0072  1.2750 -0.9930
 7041SOL    HW232760   0.053   3.986   5.325 -0.4286 -0.3192  0.1426
 7042SOL     OW32761   4.709   2.609   9.472  0.2752  0.0263  0.0832
 7042SOL    HW132762   4.681   2.533   9.422 -0.1713  0.1183  0.1868
 7042SOL    HW232763   0.027   2.567   9.537 -0.2133  2.2277  1.9495
 7043SOL     OW32764   2.564   3.275   3.037  0.4291 -0.1120 -0.0772
 7043SOL    HW132765   2.642   3.327   3.015 -1.1598  2.4145  0.1918
 7043SOL    HW232766   2.502   3.328   2.985 -0.1231 -2.1262 -1.4520
 7044SOL     OW32767   3.990   1.583   4.882  0.0941  0.1902 -0.1306
 7044SOL    HW132768   4.014   1.507   4.829  1.1964  1.6095 -1.6534
 7044SOL    HW232769   3.987   1.545   4.970  0.8881 -0.7282 -0.5038
 7045SOL     OW32770   1.920   1.148  12.544 -0.0063  0.4512 -0.6670
 7045SOL    HW132771   1.825   1.160  12.539 -0.3817 -3.6794 -3.4683
 7045SOL    HW232772   1.932   1.201  12.623  2.9868  0.0906 -0.8930
 7046SOL     OW32773   1.341   4.048  11.424  0.5120  0.0178  0.0270
 7046SOL    HW132774   1.316   3.958  11.443  3.1910 -0.5608  0.7088
 7046SOL    HW232775   1.420   4.066  11.475  1.1388 -0.3030 -0.8456
 7047SOL     OW32776   1.832   0.926   7.970  0.4446 -0.0201 -0.5202
 7047SOL    HW132777   1.857   0.867   8.041  1.6412  0.5752 -0.4603
 7047SOL    HW232778   1.873   0.885   7.894 -0.1158 -0.4775 -0.5813
 7048SOL     OW32779   2.781   3.699  14.888 -0.6626 -0.0054  0.2065
 7048SOL    HW132780   2.806   3.627  14.831  0.5700  0.2767  0.3856
 7048SOL    HW232781   2.716   3.736  14.828 -0.1316  1.5893  0.6029
 7049SOL     OW32782   3.044   2.207   5.194  0.2118 -0.5584  0.2949
 7049SOL    HW132783   2.965   2.256   5.171 -0.3290 -1.5940 -0.0561
 7049SOL    HW232784   3.000   2.123   5.183 -0.4187 -0.2603  0.5336
 7050SOL     OW32785   1.182   3.314   0.826 -0.5970  0.0516  0.2458
 7050SOL    HW132786   1.258   3.371   0.839 -1.4758  1.1037  0.7951
 7050SOL    HW232787   1.211   3.258   0.899 -1.6101 -1.2170 -0.3305
 7051SOL     OW32788   3.938   0.172   6.537 -0.3316 -0.2515 -0.0609
 7051SOL    HW132789   3.951   0.230   6.463 -0.9360 -0.3935 -0.2819
 7051SOL    HW232790   3.919   0.093   6.486 -0.3594 -2.1206  2.8505
 7052SOL     OW32791   1.403   0.907  10.555 -0.0509 -0.3114 -0.0469
 7052SOL    HW132792   1.372   0.910  10.646 -1.7999 -5.2990 -0.5090
 7052SOL    HW232793   1.485   0.951  10.577  0.8413 -1.8260 -0.3962
 7053SOL     OW32794   4.654   4.696   6.637 -0.1732 -0.2693 -0.5098
 7053SOL    HW132795   4.637   4.605   6.661 -2.6689  1.0774  2.6454
 7053SOL    HW232796   0.004   4.692   6.596  1.0176 -0.0138  1.9726
 7054SOL     OW32797   3.449   1.192   5.012  0.1874 -0.1130  0.1800
 7054SOL    HW132798   3.437   1.269   4.957  0.4233 -2.9666 -3.9325
 7054SOL    HW232799   3.469   1.126   4.945 -1.2035 -2.5218  2.1194
 7055SOL     OW32800   2.122   1.145   2.935  0.2065 -0.1778 -0.1157
 7055SOL    HW132801   2.036   1.163   2.973 -0.3384 -1.3089 -0.8184
 7055SOL    HW232802   2.167   1.228   2.947 -0.3527 -0.0174  0.8946
 7056SOL     OW32803   3.438   0.970   8.710 -0.2264 -0.0401  0.1100
 7056SOL    HW132804   3.487   0.940   8.787 -2.5012 -1.1112  1.1542
 7056SOL    HW232805   3.349   0.980   8.745 -0.5940 -2.0332 -0.2366
 7057SOL     OW32806   1.229   0.835   9.518 -0.2531 -0.4977 -0.4083
 7057SOL    HW132807   1.142   0.816   9.483 -0.1853  0.6695 -1.2049
 7057SOL    HW232808   1.253   0.910   9.464 -1.1408 -0.6510 -1.0110
 7058SOL     OW32809   2.834   3.223   3.772  0.0694  0.6190 -0.7171
 7058SOL    HW132810   2.889   3.301   3.767  1.4122 -0.1688  1.4792
 7058SOL    HW232811   2.789   3.234   3.688 -2.5088 -2.0932  0.3035
 7059SOL     OW32812   2.073   2.108   6.783  0.0869 -0.3490 -0.6113
 7059SOL    HW132813   1.991   2.079   6.825  0.8420  1.1784  1.9442
 7059SOL    HW232814   2.128   2.035   6.812 -0.3424  0.0582  1.2905
 7060SOL     OW32815   2.342   2.385   2.949  0.4727  0.1067  0.4003
 7060SOL    HW132816   2.338   2.412   2.857 -0.3570  0.4997  0.5566
 7060SOL    HW232817   2.264   2.331   2.961 -0.7268  1.6649 -0.3817
 7061SOL     OW32818   3.564   3.591   8.110 -0.3141 -0.4236 -0.2545
 7061SOL    HW132819   3.649   3.547   8.117 -0.2512 -0.8474 -3.8675
 7061SOL    HW232820   3.587   3.681   8.087  0.8251 -0.5958  0.1942
 7062SOL     OW32821   2.535   3.694  11.320 -0.3304  0.3659 -0.7258
 7062SOL    HW132822   2.591   3.741  11.382  1.9074 -1.2531 -1.5266
 7062SOL    HW232823   2.462   3.673  11.378  0.1168  2.1513  0.5152
 7063SOL     OW32824   2.346   1.228   3.543  0.2481  0.0206 -0.3154
 7063SOL    HW132825   2.398   1.153   3.572 -2.2552 -1.1310  1.1890
 7063SOL    HW232826   2.413   1.286   3.507  1.1538 -0.5708  0.3975
 7064SOL     OW32827   0.349   3.157   5.485  0.1773 -0.3352 -0.0440
 7064SOL    HW132828   0.441   3.181   5.499  0.3903  0.1989 -2.2259
 7064SOL    HW232829   0.317   3.112   5.563  2.9227  2.5869  2.7862
 7065SOL     OW32830   0.947   0.078   6.154 -0.6886  0.3152 -0.1711
 7065SOL    HW132831   0.964   0.130   6.233  0.9890  0.5626 -0.7151
 7065SOL    HW232832   0.860   0.045   6.177  0.2789 -2.2250 -0.1373
 7066SOL     OW32833   1.657   3.604  12.617 -0.2899  0.5577 -0.2434
 7066SOL    HW132834   1.647   3.565  12.530  0.1623 -2.2466  0.9711
 7066SOL    HW232835   1.582   3.568  12.666 -1.0057  0.4204 -1.4271
 7067SOL     OW32836   4.364   4.387   3.817 -0.7892 -0.1829 -0.0104
 7067SOL    HW132837   4.407   4.321   3.871  0.5248  0.0038 -0.8227
 7067SOL    HW232838   4.432   4.424   3.762 -1.5923  0.9581 -0.2306
 7068SOL     OW32839   0.507   1.831   4.728 -0.0303 -0.0741 -0.0019
 7068SOL    HW132840   0.488   1.917   4.691 -2.2119 -0.2605  0.6868
 7068SOL    HW232841   0.420   1.794   4.743 -0.1878  0.1020 -0.4737
 7069SOL     OW32842   2.684   1.017   4.012 -0.2930  0.7401 -0.9196
 7069SOL    HW132843   2.747   1.073   4.057 -1.5047  1.5926 -0.3067
 7069SOL    HW232844   2.727   1.019   3.927  2.2140  1.4039  0.3746
 7070SOL     OW32845   3.588   4.706   0.088  0.5400 -0.9559  0.1160
 7070SOL    HW132846   3.627   4.733   0.005  0.8118 -2.6367 -0.2874
 7070SOL    HW232847   3.638   4.625   0.095  1.4619 -0.3020  1.1114
 7071SOL     OW32848   0.739   1.008   7.272  0.4604 -0.7952 -0.2466
 7071SOL    HW132849   0.829   0.976   7.269  1.6148  2.4205  0.9337
 7071SOL    HW232850   0.745   1.086   7.216  1.1301 -0.2852  0.5389
 7072SOL     OW32851   0.992   4.609   3.736  0.0113  0.0161  0.3363
 7072SOL    HW132852   0.985   4.670   3.663 -1.7460 -0.5143  0.0588
 7072SOL    HW232853   1.083   4.626   3.759  0.4195 -0.0550 -1.2158
 7073SOL     OW32854   1.979   1.132   9.129 -0.0640 -0.6204 -0.0346
 7073SOL    HW132855   1.885   1.138   9.108 -0.0167  0.3063  0.0209
 7073SOL    HW232856   1.967   1.167   9.218 -2.2120 -0.1005 -0.5313
 7074SOL     OW32857   2.502   0.312   0.416  0.3413 -0.5591  0.0064
 7074SOL    HW132858   2.587   0.355   0.424 -2.1857  4.2792  0.7328
 7074SOL    HW232859   2.535   0.235   0.371  0.1601 -0.5089 -0.2108
 7075SOL     OW32860   4.063   1.411   8.064  0.0636  0.5701 -0.1395
 7075SOL    HW132861   4.153   1.408   8.033 -0.0590 -2.2649 -0.1414
 7075SOL    HW232862   4.015   1.446   7.989 -1.1857 -0.6179  0.1260
 7076SOL     OW32863   3.573   0.078   1.196  0.5659 -0.7701  0.2346
 7076SOL    HW132864   3.600   0.127   1.274  0.8112  2.1624 -1.7084
 7076SOL    HW232865   3.631   0.114   1.129  2.5017 -1.0512  1.7431
 7077SOL     OW32866   2.379   0.691   8.829 -0.1232 -0.0273 -0.0858
 7077SOL    HW132867   2.398   0.785   8.832 -1.7883  0.3169  0.0548
 7077SOL    HW232868   2.452   0.659   8.776  0.6073  1.2282  0.1649
 7078SOL     OW32869   0.529   3.697   0.147 -0.6085 -0.3267 -0.4661
 7078SOL    HW132870   0.561   3.636   0.215  0.6141  0.3819 -0.3980
 7078SOL    HW232871   0.600   3.712   0.084  0.1255 -0.9565  0.1999
 7079SOL     OW32872   4.455   3.261   8.677 -0.0890 -0.0514  0.0869
 7079SOL    HW132873   4.436   3.215   8.759  3.9344 -1.3033  0.3171
 7079SOL    HW232874   4.475   3.345   8.718 -0.3159  1.1749 -2.3227
 7080SOL     OW32875   3.155   4.636   4.967  0.6769  0.2944  0.2454
 7080SOL    HW132876   3.093   4.703   4.994 -1.0031 -0.5043 -1.5747
 7080SOL    HW232877   3.093   4.567   4.942  0.1119  0.6402  0.6974
 7081SOL     OW32878   2.961   1.614   4.465  0.3721 -0.1956  0.6137
 7081SOL    HW132879   2.967   1.526   4.428  1.5220  0.2393 -0.2411
 7081SOL    HW232880   2.911   1.600   4.546 -0.5546  0.6128  0.1750
 7082SOL     OW32881   3.468   1.330   6.239  0.1684 -0.4102  0.0308
 7082SOL    HW132882   3.394   1.331   6.179 -0.3046 -0.7519  0.6192
 7082SOL    HW232883   3.523   1.368   6.170 -2.0635 -1.2393 -2.2029
 7083SOL     OW32884   3.157   2.538   2.686 -0.1293  0.0808 -0.7019
 7083SOL    HW132885   3.156   2.444   2.700 -0.4380  0.1504 -0.2429
 7083SOL    HW232886   3.241   2.538   2.641  0.7496 -1.6441  0.9097
 7084SOL     OW32887   0.614   2.321  13.669  0.0494 -0.3596 -0.1451
 7084SOL    HW132888   0.523   2.315  13.698 -0.5431 -0.7061 -2.0739
 7084SOL    HW232889   0.649   2.232  13.673  0.5225 -0.1687 -0.0574
 7085SOL     OW32890   3.096   1.080   4.316  0.0149  0.0689 -0.7415
 7085SOL    HW132891   3.182   1.119   4.300 -0.0623  0.4511 -0.2188
 7085SOL    HW232892   3.129   0.994   4.344 -0.9600 -0.1212 -0.1977
 7086SOL     OW32893   0.843   4.417   3.876  0.5800  0.0801 -0.0335
 7086SOL    HW132894   0.904   4.482   3.844  0.4951  0.2933  0.2355
 7086SOL    HW232895   0.884   4.331   3.863 -0.1118 -0.4293  1.1117
 7087SOL     OW32896   4.012   2.474  13.834 -0.0701  0.2828 -0.0789
 7087SOL    HW132897   4.087   2.414  13.837 -1.1183 -1.0949 -1.5561
 7087SOL    HW232898   4.054   2.550  13.793  0.2986  0.1401  0.0344
 7088SOL     OW32899   3.905   0.124  10.205  0.1019  0.5635  0.0864
 7088SOL    HW132900   3.860   0.208  10.200 -2.8155 -1.0177  0.1935
 7088SOL    HW232901   3.917   0.116  10.299  0.6455 -0.7435 -0.0914
 7089SOL     OW32902   1.070   2.793  17.689 -0.0576  0.2562 -0.0223
 7089SOL    HW132903   1.121   2.826   0.016 -2.4305  1.2579  1.1448
 7089SOL    HW232904   1.122   2.714  17.672 -1.4269 -0.4438 -0.9824
 7090SOL     OW32905   2.629   1.825   7.294  0.4286 -0.1886  0.0431
 7090SOL    HW132906   2.566   1.797   7.361  0.7617 -4.6205 -1.5237
 7090SOL    HW232907   2.715   1.802   7.327  0.1588 -1.2231  0.0075
 7091SOL     OW32908   3.260   4.561   5.219 -0.3150  0.1150 -0.1932
 7091SOL    HW132909   3.239   4.575   5.127 -1.7577 -0.0435  0.1170
 7091SOL    HW232910   3.215   4.477   5.229 -1.0917  0.2990 -2.2000
 7092SOL     OW32911   3.781   1.221   4.434 -0.1899 -0.8155 -0.1214
 7092SOL    HW132912   3.782   1.159   4.361  2.9266 -1.2049  0.2807
 7092SOL    HW232913   3.736   1.177   4.505 -1.9169  2.0489  0.5774
 7093SOL     OW32914   1.768   2.952   3.501 -0.4837 -0.2763  0.7425
 7093SOL    HW132915   1.836   2.907   3.451 -2.3653 -0.5697 -1.5742
 7093SOL    HW232916   1.819   3.032   3.513 -0.9222  0.0915  0.1677
 7094SOL     OW32917   2.139   0.030   7.309 -0.2683 -0.2223  0.1848
 7094SOL    HW132918   2.206   0.058   7.372 -0.1620 -0.7317  0.2958
 7094SOL    HW232919   2.122   4.688   7.360 -1.3987  1.3493  2.2834
 7095SOL     OW32920   1.496   2.391   8.954 -0.3417 -0.6315 -0.5020
 7095SOL    HW132921   1.432   2.430   8.895 -1.0218 -0.5975  0.2593
 7095SOL    HW232922   1.566   2.453   8.931 -0.3277 -0.3046  0.4369
 7096SOL     OW32923   4.118   3.506   0.336  0.7761 -0.0437  0.3882
 7096SOL    HW132924   4.178   3.455   0.281  0.9737 -0.2984  0.8361
 7096SOL    HW232925   4.053   3.520   0.268 -1.3881 -0.0612  2.4439
 7097SOL     OW32926   0.368   0.044  14.920  0.0894  0.4020  1.0666
 7097SOL    HW132927   0.307   0.097  14.869 -1.9221 -0.8476  2.1705
 7097SOL    HW232928   0.311   0.040  14.997 -0.6553 -0.1863  0.4706
 7098SOL     OW32929   2.948   1.702   8.167 -0.8117 -0.7281 -0.2090
 7098SOL    HW132930   2.883   1.645   8.208 -0.8729 -0.6370 -0.1783
 7098SOL    HW232931   2.918   1.710   8.076  2.3086  0.5564 -1.1118
 7099SOL     OW32932   1.957   4.295  13.482  0.3318 -0.1283 -0.4214
 7099SOL    HW132933   1.999   4.360  13.538  3.6467 -2.5730 -0.0639
 7099SOL    HW232934   1.998   4.308  13.396  1.1741 -0.7435 -0.1112
 7100SOL     OW32935   3.720   4.672  16.777 -0.1934 -0.0880  0.1617
 7100SOL    HW132936   3.669   4.610  16.828 -0.1561  0.8394  1.3228
 7100SOL    HW232937   3.662   4.686  16.702  2.3497  0.6176 -1.6746
 7101SOL     OW32938   0.201   4.602   5.376 -0.2530 -0.0552  0.3518
 7101SOL    HW132939   0.263   4.665   5.413 -1.4574  2.0369 -1.2286
 7101SOL    HW232940   0.140   4.604   5.450  0.8872  0.1182  1.2893
 7102SOL     OW32941   3.787   4.131  10.610 -0.0273 -0.0390  0.3500
 7102SOL    HW132942   3.856   4.082  10.566  0.0841 -0.6865  1.2289
 7102SOL    HW232943   3.827   4.217  10.619  2.5193 -1.3731  1.9586
 7103SOL     OW32944   1.204   3.945   6.673  0.2702  0.2234  0.2689
 7103SOL    HW132945   1.201   4.018   6.611  2.3766  0.8592  0.8969
 7103SOL    HW232946   1.113   3.931   6.698  0.5252  0.9889  1.6141
 7104SOL     OW32947   1.551   4.143   2.063  0.0817  0.3834  0.0074
 7104SOL    HW132948   1.503   4.118   1.984 -0.4431  0.3649  0.3269
 7104SOL    HW232949   1.525   4.231   2.091  1.6723 -0.8151  5.1381
 7105SOL     OW32950   0.806   3.762   1.745 -0.2609  0.1400 -0.1170
 7105SOL    HW132951   0.839   3.838   1.792 -1.3184  0.7431 -0.3506
 7105SOL    HW232952   0.842   3.687   1.793 -1.2175  0.6213  1.3556
 7106SOL     OW32953   4.706   3.809   2.452  0.0002  0.4477  0.1111
 7106SOL    HW132954   4.689   3.843   2.540  0.9981 -1.3944  1.0332
 7106SOL    HW232955   4.653   3.866   2.397  4.7595  3.8028 -1.0057
 7107SOL     OW32956   1.739   1.553  12.724 -0.3027  0.1548  0.0053
 7107SOL    HW132957   1.729   1.575  12.817 -1.4209  0.9542 -0.3107
 7107SOL    HW232958   1.802   1.481  12.720  0.6762  1.0327 -0.2726
 7108SOL     OW32959   0.790   1.455   7.138  0.0657  0.5439 -0.2497
 7108SOL    HW132960   0.820   1.487   7.222  1.3022 -1.4783  0.0856
 7108SOL    HW232961   0.831   1.516   7.076 -0.2203  0.5978 -0.3852
 7109SOL     OW32962   0.556   3.811  14.893 -0.5658 -0.0037  0.1494
 7109SOL    HW132963   0.584   3.899  14.918 -4.1926  1.2700 -0.2225
 7109SOL    HW232964   0.613   3.756  14.947  1.1258  0.5399 -1.1024
 7110SOL     OW32965   0.196   3.481  11.385  0.7782  0.2703  0.0131
 7110SOL    HW132966   0.192   3.527  11.301  2.0040  0.6782  0.1775
 7110SOL    HW232967   0.291   3.464  11.384  0.8528  0.7046 -0.2264
 7111SOL     OW32968   0.630   1.676   9.398 -0.5116 -0.3328 -0.0016
 7111SOL    HW132969   0.644   1.657   9.491  0.9706  1.4751  0.1539
 7111SOL    HW232970   0.700   1.738   9.379  0.6405 -1.6272  0.0548
 7112SOL     OW32971   4.709   0.030   5.025 -0.3281 -0.0054  0.2831
 7112SOL    HW132972   4.670   0.100   4.973  0.7760  2.3100  2.5201
 7112SOL    HW232973   4.727   4.698   4.961 -0.0662  0.3582 -0.0383
 7113SOL     OW32974   1.678   1.354   6.022 -0.7200 -0.2165  0.0477
 7113SOL    HW132975   1.738   1.294   6.065 -1.2313  0.4948  1.7341
 7113SOL    HW232976   1.735   1.414   5.974  0.3790 -0.0469  1.5743
 7114SOL     OW32977   4.288   2.419   7.436 -0.6348 -0.2014 -0.4203
 7114SOL    HW132978   4.228   2.488   7.463  1.3269  0.8366  1.2286
 7114SOL    HW232979   4.234   2.347   7.402 -2.4247  1.2781 -0.7016
 7115SOL     OW32980   4.286   3.745   7.101 -0.0128  0.4873  0.4063
 7115SOL    HW132981   4.285   3.795   7.019 -0.6932  0.9290  0.6875
 7115SOL    HW232982   4.290   3.654   7.071 -1.1936  0.9557 -1.1366
 7116SOL     OW32983   4.108   4.511   1.528 -0.2572 -0.1796  0.1297
 7116SOL    HW132984   4.036   4.465   1.571 -1.9901  1.4784 -1.0020
 7116SOL    HW232985   4.180   4.470   1.576  0.1499  0.6179  0.1956
 7117SOL     OW32986   4.309   2.657   4.793  0.0785  0.3370 -0.0214
 7117SOL    HW132987   4.333   2.740   4.832 -0.1588 -0.0118  0.8689
 7117SOL    HW232988   4.221   2.676   4.759 -0.0724  0.0363  0.2024
 7118SOL     OW32989   3.187   1.703   4.248  0.1227 -0.5943 -0.0844
 7118SOL    HW132990   3.175   1.673   4.338 -1.3291  2.8264  0.8395
 7118SOL    HW232991   3.237   1.783   4.265 -1.1490  0.3493 -0.7902
 7119SOL     OW32992   4.089   4.312   2.494 -0.2197 -0.2745  0.7761
 7119SOL    HW132993   3.996   4.315   2.515 -0.5112 -1.3105 -0.4484
 7119SOL    HW232994   4.134   4.349   2.571 -1.2218  0.9351  0.7811
 7120SOL     OW32995   1.278   1.912   4.113 -0.4798  0.2210  0.5737
 7120SOL    HW132996   1.352   1.898   4.055 -0.5712  2.4261 -0.0747
 7120SOL    HW232997   1.219   1.873   4.049 -1.0801  2.0172  0.0065
 7121SOL     OW32998   3.046   3.020  12.950  0.1029 -0.0955 -0.2688
 7121SOL    HW132999   3.112   3.062  13.005 -1.4793  2.0319 -0.0231
 7121SOL    HW233000   3.102   2.953  12.912 -0.9048 -0.9807 -0.1831
 7122SOL     OW33001   1.819   1.277   4.326 -0.1228  0.6458  0.3532
 7122SOL    HW133002   1.852   1.318   4.406  1.4467 -0.5393  0.3210
 7122SOL    HW233003   1.869   1.323   4.259 -1.0524 -0.4413 -1.1105
 7123SOL     OW33004   3.645   1.749   6.889  0.3707 -0.2320 -0.3523
 7123SOL    HW133005   3.660   1.713   6.977 -2.5998 -2.7638 -0.9206
 7123SOL    HW233006   3.568   1.700   6.862  0.0204 -0.9692  1.9902
 7124SOL     OW33007   0.914   3.465   6.660 -0.1279  0.1170  0.1087
 7124SOL    HW133008   0.838   3.520   6.640  0.3821  2.2026  3.7928
 7124SOL    HW233009   0.869   3.397   6.710  1.0107  0.8251  2.0962
 7125SOL     OW33010   1.337   1.669   5.229 -0.0449 -0.2967 -0.3194
 7125SOL    HW133011   1.332   1.727   5.305 -1.7335  0.6354 -1.1462
 7125SOL    HW233012   1.373   1.727   5.162 -4.8669  1.2017 -1.6101
 7126SOL     OW33013   4.554   0.382  12.067 -0.1535 -0.0143  0.1579
 7126SOL    HW133014   4.514   0.402  11.983 -1.5660 -1.2324  0.5340
 7126SOL    HW233015   4.484   0.343  12.119  0.6455 -2.1909 -0.3836
 7127SOL     OW33016   4.146   3.447   5.833  0.2549  0.1429  0.0738
 7127SOL    HW133017   4.215   3.508   5.857  0.2665 -0.0422  0.5087
 7127SOL    HW233018   4.134   3.397   5.914  0.4525 -1.1403 -0.6886
 7128SOL     OW33019   2.881   1.818   2.253  1.0857  0.3441 -0.5842
 7128SOL    HW133020   2.827   1.743   2.228  1.1960  1.0905 -3.0336
 7128SOL    HW233021   2.814   1.884   2.271  0.2999  0.0130 -2.2354
 7129SOL     OW33022   3.673   2.364   5.666 -0.4730 -0.3801  0.0135
 7129SOL    HW133023   3.667   2.287   5.724 -2.6350 -1.8536 -2.1798
 7129SOL    HW233024   3.597   2.338   5.614  1.1978 -1.0219 -2.0756
 7130SOL     OW33025   3.786   2.068   3.845  0.3757  0.1796  0.4951
 7130SOL    HW133026   3.771   2.102   3.934 -2.1705 -3.2638  1.3618
 7130SOL    HW233027   3.699   2.036   3.824  0.4165  0.9146 -0.8148
 7131SOL     OW33028   4.376   3.127   3.476 -0.8912  0.4200 -0.1165
 7131SOL    HW133029   4.381   3.118   3.381 -0.6067  0.4666 -0.1059
 7131SOL    HW233030   4.318   3.203   3.478 -0.2765  0.8356  2.6588
 7132SOL     OW33031   2.509   2.962   9.456 -0.4475  0.0693 -0.0972
 7132SOL    HW133032   2.533   2.892   9.395  1.5005  0.6709 -0.0237
 7132SOL    HW233033   2.501   2.911   9.537 -0.7032  1.5361  0.7968
 7133SOL     OW33034   3.940   4.322   5.947  0.1882  0.5050  0.1167
 7133SOL    HW133035   3.966   4.288   5.861 -1.8443 -1.4034  0.2599
 7133SOL    HW233036   3.902   4.245   5.989  0.4698 -0.0839 -0.7114
 7134SOL     OW33037   3.591   0.777   3.022 -0.3782 -0.1825 -0.2630
 7134SOL    HW133038   3.638   0.839   2.967 -0.8276 -0.0224 -0.4621
 7134SOL    HW233039   3.580   0.833   3.099 -1.3841  0.2057 -0.6921
 7135SOL     OW33040   0.191   0.010   0.368 -0.1082 -0.4471  0.4923
 7135SOL    HW133041   0.198   0.101   0.341  0.8381 -0.4664  0.6755
 7135SOL    HW233042   0.136   0.013   0.447 -0.8625 -1.9404  0.0304
 7136SOL     OW33043   2.996   3.300   6.681 -0.1546 -0.2835 -0.6008
 7136SOL    HW133044   2.996   3.324   6.589  1.6268 -0.7623 -0.7245
 7136SOL    HW233045   2.922   3.241   6.696  0.9957 -1.5878 -0.0437
 7137SOL     OW33046   4.106   1.736   9.407 -0.6542 -0.1474  0.6260
 7137SOL    HW133047   4.065   1.819   9.432  0.6286  0.7768 -0.3358
 7137SOL    HW233048   4.021   1.696   9.388 -0.0200 -1.2318  0.0673
 7138SOL     OW33049   1.553   4.036   8.487  0.7706 -0.5098 -0.0312
 7138SOL    HW133050   1.486   4.067   8.427  0.5143  1.3596  1.2176
 7138SOL    HW233051   1.622   4.102   8.472 -0.9056  1.0546 -0.8049
 7139SOL     OW33052   3.112   0.178  10.244 -0.5852  0.2003  0.4039
 7139SOL    HW133053   3.120   0.274  10.245 -0.4531  0.1868  1.2653
 7139SOL    HW233054   3.202   0.147  10.253 -0.7359 -0.2924  0.2246
 7140SOL     OW33055   1.150   1.187  14.131  0.5616  0.1022  0.3567
 7140SOL    HW133056   1.164   1.098  14.163  2.4248  1.0466  2.1149
 7140SOL    HW233057   1.059   1.206  14.155  0.5958 -1.0305  1.3698
 7141SOL     OW33058   2.053   3.977   4.407  0.3520 -0.2327  0.0575
 7141SOL    HW133059   2.059   4.021   4.491  1.7200 -2.3447  1.0657
 7141SOL    HW233060   2.050   4.049   4.344  1.3741 -0.7573 -0.6091
 7142SOL     OW33061   2.776   2.833   5.823 -0.6258  0.4297  0.1792
 7142SOL    HW133062   2.694   2.876   5.800  0.3737  2.1752 -0.1277
 7142SOL    HW233063   2.818   2.829   5.738  0.2768 -1.5852  0.7154
 7143SOL     OW33064   3.007   2.320   2.245  0.2997  0.1062  0.0076
 7143SOL    HW133065   2.984   2.270   2.323 -1.0552  0.7925  0.0561
 7143SOL    HW233066   3.101   2.335   2.243  0.3682 -0.3910 -0.6298
 7144SOL     OW33067   0.113   0.498   1.670 -0.0588 -0.0223 -0.1104
 7144SOL    HW133068   0.098   0.451   1.588 -0.2903 -0.2311  0.0549
 7144SOL    HW233069   0.071   0.578   1.638  1.0007  0.4368 -0.3750
 7145SOL     OW33070   1.801   4.647   7.954 -0.1116  0.7725 -0.1679
 7145SOL    HW133071   1.815   4.597   8.035 -1.8558  2.2073  1.0246
 7145SOL    HW233072   1.769   4.725   7.999 -1.3116  0.6696 -0.8282
 7146SOL     OW33073   3.042   2.475   4.096 -0.4923 -0.3165 -0.5841
 7146SOL    HW133074   3.030   2.421   4.018  1.1284  0.1528 -1.1714
 7146SOL    HW233075   2.953   2.497   4.123 -1.5354 -2.3415 -2.3612
 7147SOL     OW33076   3.536   0.197   3.498  0.3651  0.2705  0.5036
 7147SOL    HW133077   3.623   0.161   3.482  0.0195 -1.1807  1.9776
 7147SOL    HW233078   3.501   0.136   3.563 -0.2391  0.0185 -0.0509
 7148SOL     OW33079   1.603   3.430   1.774  0.4589  0.2991 -0.0068
 7148SOL    HW133080   1.531   3.378   1.809  2.0463 -0.9119  1.4462
 7148SOL    HW233081   1.665   3.368   1.735 -0.7253  0.4036 -2.0369
 7149SOL     OW33082   4.179   2.162  15.207  0.0935 -0.3986 -0.0670
 7149SOL    HW133083   4.178   2.071  15.177 -0.8192 -0.2835 -0.3602
 7149SOL    HW233084   4.088   2.171  15.235 -0.1208 -1.8641 -0.2710
 7150SOL     OW33085   0.733   1.722   2.620  0.0752  0.2885 -0.2149
 7150SOL    HW133086   0.706   1.752   2.533  2.0565 -0.5785 -1.1354
 7150SOL    HW233087   0.663   1.674   2.663 -0.9600  0.9156 -1.1850
 7151SOL     OW33088   3.784   2.740   5.728 -0.6001  0.0797  0.2310
 7151SOL    HW133089   3.804   2.815   5.784 -1.3351  0.8955 -0.5976
 7151SOL    HW233090   3.719   2.699   5.785  0.6990 -1.5470  0.5454
 7152SOL     OW33091   2.727   4.440   1.098 -0.5590 -0.0187 -0.4910
 7152SOL    HW133092   2.791   4.374   1.124  0.7017  0.2529 -3.0045
 7152SOL    HW233093   2.765   4.522   1.130 -1.7593  0.4033 -0.1312
 7153SOL     OW33094   2.935   2.927   6.032 -0.0579  0.1198 -0.7342
 7153SOL    HW133095   2.905   2.886   5.951 -0.2630 -1.9368  0.3949
 7153SOL    HW233096   2.849   2.946   6.069  1.7677  1.1632  2.9546
 7154SOL     OW33097   1.750   2.740   6.470  0.3896  0.2414  0.3109
 7154SOL    HW133098   1.773   2.660   6.517  0.3417  0.4976  0.7780
 7154SOL    HW233099   1.799   2.801   6.525  1.4665  0.5529 -1.0067
 7155SOL     OW33100   4.198   4.185   1.367 -0.3236  0.0603  0.5951
 7155SOL    HW133101   4.141   4.111   1.348 -0.0120 -0.3817  1.3823
 7155SOL    HW233102   4.220   4.229   1.284 -0.5284  0.5311  0.7945
 7156SOL     OW33103   4.160   1.372   5.796  0.1055  0.6430  0.0131
 7156SOL    HW133104   4.156   1.414   5.882 -1.2136  2.1889 -0.8227
 7156SOL    HW233105   4.071   1.396   5.769  0.1388 -0.6492 -1.2840
 7157SOL     OW33106   0.332   3.401   6.970 -0.2362 -0.0205 -0.4505
 7157SOL    HW133107   0.260   3.452   6.933  1.4630  0.7817 -2.6649
 7157SOL    HW233108   0.320   3.397   7.065 -0.1726 -1.0413 -0.4855
 7158SOL     OW33109   0.525   4.654  13.585  0.1710  0.1564 -0.1814
 7158SOL    HW133110   0.553   4.696  13.667 -0.1672  1.8446 -0.9357
 7158SOL    HW233111   0.609   4.668  13.542  0.5191 -0.1086  0.4057
 7159SOL     OW33112   2.952   1.720   3.094 -0.2962 -0.3099  0.1476
 7159SOL    HW133113   2.943   1.644   3.152 -1.1520 -1.1500 -1.0816
 7159SOL    HW233114   3.045   1.743   3.085  0.0628 -1.3534  1.2465
 7160SOL     OW33115   2.618   2.511   3.376 -0.2386  0.0323  0.4439
 7160SOL    HW133116   2.580   2.429   3.343  2.9242 -1.9363  1.7658
 7160SOL    HW233117   2.592   2.580   3.315  1.6412  0.4169  0.0804
 7161SOL     OW33118   3.772   0.844   6.444  0.5538  0.9220 -0.3145
 7161SOL    HW133119   3.750   0.834   6.351  1.9556 -1.1962 -0.4277
 7161SOL    HW233120   3.776   0.753   6.475 -0.6023  0.1286 -2.5043
 7162SOL     OW33121   2.348   0.145   2.978  0.0202 -0.1133 -0.7656
 7162SOL    HW133122   2.390   0.230   2.966 -2.9225  0.9657 -3.3194
 7162SOL    HW233123   2.420   0.083   2.967  0.0728 -0.2843  0.5922
 7163SOL     OW33124   4.598   1.587   6.330 -0.1195 -0.3424  0.0734
 7163SOL    HW133125   4.521   1.532   6.346  1.0418 -1.1128  3.1248
 7163SOL    HW233126   4.558   1.670   6.357 -0.3680 -0.1562 -0.8839
 7164SOL     OW33127   1.025   1.071   0.507 -0.4449  0.7461 -0.0749
 7164SOL    HW133128   1.073   1.051   0.587 -0.8362 -0.3727 -0.1299
 7164SOL    HW233129   0.953   1.009   0.500  1.9270 -1.5448 -4.2073
 7165SOL     OW33130   2.432   1.267   7.833 -0.5899  0.0974  0.0625
 7165SOL    HW133131   2.434   1.226   7.919  0.3676 -2.0153 -0.9584
 7165SOL    HW233132   2.521   1.302   7.825 -0.8845  0.8421  0.0833
 7166SOL     OW33133   3.046   1.770   6.472  0.2701 -0.1587 -0.1495
 7166SOL    HW133134   3.017   1.688   6.512 -1.5509  1.2222  1.3898
 7166SOL    HW233135   3.018   1.827   6.544  1.9743 -0.8711  1.0659
 7167SOL     OW33136   4.140   4.432   3.674  0.3976 -0.2319 -0.2501
 7167SOL    HW133137   4.128   4.341   3.646 -0.3443  0.2715 -1.5790
 7167SOL    HW233138   4.216   4.430   3.732  0.2925 -0.1008 -0.1073
 7168SOL     OW33139   1.961   2.923   3.250  0.2885  0.1802  0.0636
 7168SOL    HW133140   1.903   2.980   3.198 -0.8759 -2.2245 -1.2671
 7168SOL    HW233141   2.039   2.922   3.195 -0.5355 -1.3772 -1.0826
 7169SOL     OW33142   0.400   2.424   3.909 -0.2068 -0.3551  0.6236
 7169SOL    HW133143   0.345   2.501   3.892 -2.0370 -2.2621 -2.1066
 7169SOL    HW233144   0.332   2.365   3.940 -3.0615  2.9187  0.6075
 7170SOL     OW33145   2.722   3.544  15.332  0.7776 -0.3632 -0.7781
 7170SOL    HW133146   2.704   3.537  15.238  0.9788 -0.6797 -0.7967
 7170SOL    HW233147   2.629   3.546  15.354  0.8185 -0.6180 -0.5857
 7171SOL     OW33148   3.864   0.630   9.007  0.4435  0.3938  0.0714
 7171SOL    HW133149   3.937   0.675   8.964  1.1122 -0.7594  0.0202
 7171SOL    HW233150   3.797   0.697   9.019  0.9984  0.9206  0.2903
 7172SOL     OW33151   3.222   0.384   7.076  0.2763  0.1018 -0.3497
 7172SOL    HW133152   3.250   0.464   7.030 -0.7560 -0.7222 -2.3875
 7172SOL    HW233153   3.294   0.373   7.139  0.6212  1.2413 -0.5424
 7173SOL     OW33154   0.569   1.880   3.343  0.4806  0.3005  0.2008
 7173SOL    HW133155   0.562   1.938   3.419  1.5188  3.3056 -1.9586
 7173SOL    HW233156   0.504   1.933   3.297  1.4182  1.5181  0.2680
 7174SOL     OW33157   1.463   3.434   0.161  0.3904 -0.3173 -0.5573
 7174SOL    HW133158   1.548   3.449   0.201  0.1436 -1.9886  0.6016
 7174SOL    HW233159   1.481   3.468   0.073  3.5124 -2.7839 -0.8693
 7175SOL     OW33160   4.600   2.706   7.627 -0.1325  0.1000 -0.3278
 7175SOL    HW133161   4.537   2.694   7.699  1.7325  0.2404  1.3138
 7175SOL    HW233162   4.604   2.801   7.621 -1.8287  0.2660  1.2276
 7176SOL     OW33163   1.351   3.043  14.909  0.2401 -0.6691 -0.5233
 7176SOL    HW133164   1.363   3.138  14.902 -0.7521 -0.4062  1.4668
 7176SOL    HW233165   1.436   3.013  14.941  0.4107 -0.2936 -0.6217
 7177SOL     OW33166   1.275   1.424   4.974 -0.6743  0.5913 -0.1559
 7177SOL    HW133167   1.194   1.429   5.024  1.8784 -1.0964  4.1438
 7177SOL    HW233168   1.329   1.497   5.006  0.8527  0.0316 -1.4763
 7178SOL     OW33169   1.223   4.364  11.162 -0.1744 -0.0765  0.1327
 7178SOL    HW133170   1.129   4.383  11.162 -0.0380  0.6033  0.9816
 7178SOL    HW233171   1.255   4.454  11.161  1.8284 -0.8134 -0.7269
 7179SOL     OW33172   0.279   3.313   1.482 -0.4165  0.0477 -0.8058
 7179SOL    HW133173   0.355   3.321   1.539  0.1536  0.9229 -1.7090
 7179SOL    HW233174   0.330   3.318   1.401  0.2281 -2.2332 -0.5347
 7180SOL     OW33175   1.141   4.668   2.212  0.4389  0.1060 -0.2117
 7180SOL    HW133176   1.205   4.650   2.280  0.6707 -0.2401 -0.5194
 7180SOL    HW233177   1.200   4.671   2.137 -0.7046  2.5899 -0.9947
 7181SOL     OW33178   0.688   2.997   6.325 -0.4055  0.2130  0.6220
 7181SOL    HW133179   0.718   2.926   6.268 -1.1349 -1.3734  2.2261
 7181SOL    HW233180   0.604   2.954   6.341 -0.9243  1.2794  0.7661
 7182SOL     OW33181   2.569   4.696   2.953  0.2192 -0.1127  0.0734
 7182SOL    HW133182   2.578   4.602   2.934 -1.3069  0.1474 -1.9981
 7182SOL    HW233183   2.635   4.726   2.890 -1.3853 -0.4963 -1.7849
 7183SOL     OW33184   1.793   4.122   6.082  0.8203  0.4046 -0.0142
 7183SOL    HW133185   1.719   4.062   6.090  0.8831  0.5546  1.7115
 7183SOL    HW233186   1.850   4.083   6.016  0.0983  1.2073 -1.1063
 7184SOL     OW33187   0.040   1.613   2.964  0.2912 -0.3407 -0.2003
 7184SOL    HW133188   0.122   1.659   2.952 -0.8061  0.9032 -2.8858
 7184SOL    HW233189   0.013   1.639   3.052 -0.8879  0.0898 -0.6802
 7185SOL     OW33190   2.065   2.673   7.888 -0.3829  0.1705 -0.3467
 7185SOL    HW133191   1.973   2.678   7.916 -1.0692 -0.1353 -2.5028
 7185SOL    HW233192   2.069   2.743   7.823  2.3229  0.0208 -0.3285
 7186SOL     OW33193   0.088   4.460   3.788 -0.0366 -0.1526  0.0305
 7186SOL    HW133194   0.153   4.401   3.828 -0.9305  1.0367  3.2888
 7186SOL    HW233195   0.012   4.421   3.832 -0.7796 -0.4554 -1.5114
 7187SOL     OW33196   2.045   1.566   2.975 -0.3301 -0.6969 -0.2484
 7187SOL    HW133197   2.100   1.491   2.996 -0.2222  0.0076  2.0991
 7187SOL    HW233198   1.960   1.524   2.961 -1.8617  1.4413  2.4783
 7188SOL     OW33199   3.629   2.163   9.442 -0.4077 -0.1585 -0.1303
 7188SOL    HW133200   3.541   2.189   9.468  0.1152  0.7286  0.7339
 7188SOL    HW233201   3.622   2.067   9.436  0.1600 -0.2167  0.1230
 7189SOL     OW33202   2.395   4.624  16.742 -0.0625  0.4717 -0.2506
 7189SOL    HW133203   2.462   4.556  16.735 -0.0082  0.8362 -3.1193
 7189SOL    HW233204   2.439   4.690  16.796 -1.0018  1.3769 -0.5874
 7190SOL     OW33205   4.071   2.905  14.842  0.3005  0.1265 -0.0299
 7190SOL    HW133206   4.032   2.848  14.776 -0.9260  0.8004  0.1094
 7190SOL    HW233207   4.013   2.982  14.841  1.3218  0.9257  2.5121
 7191SOL     OW33208   1.548   3.905  11.102 -0.0920 -0.0430 -0.2683
 7191SOL    HW133209   1.532   3.999  11.093 -0.3809 -0.2793 -2.2378
 7191SOL    HW233210   1.465   3.871  11.137 -1.6043  2.2589 -1.6169
 7192SOL     OW33211   4.531   3.043  14.752 -0.2229  0.0117 -0.3848
 7192SOL    HW133212   4.581   3.116  14.786 -0.5904  0.7507 -1.4293
 7192SOL    HW233213   4.449   3.040  14.802  0.5690 -2.1849  0.7672
 7193SOL     OW33214   1.090   0.848   4.858  0.1126 -0.2881 -0.1108
 7193SOL    HW133215   1.128   0.785   4.920  1.2646 -0.0652 -0.5963
 7193SOL    HW233216   1.138   0.823   4.779  0.4034  3.2733 -1.0285
 7194SOL     OW33217   1.161   1.640   1.156  0.9911  0.5121  0.3612
 7194SOL    HW133218   1.108   1.713   1.186 -0.1026  0.4336 -1.3392
 7194SOL    HW233219   1.228   1.684   1.104  0.3502  1.1262  0.0433
 7195SOL     OW33220   3.200   3.472   1.680 -0.3015  0.3532 -0.4371
 7195SOL    HW133221   3.131   3.425   1.729  0.5529 -1.2111 -0.7401
 7195SOL    HW233222   3.276   3.468   1.738 -0.5028 -0.0808 -0.1945
 7196SOL     OW33223   2.749   1.025   7.637 -0.2694  0.7585 -0.9265
 7196SOL    HW133224   2.684   0.969   7.679  1.5963 -1.4424 -0.9517
 7196SOL    HW233225   2.734   1.004   7.545 -1.7453 -2.2342  0.0052
 7197SOL     OW33226   3.254   4.418   8.584  0.5300 -0.0202 -0.3205
 7197SOL    HW133227   3.311   4.342   8.595  0.6919  0.1664  0.1387
 7197SOL    HW233228   3.307   4.487   8.623  0.3421  0.3668 -0.7539
 7198SOL     OW33229   4.556   1.160  16.974 -0.3778  0.1382 -0.3448
 7198SOL    HW133230   4.580   1.243  17.016 -0.8648  1.0970 -1.9479
 7198SOL    HW233231   4.633   1.104  16.984 -1.1110 -1.1389 -1.8078
 7199SOL     OW33232   2.082   1.021   8.271  0.2877 -0.8191  0.4604
 7199SOL    HW133233   2.125   1.009   8.186 -0.8739 -0.2905 -0.1994
 7199SOL    HW233234   2.157   1.003   8.328  1.3262 -0.3739 -0.7662
 7200SOL     OW33235   0.124   2.308  16.471 -0.5548 -0.2828  0.1906
 7200SOL    HW133236   0.045   2.286  16.521 -1.4346  1.3045 -0.5159
 7200SOL    HW233237   0.135   2.235  16.410 -1.1707 -0.4503  0.2820
 7201SOL     OW33238   0.155   1.006   4.750 -0.0007  0.4486  0.5643
 7201SOL    HW133239   0.087   1.073   4.739 -1.6268 -1.0122  1.8433
 7201SOL    HW233240   0.195   1.040   4.830  0.6985 -0.1945  0.4831
 7202SOL     OW33241   2.652   3.892   8.566  0.5916 -0.0260 -0.2963
 7202SOL    HW133242   2.663   3.871   8.474  2.5419  0.0365 -0.0808
 7202SOL    HW233243   2.625   3.806   8.596 -0.9547  0.6771  0.3571
 7203SOL     OW33244   3.651   3.015   8.871 -0.3119 -0.7307  0.3190
 7203SOL    HW133245   3.615   3.023   8.959  0.0149 -0.3439  0.4189
 7203SOL    HW233246   3.621   3.093   8.824  0.2894 -2.0690 -2.2808
 7204SOL     OW33247   2.183   2.617   5.610 -0.1079 -0.2932  0.2373
 7204SOL    HW133248   2.099   2.574   5.626  0.1914 -0.7913  0.4616
 7204SOL    HW233249   2.197   2.672   5.687 -1.4369  0.9650 -0.4190
 7205SOL     OW33250   4.014   3.091  11.987 -0.1146  0.0427 -0.1418
 7205SOL    HW133251   4.053   3.171  12.023 -0.1729  0.1813 -0.3861
 7205SOL    HW233252   4.094   3.041  11.971  0.0726  0.8309 -1.7233
 7206SOL     OW33253   4.368   0.433  15.366 -0.0058 -0.4003 -0.0550
 7206SOL    HW133254   4.313   0.425  15.444 -0.0141  1.3644  0.1149
 7206SOL    HW233255   4.439   0.485  15.404  1.1657  0.0724 -2.8742
 7207SOL     OW33256   0.640   0.548  16.290  0.0550  0.0296  0.3086
 7207SOL    HW133257   0.552   0.525  16.261 -0.4101  0.6631  1.2083
 7207SOL    HW233258   0.646   0.642  16.272  2.0039  0.1251  1.5361
 7208SOL     OW33259   3.515   3.722   9.102 -0.0527 -0.4961  0.1369
 7208SOL    HW133260   3.462   3.662   9.049  1.4584 -0.4143 -1.4329
 7208SOL    HW233261   3.504   3.692   9.193  1.1669  0.6127  0.6456
 7209SOL     OW33262   3.233   3.460   0.393 -0.2617 -0.1041 -0.1677
 7209SOL    HW133263   3.222   3.386   0.334 -0.3722 -1.7334  1.8974
 7209SOL    HW233264   3.188   3.419   0.466 -0.2892 -2.7182 -1.6687
 7210SOL     OW33265   2.970   0.932  16.367 -0.3319 -0.2324 -0.2816
 7210SOL    HW133266   2.982   0.872  16.441  1.1848  0.3208 -0.0673
 7210SOL    HW233267   2.928   0.875  16.303  1.1711 -2.0975  0.3523
 7211SOL     OW33268   4.201   3.598  15.451 -0.0825  0.0309  0.1633
 7211SOL    HW133269   4.280   3.650  15.438 -1.1309  1.6567  0.2136
 7211SOL    HW233270   4.199   3.546  15.371 -0.3711 -0.6813  0.6410
 7212SOL     OW33271   0.427   3.035  15.950  0.5457 -0.2426 -0.1718
 7212SOL    HW133272   0.431   2.984  16.031 -2.3603 -0.8135 -0.4190
 7212SOL    HW233273   0.519   3.057  15.933 -0.5905  2.0316 -3.3236
 7213SOL     OW33274   0.530   4.221  15.660  0.0480 -0.5676  0.3186
 7213SOL    HW133275   0.436   4.206  15.673 -0.1951  0.1953 -0.6506
 7213SOL    HW233276   0.566   4.150  15.714 -0.1383 -2.7186 -2.4022
 7214SOL     OW33277   3.520   4.346  11.218 -0.0776 -0.1269 -0.2321
 7214SOL    HW133278   3.509   4.280  11.150 -1.8975  0.4829 -0.5371
 7214SOL    HW233279   3.429   4.374  11.229 -0.1965 -0.6159  0.0215
 7215SOL     OW33280   4.694   3.049  15.923  0.2805  0.8295 -0.4458
 7215SOL    HW133281   0.029   2.986  15.922 -1.2815 -0.9396 -0.8911
 7215SOL    HW233282   4.618   2.991  15.920 -0.2413  1.3771  1.6687
 7216SOL     OW33283   1.218   0.366   8.258  0.0079  0.2921  0.0978
 7216SOL    HW133284   1.274   0.290   8.240  0.3739 -0.0424  2.5721
 7216SOL    HW233285   1.265   0.440   8.220  2.3112 -0.4000  1.5322
 7217SOL     OW33286   0.166   0.893   8.659 -0.4715  0.3898  0.6962
 7217SOL    HW133287   0.167   0.809   8.706 -0.4500 -0.2064 -0.3590
 7217SOL    HW233288   0.081   0.893   8.616 -1.5114 -0.4315  2.7615
 7218SOL     OW33289   0.105   3.643   3.629  0.1796 -0.1486 -0.0273
 7218SOL    HW133290   0.175   3.588   3.664  0.1079 -1.6006 -2.1180
 7218SOL    HW233291   0.037   3.577   3.612 -1.0483  1.4600 -1.3206
 7219SOL     OW33292   2.491   0.454   5.715  0.1504  0.1074  0.8356
 7219SOL    HW133293   2.426   0.404   5.765 -0.1642 -0.7201 -0.4058
 7219SOL    HW233294   2.553   0.468   5.786 -0.2859 -0.0773  1.2595
 7220SOL     OW33295   0.390   1.498   4.701 -0.1173  0.0028  0.2337
 7220SOL    HW133296   0.333   1.574   4.691 -0.2469 -0.0131  0.8359
 7220SOL    HW233297   0.428   1.502   4.613  1.5992 -1.4046  0.9187
 7221SOL     OW33298   0.556   1.886   7.438  0.5600 -0.9628 -0.3441
 7221SOL    HW133299   0.609   1.891   7.358 -0.1048  2.1311 -0.5952
 7221SOL    HW233300   0.499   1.810   7.425  0.5731 -1.0000 -0.1875
 7222SOL     OW33301   0.598   1.802  13.206 -0.5414  0.6012  0.1635
 7222SOL    HW133302   0.692   1.812  13.193  0.2865 -2.2219  4.0677
 7222SOL    HW233303   0.587   1.881  13.258  0.4055  1.8840 -1.5586
 7223SOL     OW33304   3.210   1.272   5.152  0.0099 -0.0806  0.0498
 7223SOL    HW133305   3.304   1.257   5.162 -0.0425  0.1919  1.0249
 7223SOL    HW233306   3.194   1.195   5.098  1.2536 -0.0348 -0.3883
 7224SOL     OW33307   0.310   2.925   0.892  0.7625 -0.7157 -0.4095
 7224SOL    HW133308   0.339   2.935   0.802  0.3066  1.1231 -0.3434
 7224SOL    HW233309   0.358   2.997   0.931 -1.1129  0.5756 -0.4810
 7225SOL     OW33310   0.780   3.413   2.235 -0.5760  0.4062  0.3498
 7225SOL    HW133311   0.695   3.369   2.238 -0.9879  1.2882  1.4161
 7225SOL    HW233312   0.802   3.426   2.327  1.2179  2.6844 -0.4066
 7226SOL     OW33313   1.660   3.663   6.400  0.3046  0.0592  0.0892
 7226SOL    HW133314   1.727   3.714   6.444 -0.9037  0.7621  1.0832
 7226SOL    HW233315   1.641   3.598   6.468 -2.0238 -0.3477 -0.9337
 7227SOL     OW33316   2.868   3.472   0.792  0.1689  0.4559  0.0044
 7227SOL    HW133317   2.807   3.404   0.765 -1.4862  1.7234  0.5555
 7227SOL    HW233318   2.854   3.470   0.886  1.5729 -0.3092  0.1989
 7228SOL     OW33319   2.087   1.970  14.866 -0.3236  0.2000 -0.2708
 7228SOL    HW133320   2.061   1.882  14.839  0.6423  0.5385 -2.2727
 7228SOL    HW233321   2.028   2.036  14.830 -2.1567 -2.5413 -2.2755
 7229SOL     OW33322   2.557   4.315   1.364 -0.6950 -0.1547  0.1009
 7229SOL    HW133323   2.474   4.287   1.324 -0.3577 -2.1571  0.7677
 7229SOL    HW233324   2.532   4.401   1.397  1.8352  0.0104  1.6041
 7230SOL     OW33325   0.724   1.636   6.553 -0.9232  0.8607  0.1224
 7230SOL    HW133326   0.700   1.544   6.540  1.2930  0.1938  0.7731
 7230SOL    HW233327   0.702   1.672   6.467  0.0650  0.6080 -0.2356
 7231SOL     OW33328   0.853   0.195   4.180 -0.3197 -0.0515  0.6722
 7231SOL    HW133329   0.848   0.100   4.171 -1.7657 -0.0758  1.8618
 7231SOL    HW233330   0.762   0.215   4.203 -0.6107 -1.3726  0.6585
 7232SOL     OW33331   2.281   0.966  13.076  0.1662 -0.0457  0.9825
 7232SOL    HW133332   2.207   0.966  13.014  0.0666  2.2238  1.1096
 7232SOL    HW233333   2.346   0.908  13.036  1.3645  1.7077  0.4308
 7233SOL     OW33334   3.801   3.670   6.757  0.0071 -0.0339 -0.1865
 7233SOL    HW133335   3.781   3.593   6.809 -1.5298 -1.1438 -2.4065
 7233SOL    HW233336   3.835   3.628   6.678 -1.8096  2.6218 -2.3986
 7234SOL     OW33337   1.485   0.496  17.227 -0.5364  0.2712 -0.3419
 7234SOL    HW133338   1.482   0.458  17.315 -1.3778  0.0061 -0.4897
 7234SOL    HW233339   1.437   0.432  17.175  0.0747 -0.8050  0.4192
 7235SOL     OW33340   3.588   2.038   2.858  0.0614  0.5537 -0.2089
 7235SOL    HW133341   3.587   1.946   2.831 -0.9800  0.0198  1.6241
 7235SOL    HW233342   3.507   2.050   2.907  1.3717  1.3322  1.7574
 7236SOL     OW33343   2.412   3.826   7.857 -0.3641  0.2042  1.0843
 7236SOL    HW133344   2.469   3.818   7.781  0.7834  2.7958  1.6633
 7236SOL    HW233345   2.384   3.918   7.855  1.8333  0.8143 -0.8736
 7237SOL     OW33346   0.231   1.939   9.486 -0.3040 -0.5704  0.9055
 7237SOL    HW133347   0.272   1.997   9.550  1.9560 -2.7341  1.3932
 7237SOL    HW233348   0.143   1.975   9.499 -0.6352 -0.5401 -1.4483
 7238SOL     OW33349   2.536   4.689  11.562  0.3404 -0.0202  0.2474
 7238SOL    HW133350   2.589   0.014  11.611 -2.0175 -0.1074  2.8979
 7238SOL    HW233351   2.475   0.011  11.518  0.5004 -1.4386 -1.8652
 7239SOL     OW33352   4.699   1.338   5.672 -0.2479  0.1427 -0.7586
 7239SOL    HW133353   4.636   1.403   5.641 -0.0498  0.6284 -0.1301
 7239SOL    HW233354   4.681   1.345   5.765  2.1743 -0.9951 -0.2090
 7240SOL     OW33355   4.698   1.798   8.891 -0.0092 -0.1325  0.2255
 7240SOL    HW133356   4.731   1.868   8.948  0.1588 -0.6302  0.7462
 7240SOL    HW233357   4.688   1.726   8.955  0.6015  0.1231  0.6185
 7241SOL     OW33358   4.690   2.411   8.292  0.8050  0.3598  0.1824
 7241SOL    HW133359   0.039   2.392   8.255  0.9157  1.7272 -0.2543
 7241SOL    HW233360   4.704   2.407   8.386  0.2695 -0.6420  0.2144
 7242SOL     OW33361   1.369   0.717   4.986 -0.3493  0.2904 -0.1206
 7242SOL    HW133362   1.345   0.805   5.015 -2.3061 -0.1731 -0.3376
 7242SOL    HW233363   1.303   0.658   5.022 -0.5542  1.2891  1.1279
 7243SOL     OW33364   1.594   0.454   0.553 -0.7584  0.0224 -0.2817
 7243SOL    HW133365   1.500   0.468   0.563 -0.8995  0.1516 -1.8137
 7243SOL    HW233366   1.608   0.428   0.644 -1.0906 -0.8051 -0.4647
 7244SOL     OW33367   4.365   3.925   6.194 -0.4631 -0.3712 -0.4807
 7244SOL    HW133368   4.379   3.947   6.286 -3.5746  0.5474 -0.2128
 7244SOL    HW233369   4.423   3.849   6.186  0.0960  0.1329 -1.2959
 7245SOL     OW33370   3.701   1.261   7.478 -0.4595 -0.0490  0.6253
 7245SOL    HW133371   3.697   1.294   7.388  1.0140 -0.4447  0.4096
 7245SOL    HW233372   3.641   1.187   7.470  1.2036 -1.1441 -1.7720
 7246SOL     OW33373   1.207   2.731   9.339  0.7689  0.4266  0.0774
 7246SOL    HW133374   1.190   2.653   9.287  2.1398  0.4546 -0.4109
 7246SOL    HW233375   1.140   2.784   9.296  0.7469  1.1616  0.9968
 7247SOL     OW33376   0.898   0.942   6.025 -0.1322  0.0168  0.0220
 7247SOL    HW133377   0.921   1.011   5.962  1.2264  0.2071  0.7372
 7247SOL    HW233378   0.917   0.863   5.974  2.3472  0.8086 -0.2928
 7248SOL     OW33379   0.608   4.146   3.520 -0.5395 -0.0315 -0.5742
 7248SOL    HW133380   0.644   4.157   3.608  1.9017  1.5170 -1.7405
 7248SOL    HW233381   0.514   4.145   3.538 -0.5388 -1.8494 -0.6913
 7249SOL     OW33382   1.801   0.229   5.507 -0.6026 -0.8362  0.2749
 7249SOL    HW133383   1.740   0.190   5.444  1.8476  1.8790 -3.8134
 7249SOL    HW233384   1.816   0.319   5.480 -1.8643 -0.1962  1.7123
 7250SOL     OW33385   2.656   3.176   7.552 -0.7146  0.3905 -0.1104
 7250SOL    HW133386   2.683   3.266   7.565 -0.8710  0.4393 -0.1232
 7250SOL    HW233387   2.617   3.164   7.638  0.0933  1.4722  0.3958
 7251SOL     OW33388   3.771   0.483   8.070 -0.1905 -0.3200  0.1994
 7251SOL    HW133389   3.865   0.488   8.088 -0.5618  1.4760  1.6621
 7251SOL    HW233390   3.765   0.397   8.028  1.4017  0.1797 -1.0727
 7252SOL     OW33391   3.653   0.671   9.586  0.5424  0.4698 -0.3721
 7252SOL    HW133392   3.593   0.711   9.648  1.2374 -0.5658  0.9763
 7252SOL    HW233393   3.605   0.654   9.505  0.2302  0.6469 -0.2227
 7253SOL     OW33394   4.445   3.964   6.469 -0.0330 -0.1671  0.1619
 7253SOL    HW133395   4.415   3.950   6.559 -0.1528  2.7852  0.5758
 7253SOL    HW233396   4.537   3.941   6.473  0.7936  2.9722 -0.8996
 7254SOL     OW33397   1.130   3.082   7.721 -0.4269  0.6808  0.4928
 7254SOL    HW133398   1.196   3.145   7.694 -1.9408  1.9703 -0.1731
 7254SOL    HW233399   1.057   3.134   7.690 -2.5231 -2.0920  0.7183
 7255SOL     OW33400   3.504   1.588   7.800 -0.0008 -0.7378  0.2066
 7255SOL    HW133401   3.512   1.519   7.866  0.3848 -0.2141  0.7083
 7255SOL    HW233402   3.516   1.539   7.719  0.5482 -0.5080  0.1544
 7256SOL     OW33403   4.200   2.476   6.906  0.3574  0.2641 -0.0023
 7256SOL    HW133404   4.132   2.506   6.845 -0.4493 -1.6146 -0.0149
 7256SOL    HW233405   4.261   2.443   6.840 -0.8729 -1.6270 -0.2025
 7257SOL     OW33406   1.285   2.582  12.129  0.0630  0.1782 -0.0177
 7257SOL    HW133407   1.291   2.516  12.198 -0.7842  1.4221  1.2790
 7257SOL    HW233408   1.322   2.542  12.051  2.4881 -0.6628  1.5881
 7258SOL     OW33409   2.104   1.120   3.475  0.4713  0.2048  0.7453
 7258SOL    HW133410   2.193   1.149   3.493  0.9493 -0.9527  0.2794
 7258SOL    HW233411   2.047   1.162   3.539  0.3334 -1.3423  1.6467
 7259SOL     OW33412   2.848   3.852   3.384 -0.7358 -0.3359  0.7602
 7259SOL    HW133413   2.808   3.933   3.413  0.3153  0.6615 -0.5974
 7259SOL    HW233414   2.866   3.803   3.464 -2.1505 -2.7475 -0.3706
 7260SOL     OW33415   0.178   3.606  13.569  0.1674 -0.3330  0.3561
 7260SOL    HW133416   0.223   3.683  13.536 -0.9311  0.3269  0.3998
 7260SOL    HW233417   0.188   3.542  13.499 -3.0771 -0.3318 -0.1225
 7261SOL     OW33418   2.364   4.482   4.034 -0.1923  0.0564 -0.5014
 7261SOL    HW133419   2.375   4.446   3.946  0.0652  1.6014 -1.1133
 7261SOL    HW233420   2.324   4.406   4.076 -1.3275 -0.0181 -1.7326
 7262SOL     OW33421   0.795   3.059   5.134  0.0020  0.1878  0.8349
 7262SOL    HW133422   0.746   3.053   5.052  0.8645 -2.9415  0.5521
 7262SOL    HW233423   0.884   3.086   5.109 -0.1002  0.5969  0.9042
 7263SOL     OW33424   3.516   4.617   1.055  0.3516  0.2129  0.0813
 7263SOL    HW133425   3.432   4.587   1.089  1.0671  0.3506  1.9600
 7263SOL    HW233426   3.556   4.682   1.113 -1.6130  1.6678 -0.2341
 7264SOL     OW33427   3.633   4.687   4.636  0.5137 -0.1470  0.2845
 7264SOL    HW133428   3.709   4.657   4.685 -0.1279  0.5105  1.6889
 7264SOL    HW233429   3.619   4.601   4.596  1.0480  0.1100 -0.4348
 7265SOL     OW33430   4.519   2.501   9.261 -0.2165 -0.0864  0.0695
 7265SOL    HW133431   4.467   2.451   9.200  0.5383 -3.7375  2.4050
 7265SOL    HW233432   4.475   2.586   9.263 -1.3925 -0.7167  0.3952
 7266SOL     OW33433   2.535   0.334   2.914 -0.6771  0.5214  0.5075
 7266SOL    HW133434   2.627   0.342   2.890 -0.7632  1.4471  0.4851
 7266SOL    HW233435   2.535   0.389   2.992 -1.2487  1.4435 -0.1458
 7267SOL     OW33436   2.234   0.572   8.202 -0.2552  0.6218  0.1118
 7267SOL    HW133437   2.219   0.510   8.274 -1.1811  2.0137  1.1048
 7267SOL    HW233438   2.319   0.543   8.168 -0.8494  0.6045 -1.3264
 7268SOL     OW33439   1.331   3.777  14.433 -0.7112 -0.3959  0.3392
 7268SOL    HW133440   1.316   3.757  14.341 -0.6274  0.1936  0.2013
 7268SOL    HW233441   1.272   3.853  14.438 -0.0487 -0.0855  3.5250
 7269SOL     OW33442   0.068   3.037  14.662  0.3751 -0.2726  0.5050
 7269SOL    HW133443   0.077   3.131  14.676 -0.5590 -0.0915 -0.1242
 7269SOL    HW233444   4.721   3.027  14.706  0.0784  0.4898  0.1154
 7270SOL     OW33445   0.207   1.109   8.109 -0.0251 -0.0900  0.3680
 7270SOL    HW133446   0.160   1.111   8.192 -0.0697 -0.3986  0.3472
 7270SOL    HW233447   0.282   1.157   8.143  1.0194 -1.8756  0.5466
 7271SOL     OW33448   3.195   3.925   6.503  0.2275  0.6308  0.0302
 7271SOL    HW133449   3.239   3.936   6.418 -0.5473  0.0694 -0.4520
 7271SOL    HW233450   3.134   3.999   6.502 -1.6335 -0.8799  2.2600
 7272SOL     OW33451   4.314   4.423   6.667 -0.1541  0.3265  0.0606
 7272SOL    HW133452   4.403   4.444   6.641  1.0233 -1.7881  2.3384
 7272SOL    HW233453   4.257   4.476   6.612 -1.2215 -0.2541  0.5996
 7273SOL     OW33454   0.786   2.612   3.776 -0.1289  0.4635  0.6247
 7273SOL    HW133455   0.788   2.574   3.689 -2.4792  1.4921  0.1214
 7273SOL    HW233456   0.862   2.670   3.787 -0.2190  0.3598  1.8531
 7274SOL     OW33457   2.977   1.075   8.475  0.2249  0.1785 -0.0931
 7274SOL    HW133458   3.062   1.097   8.513 -0.3859 -0.0840  1.4427
 7274SOL    HW233459   2.986   0.981   8.461 -0.6910  0.1632 -0.5832
 7275SOL     OW33460   3.907   0.622   2.339  0.3644  0.4238  0.1012
 7275SOL    HW133461   3.848   0.556   2.376  2.3992  0.9951  4.4117
 7275SOL    HW233462   3.917   0.669   2.422  0.2935  0.3895  0.1295
 7276SOL     OW33463   4.725   4.307   6.992  0.6827 -0.2579 -0.6853
 7276SOL    HW133464   0.042   4.387   6.992  2.6885 -1.6030 -1.4591
 7276SOL    HW233465   4.703   4.305   7.085  1.0884  0.6031 -0.5722
 7277SOL     OW33466   0.284   4.184   1.622 -0.0084 -0.2812  0.4060
 7277SOL    HW133467   0.222   4.205   1.692 -0.8190 -3.0739  0.5097
 7277SOL    HW233468   0.343   4.116   1.654  1.3061 -0.0343 -1.5051
 7278SOL     OW33469   4.370   2.307  16.261 -0.5953 -0.0336  0.4404
 7278SOL    HW133470   4.303   2.298  16.328 -1.6597 -0.8896 -0.7483
 7278SOL    HW233471   4.336   2.374  16.202  0.6109  0.4507  0.2984
 7279SOL     OW33472   1.494   3.009  17.109  0.2153 -0.0146  0.1629
 7279SOL    HW133473   1.423   2.946  17.098  0.1213 -0.0686  1.0513
 7279SOL    HW233474   1.450   3.086  17.074 -0.7488 -0.0389  1.3386
 7280SOL     OW33475   3.781   1.119   8.071  0.1271  0.1222 -0.3689
 7280SOL    HW133476   3.845   1.100   8.002 -0.4263 -0.0731 -0.8241
 7280SOL    HW233477   3.837   1.130   8.148 -1.5446  0.0665  0.8405
 7281SOL     OW33478   2.673   0.390   8.753  0.0467  0.1891 -0.4410
 7281SOL    HW133479   2.680   0.377   8.847  0.7608  1.5029 -0.3047
 7281SOL    HW233480   2.697   0.305   8.718  2.2333  1.2110 -1.4204
 7282SOL     OW33481   0.411   2.185   6.404  0.3339  0.6344  0.6560
 7282SOL    HW133482   0.499   2.146   6.394  0.4616  0.6580  1.6402
 7282SOL    HW233483   0.395   2.218   6.316  1.7086 -2.1612 -0.6826
 7283SOL     OW33484   3.676   4.695   6.647 -0.2801 -0.4798 -0.1965
 7283SOL    HW133485   3.606   4.666   6.705 -1.0103  3.5266  0.8846
 7283SOL    HW233486   3.632   0.019   6.589 -0.1078 -0.3249 -0.1632
 7284SOL     OW33487   0.737   0.961  12.218 -0.5470 -0.2844  0.2034
 7284SOL    HW133488   0.662   0.967  12.277  0.4190  2.2231  1.1992
 7284SOL    HW233489   0.737   0.866  12.208 -0.0718 -0.3700  1.0031
 7285SOL     OW33490   0.977   0.705   1.744 -0.0654 -0.1341 -0.3667
 7285SOL    HW133491   1.022   0.757   1.811 -0.2195  1.3947 -1.4461
 7285SOL    HW233492   1.050   0.719   1.683  0.4112 -0.4014  0.1377
 7286SOL     OW33493   0.784   1.388   6.779 -0.6257  0.2724 -0.3783
 7286SOL    HW133494   0.696   1.379   6.815 -0.6914  1.3731 -0.2754
 7286SOL    HW233495   0.815   1.462   6.831 -2.8869  1.0731 -0.1959
 7287SOL     OW33496   4.602   2.552   7.043  0.3518 -0.1151 -0.0062
 7287SOL    HW133497   4.560   2.477   7.086 -1.3795  1.3918  0.9297
 7287SOL    HW233498   4.539   2.624   7.051  1.5178  1.1274 -2.1861
 7288SOL     OW33499   4.375   0.312   8.297 -0.1011  0.0806 -0.6581
 7288SOL    HW133500   4.314   0.378   8.328 -0.4312 -1.3508  1.7007
 7288SOL    HW233501   4.318   0.242   8.264  1.3323 -0.7743 -1.3644
 7289SOL     OW33502   3.530   2.303   8.396  0.0091 -0.6982 -0.3689
 7289SOL    HW133503   3.617   2.312   8.356 -0.0137 -0.6420 -0.4061
 7289SOL    HW233504   3.549   2.243   8.468  1.7374 -1.3771 -1.3811
 7290SOL     OW33505   3.447   1.830  16.794  1.1458  0.0989 -0.0573
 7290SOL    HW133506   3.486   1.840  16.707 -0.3066 -0.4126 -0.7782
 7290SOL    HW233507   3.508   1.878  16.850  0.4128 -1.4868  2.0838
 7291SOL     OW33508   0.456   4.246   4.188  0.2599 -0.0634 -0.2044
 7291SOL    HW133509   0.479   4.154   4.174  3.2594  0.7601 -0.7724
 7291SOL    HW233510   0.368   4.241   4.225  0.8878 -1.6700  1.1045
 7292SOL     OW33511   3.494   4.550   3.249  0.2383  0.2973 -0.0514
 7292SOL    HW133512   3.437   4.622   3.220  1.5921  1.5869  0.4846
 7292SOL    HW233513   3.467   4.491   3.179 -0.3827  1.2799 -0.6478
 7293SOL     OW33514   1.228   3.632   7.832  0.1209 -0.0967 -0.1809
 7293SOL    HW133515   1.281   3.617   7.753  1.9815  2.3039  0.6000
 7293SOL    HW233516   1.167   3.699   7.803  0.0659  0.4755  1.2378
 7294SOL     OW33517   3.455   1.471  14.378  0.2668 -0.8002  0.2250
 7294SOL    HW133518   3.493   1.461  14.465  1.7378  3.7319  0.1067
 7294SOL    HW233519   3.442   1.378  14.357 -2.1550 -0.5737  0.6606
 7295SOL     OW33520   0.753   4.526   8.038  0.0317 -0.1501 -0.1515
 7295SOL    HW133521   0.783   4.616   8.045 -4.6038  1.3255  0.9242
 7295SOL    HW233522   0.834   4.483   8.011  0.2165 -0.0010  0.1737
 7296SOL     OW33523   3.527   2.771   8.965  0.7241 -0.7109 -0.1053
 7296SOL    HW133524   3.550   2.853   8.921 -0.3368 -0.1301  0.4233
 7296SOL    HW233525   3.555   2.709   8.899  0.3003 -1.4884  0.4511
 7297SOL     OW33526   2.616   1.545   5.197  0.1159 -0.3904  0.3634
 7297SOL    HW133527   2.590   1.461   5.158  0.9412 -0.0994 -0.8002
 7297SOL    HW233528   2.692   1.517   5.248 -1.9840 -2.6276  2.2711
 7298SOL     OW33529   2.564   3.653   4.326  0.0251  0.2201 -0.4914
 7298SOL    HW133530   2.539   3.667   4.235  2.3882  0.8854 -1.0314
 7298SOL    HW233531   2.488   3.675   4.380 -0.7535 -2.6822 -0.3848
 7299SOL     OW33532   1.812   0.133   7.607 -0.0301  0.3313 -0.6809
 7299SOL    HW133533   1.759   0.075   7.554  1.3788 -1.7588  0.2174
 7299SOL    HW233534   1.774   0.117   7.694  3.0119 -1.3454  0.3238
 7300SOL     OW33535   0.770   4.630   4.953  0.0244 -0.1459  0.0150
 7300SOL    HW133536   0.853   4.653   4.995 -0.9365  2.9110  0.2457
 7300SOL    HW233537   0.775   4.535   4.949  0.6455 -0.0748 -1.2235
 7301SOL     OW33538   4.724   3.384   7.336 -0.0612 -0.0103  0.0999
 7301SOL    HW133539   4.730   3.479   7.330  1.7060 -0.0655  0.9851
 7301SOL    HW233540   0.017   3.373   7.426 -2.4148  1.2933  1.0643
 7302SOL     OW33541   2.722   2.340   1.091  0.4590 -0.0958  0.1366
 7302SOL    HW133542   2.628   2.337   1.109  0.6083 -0.0368  0.9487
 7302SOL    HW233543   2.747   2.430   1.111  2.1750 -0.4820 -0.2968
 7303SOL     OW33544   0.851   4.404   3.119  0.1718 -0.0125  0.6843
 7303SOL    HW133545   0.836   4.349   3.196  0.0916 -2.4812 -1.0975
 7303SOL    HW233546   0.910   4.474   3.145 -0.6565  0.4905  1.1965
 7304SOL     OW33547   0.262   0.110   3.132 -0.2469 -0.1827 -0.2190
 7304SOL    HW133548   0.235   0.084   3.220  1.7257  2.0013  1.0227
 7304SOL    HW233549   0.344   0.154   3.152 -1.6801  2.8671 -0.9437
 7305SOL     OW33550   4.081   2.557   5.866 -0.3761  0.1976  0.0480
 7305SOL    HW133551   4.103   2.475   5.912 -0.1227  0.2326 -0.0133
 7305SOL    HW233552   4.037   2.523   5.788  3.9766 -0.1928 -2.1951
 7306SOL     OW33553   2.565   1.188   2.478 -0.0644 -0.0850 -0.1815
 7306SOL    HW133554   2.597   1.137   2.553 -0.1104 -0.6126 -0.5217
 7306SOL    HW233555   2.650   1.218   2.445  0.1897 -0.8259 -0.1985
 7307SOL     OW33556   4.126   2.348   5.434 -0.2226  0.4296 -0.3735
 7307SOL    HW133557   4.032   2.357   5.417 -0.3961 -0.2201  0.2532
 7307SOL    HW233558   4.152   2.352   5.342  2.2425  0.1848  0.3049
 7308SOL     OW33559   3.468   0.879   6.150 -0.6147 -0.6734 -0.0259
 7308SOL    HW133560   3.468   0.926   6.066 -0.9073  1.4069  1.1344
 7308SOL    HW233561   3.393   0.919   6.193 -0.4409  0.8544 -1.1382
 7309SOL     OW33562   2.745   0.730   9.024 -0.0161  0.0016  0.3588
 7309SOL    HW133563   2.669   0.781   9.053 -0.6497 -2.0831  2.3339
 7309SOL    HW233564   2.818   0.775   9.068  1.2901 -3.2230  1.4558
 7310SOL     OW33565   0.879   2.065   3.255  0.1394 -0.5670 -0.5192
 7310SOL    HW133566   0.832   1.983   3.240  0.9538 -0.9562 -0.9894
 7310SOL    HW233567   0.818   2.108   3.315  0.6338  1.4053 -1.4153
 7311SOL     OW33568   0.615   1.777  14.470  0.4225 -0.6657 -0.1336
 7311SOL    HW133569   0.608   1.703  14.409 -1.3019 -2.1265  1.8609
 7311SOL    HW233570   0.614   1.852  14.410 -0.4202 -0.3272  0.3060
 7312SOL     OW33571   4.265   3.074  16.790 -0.4715  0.3092 -0.1951
 7312SOL    HW133572   4.242   3.167  16.780 -1.9094 -0.0241  0.0009
 7312SOL    HW233573   4.190   3.039  16.838 -0.7255 -0.8127 -1.4153
 7313SOL     OW33574   2.956   4.089   6.015  0.2619  0.3910 -0.1871
 7313SOL    HW133575   2.870   4.125   6.036  0.7998  1.6336 -0.1050
 7313SOL    HW233576   2.943   4.001   6.051 -0.0019  0.1577 -0.8539
 7314SOL     OW33577   1.282   1.652   7.518  0.3971 -0.1924 -0.0007
 7314SOL    HW133578   1.365   1.605   7.528 -0.3766 -1.6197 -0.2818
 7314SOL    HW233579   1.216   1.585   7.502  0.0260 -0.0502  0.9875
 7315SOL     OW33580   0.232   0.993   5.806 -0.7679  0.2458  0.7152
 7315SOL    HW133581   0.195   1.058   5.865  1.6414  0.6694  1.7674
 7315SOL    HW233582   0.320   1.031   5.805 -1.2601  1.3427 -1.4477
 7316SOL     OW33583   0.876   1.694   1.675  0.3913 -0.5164 -0.9825
 7316SOL    HW133584   0.851   1.610   1.636  0.0307 -0.8091 -0.1137
 7316SOL    HW233585   0.919   1.736   1.601  0.5605  0.8271 -0.1240
 7317SOL     OW33586   1.293   2.531   3.364  0.0731  0.1724 -0.0502
 7317SOL    HW133587   1.370   2.474   3.358  1.3761  1.8778  0.7257
 7317SOL    HW233588   1.319   2.585   3.438 -0.5820 -0.8821  0.9390
 7318SOL     OW33589   3.375   3.649   3.058 -0.4641  0.0773 -0.1766
 7318SOL    HW133590   3.430   3.727   3.052  1.7351 -1.4191  0.5475
 7318SOL    HW233591   3.418   3.598   2.989  0.9666  0.5050  0.4072
 7319SOL     OW33592   0.358   4.173   6.038 -0.0474  0.3895  0.1186
 7319SOL    HW133593   0.432   4.120   6.068 -0.3161  0.3185  0.6592
 7319SOL    HW233594   0.286   4.114   6.059  0.4058 -0.2572 -0.1671
 7320SOL     OW33595   4.022   4.207   5.015  0.2557 -0.0992 -0.4039
 7320SOL    HW133596   4.081   4.131   5.015 -0.5945 -0.7518  0.4443
 7320SOL    HW233597   4.010   4.217   5.109  1.9160  0.2985 -0.2405
 7321SOL     OW33598   2.372   2.084   2.363  0.3059  0.5537 -0.1924
 7321SOL    HW133599   2.378   2.133   2.444 -0.0848 -3.1072  2.0817
 7321SOL    HW233600   2.330   2.002   2.391  2.4025 -0.1616  0.8234
 7322SOL     OW33601   4.559   4.361   3.362 -0.1063 -0.4648  0.0872
 7322SOL    HW133602   4.561   4.412   3.281  0.9325  1.4846  1.3239
 7322SOL    HW233603   4.601   4.285   3.323  1.7737  1.3584 -1.3866
 7323SOL     OW33604   0.639   0.479   7.979  0.1323 -0.2097 -0.2909
 7323SOL    HW133605   0.657   0.395   8.020  0.1694  0.6689  1.4662
 7323SOL    HW233606   0.726   0.517   7.968 -0.9154  2.1115 -0.7195
 7324SOL     OW33607   0.440   0.746   8.802  0.4748 -0.3123  0.3855
 7324SOL    HW133608   0.439   0.656   8.836 -3.3290 -0.2393  0.4868
 7324SOL    HW233609   0.365   0.774   8.854 -1.7087 -1.0600 -2.3288
 7325SOL     OW33610   1.061   4.176  14.237 -0.1301  0.0660 -0.1972
 7325SOL    HW133611   1.084   4.248  14.178 -1.6517  1.5138  0.9965
 7325SOL    HW233612   1.122   4.175  14.311  0.4390 -1.8400 -0.7021
 7326SOL     OW33613   2.978   4.545   5.940  0.1867  0.0178  0.0191
 7326SOL    HW133614   3.009   4.469   5.891  1.3812  2.5675 -3.2797
 7326SOL    HW233615   3.063   4.574   5.973 -0.3522  2.1814 -0.4770
 7327SOL     OW33616   0.054   0.816   6.701 -0.1053 -0.1943 -0.4246
 7327SOL    HW133617   0.107   0.891   6.730 -0.8849 -0.3091  1.2996
 7327SOL    HW233618   0.008   0.852   6.625 -0.3499 -1.7557 -1.0090
 7328SOL     OW33619   3.164   3.248   4.620  0.3104 -0.5104  0.4017
 7328SOL    HW133620   3.213   3.299   4.556 -1.7557 -1.7266 -2.1180
 7328SOL    HW233621   3.187   3.294   4.701 -1.0818  1.2653 -0.2205
 7329SOL     OW33622   0.974   0.217   6.888  0.7142  0.0599 -0.4769
 7329SOL    HW133623   1.034   0.291   6.887 -0.4141  0.9784 -0.6282
 7329SOL    HW233624   1.030   0.161   6.833  0.1937 -0.1586 -0.7841
 7330SOL     OW33625   2.719   1.384  14.297  0.6070  0.0841 -0.0480
 7330SOL    HW133626   2.683   1.367  14.210  0.1210  0.5397  0.0631
 7330SOL    HW233627   2.667   1.313  14.334  2.5264 -1.5890 -0.5663
 7331SOL     OW33628   1.393   0.438  11.845 -0.1246  0.0435 -0.3048
 7331SOL    HW133629   1.337   0.453  11.922 -0.0640 -1.3331  0.0044
 7331SOL    HW233630   1.353   0.361  11.804  0.2708 -0.7932  0.8797
 7332SOL     OW33631   0.637   2.270  15.822 -0.7427 -0.3015  0.5090
 7332SOL    HW133632   0.594   2.309  15.745 -0.6877 -1.7823 -0.2812
 7332SOL    HW233633   0.695   2.340  15.852 -0.1167 -0.7470  0.3248
 7333SOL     OW33634   2.579   0.899   8.287 -0.5286 -0.2422 -0.0986
 7333SOL    HW133635   2.661   0.917   8.241 -0.5083 -0.2391 -0.0612
 7333SOL    HW233636   2.591   0.813   8.329  0.4633 -0.7684 -1.4622
 7334SOL     OW33637   1.352   2.655  15.391 -0.1966 -0.2399 -0.3618
 7334SOL    HW133638   1.435   2.684  15.431 -0.3243 -1.5432  0.8768
 7334SOL    HW233639   1.374   2.578  15.339  0.7141  0.1604 -0.5740
 7335SOL     OW33640   0.450   0.340   5.880  0.5595  0.2493  0.5156
 7335SOL    HW133641   0.431   0.324   5.972  1.1889 -0.7498  0.4800
 7335SOL    HW233642   0.366   0.314   5.842  0.4412 -2.2633  2.4873
 7336SOL     OW33643   1.790   2.267   6.036 -0.1361 -0.1317  0.4664
 7336SOL    HW133644   1.764   2.260   6.128  0.3822 -0.0638  0.6189
 7336SOL    HW233645   1.885   2.266   6.048 -0.2116 -0.0256  1.0623
 7337SOL     OW33646   1.119   0.460   4.493  0.6197  0.2089  0.3224
 7337SOL    HW133647   1.124   0.364   4.496  1.2180  0.1560 -2.3432
 7337SOL    HW233648   1.026   0.472   4.475  0.8276  1.6763  0.2417
 7338SOL     OW33649   3.926   2.313   3.185 -1.0134  0.3801 -0.0979
 7338SOL    HW133650   3.982   2.235   3.179  1.7066  2.2645  1.2131
 7338SOL    HW233651   3.887   2.321   3.272 -0.0291 -0.1763  0.3943
 7339SOL     OW33652   3.153   2.833   5.207  0.2937  0.0362  0.2439
 7339SOL    HW133653   3.232   2.781   5.221  0.8163  0.6811 -0.3592
 7339SOL    HW233654   3.091   2.768   5.173 -0.7339  0.7557  0.7590
 7340SOL     OW33655   4.524   4.275   4.365  0.2957 -1.0554  0.7983
 7340SOL    HW133656   4.456   4.317   4.417  0.7674  0.2752  0.3262
 7340SOL    HW233657   4.557   4.346   4.310  1.2363 -1.0012  1.4341
 7341SOL     OW33658   4.261   0.574   3.133  0.0525  0.0119 -0.2374
 7341SOL    HW133659   4.199   0.635   3.093  0.7741  1.7517  1.2734
 7341SOL    HW233660   4.201   0.526   3.190 -0.5664  0.6097 -0.3883
 7342SOL     OW33661   2.882   3.983  13.970  0.4659 -0.1733  0.5579
 7342SOL    HW133662   2.940   4.014  13.900 -1.6632  2.9322  0.2089
 7342SOL    HW233663   2.812   3.939  13.921  0.8405 -0.4520  0.2647
 7343SOL     OW33664   0.997   1.581   5.870 -0.0666  0.4797  0.1338
 7343SOL    HW133665   1.051   1.515   5.827  1.0599  1.6260 -0.1880
 7343SOL    HW233666   1.064   1.627   5.921 -1.2304  2.4262 -0.0934
 7344SOL     OW33667   2.833   4.341   5.132 -0.0334  0.0389 -0.1539
 7344SOL    HW133668   2.798   4.429   5.125 -0.5392 -0.1451  0.1209
 7344SOL    HW233669   2.819   4.311   5.042 -0.4648 -0.3370  0.0414
 7345SOL     OW33670   2.299   4.123  11.935  0.0256  0.2977  0.1180
 7345SOL    HW133671   2.273   4.126  11.843 -0.3756  1.3624  0.2683
 7345SOL    HW233672   2.379   4.174  11.921  0.2933 -0.0652  0.3333
 7346SOL     OW33673   3.128   4.357  12.620 -0.1862 -0.4633  0.5723
 7346SOL    HW133674   3.172   4.422  12.565  0.8351 -1.4368  0.2477
 7346SOL    HW233675   3.202   4.326  12.672 -0.0604 -1.3673 -0.1428
 7347SOL     OW33676   1.806   3.265   5.729  0.1036 -0.1881  0.0369
 7347SOL    HW133677   1.870   3.220   5.785  2.4426  1.9703 -0.8590
 7347SOL    HW233678   1.798   3.197   5.662 -0.8420 -0.1238  0.0945
 7348SOL     OW33679   3.462   4.272   5.210  0.1604 -0.0652 -0.0652
 7348SOL    HW133680   3.483   4.364   5.229  0.7104  0.1931 -1.9592
 7348SOL    HW233681   3.532   4.242   5.152  1.0768 -0.2170  1.1213
 7349SOL     OW33682   1.356   4.475   8.360  0.5827 -0.2867  0.0841
 7349SOL    HW133683   1.265   4.488   8.386  0.6601  1.1437 -0.3857
 7349SOL    HW233684   1.399   4.529   8.425 -2.8307 -0.5515  2.5248
 7350SOL     OW33685   1.019   3.298   3.864  0.2164  0.4397 -0.2815
 7350SOL    HW133686   0.973   3.304   3.948  0.3078  0.4966 -0.2362
 7350SOL    HW233687   0.969   3.228   3.821  2.5740 -1.6926  0.4204
 7351SOL     OW33688   4.269   0.866   5.717  0.3903  0.7096  0.1176
 7351SOL    HW133689   4.223   0.923   5.779 -0.7841 -0.8291  0.6287
 7351SOL    HW233690   4.276   0.786   5.768  2.2277  0.4959 -0.4557
 7352SOL     OW33691   1.495   0.311   7.183 -0.3683  0.0823  0.2881
 7352SOL    HW133692   1.412   0.346   7.216 -0.2518  0.8049 -0.1647
 7352SOL    HW233693   1.552   0.386   7.202 -0.9728  0.9836 -1.3947
 7353SOL     OW33694   1.352   0.897   8.046  0.2944 -0.2095  0.5237
 7353SOL    HW133695   1.332   0.805   8.064 -0.5947 -0.2488 -0.6686
 7353SOL    HW233696   1.371   0.892   7.952  1.7052  0.3399  0.7854
 7354SOL     OW33697   3.447   1.667   1.077  0.1905  0.2099  0.0760
 7354SOL    HW133698   3.521   1.676   1.136 -0.3315 -1.8491  1.0538
 7354SOL    HW233699   3.383   1.655   1.148  0.5876  0.0699  0.4064
 7355SOL     OW33700   1.846   4.099   2.123 -0.0559 -0.1398 -0.4779
 7355SOL    HW133701   1.902   4.132   2.053 -1.4674 -1.4952 -2.2529
 7355SOL    HW233702   1.763   4.101   2.075 -0.9658 -1.1503  1.0611
 7356SOL     OW33703   4.688   1.566   3.620  0.1929  0.3377 -0.2363
 7356SOL    HW133704   4.599   1.601   3.627 -0.3465 -0.8384 -1.2108
 7356SOL    HW233705   4.685   1.557   3.525  0.9780  0.5238 -0.2741
 7357SOL     OW33706   1.525   1.806   4.003 -0.7094  0.4035  0.2022
 7357SOL    HW133707   1.483   1.737   4.054 -2.8714  0.5943 -1.3144
 7357SOL    HW233708   1.620   1.798   4.007 -0.5755  1.6469 -0.5323
 7358SOL     OW33709   2.634   2.392   5.773 -0.3281 -0.1103 -0.0453
 7358SOL    HW133710   2.544   2.419   5.754 -0.0589  1.0557  0.3287
 7358SOL    HW233711   2.678   2.421   5.693 -1.7096 -1.2568 -1.2139
 7359SOL     OW33712   1.636   2.898   8.060  0.0357  0.1201 -0.2420
 7359SOL    HW133713   1.545   2.927   8.066 -1.1896 -3.8864  1.1846
 7359SOL    HW233714   1.648   2.892   8.155 -0.8829 -1.3400 -0.2134
 7360SOL     OW33715   2.284   3.549   0.421 -0.9877  0.1821  0.1359
 7360SOL    HW133716   2.377   3.527   0.427 -0.5755  1.3350 -2.0245
 7360SOL    HW233717   2.296   3.642   0.443  4.5894 -0.2018 -1.3579
 7361SOL     OW33718   2.664   2.465   1.908  0.0658 -0.4888 -0.1038
 7361SOL    HW133719   2.734   2.419   1.862 -2.6217 -2.9887 -1.6996
 7361SOL    HW233720   2.601   2.395   1.921 -0.6783  0.1237 -0.3696
 7362SOL     OW33721   1.054   1.547   5.375 -0.1051  0.1733 -0.1080
 7362SOL    HW133722   1.108   1.472   5.399  1.3798  0.9609 -1.0040
 7362SOL    HW233723   1.088   1.621   5.427 -2.0214  1.2015 -0.3109
 7363SOL     OW33724   1.170   0.106   5.485 -0.2139 -0.3474 -0.2599
 7363SOL    HW133725   1.156   0.196   5.512 -2.9080 -1.4371  1.9748
 7363SOL    HW233726   1.132   0.059   5.559 -2.7341  1.2891 -0.5573
 7364SOL     OW33727   2.485   1.662   8.536  0.4432  0.0260 -0.7410
 7364SOL    HW133728   2.407   1.672   8.482  0.5769 -1.1389 -1.1425
 7364SOL    HW233729   2.459   1.585   8.588  0.7170  0.0521 -0.5649
 7365SOL     OW33730   0.605   0.308   3.726  0.6204  0.3223  0.1832
 7365SOL    HW133731   0.610   0.223   3.769 -0.4363 -0.5649 -1.4508
 7365SOL    HW233732   0.640   0.274   3.644 -1.4374 -0.1859 -0.4880
 7366SOL     OW33733   0.615   1.864   3.042 -0.0466  0.7093 -0.6911
 7366SOL    HW133734   0.666   1.890   2.966 -0.1160 -1.0538 -1.3406
 7366SOL    HW233735   0.607   1.947   3.089 -1.0590 -0.4923  1.2985
 7367SOL     OW33736   0.859   0.957  13.054  0.4186 -0.1523 -0.4151
 7367SOL    HW133737   0.863   1.048  13.025  0.3800  0.0454  0.2068
 7367SOL    HW233738   0.798   0.926  12.987 -0.0037  1.2493 -0.6764
 7368SOL     OW33739   0.961   2.554   8.748  0.3987 -0.9935 -0.3350
 7368SOL    HW133740   0.918   2.481   8.793 -0.8774 -0.2722 -0.3902
 7368SOL    HW233741   0.963   2.610   8.826  0.8105 -0.9627 -0.3657
 7369SOL     OW33742   3.150   2.021   2.519  0.5006  0.0304 -0.1997
 7369SOL    HW133743   3.196   1.940   2.540  1.3635  0.2481 -1.2328
 7369SOL    HW233744   3.216   2.062   2.462  2.4467 -0.3932  1.7504
 7370SOL     OW33745   2.246   1.603   9.543  0.7146  0.1325 -0.2772
 7370SOL    HW133746   2.263   1.696   9.559  0.6252 -0.0563  0.9417
 7370SOL    HW233747   2.268   1.570   9.630  0.4130  0.9546  0.1175
 7371SOL     OW33748   2.192   0.230   7.976 -0.1318 -0.0151  0.2913
 7371SOL    HW133749   2.165   0.171   7.906  1.1114 -1.3943  0.9623
 7371SOL    HW233750   2.199   0.164   8.045 -1.7443 -0.0893  0.3763
 7372SOL     OW33751   0.896   0.213   1.445 -0.3195  0.3970 -0.1811
 7372SOL    HW133752   0.869   0.279   1.509 -0.6779 -2.1112  2.2489
 7372SOL    HW233753   0.812   0.174   1.420  0.4592  0.5993 -3.0694
 7373SOL     OW33754   1.988   1.266   6.540 -0.2658  0.0104 -0.0871
 7373SOL    HW133755   2.071   1.243   6.497  1.0697 -1.2170  3.1624
 7373SOL    HW233756   1.940   1.311   6.470  1.0094  0.6896 -0.5435
 7374SOL     OW33757   3.200   3.607  15.138 -0.8713  0.2059  0.7984
 7374SOL    HW133758   3.132   3.670  15.112 -0.7035  0.3338  0.6734
 7374SOL    HW233759   3.147   3.530  15.158  2.7226 -2.0205  1.6618
 7375SOL     OW33760   4.273   1.207   6.830  0.2634 -0.0560 -0.2343
 7375SOL    HW133761   4.356   1.241   6.864 -0.1097  0.5264  0.0881
 7375SOL    HW233762   4.296   1.187   6.739  1.9883 -0.6526  0.3246
 7376SOL     OW33763   1.698   3.313   4.675  0.4210  0.2044 -0.0227
 7376SOL    HW133764   1.787   3.331   4.705 -0.0942  1.9960  0.4404
 7376SOL    HW233765   1.661   3.262   4.748 -0.0472  1.5285  0.6698
 7377SOL     OW33766   1.618   1.794   2.948  0.2315 -0.1038  0.3715
 7377SOL    HW133767   1.596   1.879   2.987 -0.4529  0.2067 -0.6673
 7377SOL    HW233768   1.568   1.736   3.006  1.2055 -1.6160 -0.3079
 7378SOL     OW33769   3.580   1.400   3.564 -0.2082 -0.4278 -0.2540
 7378SOL    HW133770   3.559   1.391   3.657 -0.5187  3.0433  0.0077
 7378SOL    HW233771   3.563   1.310   3.537 -0.0133 -0.7155  0.5753
 7379SOL     OW33772   4.263   1.771   2.116  0.1470  0.1412 -0.2912
 7379SOL    HW133773   4.334   1.735   2.168 -0.2830 -0.6119 -0.2347
 7379SOL    HW233774   4.314   1.833   2.064  2.1573 -2.5130 -1.4168
 7380SOL     OW33775   3.427   3.217   3.283 -0.5587  0.1115 -0.5459
 7380SOL    HW133776   3.490   3.281   3.249  0.9941 -1.7976 -1.3019
 7380SOL    HW233777   3.343   3.263   3.281 -0.3599  0.4757 -0.5961
 7381SOL     OW33778   3.116   2.350   7.976  0.2739  0.0073  0.2031
 7381SOL    HW133779   3.114   2.367   8.070 -2.1970  0.4111  0.0766
 7381SOL    HW233780   3.092   2.258   7.981 -1.4691  0.3058 -2.2395
 7382SOL     OW33781   4.720   2.021  15.008  0.1367 -0.4827  0.0770
 7382SOL    HW133782   0.010   1.930  15.020 -0.7625 -0.4392  2.4698
 7382SOL    HW233783   4.659   2.032  15.081  2.0673 -0.2572  1.6231
 7383SOL     OW33784   2.636   0.361  10.920  0.3391 -0.1605 -0.1207
 7383SOL    HW133785   2.717   0.369  10.971 -0.2767  0.1903  0.7968
 7383SOL    HW233786   2.648   0.441  10.868  0.2053  0.1293  0.3043
 7384SOL     OW33787   2.049   1.948   5.801  0.1032 -0.0417  0.3269
 7384SOL    HW133788   2.125   1.987   5.758  0.9582 -1.8171  0.2343
 7384SOL    HW233789   2.096   1.883   5.853 -0.0265  1.6004  2.4852
 7385SOL     OW33790   2.167   1.185  16.019 -0.0534  0.4708  0.5786
 7385SOL    HW133791   2.121   1.265  16.044  0.8176  0.2178  3.0233
 7385SOL    HW233792   2.253   1.219  16.045  0.9384 -2.1183  0.6445
 7386SOL     OW33793   3.235   1.214   3.864 -0.0179  0.3715  0.6478
 7386SOL    HW133794   3.177   1.138   3.858 -0.0675  0.7264 -3.2345
 7386SOL    HW233795   3.302   1.189   3.801  0.0850  0.6828  0.6342
 7387SOL     OW33796   3.001   2.707   5.660 -0.2911  0.1302  0.1318
 7387SOL    HW133797   3.013   2.649   5.584  0.5532  1.5672 -0.8419
 7387SOL    HW233798   2.977   2.792   5.622 -1.8270 -0.1805  0.4182
 7388SOL     OW33799   4.274   0.938   6.366  0.1700  0.0246  0.5910
 7388SOL    HW133800   4.245   1.029   6.378  2.1516  0.8804 -1.1860
 7388SOL    HW233801   4.198   0.890   6.333 -0.9816  3.0818 -1.2997
 7389SOL     OW33802   0.489   2.578   6.767  0.6253 -0.3127  0.1442
 7389SOL    HW133803   0.402   2.613   6.787  0.1813 -1.4758  0.2358
 7389SOL    HW233804   0.474   2.563   6.673  5.4553 -0.6883 -0.5515
 7390SOL     OW33805   0.182   2.650   5.489 -0.4646 -0.1751 -0.1660
 7390SOL    HW133806   0.148   2.739   5.493 -0.3254 -0.0978 -0.7058
 7390SOL    HW233807   0.105   2.601   5.457 -0.0382 -0.8679 -0.1304
 7391SOL     OW33808   2.292   4.690   5.768 -0.4605  0.2986  0.0277
 7391SOL    HW133809   2.294   0.032   5.821 -0.0473  0.0283  0.4247
 7391SOL    HW233810   2.247   4.632   5.831 -0.7103 -0.3801 -0.7735
 7392SOL     OW33811   1.344   3.411   8.492  0.2786  0.8616  0.3574
 7392SOL    HW133812   1.344   3.323   8.455 -0.8653  1.5645 -1.3048
 7392SOL    HW233813   1.300   3.455   8.420  2.9487  0.9329 -1.2136
 7393SOL     OW33814   0.221   2.924   5.670  0.2256  0.4141 -0.3140
 7393SOL    HW133815   0.297   2.962   5.714 -0.8333 -0.9846  2.7015
 7393SOL    HW233816   0.225   2.835   5.704 -1.0690  1.3690  2.2684
 7394SOL     OW33817   4.150   2.144   3.129  0.3385  0.6637  0.8219
 7394SOL    HW133818   4.196   2.126   3.047  0.2087 -1.8915  1.2948
 7394SOL    HW233819   4.183   2.072   3.183 -0.1147 -1.3470 -1.5880
 7395SOL     OW33820   1.801   1.986   4.280 -0.4682 -0.0682 -0.4729
 7395SOL    HW133821   1.774   2.012   4.368 -2.6204  1.5622 -1.5987
 7395SOL    HW233822   1.822   2.069   4.236  1.9955  0.2136  1.2581
 7396SOL     OW33823   2.202   0.700   4.828  0.0179  0.2570 -0.4541
 7396SOL    HW133824   2.187   0.720   4.920 -2.4380 -0.9074 -0.6196
 7396SOL    HW233825   2.116   0.685   4.789  1.2481  0.6903 -3.3548
 7397SOL     OW33826   4.078   3.556   5.121  0.2013  0.2964 -0.0868
 7397SOL    HW133827   4.112   3.544   5.210  1.5834 -0.2462 -0.6973
 7397SOL    HW233828   4.115   3.636   5.085  0.8364  0.0308 -0.0152
 7398SOL     OW33829   0.022   0.015  15.933 -0.5336 -0.4876  0.1124
 7398SOL    HW133830   0.054   0.064  15.857 -1.3585  0.2064  0.2084
 7398SOL    HW233831   0.098   4.704  15.965  0.8758  1.1068 -0.7876
 7399SOL     OW33832   1.060   2.167   2.291  0.3033  0.3148 -0.2549
 7399SOL    HW133833   1.072   2.261   2.304 -0.3736  0.3575  0.0809
 7399SOL    HW233834   0.975   2.161   2.247 -1.4930 -1.7701  3.5081
 7400SOL     OW33835   0.160   1.301   4.748 -0.1449 -0.0162 -0.0310
 7400SOL    HW133836   0.139   1.344   4.830  0.5179  0.3667 -0.0663
 7400SOL    HW233837   0.247   1.340   4.739 -0.5091  0.2329 -2.4293
 7401SOL     OW33838   3.037   1.145  12.041 -0.1355 -0.2103  0.3165
 7401SOL    HW133839   3.032   1.049  12.043 -0.6904 -0.1209  2.6519
 7401SOL    HW233840   3.052   1.160  12.134 -1.6098 -0.4684  0.5894
 7402SOL     OW33841   3.963   2.515   1.884 -0.0605  0.2037 -0.0945
 7402SOL    HW133842   4.018   2.541   1.958  1.0820 -0.1561 -0.8151
 7402SOL    HW233843   4.016   2.444   1.848  0.2875  2.0220 -3.0964
 7403SOL     OW33844   0.739   0.466   9.929 -0.4898  0.5608 -0.1602
 7403SOL    HW133845   0.771   0.445   9.841 -0.9879  0.6408 -0.3603
 7403SOL    HW233846   0.778   0.390   9.971 -0.6069  0.7369  0.2700
 7404SOL     OW33847   0.696   2.022   9.451  0.1075  0.0067 -0.5394
 7404SOL    HW133848   0.769   2.077   9.479 -0.6670  1.6448 -1.7558
 7404SOL    HW233849   0.669   2.049   9.363 -1.1932 -0.3025 -0.2412
 7405SOL     OW33850   2.332   4.680   8.710 -0.8905  0.7933  0.3582
 7405SOL    HW133851   2.330   0.030   8.670  0.8041  1.2405  1.2556
 7405SOL    HW233852   2.417   4.682   8.754 -1.7933 -0.8703  2.1559
 7406SOL     OW33853   1.787   2.602   5.144  0.5130  0.3448 -0.2497
 7406SOL    HW133854   1.831   2.518   5.130  0.4938  0.1859  0.5974
 7406SOL    HW233855   1.695   2.581   5.134  1.3128 -3.0005 -0.6021
 7407SOL     OW33856   3.441   1.000   5.832  1.1260 -0.2740  0.0991
 7407SOL    HW133857   3.367   0.943   5.853  1.4804  0.7792  4.2895
 7407SOL    HW233858   3.394   1.083   5.825  1.9197  0.2465  1.0536
 7408SOL     OW33859   1.683   3.131   6.890  0.0495 -0.3709  0.4855
 7408SOL    HW133860   1.737   3.207   6.910 -3.3312  2.0520  0.4431
 7408SOL    HW233861   1.611   3.183   6.854  0.5977  0.0930  0.0576
 7409SOL     OW33862   0.129   1.675   7.507  0.2113 -0.2819 -0.3938
 7409SOL    HW133863   0.145   1.604   7.445  1.6308  0.4885 -0.9187
 7409SOL    HW233864   0.169   1.745   7.455  2.8048 -1.6850 -0.3122
 7410SOL     OW33865   2.295   2.647   1.991  0.2193 -0.4100 -0.2288
 7410SOL    HW133866   2.356   2.625   2.061  1.6130  1.5612 -0.8367
 7410SOL    HW233867   2.327   2.736   1.978 -1.7592  0.2768 -0.5218
 7411SOL     OW33868   3.034   3.617  12.166 -0.1905  0.5274 -0.1434
 7411SOL    HW133869   3.077   3.635  12.249 -0.3571 -2.5409  0.6035
 7411SOL    HW233870   2.993   3.533  12.185  1.1196  0.7926  3.7567
 7412SOL     OW33871   2.427   4.700  10.829 -0.2838  0.2124  0.4839
 7412SOL    HW133872   2.426   0.030  10.897  0.0686  1.3113 -0.5966
 7412SOL    HW233873   2.480   4.633  10.872 -0.4494 -1.0647 -1.2998
 7413SOL     OW33874   2.359   2.455   8.863  0.1137 -0.3728 -0.3121
 7413SOL    HW133875   2.450   2.466   8.889 -0.1557  1.4947 -0.1702
 7413SOL    HW233876   2.350   2.373   8.814  0.8206 -1.2257  1.0073
 7414SOL     OW33877   3.667   3.906   6.317  0.2462  0.1618  0.5955
 7414SOL    HW133878   3.642   3.917   6.225  0.6439  0.9031  0.5781
 7414SOL    HW233879   3.706   3.818   6.319 -1.5144 -0.6369 -0.2430
 7415SOL     OW33880   4.468   1.185   9.052 -0.1622 -0.1653  0.0115
 7415SOL    HW133881   4.486   1.156   8.963 -2.3455 -0.6815 -0.2631
 7415SOL    HW233882   4.512   1.113   9.098  2.6450  1.6891  0.2492
 7416SOL     OW33883   4.541   3.559   3.026 -0.1384 -0.3158  0.0338
 7416SOL    HW133884   4.595   3.576   2.949 -0.2158  0.4961  0.1655
 7416SOL    HW233885   4.513   3.648   3.046 -0.6719 -0.6443  0.7483
 7417SOL     OW33886   3.602   3.007   9.838 -0.0699  0.2221  0.3718
 7417SOL    HW133887   3.682   3.014   9.890 -0.6867  0.0015  1.3375
 7417SOL    HW233888   3.548   2.956   9.898 -1.1980 -0.6588 -1.3952
 7418SOL     OW33889   1.650   4.015   6.724 -0.3853  0.2888 -0.0417
 7418SOL    HW133890   1.625   4.093   6.674  1.6871  0.2507 -1.1257
 7418SOL    HW233891   1.575   4.014   6.784 -1.7410  0.0553 -1.7527
 7419SOL     OW33892   2.842   1.588   4.711 -0.0213  0.1109 -0.1154
 7419SOL    HW133893   2.787   1.541   4.775 -0.1556 -0.2134 -0.4687
 7419SOL    HW233894   2.895   1.642   4.770 -0.5328  1.8898 -1.3056
 7420SOL     OW33895   2.023   3.921   2.222  0.2003 -0.7649 -0.6912
 7420SOL    HW133896   1.969   3.984   2.175  1.4774  0.6458 -0.2565
 7420SOL    HW233897   2.023   3.972   2.303  1.9226 -1.0572 -0.5161
 7421SOL     OW33898   0.373   2.116   9.790 -0.3729 -0.1545  0.2892
 7421SOL    HW133899   0.383   2.021   9.796  3.3881  0.1908 -0.1425
 7421SOL    HW233900   0.387   2.141   9.698 -1.1878  1.6963  0.6739
 7422SOL     OW33901   3.854   2.693   3.045  0.2136  0.2157 -0.2154
 7422SOL    HW133902   3.765   2.673   3.016 -1.1352  3.5370  1.6627
 7422SOL    HW233903   3.884   2.727   2.960 -3.2157  2.5273 -0.5501
 7423SOL     OW33904   0.758   1.198   9.072  0.2202 -0.4163 -0.1544
 7423SOL    HW133905   0.681   1.233   9.026  0.0458 -0.0637  0.4153
 7423SOL    HW233906   0.716   1.167   9.152 -0.9265  2.1498  0.2395
 7424SOL     OW33907   0.567   2.548   5.791  0.5978 -0.3575  0.0690
 7424SOL    HW133908   0.601   2.529   5.703  0.1139  0.1938 -0.2323
 7424SOL    HW233909   0.473   2.545   5.772  0.2549 -0.9344  1.8418
 7425SOL     OW33910   4.031   1.188  15.848 -0.0324 -0.4161 -0.2395
 7425SOL    HW133911   4.115   1.170  15.891 -0.6664 -0.6915  0.9028
 7425SOL    HW233912   3.982   1.210  15.928  0.8297 -1.9410  0.7068
 7426SOL     OW33913   1.469   4.698  14.872 -0.0917  0.2376  0.1959
 7426SOL    HW133914   1.403   0.011  14.920 -1.1357 -1.0704  0.1393
 7426SOL    HW233915   1.538   0.026  14.861 -1.2286  1.6435  1.4263
 7427SOL     OW33916   4.032   2.954   6.994  0.0587 -0.1157  0.7201
 7427SOL    HW133917   4.067   2.865   6.991  0.8782  0.2231  0.2774
 7427SOL    HW233918   4.048   2.981   7.084  0.3169  1.5932  0.1616
 7428SOL     OW33919   2.715   2.163   2.000 -0.1247  0.3891  0.5085
 7428SOL    HW133920   2.632   2.208   1.987 -0.6908 -0.8746 -0.2698
 7428SOL    HW233921   2.683   2.122   2.080  0.8404 -1.0147  0.1773
 7429SOL     OW33922   1.370   4.339  16.109 -0.1561 -0.0976  0.6335
 7429SOL    HW133923   1.449   4.320  16.059  0.7266  0.9108  1.6676
 7429SOL    HW233924   1.346   4.260  16.159 -0.0189 -1.3899 -1.3452
 7430SOL     OW33925   3.290   3.708   7.458  0.0290  0.1990  0.3283
 7430SOL    HW133926   3.366   3.650   7.447  0.0768  0.5034 -0.9583
 7430SOL    HW233927   3.315   3.741   7.544  2.5918  0.7153 -0.5929
 7431SOL     OW33928   4.397   2.348   8.447  0.5893  0.3287 -0.3509
 7431SOL    HW133929   4.456   2.345   8.372  2.2244 -2.2444  1.0178
 7431SOL    HW233930   4.444   2.288   8.505  0.0586 -0.1493 -0.4033
 7432SOL     OW33931   2.996   2.963   7.298  0.1560  0.1323  0.0479
 7432SOL    HW133932   3.043   3.029   7.247  1.9021 -2.2424 -1.4188
 7432SOL    HW233933   3.047   2.885   7.280 -0.6759 -0.0968 -1.3165
 7433SOL     OW33934   0.811   0.050   8.065  0.3615  0.3957  0.4608
 7433SOL    HW133935   0.767   0.135   8.057  0.2734  0.3327  0.2635
 7433SOL    HW233936   0.883   0.063   8.126  0.7523 -0.6470  0.2243
 7434SOL     OW33937   4.184   3.457  12.477  0.0354 -0.2016 -0.1506
 7434SOL    HW133938   4.127   3.383  12.454 -0.7849  0.3850  0.0199
 7434SOL    HW233939   4.151   3.525  12.418 -0.9879  0.3574  1.0814
 7435SOL     OW33940   1.695   0.379   6.212 -0.2046 -0.0639  0.1916
 7435SOL    HW133941   1.645   0.429   6.276  1.5098 -0.1409  1.5727
 7435SOL    HW233942   1.760   0.338   6.268  0.6874  0.8903 -0.1541
 7436SOL     OW33943   0.315   1.294  10.673  0.1972  0.6852 -0.7669
 7436SOL    HW133944   0.352   1.261  10.754 -1.9811 -0.0440 -0.0630
 7436SOL    HW233945   0.251   1.363  10.690 -2.1520 -1.5090 -0.6498
 7437SOL     OW33946   1.771   4.580   6.120 -0.5793 -0.6557  0.2589
 7437SOL    HW133947   1.711   4.520   6.164  0.9431 -1.5023  1.1690
 7437SOL    HW233948   1.843   4.594   6.182  0.4392 -0.7365 -0.8946
 7438SOL     OW33949   0.829   3.647   4.834  0.2142  0.3452 -0.5382
 7438SOL    HW133950   0.853   3.575   4.893 -2.0336 -0.8411 -1.0631
 7438SOL    HW233951   0.892   3.709   4.872  1.7777 -0.2560 -2.1873
 7439SOL     OW33952   2.832   4.033   4.884 -0.3952 -0.2410  0.2614
 7439SOL    HW133953   2.898   4.102   4.892 -0.3688  0.0051 -1.9321
 7439SOL    HW233954   2.876   3.964   4.934 -0.4404 -0.5174 -0.0801
 7440SOL     OW33955   4.651   1.952  14.255 -0.4391 -0.3128  0.4541
 7440SOL    HW133956   4.669   1.902  14.176  2.3336  1.5670 -0.1095
 7440SOL    HW233957   4.623   2.035  14.217 -0.7561 -0.8618 -0.4997
 7441SOL     OW33958   0.491   4.713   4.142  0.2626 -0.6643  0.1848
 7441SOL    HW133959   0.568   4.674   4.100  0.0820 -1.6154  0.7440
 7441SOL    HW233960   0.478   0.041   4.072 -0.1118 -1.0031 -0.0672
 7442SOL     OW33961   1.705   0.867  12.122  0.0438  0.1547 -0.0012
 7442SOL    HW133962   1.765   0.794  12.136  0.4763  0.2821 -1.2437
 7442SOL    HW233963   1.623   0.818  12.122 -0.0650  0.3401 -2.0477
 7443SOL     OW33964   1.877   4.388   7.138 -0.2275 -0.0585 -0.5933
 7443SOL    HW133965   1.799   4.371   7.084  0.1343 -1.7741 -0.5724
 7443SOL    HW233966   1.914   4.302   7.156 -0.8606 -0.5105 -1.4128
 7444SOL     OW33967   1.528   3.252   7.949 -0.2462  0.1099  0.2451
 7444SOL    HW133968   1.458   3.189   7.962 -0.4718  0.1445 -0.8539
 7444SOL    HW233969   1.580   3.216   7.877  0.6614 -1.8696  1.8937
 7445SOL     OW33970   1.876   1.925   1.893  0.1969  0.4369  0.3216
 7445SOL    HW133971   1.783   1.904   1.895 -0.1588  1.9041 -0.6731
 7445SOL    HW233972   1.880   1.958   1.803  1.8328  1.7505  0.8829
 7446SOL     OW33973   3.249   4.161   0.685  0.6489  0.2974 -0.4491
 7446SOL    HW133974   3.209   4.196   0.606  0.4476 -0.0909 -0.5191
 7446SOL    HW233975   3.230   4.068   0.670 -0.5632  0.4551  0.0645
 7447SOL     OW33976   0.283   2.309   8.795 -0.4041  0.5558  0.0533
 7447SOL    HW133977   0.330   2.357   8.864  1.9822 -1.2119 -0.3213
 7447SOL    HW233978   0.245   2.243   8.853  1.3195  0.7622  1.4249
 7448SOL     OW33979   3.395   3.445   4.192 -0.0828  0.0759 -0.3276
 7448SOL    HW133980   3.454   3.506   4.148 -1.1682  1.4508  0.1202
 7448SOL    HW233981   3.407   3.364   4.143  1.7060 -0.1607  0.4762
 7449SOL     OW33982   3.496   3.751   5.735 -0.0906  0.2916 -0.0858
 7449SOL    HW133983   3.559   3.714   5.673 -1.9243 -2.5939 -0.1894
 7449SOL    HW233984   3.484   3.836   5.693 -0.3405  0.4404  0.2924
 7450SOL     OW33985   3.886   3.329   3.147  0.3517 -0.0572 -1.1491
 7450SOL    HW133986   3.921   3.378   3.073 -2.0508 -0.6645 -2.6957
 7450SOL    HW233987   3.791   3.336   3.135  0.1693 -0.2787  0.1452
 7451SOL     OW33988   1.540   1.525   2.635  0.4776  0.7137  0.0620
 7451SOL    HW133989   1.475   1.590   2.662  1.6858  0.9395  2.4778
 7451SOL    HW233990   1.627   1.562   2.647  1.4936 -0.7490 -2.7722
 7452SOL     OW33991   3.349   4.616   2.343  0.2979  0.6017  0.6609
 7452SOL    HW133992   3.442   4.593   2.340 -0.3918 -1.9166 -0.7495
 7452SOL    HW233993   3.378   4.690   2.397  1.1447  2.4897 -2.3721
 7453SOL     OW33994   1.272   4.167   0.780  0.3643 -0.0642  0.7838
 7453SOL    HW133995   1.180   4.142   0.790 -0.3182  1.7690 -0.9918
 7453SOL    HW233996   1.311   4.129   0.859 -0.4385  0.4219  1.4141
 7454SOL     OW33997   1.593   1.451   2.238  0.1601 -0.2570  0.6882
 7454SOL    HW133998   1.548   1.477   2.158 -0.3805  0.8210  1.3420
 7454SOL    HW233999   1.518   1.481   2.288  1.3166  2.2447  0.9287
 7455SOL     OW34000   4.597   3.871   3.166  0.9799  0.0169  0.0464
 7455SOL    HW134001   4.654   3.836   3.234 -0.5816 -1.5180  0.5545
 7455SOL    HW234002   4.561   3.954   3.199 -0.4228 -0.4950 -0.2048
 7456SOL     OW34003   2.960   2.477   6.756 -0.1677  0.1313 -0.0372
 7456SOL    HW134004   2.986   2.439   6.840 -0.5470  0.5009  0.2512
 7456SOL    HW234005   2.866   2.495   6.768  0.4091  0.7067  3.7664
 7457SOL     OW34006   0.704   0.292   6.916 -0.3145  0.0189  0.2460
 7457SOL    HW134007   0.787   0.277   6.870  0.6930  2.1290  1.3509
 7457SOL    HW234008   0.695   0.385   6.895  0.7942  0.2335  0.7051
 7458SOL     OW34009   4.114   0.056  13.201 -0.3072  0.3580  0.3298
 7458SOL    HW134010   4.164   0.016  13.131 -1.7431 -0.5526 -0.1750
 7458SOL    HW234011   4.031   0.011  13.184  0.5483 -0.6109 -1.2189
 7459SOL     OW34012   0.578   4.110   6.337 -0.4907 -0.3476  0.2730
 7459SOL    HW134013   0.658   4.114   6.285 -0.0178 -0.8523  0.9614
 7459SOL    HW234014   0.614   4.081   6.420  1.3179  1.2294  0.0379
 7460SOL     OW34015   0.672   3.105   8.996  0.8138  0.0337 -0.0513
 7460SOL    HW134016   0.642   3.052   8.921  0.4532 -0.4673  0.4511
 7460SOL    HW234017   0.667   3.188   8.949  0.7129 -0.0329 -0.1588
 7461SOL     OW34018   1.072   1.553   3.648 -0.1186 -0.2571 -0.0284
 7461SOL    HW134019   1.130   1.499   3.595  1.2232  2.0549 -0.9183
 7461SOL    HW234020   1.077   1.510   3.733 -0.0675 -1.1825 -0.4991
 7462SOL     OW34021   1.938   2.971  16.705  0.0089  0.3231 -0.0973
 7462SOL    HW134022   1.922   3.046  16.648  0.2515 -0.8788 -1.7454
 7462SOL    HW234023   1.845   2.954  16.716 -0.1514 -0.2973 -2.3938
 7463SOL     OW34024   2.937   1.246   8.037 -0.0307  0.2362  0.0049
 7463SOL    HW134025   2.859   1.279   7.993 -1.7570 -0.9814  2.1438
 7463SOL    HW234026   2.922   1.273   8.127 -2.8762 -0.5892 -0.2306
 7464SOL     OW34027   0.927   3.332   7.986  1.1573 -0.7914 -0.3231
 7464SOL    HW134028   0.918   3.416   8.032 -0.8650 -1.3007  0.1894
 7464SOL    HW234029   0.915   3.262   8.050 -0.7639  1.7399  2.0481
 7465SOL     OW34030   2.166   0.195   5.084  0.7094 -0.0886 -0.3482
 7465SOL    HW134031   2.124   0.270   5.126 -1.2507 -1.1900 -0.3202
 7465SOL    HW234032   2.081   0.158   5.058  0.3045 -0.1982  1.1255
 7466SOL     OW34033   2.839   1.980   5.039 -0.2466 -0.2489 -0.6462
 7466SOL    HW134034   2.780   1.905   5.032  1.2377 -1.1050 -4.0387
 7466SOL    HW234035   2.869   1.970   5.130 -0.0932  1.5325 -0.4992
 7467SOL     OW34036   3.067   3.046   3.736  0.5541  0.0233 -0.9588
 7467SOL    HW134037   2.981   3.086   3.750 -0.7285 -2.2758 -2.2643
 7467SOL    HW234038   3.091   3.075   3.824 -0.4425  0.6602 -0.8958
 7468SOL     OW34039   3.360   1.974   4.357  0.4622  0.2755 -0.2898
 7468SOL    HW134040   3.320   2.036   4.418  0.6158 -0.1783  0.2748
 7468SOL    HW234041   3.436   1.942   4.406 -0.7884 -0.8153  0.9365
 7469SOL     OW34042   4.057   0.182   0.284 -0.2080  0.1865 -0.1485
 7469SOL    HW134043   4.087   0.251   0.344 -0.1429  1.0205 -1.1445
 7469SOL    HW234044   4.031   0.231   0.206 -0.6451  2.0719  1.1746
 7470SOL     OW34045   2.527   2.331   3.145 -0.2449 -0.0124  0.3006
 7470SOL    HW134046   2.524   2.251   3.092 -1.4745  2.1284 -2.8881
 7470SOL    HW234047   2.463   2.381   3.095  0.8624 -0.4360 -1.5472
 7471SOL     OW34048   4.559   4.113   1.501 -0.0218 -0.0070  0.7255
 7471SOL    HW134049   4.639   4.124   1.553  0.2105  2.4424 -0.1102
 7471SOL    HW234050   4.559   4.200   1.459 -1.3172 -1.7356 -2.8488
 7472SOL     OW34051   2.081   4.524   4.218  0.3628 -0.3526 -0.1481
 7472SOL    HW134052   2.170   4.560   4.228 -0.3943  1.5722 -0.3001
 7472SOL    HW234053   2.072   4.487   4.306  2.0708  1.0008  0.6017
 7473SOL     OW34054   0.518   1.539   3.558 -0.1761 -0.1696  0.4618
 7473SOL    HW134055   0.431   1.502   3.572 -1.2508  2.7578  1.6405
 7473SOL    HW234056   0.565   1.499   3.631  0.7072  1.3986  0.7550
 7474SOL     OW34057   0.669   3.786   7.252 -0.1135  0.3594  0.0660
 7474SOL    HW134058   0.747   3.819   7.207  0.9215 -1.4590  0.5145
 7474SOL    HW234059   0.706   3.704   7.284 -1.9624 -0.7478 -0.7168
 7475SOL     OW34060   0.865   3.518   5.698 -0.0315 -0.0894 -0.1659
 7475SOL    HW134061   0.952   3.550   5.724 -0.2414 -2.2126  3.1856
 7475SOL    HW234062   0.888   3.428   5.672  0.6558 -0.5822  2.1125
 7476SOL     OW34063   3.626   0.419   1.441 -0.0741 -0.0331  0.5447
 7476SOL    HW134064   3.543   0.451   1.407  0.3515 -0.8085 -1.2450
 7476SOL    HW234065   3.691   0.482   1.411 -0.0320  0.1149  0.9417
 7477SOL     OW34066   3.606   3.169   3.676 -0.3539 -0.4506  0.3731
 7477SOL    HW134067   3.524   3.208   3.704  1.2367  1.0516  2.9422
 7477SOL    HW234068   3.588   3.091   3.729 -2.7526  0.5012  0.9567
 7478SOL     OW34069   0.069   3.198   6.743 -0.0665 -0.2366 -0.1145
 7478SOL    HW134070   0.037   3.177   6.831  1.7741  1.7555  1.0256
 7478SOL    HW234071   0.141   3.135   6.737  0.1808  0.0702 -0.3320
 7479SOL     OW34072   0.705   2.368   6.537 -0.1586 -0.1787 -0.5870
 7479SOL    HW134073   0.686   2.339   6.448 -2.4737 -1.4316  0.3135
 7479SOL    HW234074   0.733   2.289   6.582 -0.2358  0.6041  0.8563
 7480SOL     OW34075   0.673   1.336   7.832 -0.6016 -0.2917 -0.3864
 7480SOL    HW134076   0.667   1.402   7.763  0.2473  0.7711  0.5469
 7480SOL    HW234077   0.583   1.344   7.865 -0.9651 -0.6389 -1.3121
 7481SOL     OW34078   0.633   2.210   9.178 -0.5009  0.1472 -0.1324
 7481SOL    HW134079   0.575   2.142   9.143  1.7567 -2.1230  0.4803
 7481SOL    HW234080   0.707   2.150   9.191  0.2755  1.4656  1.5506
 7482SOL     OW34081   3.384   4.029   7.854  0.0686  0.5086 -0.2056
 7482SOL    HW134082   3.318   4.018   7.923  1.8617  2.4615  1.7727
 7482SOL    HW234083   3.321   4.032   7.782 -1.2456  0.5524  0.9255
 7483SOL     OW34084   1.457   2.154   4.536  0.3137  0.1547 -0.2162
 7483SOL    HW134085   1.437   2.090   4.468  2.2257  0.6478 -1.2178
 7483SOL    HW234086   1.413   2.227   4.491 -0.6633 -0.3278 -0.0579
 7484SOL     OW34087   0.437   2.810   6.003  0.2203 -0.6780  0.6944
 7484SOL    HW134088   0.515   2.807   6.057  0.0372  0.5223  1.0308
 7484SOL    HW234089   0.480   2.829   5.920 -0.6930 -0.6299  0.2255
 7485SOL     OW34090   4.514   4.636   7.092  0.7685  0.0492  0.4931
 7485SOL    HW134091   4.569   4.651   7.015 -3.4561  2.3553 -2.0760
 7485SOL    HW234092   4.448   4.703   7.075 -3.0933 -3.5077  1.4896
 7486SOL     OW34093   2.643   3.550  15.063  0.2299  0.3334 -0.0056
 7486SOL    HW134094   2.689   3.617  15.015  0.0808 -1.2852 -2.4023
 7486SOL    HW234095   2.554   3.556  15.026  0.6810 -1.7993 -1.4170
 7487SOL     OW34096   2.846   4.252  12.425 -0.3370  0.1195  0.3972
 7487SOL    HW134097   2.837   4.244  12.330  0.4822  1.3707  0.2129
 7487SOL    HW234098   2.903   4.179  12.450 -1.3656 -0.7150  0.3008
 7488SOL     OW34099   4.170   0.548   8.365  0.2866  0.1640  0.1712
 7488SOL    HW134100   4.122   0.629   8.377 -1.4523 -0.7317 -0.7697
 7488SOL    HW234101   4.213   0.556   8.450  1.0526  0.0569 -0.1977
 7489SOL     OW34102   3.444   0.910   8.340  0.7409 -0.1851  0.3030
 7489SOL    HW134103   3.492   0.989   8.315  1.5070 -0.8147 -0.2080
 7489SOL    HW234104   3.515   0.862   8.381  1.4503  0.1909 -0.4781
 7490SOL     OW34105   2.246   3.393   6.060  0.2670  0.0347  0.0528
 7490SOL    HW134106   2.335   3.387   6.025 -0.6055  1.9447 -2.5528
 7490SOL    HW234107   2.255   3.419   6.151  0.5328  1.5354 -0.4042
 7491SOL     OW34108   1.299   0.470   6.396 -0.2530  0.3800  0.2030
 7491SOL    HW134109   1.210   0.505   6.386 -0.5584 -0.8738 -1.4073
 7491SOL    HW234110   1.314   0.480   6.490 -2.5536  3.3819  0.2699
 7492SOL     OW34111   2.970   3.102  17.328 -0.3502  0.0670 -0.1643
 7492SOL    HW134112   2.879   3.082  17.311 -0.8609  1.2233  1.2105
 7492SOL    HW234113   2.967   3.098  17.423  2.0572 -1.7501 -0.1760
 7493SOL     OW34114   3.630   0.167   6.418 -0.2358  0.2183 -0.7555
 7493SOL    HW134115   3.647   0.219   6.340  1.2362  0.4569 -0.2910
 7493SOL    HW234116   3.592   0.238   6.469  0.3172  2.0742 -2.9454
 7494SOL     OW34117   4.053   3.780   3.330 -0.7011  0.2855  0.2142
 7494SOL    HW134118   4.060   3.819   3.417 -0.4972  3.1892 -1.0916
 7494SOL    HW234119   3.973   3.734   3.354  0.7190 -3.8012 -2.9124
 7495SOL     OW34120   4.053   2.699   2.064 -0.1822 -0.2300 -0.3376
 7495SOL    HW134121   4.014   2.782   2.037  1.1187  0.9314  1.3659
 7495SOL    HW234122   4.146   2.718   2.060 -0.1150 -0.1794  1.2574
 7496SOL     OW34123   2.993   4.029   2.244  0.8028  0.0669 -0.5526
 7496SOL    HW134124   2.916   4.071   2.207  0.1637  0.1295  0.8819
 7496SOL    HW234125   2.990   3.950   2.189  1.7479 -0.2873 -0.1066
 7497SOL     OW34126   3.394   2.625  17.206  0.1998 -0.1495  0.6885
 7497SOL    HW134127   3.434   2.686  17.145  0.8927 -3.0989 -1.7987
 7497SOL    HW234128   3.345   2.560  17.157  2.2980 -0.3005 -1.1831
 7498SOL     OW34129   3.592   3.951   6.620 -0.5593  0.2257  0.2993
 7498SOL    HW134130   3.499   3.929   6.619  0.3668 -3.5615 -1.1000
 7498SOL    HW234131   3.635   3.933   6.537 -0.1079  0.0638  0.5705
 7499SOL     OW34132   2.401   0.491   3.559  0.1082  0.0792  0.3064
 7499SOL    HW134133   2.494   0.517   3.556  0.7606 -2.2967 -0.4785
 7499SOL    HW234134   2.390   0.485   3.654  0.0105 -0.0385  0.2869
 7500SOL     OW34135   1.702   4.598  13.473  0.3889  0.3124 -0.4923
 7500SOL    HW134136   1.695   4.504  13.491  1.6981  0.6463  1.7555
 7500SOL    HW234137   1.613   4.616  13.441 -0.9739 -2.9180  1.4739
 7501SOL     OW34138   4.031   3.420   3.381  0.1198  0.4484  0.0453
 7501SOL    HW134139   3.959   3.406   3.443 -1.1226 -1.1900 -1.7606
 7501SOL    HW234140   3.987   3.400   3.299  2.7372 -0.5652 -1.1052
 7502SOL     OW34141   2.396   1.293   4.590 -0.0994  0.1911 -0.0343
 7502SOL    HW134142   2.377   1.363   4.654  0.9522  0.2517  0.2067
 7502SOL    HW234143   2.465   1.332   4.537  0.4142  0.2733  0.6976
 7503SOL     OW34144   2.500   3.662   3.702  0.1529 -0.9057  0.3804
 7503SOL    HW134145   2.499   3.566   3.701  0.8942 -0.9113  0.5255
 7503SOL    HW234146   2.432   3.693   3.762 -1.2523  0.5129 -1.9464
 7504SOL     OW34147   2.333   1.413   2.576 -0.5555  0.2490  0.4809
 7504SOL    HW134148   2.411   1.443   2.624 -0.0632  0.0249 -0.1717
 7504SOL    HW234149   2.299   1.340   2.628 -0.6061 -1.3140 -1.7891
 7505SOL     OW34150   3.438   3.819   0.958 -0.3407  0.5105 -0.2433
 7505SOL    HW134151   3.488   3.872   0.897  0.3326 -0.2348 -0.3429
 7505SOL    HW234152   3.510   3.757   0.972  0.4934  1.5690  0.0756
 7506SOL     OW34153   0.088   2.041   8.189  0.0275 -0.4733 -0.3025
 7506SOL    HW134154   0.165   2.098   8.180  2.1232 -3.2936 -0.4410
 7506SOL    HW234155   0.125   1.980   8.125 -0.8054  1.8464 -2.9812
 7507SOL     OW34156   2.240   0.044   0.404  0.7551  0.8276  0.2549
 7507SOL    HW134157   2.314   4.735   0.363 -2.5490 -2.9682 -1.4161
 7507SOL    HW234158   2.211   4.715   0.467  0.8822 -0.0577 -0.6261
 7508SOL     OW34159   3.869   2.661   1.004 -0.4042 -0.1116  0.1854
 7508SOL    HW134160   3.897   2.738   0.954 -0.9396  1.4144  2.2430
 7508SOL    HW234161   3.804   2.696   1.065 -0.7345  0.9627 -0.7794
 7509SOL     OW34162   4.166   0.549   2.447  0.3488 -0.2095  0.7746
 7509SOL    HW134163   4.079   0.540   2.486  0.6952 -1.2919  1.2821
 7509SOL    HW234164   4.222   0.574   2.520 -2.6937 -1.5818  3.5783
 7510SOL     OW34165   0.830   0.001   0.685  0.7433  0.4828 -0.0084
 7510SOL    HW134166   0.870   0.005   0.598 -0.0507  1.6848 -0.3261
 7510SOL    HW234167   0.904   0.028   0.739  1.3661 -1.0486 -0.1200
 7511SOL     OW34168   1.515   3.760   5.557  0.0876 -0.2711  0.2249
 7511SOL    HW134169   1.588   3.812   5.526 -0.7771  1.3062  0.8430
 7511SOL    HW234170   1.498   3.782   5.649  2.5954 -1.3144  0.9472
 7512SOL     OW34171   0.567   4.152  16.075 -0.1882  0.2622 -0.9247
 7512SOL    HW134172   0.648   4.122  16.116 -0.3373 -0.0123 -0.8341
 7512SOL    HW234173   0.574   4.102  15.993  0.4382 -0.1193 -0.6359
 7513SOL     OW34174   0.726   4.184   9.182  0.2849  0.0017 -0.4191
 7513SOL    HW134175   0.721   4.088   9.178  1.4266 -0.0177 -1.2686
 7513SOL    HW234176   0.703   4.210   9.093  0.1917  2.4893  0.3361
 7514SOL     OW34177   1.753   3.470   8.248 -0.3470 -0.5311 -0.1754
 7514SOL    HW134178   1.826   3.409   8.255  1.9703  2.2137 -0.4966
 7514SOL    HW234179   1.677   3.414   8.232 -1.4250  1.2735 -1.3536
 7515SOL     OW34180   0.066   2.852   8.306  0.0691  0.3631  0.1630
 7515SOL    HW134181   0.007   2.796   8.356 -0.1897 -0.3903 -0.9832
 7515SOL    HW234182   0.146   2.806   8.331 -0.8713 -0.6453  1.3284
 7516SOL     OW34183   4.421   1.116   2.417 -0.4234  0.4085  0.2739
 7516SOL    HW134184   4.331   1.105   2.385 -0.9758  0.6406  1.7159
 7516SOL    HW234185   4.456   1.175   2.350  1.7484 -1.3244 -0.1266
 7517SOL     OW34186   1.098   0.609   5.035 -0.0163 -0.1236  0.3622
 7517SOL    HW134187   1.092   0.534   5.094  1.2291 -0.3365  0.2365
 7517SOL    HW234188   1.037   0.669   5.078  1.0942  0.1788  1.5217
 7518SOL     OW34189   2.236   0.324  13.188 -0.2113  0.4767 -0.0749
 7518SOL    HW134190   2.315   0.286  13.151 -1.3330  0.4293 -2.4085
 7518SOL    HW234191   2.239   0.419  13.173  0.0388  0.1812 -1.8544
 7519SOL     OW34192   3.386   2.093   2.404 -0.4772  0.2570 -0.5292
 7519SOL    HW134193   3.442   2.016   2.407 -1.5527 -0.5557 -1.2929
 7519SOL    HW234194   3.405   2.141   2.484 -0.7191  0.6856 -0.7246
 7520SOL     OW34195   1.290   1.178  16.446  0.5909  0.1683  0.4924
 7520SOL    HW134196   1.335   1.259  16.422  1.2363 -0.3182  0.0784
 7520SOL    HW234197   1.217   1.175  16.384  0.3899 -2.9466  0.8724
 7521SOL     OW34198   2.854   2.219   8.864  0.0259 -1.0677  0.9361
 7521SOL    HW134199   2.797   2.241   8.790 -0.6014 -1.7684  1.2096
 7521SOL    HW234200   2.811   2.138   8.893  1.0373 -1.3613  1.6367
 7522SOL     OW34201   0.098   2.677   1.805 -0.6259 -0.2808 -0.8057
 7522SOL    HW134202   0.095   2.583   1.820  0.6953 -0.6924 -3.2052
 7522SOL    HW234203   0.019   2.712   1.845 -1.1247 -1.0633 -1.1195
 7523SOL     OW34204   1.436   3.388   3.393 -0.0303 -0.1855 -0.3880
 7523SOL    HW134205   1.471   3.442   3.322  2.9690 -1.3952  0.1789
 7523SOL    HW234206   1.513   3.352   3.436 -0.8978 -1.9132 -0.2828
 7524SOL     OW34207   1.037   0.136   7.412 -0.3061 -0.7121 -0.4822
 7524SOL    HW134208   1.048   0.134   7.507  1.0823 -0.8128 -0.6398
 7524SOL    HW234209   0.971   0.069   7.395 -1.2208  0.4730 -1.6720
 7525SOL     OW34210   4.728   2.451   6.593 -0.5825  0.0292 -0.0364
 7525SOL    HW134211   0.070   2.416   6.551 -0.3902 -1.0775  1.2628
 7525SOL    HW234212   0.015   2.430   6.683 -1.9641  0.1154  0.3552
 7526SOL     OW34213   2.787   1.729  16.224 -0.0385 -0.0292 -0.3167
 7526SOL    HW134214   2.711   1.745  16.280  0.1790 -2.9061  0.7907
 7526SOL    HW234215   2.837   1.806  16.250 -0.1831 -1.4036  4.0428
 7527SOL     OW34216   2.510   4.123   8.530  0.0905 -0.4201  0.1771
 7527SOL    HW134217   2.421   4.101   8.503  0.7491 -2.4736 -0.2931
 7527SOL    HW234218   2.556   4.040   8.530 -0.7938 -0.9151 -1.1276
 7528SOL     OW34219   0.943   4.449  11.122 -0.2082  0.3933  0.0157
 7528SOL    HW134220   0.887   4.389  11.073 -1.1636  0.1374  1.4145
 7528SOL    HW234221   0.928   4.529  11.072 -1.5801 -0.8708 -1.5918
 7529SOL     OW34222   2.798   0.782   4.365 -0.5031 -0.4938  0.6483
 7529SOL    HW134223   2.814   0.873   4.388 -0.6475 -0.6746  1.4651
 7529SOL    HW234224   2.875   0.738   4.400  1.2320  0.1238 -2.3568
 7530SOL     OW34225   1.890   1.301  16.298 -0.3308  0.4958 -0.1570
 7530SOL    HW134226   1.908   1.328  16.208  1.1358  0.7890  0.2303
 7530SOL    HW234227   1.966   1.339  16.342 -0.2319  1.0230 -0.7813
 7531SOL     OW34228   1.049   3.775   8.778 -0.4793 -0.9647  0.1161
 7531SOL    HW134229   1.080   3.708   8.717  1.5390  0.6710 -0.6357
 7531SOL    HW234230   1.096   3.742   8.855 -1.7784  0.7571  1.6311
 7532SOL     OW34231   4.019   2.177   9.288  0.0627 -0.2044 -0.1760
 7532SOL    HW134232   4.087   2.226   9.335  1.1641 -1.4578 -0.4603
 7532SOL    HW234233   3.993   2.120   9.361 -0.4035 -0.1395 -0.2955
 7533SOL     OW34234   0.594   3.558   8.532  0.1466  0.4880  0.2305
 7533SOL    HW134235   0.673   3.598   8.495  0.1744 -1.7262 -2.0816
 7533SOL    HW234236   0.531   3.614   8.487 -0.3484 -0.4904 -0.2906
 7534SOL     OW34237   1.627   1.185  15.356 -0.2051 -0.0939 -0.2039
 7534SOL    HW134238   1.639   1.139  15.439 -1.4821  1.1744  0.6938
 7534SOL    HW234239   1.653   1.109  15.304 -1.7655 -1.4698  1.0460
 7535SOL     OW34240   0.509   1.361   2.415  0.2579 -0.0134  0.0679
 7535SOL    HW134241   0.560   1.348   2.495  2.0950 -0.5517 -1.1861
 7535SOL    HW234242   0.428   1.321   2.444  0.9525 -1.8636 -0.5859
 7536SOL     OW34243   4.505   4.663  16.669  0.1123  0.6146 -0.0955
 7536SOL    HW134244   4.475   4.602  16.602 -0.0437  1.1864 -0.5438
 7536SOL    HW234245   4.559   4.722  16.617  0.0135 -0.0660 -0.9859
 7537SOL     OW34246   2.869   1.714   5.512 -0.1056  0.0349  0.2866
 7537SOL    HW134247   2.862   1.810   5.506  0.9303 -0.0410 -2.3137
 7537SOL    HW234248   2.885   1.714   5.606  1.4424 -0.1306  0.0278
 7538SOL     OW34249   2.277   3.617   8.265 -0.1138 -0.2519 -0.2606
 7538SOL    HW134250   2.296   3.541   8.210  0.0088 -0.2919 -0.1634
 7538SOL    HW234251   2.249   3.686   8.206  1.1642  1.2183  0.8607
 7539SOL     OW34252   3.109   1.070   5.027 -0.2616  0.1095 -0.0636
 7539SOL    HW134253   3.089   0.982   5.059 -1.5764  0.4442  0.0611
 7539SOL    HW234254   3.091   1.065   4.933 -1.0944 -2.2728  0.2257
 7540SOL     OW34255   1.143   4.703  11.766 -0.1980  0.6896  0.6138
 7540SOL    HW134256   1.081   4.724  11.835 -3.9472 -0.0284 -2.5003
 7540SOL    HW234257   1.087   4.672  11.695  0.4726  2.5368 -0.7232
 7541SOL     OW34258   0.817   0.583   7.701  0.0764  0.8734  0.4291
 7541SOL    HW134259   0.850   0.512   7.645 -1.8131  0.3754 -0.0477
 7541SOL    HW234260   0.725   0.557   7.703  0.4706 -0.2826  2.9916
 7542SOL     OW34261   2.758   3.524   3.615 -0.2440 -0.4017  0.4310
 7542SOL    HW134262   2.725   3.435   3.621 -0.3377 -0.5493 -2.4167
 7542SOL    HW234263   2.685   3.550   3.559 -0.9729  2.7798  2.7998
 7543SOL     OW34264   3.150   1.633   9.826  0.2879 -0.0705  0.1675
 7543SOL    HW134265   3.076   1.573   9.833  1.2775 -1.3154 -0.1625
 7543SOL    HW234266   3.183   1.648   9.915  0.5512  2.6532 -0.3758
 7544SOL     OW34267   2.495   0.275   9.363 -0.3444 -0.2154  0.3333
 7544SOL    HW134268   2.501   0.273   9.458  0.5820 -0.8366  0.2566
 7544SOL    HW234269   2.499   0.370   9.355 -0.5163 -0.2346  0.0212
 7545SOL     OW34270   0.909   4.215   2.347  0.7310  0.4934 -0.7271
 7545SOL    HW134271   1.003   4.212   2.360  0.7763  1.2803 -0.8827
 7545SOL    HW234272   0.907   4.308   2.324 -2.5879  0.8968  1.1411
 7546SOL     OW34273   3.294   1.832   8.584  0.4258 -0.9266  0.2965
 7546SOL    HW134274   3.237   1.785   8.645  0.2455 -1.1634 -0.0575
 7546SOL    HW234275   3.349   1.894   8.632 -2.1440  0.7267  1.0544
 7547SOL     OW34276   4.735   0.663   9.050 -0.0922 -0.0278  0.6772
 7547SOL    HW134277   0.054   0.627   9.118 -0.5726 -0.8662  0.6449
 7547SOL    HW234278   4.658   0.686   9.102 -1.2169  0.1794 -1.0500
 7548SOL     OW34279   4.714   3.649   8.322 -0.0355 -0.3887  0.2505
 7548SOL    HW134280   4.701   3.591   8.247 -0.2367 -0.0666  0.0384
 7548SOL    HW234281   4.622   3.661   8.346  0.4322  0.0572  1.8865
 7549SOL     OW34282   1.404   0.771   0.737  0.2553 -0.3365 -0.3484
 7549SOL    HW134283   1.498   0.784   0.726 -0.1166  1.8373 -0.8909
 7549SOL    HW234284   1.392   0.692   0.790  1.1074 -0.2665 -0.0434
 7550SOL     OW34285   3.871   1.175  13.992  1.0438  0.2891 -0.2344
 7550SOL    HW134286   3.887   1.099  13.936  0.1962  0.5596 -0.8450
 7550SOL    HW234287   3.961   1.173  14.025  0.7651  0.5907  0.5207
 7551SOL     OW34288   0.985   4.532   4.706  0.1518  0.4490  0.0336
 7551SOL    HW134289   1.062   4.510   4.759  0.2926 -1.5851 -0.9986
 7551SOL    HW234290   1.004   4.504   4.617 -4.3534 -2.7785  0.0925
 7552SOL     OW34291   2.902   4.103   7.625  0.1061  0.8366  0.1296
 7552SOL    HW134292   2.873   4.186   7.586  0.3054  0.1707 -1.4576
 7552SOL    HW234293   2.966   4.127   7.692 -0.5417  1.2779  0.5894
 7553SOL     OW34294   3.902   4.542   7.021 -0.3355 -0.1040  0.1065
 7553SOL    HW134295   3.914   4.453   7.054 -0.0732  0.0644  0.4507
 7553SOL    HW234296   3.938   4.529   6.933  0.3134 -0.5366  0.4383
 7554SOL     OW34297   3.691   3.389   7.584 -0.5196  0.1370  0.2896
 7554SOL    HW134298   3.776   3.386   7.541 -1.3350  1.7908 -1.4461
 7554SOL    HW234299   3.668   3.301   7.612 -0.3795 -0.7307 -2.3105
 7555SOL     OW34300   0.058   2.042   6.107  0.0011 -0.4431  0.2181
 7555SOL    HW134301   0.103   2.109   6.159 -0.7701  0.1445  0.1384
 7555SOL    HW234302   4.714   2.089   6.086 -1.0225 -0.9002  3.1169
 7556SOL     OW34303   4.692   2.611  15.466  0.3095  0.1685 -0.4098
 7556SOL    HW134304   4.660   2.526  15.433 -0.0749  0.7876 -1.6597
 7556SOL    HW234305   4.617   2.663  15.493  1.1283  0.5965  1.0010
 7557SOL     OW34306   4.166   4.374   7.499 -0.6653 -0.2591 -0.6302
 7557SOL    HW134307   4.146   4.314   7.572  0.6396 -0.9709 -0.8691
 7557SOL    HW234308   4.090   4.364   7.442 -0.6943  1.6596 -0.9205
 7558SOL     OW34309   2.399   0.730   6.466 -0.0600 -0.3217  0.1831
 7558SOL    HW134310   2.477   0.689   6.429 -1.0079 -1.8874 -0.0892
 7558SOL    HW234311   2.420   0.722   6.559 -0.1540 -0.6947  0.1707
 7559SOL     OW34312   0.532   4.061   5.729 -0.2374 -0.9259 -0.2309
 7559SOL    HW134313   0.606   4.021   5.775 -0.1706 -1.8575 -1.1466
 7559SOL    HW234314   0.564   4.152   5.731 -0.4268 -0.8707  0.1604
 7560SOL     OW34315   0.772   1.079   1.598  0.2923 -0.4346 -0.5773
 7560SOL    HW134316   0.790   1.104   1.689 -0.8817 -1.6594 -0.0061
 7560SOL    HW234317   0.682   1.112   1.588  1.0537  1.3005 -1.7044
 7561SOL     OW34318   3.786   3.001  10.106 -0.2905 -0.7738 -0.0998
 7561SOL    HW134319   3.836   2.932  10.148 -2.8512 -1.3486  1.9821
 7561SOL    HW234320   3.700   2.961  10.093  0.0035 -1.0620 -1.2019
 7562SOL     OW34321   1.769   1.561  11.749  0.0882 -0.1355 -0.1087
 7562SOL    HW134322   1.857   1.595  11.765  0.6692 -1.8100  0.2913
 7562SOL    HW234323   1.736   1.549  11.838 -1.3623  1.5505 -0.4339
 7563SOL     OW34324   0.861   1.805   9.241  0.2903  0.4967 -0.1725
 7563SOL    HW134325   0.952   1.794   9.269 -0.3962  0.9884  2.2270
 7563SOL    HW234326   0.869   1.772   9.151  3.2737 -1.0034  0.6567
 7564SOL     OW34327   3.297   2.875   7.743 -0.2369  0.0637 -0.1112
 7564SOL    HW134328   3.290   2.944   7.677  2.8690  0.1687 -0.3170
 7564SOL    HW234329   3.254   2.921   7.814  1.4210 -3.1503  2.9476
 7565SOL     OW34330   0.704   4.219   0.540 -0.1470  0.3739  0.2247
 7565SOL    HW134331   0.686   4.126   0.526  0.8232 -0.0056  1.5394
 7565SOL    HW234332   0.621   4.265   0.527 -0.0978 -0.1818 -2.1197
 7566SOL     OW34333   2.692   3.770  13.030  0.3828 -0.2640 -0.2345
 7566SOL    HW134334   2.786   3.783  13.041  0.2795 -1.2364  1.9671
 7566SOL    HW234335   2.679   3.832  12.959 -0.0073 -0.2858 -0.1877
 7567SOL     OW34336   4.704   3.162   4.883 -0.0749  0.7436  0.0181
 7567SOL    HW134337   4.680   3.211   4.805  1.9538  1.0295 -0.4159
 7567SOL    HW234338   4.731   3.231   4.944  1.3090 -0.3785  0.6735
 7568SOL     OW34339   0.565   2.252   2.317  0.1513  0.3765  0.9337
 7568SOL    HW134340   0.657   2.227   2.306 -0.0132  0.3676 -0.4040
 7568SOL    HW234341   0.560   2.342   2.286 -0.1789 -1.1240 -3.3515
 7569SOL     OW34342   3.506   3.362  11.374  0.1284 -0.0573 -0.1348
 7569SOL    HW134343   3.427   3.380  11.425 -0.1525 -0.1860 -0.5320
 7569SOL    HW234344   3.505   3.438  11.315  0.9727  0.1440  0.1014
 7570SOL     OW34345   0.677   2.861   1.822 -0.2513 -0.3028  0.4496
 7570SOL    HW134346   0.695   2.810   1.743 -0.3966  1.1496 -0.5024
 7570SOL    HW234347   0.648   2.791   1.881  0.6913 -0.9834  0.1221
 7571SOL     OW34348   2.346   4.359   6.582  0.0679  0.4910 -0.7557
 7571SOL    HW134349   2.295   4.327   6.656 -0.8263  2.1912 -0.6170
 7571SOL    HW234350   2.418   4.296   6.583 -0.0519  0.3364 -1.7207
 7572SOL     OW34351   0.938   3.616  16.605  0.2234  0.0224  0.1191
 7572SOL    HW134352   0.898   3.533  16.578 -0.9149  1.0604 -1.3310
 7572SOL    HW234353   1.023   3.593  16.642  0.1720 -2.0929 -1.1032
 7573SOL     OW34354   4.173   4.675  11.650  0.1830  0.1181 -0.4464
 7573SOL    HW134355   4.260   4.683  11.610  0.3532 -1.0768 -0.3208
 7573SOL    HW234356   4.156   4.590  11.609  2.3989  0.8490 -2.9327
 7574SOL     OW34357   0.771   2.715   9.606  0.2468  0.3532  0.0187
 7574SOL    HW134358   0.782   2.650   9.536 -0.6375  0.2559 -0.0251
 7574SOL    HW234359   0.797   2.657   9.678  0.3623 -1.0925 -1.1814
 7575SOL     OW34360   4.021   1.464   0.782 -0.0935 -0.0232 -0.2848
 7575SOL    HW134361   4.007   1.552   0.818 -0.2528 -0.5578  0.9610
 7575SOL    HW234362   3.936   1.426   0.805  1.2510 -1.9883  1.4166
 7576SOL     OW34363   2.027   3.376   1.610 -0.2560  0.2724 -0.1259
 7576SOL    HW134364   1.981   3.305   1.565  0.9800 -1.7690  1.8130
 7576SOL    HW234365   2.095   3.394   1.545  1.4524 -1.5870  1.1301
 7577SOL     OW34366   3.450   2.200   2.636  0.1819 -0.7382  0.1063
 7577SOL    HW134367   3.471   2.280   2.684  1.1763 -0.1608 -1.3084
 7577SOL    HW234368   3.441   2.141   2.711 -0.3452  1.6437  1.9403
 7578SOL     OW34369   0.523   1.571   3.049 -0.6822  0.3133  0.7066
 7578SOL    HW134370   0.544   1.534   3.135  1.7937 -0.2731 -0.1408
 7578SOL    HW234371   0.537   1.666   3.057 -0.2638  0.2471  0.7755
 7579SOL     OW34372   2.993   3.722   0.729  0.3633  0.5136 -0.7031
 7579SOL    HW134373   3.056   3.651   0.735  0.2861  0.4848 -0.2579
 7579SOL    HW234374   3.000   3.743   0.635  3.9197 -0.8492 -0.7406
 7580SOL     OW34375   2.719   0.855   5.842  0.3647  0.0091  0.2094
 7580SOL    HW134376   2.769   0.793   5.895  1.3166  0.7043  0.1247
 7580SOL    HW234377   2.647   0.799   5.811 -0.9565  2.4667 -1.1323
 7581SOL     OW34378   2.097   3.938   4.778  0.2465  0.1354 -0.3029
 7581SOL    HW134379   2.121   3.972   4.864  1.5108  0.0673 -0.6250
 7581SOL    HW234380   2.184   3.927   4.739  1.4652  0.2063  2.4087
 7582SOL     OW34381   2.939   1.460   9.843 -0.3384  0.3822  0.0097
 7582SOL    HW134382   2.923   1.372   9.809  0.1073  0.3993 -0.2415
 7582SOL    HW234383   2.908   1.463   9.934  0.1057  0.6780  0.1572
 7583SOL     OW34384   1.366   3.844   4.876  0.7214  0.3040  0.0785
 7583SOL    HW134385   1.329   3.902   4.808  2.2041 -0.4746 -1.3752
 7583SOL    HW234386   1.329   3.894   4.949 -2.2968 -2.1310  0.2101
 7584SOL     OW34387   4.447   1.525   5.710 -0.6739  0.3137 -0.3997
 7584SOL    HW134388   4.439   1.467   5.785 -2.0095 -0.4878 -1.1653
 7584SOL    HW234389   4.383   1.490   5.648 -0.0699  0.5473 -1.1494
 7585SOL     OW34390   0.663   2.984   2.738 -0.4881 -0.4023 -0.0443
 7585SOL    HW134391   0.617   2.945   2.664 -0.5649  3.0304 -1.7555
 7585SOL    HW234392   0.728   2.914   2.749 -0.0994 -0.0849 -0.3665
 7586SOL     OW34393   1.152   3.112   1.105  0.3751 -0.1420  0.0613
 7586SOL    HW134394   1.141   3.057   1.027  0.0320  1.2757 -0.8898
 7586SOL    HW234395   1.238   3.151   1.090  0.8199 -2.0232 -2.3643
 7587SOL     OW34396   2.290   2.791   6.069 -0.0374  0.2565  0.0884
 7587SOL    HW134397   2.381   2.766   6.053 -0.6384 -1.0994 -1.2927
 7587SOL    HW234398   2.279   2.775   6.163  1.3342  1.2526  0.4014
 7588SOL     OW34399   1.547   3.475   2.259 -0.0244  0.4525  0.2355
 7588SOL    HW134400   1.618   3.437   2.207 -0.3232  0.6451 -0.3172
 7588SOL    HW234401   1.504   3.529   2.192 -1.4352  0.3624  1.0756
 7589SOL     OW34402   2.456   3.443   9.081  0.7667 -0.1340  0.5710
 7589SOL    HW134403   2.419   3.366   9.123  0.2815 -1.6566 -2.6650
 7589SOL    HW234404   2.427   3.439   8.990  1.9929 -0.7850  0.2142
 7590SOL     OW34405   3.864   4.560  13.735 -0.1993  0.3193  0.2350
 7590SOL    HW134406   3.931   4.542  13.800 -1.5598 -0.4689  1.4004
 7590SOL    HW234407   3.839   4.650  13.756 -0.9099 -0.1156  1.2208
 7591SOL     OW34408   3.147   4.172  11.345 -0.2786  0.0782 -0.1329
 7591SOL    HW134409   3.152   4.094  11.401  2.0937  0.9982  0.9632
 7591SOL    HW234410   3.102   4.138  11.268 -0.4764 -0.8171  0.3750
 7592SOL     OW34411   3.995   1.941   4.149 -0.2341 -0.2869 -0.2970
 7592SOL    HW134412   3.924   2.004   4.163  0.2989  0.7998 -2.4888
 7592SOL    HW234413   3.988   1.885   4.226 -1.3976  1.8412  1.1464
 7593SOL     OW34414   3.203   1.822   1.874 -0.2454  0.0498  0.3038
 7593SOL    HW134415   3.236   1.870   1.950 -1.7497  0.8801  0.4320
 7593SOL    HW234416   3.137   1.879   1.834  0.1513 -0.6938 -1.3989
 7594SOL     OW34417   0.357   2.204   4.404  0.0059 -0.2050  0.4098
 7594SOL    HW134418   0.360   2.215   4.309 -1.9614  0.0420  0.3854
 7594SOL    HW234419   0.448   2.200   4.436 -0.2666  1.4671  1.3936
 7595SOL     OW34420   0.150   1.098  14.424  0.0971  0.6771  0.2047
 7595SOL    HW134421   0.138   1.120  14.331  1.0057 -0.6118 -0.2249
 7595SOL    HW234422   0.244   1.109  14.438  0.6183  0.5936 -3.2314
 7596SOL     OW34423   1.563   3.656  14.497  0.0402  0.0676 -0.0711
 7596SOL    HW134424   1.513   3.703  14.430 -1.7777 -0.2592  1.0442
 7596SOL    HW234425   1.496   3.629  14.560  2.4300  0.0799  2.4928
 7597SOL     OW34426   4.689   0.383   3.969 -0.3305 -0.4296  0.2318
 7597SOL    HW134427   4.717   0.370   4.060  0.5847  1.4470  0.2165
 7597SOL    HW234428   4.634   0.460   3.984  0.0010  0.0690 -1.1454
 7598SOL     OW34429   1.000   0.481   7.485  0.1209  0.1681  0.3768
 7598SOL    HW134430   1.045   0.402   7.454 -1.2847 -0.5801  0.2550
 7598SOL    HW234431   0.988   0.541   7.412  0.1843  1.8116  1.7109
 7599SOL     OW34432   4.218   0.906  15.120 -0.0034  0.4982  0.2309
 7599SOL    HW134433   4.278   0.832  15.119 -1.4179 -0.6492 -0.8692
 7599SOL    HW234434   4.235   0.937  15.209  1.7892 -1.2669  0.4866
 7600SOL     OW34435   2.318   2.987   8.551 -0.1774  0.5861 -0.2568
 7600SOL    HW134436   2.224   2.996   8.535 -0.0981  1.4854 -0.2279
 7600SOL    HW234437   2.342   2.934   8.475 -0.9216  0.4653 -0.4032
 7601SOL     OW34438   1.945   1.316   5.470 -0.0551 -0.2464  0.3606
 7601SOL    HW134439   1.903   1.386   5.520 -2.2746 -1.4438  0.1716
 7601SOL    HW234440   1.914   1.301   5.381  1.5972 -2.6266  0.1694
 7602SOL     OW34441   4.274   4.038   2.765 -0.3832 -0.6139  0.1769
 7602SOL    HW134442   4.348   4.078   2.810  0.1777 -0.8760 -0.5186
 7602SOL    HW234443   4.222   4.118   2.751  1.4512  0.8803  1.8828
 7603SOL     OW34444   1.052   1.940   8.336  0.1275  0.0104 -0.0348
 7603SOL    HW134445   1.085   1.903   8.255 -0.8946 -0.1508 -0.3819
 7603SOL    HW234446   1.041   1.860   8.388  2.0973 -0.4890 -0.3789
 7604SOL     OW34447   3.004   0.766   6.185 -0.1116 -0.6666 -0.5761
 7604SOL    HW134448   3.049   0.693   6.228  1.5445  1.3324  1.0816
 7604SOL    HW234449   3.044   0.841   6.228 -2.8585  1.2234 -1.3363
 7605SOL     OW34450   2.992   4.568   6.321  0.0831 -0.4823  0.2599
 7605SOL    HW134451   2.941   4.623   6.262  0.1118 -0.0140  0.6687
 7605SOL    HW234452   3.064   4.632   6.320 -0.0220 -0.4024 -2.3878
 7606SOL     OW34453   4.065   4.537  12.968  0.0466 -0.3415  0.0650
 7606SOL    HW134454   3.998   4.549  13.035  0.7830  1.9432  0.3849
 7606SOL    HW234455   4.148   4.554  13.013  0.0968  2.9138 -1.2977
 7607SOL     OW34456   1.166   1.926   8.070  0.2584  0.5805 -1.2472
 7607SOL    HW134457   1.231   1.990   8.041 -1.9422  2.9485 -0.9076
 7607SOL    HW234458   1.184   1.860   8.004  0.1865 -2.0517  1.3610
 7608SOL     OW34459   1.755   1.133   8.733  0.1461 -0.3784  0.1975
 7608SOL    HW134460   1.830   1.185   8.704  1.1558 -2.0127 -0.1723
 7608SOL    HW234461   1.686   1.163   8.674 -1.2339  0.6264  2.3112
 7609SOL     OW34462   4.296   0.447  14.827 -0.0583 -0.1196 -0.1560
 7609SOL    HW134463   4.299   0.399  14.744  0.6807 -0.6679  0.1921
 7609SOL    HW234464   4.369   0.509  14.824 -0.2165  0.1320  1.5346
 7610SOL     OW34465   2.829   0.952   9.664  0.4782  0.1064 -0.4309
 7610SOL    HW134466   2.856   0.912   9.581  0.9006  1.9057 -1.1721
 7610SOL    HW234467   2.834   0.879   9.726 -1.0102 -0.2477 -0.7261
 7611SOL     OW34468   1.257   3.724   2.696 -0.1780 -0.1422  0.3526
 7611SOL    HW134469   1.179   3.674   2.722  0.9338 -0.8234  2.3982
 7611SOL    HW234470   1.309   3.708   2.774  0.5276 -1.5380 -0.4014
 7612SOL     OW34471   1.416   1.896   5.432  0.2344 -0.4036 -0.6104
 7612SOL    HW134472   1.438   1.952   5.358  1.8883  0.2920  0.4155
 7612SOL    HW234473   1.494   1.871   5.482  1.0886 -0.3588 -1.9276
 7613SOL     OW34474   1.736   2.073  13.063  0.9117 -0.1257 -0.1679
 7613SOL    HW134475   1.730   2.126  13.142  0.4999  0.7166 -0.7691
 7613SOL    HW234476   1.703   2.131  12.994 -0.0777  1.2588  1.4796
 7614SOL     OW34477   1.168   1.730   3.912 -0.0388  0.4058  0.1389
 7614SOL    HW134478   1.112   1.757   3.839  1.3174  1.4966 -0.4946
 7614SOL    HW234479   1.166   1.634   3.907  0.7779  0.2738  2.2495
 7615SOL     OW34480   1.230   3.320   2.786 -0.0222  0.1392  0.6333
 7615SOL    HW134481   1.171   3.287   2.854 -1.1705 -2.1876 -1.5042
 7615SOL    HW234482   1.190   3.400   2.753 -0.4758 -0.3263  0.0623
 7616SOL     OW34483   0.795   4.729   2.717 -0.2004  0.6609 -0.2841
 7616SOL    HW134484   0.835   0.066   2.763 -0.3000  1.7049 -1.8582
 7616SOL    HW234485   0.782   4.660   2.781  1.0265  0.8301  0.1351
 7617SOL     OW34486   1.059   0.538  16.108 -0.3499  0.3893  0.9811
 7617SOL    HW134487   1.039   0.444  16.109  1.2250  0.0471  0.8674
 7617SOL    HW234488   1.054   0.560  16.201  2.5957  1.1843  0.9705
 7618SOL     OW34489   0.655   1.052   8.746 -0.0730  0.4182 -0.1563
 7618SOL    HW134490   0.742   1.015   8.760 -0.4846  0.3239  2.1174
 7618SOL    HW234491   0.638   1.018   8.659 -0.5507 -1.3672  0.6455
 7619SOL     OW34492   3.744   0.481  16.240  0.0644 -0.3476  0.1778
 7619SOL    HW134493   3.753   0.554  16.301 -0.8930  1.4514 -1.8300
 7619SOL    HW234494   3.725   0.529  16.159 -0.9551 -1.4142 -0.2029
 7620SOL     OW34495   3.789   0.609   3.936  0.4748  0.4161 -0.2153
 7620SOL    HW134496   3.761   0.518   3.931 -0.8966  0.8920 -1.3189
 7620SOL    HW234497   3.865   0.609   3.879  1.2681 -1.2705  0.8456
 7621SOL     OW34498   0.654   1.587  13.656  0.0254  0.4300  0.0469
 7621SOL    HW134499   0.573   1.637  13.647  0.9130  1.5493 -1.6319
 7621SOL    HW234500   0.629   1.513  13.600  1.9879 -0.5440  0.4708
 7622SOL     OW34501   0.614   3.194   2.372  0.4894  0.1628 -0.0207
 7622SOL    HW134502   0.596   3.283   2.404 -0.0111  0.9491 -2.5398
 7622SOL    HW234503   0.534   3.178   2.324  0.9809 -1.1816 -0.3863
 7623SOL     OW34504   4.665   2.742   6.667 -0.4647  0.1224 -0.0686
 7623SOL    HW134505   4.652   2.799   6.592 -1.7178  2.1329  1.6822
 7623SOL    HW234506   4.677   2.659   6.621 -1.1861  0.6970 -1.2678
 7624SOL     OW34507   1.710   0.010   9.125  0.3312 -0.2286 -0.7503
 7624SOL    HW134508   1.639   0.073   9.139  0.3618 -0.1051 -1.1494
 7624SOL    HW234509   1.664   4.667   9.099 -0.1595  0.0711 -0.7947
 7625SOL     OW34510   1.495   0.298  12.363 -0.1135 -0.5269  0.6443
 7625SOL    HW134511   1.569   0.327  12.309 -1.6997  3.6430  0.7379
 7625SOL    HW234512   1.451   0.380  12.388 -2.3038 -1.6526  0.4860
 7626SOL     OW34513   2.306   1.636   9.284  0.0544 -0.4544  0.2134
 7626SOL    HW134514   2.302   1.615   9.378 -1.0780  0.8444  0.4579
 7626SOL    HW234515   2.230   1.694   9.278  0.6825  0.4133  0.6397
 7627SOL     OW34516   4.700   3.109   4.456  0.0199  0.1624 -0.3278
 7627SOL    HW134517   0.050   3.068   4.450  0.0330  0.3299 -1.2536
 7627SOL    HW234518   4.668   3.096   4.367 -0.3321 -1.7510  0.0754
 7628SOL     OW34519   1.568   1.779   7.598  0.2062  0.0651  0.3431
 7628SOL    HW134520   1.527   1.694   7.579 -1.8564  0.7827  1.6006
 7628SOL    HW234521   1.620   1.757   7.675  1.7830  2.1991 -0.0987
 7629SOL     OW34522   3.422   4.336   0.308 -0.1339  0.3575  0.2331
 7629SOL    HW134523   3.361   4.275   0.350 -1.4316  0.0897 -2.0721
 7629SOL    HW234524   3.487   4.274   0.276  0.0453  0.8062 -0.2548
 7630SOL     OW34525   0.433   2.398   2.766 -0.0376 -0.0885 -0.2556
 7630SOL    HW134526   0.495   2.440   2.825  2.3032 -0.3668 -2.5188
 7630SOL    HW234527   0.501   2.349   2.720 -1.7679 -3.5571  0.8412
 7631SOL     OW34528   4.429   3.731   8.447 -0.0141 -0.1160  0.4475
 7631SOL    HW134529   4.428   3.663   8.514 -1.0550 -0.1232  0.4260
 7631SOL    HW234530   4.340   3.741   8.413 -0.0321 -0.4217  0.4053
 7632SOL     OW34531   1.470   1.088   9.609 -0.3054  0.1426  0.2196
 7632SOL    HW134532   1.514   1.014   9.652  0.7718 -1.7973 -4.1814
 7632SOL    HW234533   1.538   1.155   9.619  0.6687 -1.0104  1.2748
 7633SOL     OW34534   3.985   1.233   0.516  0.1502  0.0585 -0.0999
 7633SOL    HW134535   4.058   1.225   0.577  1.5253 -0.6684 -1.8527
 7633SOL    HW234536   3.927   1.162   0.544 -0.5499  0.6475 -0.0659
 7634SOL     OW34537   3.416   1.776   9.019 -0.5388 -0.3168 -0.4029
 7634SOL    HW134538   3.419   1.782   9.115 -0.3403  1.0609 -0.4971
 7634SOL    HW234539   3.511   1.772   9.010 -0.5191  0.6840 -0.5872
 7635SOL     OW34540   0.876   1.396  14.915  0.2857 -0.2971 -0.5866
 7635SOL    HW134541   0.934   1.409  14.990  1.0729  1.6666 -1.5632
 7635SOL    HW234542   0.843   1.310  14.943 -0.5482  0.7794  1.7654
 7636SOL     OW34543   3.140   1.875   1.492  0.6651 -0.1166 -0.0383
 7636SOL    HW134544   3.051   1.866   1.525  1.4579 -2.3444  1.4882
 7636SOL    HW234545   3.117   1.928   1.415 -2.6108 -2.1263 -0.4415
 7637SOL     OW34546   3.307   3.714   1.803  0.3504  0.1073 -0.4196
 7637SOL    HW134547   3.358   3.633   1.804 -0.3587 -0.3330  1.0968
 7637SOL    HW234548   3.370   3.773   1.763  0.9366 -0.1095  0.1876
 7638SOL     OW34549   1.792   2.380  17.586  0.2609 -0.1372  0.5260
 7638SOL    HW134550   1.870   2.388  17.641 -0.1092  0.7452  0.9335
 7638SOL    HW234551   1.731   2.436  17.634  0.0567 -0.2315  0.3780
 7639SOL     OW34552   3.210   4.108   6.214  0.2712 -0.4684  0.1716
 7639SOL    HW134553   3.124   4.112   6.173  0.5982 -1.2479 -0.5817
 7639SOL    HW234554   3.211   4.190   6.264  0.7521 -0.3040 -0.1141
 7640SOL     OW34555   1.311   1.951   6.526  0.0726  0.1827 -0.0284
 7640SOL    HW134556   1.246   1.929   6.593 -2.2430  1.7628 -1.7741
 7640SOL    HW234557   1.254   1.958   6.450  0.3814 -1.4446 -0.4080
 7641SOL     OW34558   0.022   2.604   0.098  0.1968 -0.1187 -0.3098
 7641SOL    HW134559   4.737   2.686   0.143 -1.1031  0.3846 -1.8464
 7641SOL    HW234560   4.680   2.574   0.054  0.8273  0.1500 -1.6322
 7642SOL     OW34561   1.141   3.337   6.086  0.2353 -0.4526  0.0538
 7642SOL    HW134562   1.202   3.276   6.043 -0.7304 -1.1392 -0.3272
 7642SOL    HW234563   1.190   3.419   6.094 -2.2707  0.9940  0.3583
 7643SOL     OW34564   3.646   1.981  14.320  0.4732  0.0390  0.3038
 7643SOL    HW134565   3.579   2.021  14.265  1.2001 -0.2340 -0.7651
 7643SOL    HW234566   3.622   2.022  14.403  1.5957  2.9050 -0.8179
 7644SOL     OW34567   2.244   4.058   8.448  0.7826 -0.3459  0.5284
 7644SOL    HW134568   2.188   3.988   8.415  0.4376 -0.0636  0.5107
 7644SOL    HW234569   2.245   4.117   8.373 -0.3766 -0.1716  0.6541
 7645SOL     OW34570   3.857   2.974   5.499  0.1932  0.4330 -0.3516
 7645SOL    HW134571   3.800   2.898   5.499  1.9467 -0.8814  0.9414
 7645SOL    HW234572   3.900   2.965   5.414 -1.5021 -1.3311 -1.0347
 7646SOL     OW34573   3.533   1.684   3.268  0.0524  0.1389  0.2573
 7646SOL    HW134574   3.566   1.595   3.262 -1.7141 -0.4481 -0.7142
 7646SOL    HW234575   3.598   1.723   3.209  0.8882 -0.5439  0.7206
 7647SOL     OW34576   3.003   3.651   1.695 -0.1244  0.0729 -0.5473
 7647SOL    HW134577   2.981   3.648   1.788 -0.1382  0.8398 -0.5279
 7647SOL    HW234578   3.081   3.596   1.690 -2.4887 -3.1879 -1.1637
 7648SOL     OW34579   1.210   3.447   3.933 -0.3538  1.0026 -0.0119
 7648SOL    HW134580   1.210   3.425   4.026  1.7312 -1.3775 -0.5882
 7648SOL    HW234581   1.139   3.391   3.902  0.0080  0.3991  0.2547
 7649SOL     OW34582   1.731   2.017   8.441  0.2923  0.7594 -0.3662
 7649SOL    HW134583   1.775   2.034   8.357 -0.7462  1.2954 -0.8075
 7649SOL    HW234584   1.660   1.957   8.420  0.3254  0.7448 -0.4372
 7650SOL     OW34585   3.645   0.892  16.881 -0.1883  0.3741  0.6750
 7650SOL    HW134586   3.648   0.816  16.940  1.7170 -1.0816 -1.3522
 7650SOL    HW234587   3.656   0.961  16.947  1.2720 -1.1267  2.0009
 7651SOL     OW34588   2.445   4.115   2.757 -0.3069 -0.0669 -0.2971
 7651SOL    HW134589   2.464   4.137   2.848 -1.6604  0.2658 -0.0819
 7651SOL    HW234590   2.510   4.050   2.729 -1.6977 -1.7610  0.3678
 7652SOL     OW34591   3.760   0.375   1.122 -0.3015 -0.0071 -0.5623
 7652SOL    HW134592   3.692   0.440   1.133  0.2253  0.3300  0.7792
 7652SOL    HW234593   3.769   0.358   1.028 -0.0316 -0.7941 -0.3999
 7653SOL     OW34594   3.803   1.842   5.589  0.2737 -0.3776  1.3679
 7653SOL    HW134595   3.755   1.877   5.664  0.5545  1.4933  0.6655
 7653SOL    HW234596   3.756   1.901   5.531 -0.8714 -1.1051  1.5484
 7654SOL     OW34597   0.271   3.975  16.579 -0.1644 -0.5118  0.0111
 7654SOL    HW134598   0.219   3.898  16.599 -0.1329  0.2940  3.1329
 7654SOL    HW234599   0.198   4.037  16.592 -0.7952 -1.0666 -0.8755
 7655SOL     OW34600   2.744   0.642  16.004 -1.0889 -0.5118 -0.0912
 7655SOL    HW134601   2.717   0.559  15.966 -0.5014 -1.0205  0.5855
 7655SOL    HW234602   2.682   0.695  15.955 -1.9279 -0.6041  0.8941
 7656SOL     OW34603   3.935   2.251  16.950 -0.0011  0.5270  0.2752
 7656SOL    HW134604   3.999   2.216  17.011  0.1942 -1.2178 -0.9477
 7656SOL    HW234605   3.925   2.334  16.997  0.6330  0.5635  0.3403
 7657SOL     OW34606   3.534   2.996   3.910 -0.9428  0.1949  0.2501
 7657SOL    HW134607   3.450   2.954   3.890  0.4096 -3.3860  2.1446
 7657SOL    HW234608   3.526   3.027   4.000 -0.1783 -0.4076  0.5230
 7658SOL     OW34609   4.033   1.252   6.668 -0.2319  0.2305  0.0887
 7658SOL    HW134610   3.943   1.273   6.692  0.0829  2.3703 -0.6741
 7658SOL    HW234611   4.075   1.250   6.754 -2.0323 -0.8643  0.9355
 7659SOL     OW34612   0.987   3.749  15.986  0.3833 -0.4012  0.0555
 7659SOL    HW134613   0.898   3.777  15.964  0.8832  1.8705  0.9620
 7659SOL    HW234614   1.033   3.818  16.033  0.1813  0.5673 -1.1861
 7660SOL     OW34615   2.990   2.623   5.123 -0.0970  0.0410 -0.0129
 7660SOL    HW134616   3.000   2.553   5.058 -2.4194  0.8286 -1.2272
 7660SOL    HW234617   2.922   2.677   5.082 -0.8528  0.3263  1.6341
 7661SOL     OW34618   2.628   1.402   4.444  0.3581 -0.0272 -0.2869
 7661SOL    HW134619   2.668   1.421   4.359  1.0251 -0.4778 -0.0767
 7661SOL    HW234620   2.691   1.338   4.479  0.6749  0.5219  0.1427
 7662SOL     OW34621   2.306   0.930   8.391 -0.2150  0.3683  0.0110
 7662SOL    HW134622   2.390   0.933   8.346 -1.5197 -4.0725 -2.6390
 7662SOL    HW234623   2.297   0.848   8.439  5.4559 -0.2193  0.0440
 7663SOL     OW34624   2.830   0.976   3.786 -0.5417  0.2215  0.1938
 7663SOL    HW134625   2.868   0.888   3.781 -0.3801  0.3572 -0.9414
 7663SOL    HW234626   2.909   1.026   3.806 -0.9275  1.7982 -2.2751
 7664SOL     OW34627   4.254   1.311  16.516 -0.2959  0.2854 -0.0852
 7664SOL    HW134628   4.284   1.284  16.429 -2.1602  1.0837 -0.9798
 7664SOL    HW234629   4.269   1.231  16.567 -0.4285 -1.8309 -3.3365
 7665SOL     OW34630   3.646   0.461   1.817 -0.2286  0.1766  0.8500
 7665SOL    HW134631   3.566   0.459   1.765 -0.7898  1.5521  1.6872
 7665SOL    HW234632   3.669   0.554   1.820  2.8790 -0.5807  0.8263
 7666SOL     OW34633   1.663   1.158   3.681  0.6836  0.3518  0.3718
 7666SOL    HW134634   1.681   1.065   3.669 -0.9936  0.1901 -0.8477
 7666SOL    HW234635   1.741   1.209   3.657  0.8848  0.4785  1.2745
 7667SOL     OW34636   0.119   4.474   8.056  0.2234 -0.0650 -0.1982
 7667SOL    HW134637   0.075   4.393   8.032  2.3240 -1.2850  0.0358
 7667SOL    HW234638   0.048   4.518   8.103 -0.1915 -1.3703  0.3904
 7668SOL     OW34639   0.789   2.530   9.830  0.8810  0.6625 -0.0186
 7668SOL    HW134640   0.734   2.539   9.908 -0.1862  0.0710 -0.7085
 7668SOL    HW234641   0.738   2.464   9.783 -1.1232  1.1470  1.4750
 7669SOL     OW34642   3.884   1.787  16.277 -0.1663 -0.1630 -0.5578
 7669SOL    HW134643   3.977   1.798  16.298 -0.3675 -0.4927  0.5085
 7669SOL    HW234644   3.883   1.859  16.213  1.4825 -0.2328 -0.6620
 7670SOL     OW34645   4.204   3.097   5.343 -0.3799  0.1326  0.5120
 7670SOL    HW134646   4.235   3.165   5.283 -0.4298 -2.2673 -2.2433
 7670SOL    HW234647   4.176   3.156   5.412  0.8438  1.6967 -0.3292
 7671SOL     OW34648   0.265   1.688   0.693 -0.2623  0.0134  0.5565
 7671SOL    HW134649   0.203   1.756   0.720 -1.5461 -0.0009 -2.3912
 7671SOL    HW234650   0.328   1.694   0.765  1.7323 -1.7978 -1.0448
 7672SOL     OW34651   0.952   0.508   4.814 -0.2452 -0.4104 -0.2156
 7672SOL    HW134652   0.877   0.566   4.826 -1.4642 -2.2891  1.2318
 7672SOL    HW234653   1.007   0.541   4.885 -0.8743 -0.9543  0.5259
 7673SOL     OW34654   3.245   2.964   6.723 -0.4784 -0.7110 -0.7822
 7673SOL    HW134655   3.291   2.880   6.719  0.2599 -0.3252 -0.3320
 7673SOL    HW234656   3.230   2.964   6.628 -1.1966 -1.2790 -0.6699
 7674SOL     OW34657   1.749   3.713   8.010 -0.5872  0.5065 -0.4910
 7674SOL    HW134658   1.687   3.710   8.082  0.7582 -0.1404  0.6500
 7674SOL    HW234659   1.744   3.622   7.983  1.1261  0.3859 -0.4343
 7675SOL     OW34660   4.669   0.233  12.356 -0.1732  0.1375 -0.4451
 7675SOL    HW134661   4.623   0.250  12.274  0.8883  1.3700 -0.7905
 7675SOL    HW234662   4.613   0.273  12.423 -1.6957 -1.7941 -0.5645
 7676SOL     OW34663   2.290   4.680   4.540 -0.4554  0.1510 -0.2367
 7676SOL    HW134664   2.209   4.725   4.520 -0.3958  0.4471  0.1909
 7676SOL    HW234665   2.334   4.681   4.455 -0.2837 -1.5011 -0.1845
 7677SOL     OW34666   1.108   2.483   4.723 -0.1874 -0.0964  0.2549
 7677SOL    HW134667   1.118   2.514   4.813  2.0180 -0.1463  0.0429
 7677SOL    HW234668   1.025   2.438   4.733 -0.6315  1.3409  2.8852
 7678SOL     OW34669   2.706   4.302  14.559 -0.1107  0.0633 -0.4005
 7678SOL    HW134670   2.773   4.324  14.494 -3.1850  2.6971 -2.6350
 7678SOL    HW234671   2.709   4.376  14.621  0.2854 -0.4516  0.2012
 7679SOL     OW34672   0.939   0.438   8.170  0.7259  0.4296 -0.3917
 7679SOL    HW134673   0.996   0.392   8.231  0.1472  0.3248  0.0691
 7679SOL    HW234674   0.968   0.397   8.088  1.5390 -2.0717  1.1633
 7680SOL     OW34675   4.566   2.925   2.255 -0.2829  0.0848 -0.0105
 7680SOL    HW134676   4.657   2.898   2.243 -0.2133  0.3023  0.0270
 7680SOL    HW234677   4.570   2.977   2.335 -0.4044  0.5861 -0.3284
 7681SOL     OW34678   3.378   3.463   0.754  0.4826  0.1162 -0.1687
 7681SOL    HW134679   3.294   3.429   0.723  1.0827 -0.6277 -0.9803
 7681SOL    HW234680   3.337   3.526   0.814 -0.1416  0.3140 -0.7988
 7682SOL     OW34681   0.650   0.061   2.489 -0.2818  0.0952  0.1800
 7682SOL    HW134682   0.694   0.014   2.560  0.9102  1.5131  0.3760
 7682SOL    HW234683   0.619   4.719   2.445  1.6755 -0.4047 -0.2649
 7683SOL     OW34684   1.086   0.308   4.000 -0.1643 -0.0126  0.1255
 7683SOL    HW134685   1.026   0.382   3.988 -0.8045 -0.8746 -1.9615
 7683SOL    HW234686   1.036   0.258   4.066  1.6768  1.0482  2.3282
 7684SOL     OW34687   3.002   1.844   8.825  0.8072  0.7757  0.2082
 7684SOL    HW134688   3.084   1.875   8.863  0.5317  1.5279  0.1887
 7684SOL    HW234689   2.945   1.880   8.893 -1.3457 -1.5950 -0.3234
 7685SOL     OW34690   4.695   0.326   6.337 -0.2369  0.2505  0.3522
 7685SOL    HW134691   0.011   0.296   6.263  0.2997  0.5501  0.6244
 7685SOL    HW234692   0.015   0.305   6.410  0.4440 -0.5193 -0.3951
 7686SOL     OW34693   0.672   4.623   4.699 -0.2574  0.7748  0.2873
 7686SOL    HW134694   0.719   4.654   4.776  0.6013 -1.6255  0.7218
 7686SOL    HW234695   0.581   4.640   4.724 -0.5685 -0.3863 -0.0203
 7687SOL     OW34696   0.500   1.195   1.602 -0.3366 -0.0066  0.3387
 7687SOL    HW134697   0.430   1.175   1.540  0.9282 -5.0139  0.5285
 7687SOL    HW234698   0.451   1.191   1.684 -0.1471  0.4019  0.4759
 7688SOL     OW34699   4.582   0.982   9.220 -0.1827  0.2488  0.2403
 7688SOL    HW134700   4.555   0.904   9.173 -2.7063  1.4113 -0.2239
 7688SOL    HW234701   4.528   0.977   9.299 -2.7531 -1.2356 -1.6206
 7689SOL     OW34702   3.526   0.703   2.372  0.0534 -0.0455  0.3147
 7689SOL    HW134703   3.503   0.796   2.366  0.9368  0.1497 -0.0145
 7689SOL    HW234704   3.448   0.678   2.421  0.7223 -3.5318 -0.3751
 7690SOL     OW34705   0.886   1.151   6.638 -0.9552 -0.0302  0.1520
 7690SOL    HW134706   0.966   1.161   6.587 -0.2212  0.8471  1.5018
 7690SOL    HW234707   0.842   1.234   6.655 -2.7524 -0.8529 -0.4459
 7691SOL     OW34708   0.768   1.417  10.145 -0.3934  0.1287 -0.0720
 7691SOL    HW134709   0.697   1.402  10.208 -1.7352  1.7233 -1.2031
 7691SOL    HW234710   0.809   1.497  10.179 -0.1804 -0.9399  2.2369
 7692SOL     OW34711   4.089   0.189   1.960  0.5870  0.2877 -0.6653
 7692SOL    HW134712   4.035   0.253   2.007  0.5569 -0.1163 -0.1593
 7692SOL    HW234713   4.028   0.138   1.907 -0.1907  0.1165  0.4133
 7693SOL     OW34714   2.708   3.247   0.726  0.0282  0.4056  0.2380
 7693SOL    HW134715   2.726   3.161   0.764  1.7786  1.0929  0.9795
 7693SOL    HW234716   2.755   3.236   0.644 -0.0351  0.8616  0.1394
 7694SOL     OW34717   2.910   0.011   5.481  0.6522 -0.6119 -0.0835
 7694SOL    HW134718   2.930   4.719   5.570  1.6851 -1.8610 -0.7320
 7694SOL    HW234719   2.815   4.737   5.477  0.9020 -2.6298 -0.1400
 7695SOL     OW34720   4.436   3.241  14.264 -0.3805  0.1697  0.0395
 7695SOL    HW134721   4.370   3.175  14.284  0.3681 -0.3306  0.9157
 7695SOL    HW234722   4.419   3.248  14.170  0.4385 -1.1387 -0.2127
 7696SOL     OW34723   4.523   0.167   6.032  0.6229 -0.5877  1.1730
 7696SOL    HW134724   4.499   0.195   6.120 -0.2358 -1.6713  1.2826
 7696SOL    HW234725   4.557   0.079   6.049 -1.8455 -1.7182  0.2555
 7697SOL     OW34726   3.089   0.556   7.495 -0.2135  0.6580 -0.3984
 7697SOL    HW134727   3.058   0.642   7.523  1.8167  1.0466  0.6320
 7697SOL    HW234728   3.019   0.496   7.517  0.3029  0.7998  1.5654
 7698SOL     OW34729   2.983   2.279   9.676  0.3848  0.3189  0.4318
 7698SOL    HW134730   2.954   2.212   9.738 -2.4980  1.2226  0.0920
 7698SOL    HW234731   2.993   2.354   9.735  0.6760  2.7163 -2.6588
 7699SOL     OW34732   2.903   4.098  13.001  0.7334 -0.2261 -0.3101
 7699SOL    HW134733   2.936   4.148  12.927  0.1244  0.9201  0.1833
 7699SOL    HW234734   2.840   4.031  12.975 -0.4256  0.8657 -0.3193
 7700SOL     OW34735   3.331   1.654   5.616  0.3162 -0.1788 -0.1586
 7700SOL    HW134736   3.282   1.638   5.535 -0.1222 -0.2156  0.1158
 7700SOL    HW234737   3.417   1.617   5.597  1.4532  1.8734  1.0726
 7701SOL     OW34738   1.445   0.776   7.230 -0.3223 -0.0701  0.3673
 7701SOL    HW134739   1.404   0.731   7.156 -0.9094  0.2084  0.5268
 7701SOL    HW234740   1.523   0.815   7.189  0.7702 -1.6637  0.9133
 7702SOL     OW34741   1.367   2.447  15.231 -0.0365 -0.3992  0.1936
 7702SOL    HW134742   1.428   2.377  15.211 -1.0582 -1.2987  0.2569
 7702SOL    HW234743   1.316   2.450  15.150  0.1936  2.4529  0.1281
 7703SOL     OW34744   3.636   1.852  16.578 -0.6052  0.5114  0.2585
 7703SOL    HW134745   3.702   1.788  16.554 -0.6407  0.0444  1.3929
 7703SOL    HW234746   3.649   1.922  16.514  1.6100  0.5583  0.7597
 7704SOL     OW34747   1.381   1.917   3.215 -0.3207  0.3258 -0.2856
 7704SOL    HW134748   1.476   1.913   3.206 -0.3030 -1.0407  0.4172
 7704SOL    HW234749   1.382   1.862   3.294  0.4019  0.0655 -0.4723
 7705SOL     OW34750   2.318   0.419   6.776 -0.0762  0.3888 -0.0950
 7705SOL    HW134751   2.277   0.465   6.703  0.6434  0.8170 -0.2244
 7705SOL    HW234752   2.410   0.442   6.766  0.3058  0.2184  2.8284
 7706SOL     OW34753   2.652   4.252   6.888  0.2319  0.6936 -0.2095
 7706SOL    HW134754   2.605   4.284   6.965  2.3224  0.0724  1.3248
 7706SOL    HW234755   2.681   4.173   6.935  2.3408  1.5877  0.0055
 7707SOL     OW34756   1.440   3.555  14.796 -0.4269  0.2852  0.4628
 7707SOL    HW134757   1.511   3.618  14.800  0.0993 -0.3746  1.2536
 7707SOL    HW234758   1.395   3.572  14.879  0.1521  1.5193  0.5214
 7708SOL     OW34759   1.028   2.310   4.320 -0.2054 -0.0411  0.3102
 7708SOL    HW134760   0.994   2.399   4.310  1.3047  0.5004  0.1387
 7708SOL    HW234761   0.951   2.270   4.362 -0.4559 -0.3678 -0.4638
 7709SOL     OW34762   3.505   0.246  14.503  0.3745 -0.0463 -0.1395
 7709SOL    HW134763   3.526   0.256  14.411 -1.3562 -0.9042 -0.6279
 7709SOL    HW234764   3.410   0.235  14.500  0.2999  0.7809 -0.6761
 7710SOL     OW34765   4.587   2.214   6.039  0.3289 -0.0594  0.8555
 7710SOL    HW134766   4.541   2.187   5.960 -0.3091  1.1987  0.7931
 7710SOL    HW234767   4.540   2.292   6.068  1.0140  0.7913 -0.3531
 7711SOL     OW34768   2.417   1.993   7.882 -0.5926 -0.4014  0.3614
 7711SOL    HW134769   2.409   2.037   7.797  0.2278  0.2164  0.6113
 7711SOL    HW234770   2.469   2.057   7.931  0.5889 -1.5311  0.5805
 7712SOL     OW34771   0.085   1.380   2.328 -0.2661 -0.0081  0.8593
 7712SOL    HW134772   0.117   1.318   2.395  0.2741 -1.5882 -0.8710
 7712SOL    HW234773   0.154   1.446   2.323  1.2757 -1.6177  0.6033
 7713SOL     OW34774   3.259   4.688   1.685  0.3843  0.5609 -0.4173
 7713SOL    HW134775   3.346   4.712   1.654 -0.1113  4.0141  0.8564
 7713SOL    HW234776   3.199   4.713   1.614 -0.3614 -0.4114 -0.1306
 7714SOL     OW34777   3.646   4.661   9.757 -0.1003 -0.1808 -0.0607
 7714SOL    HW134778   3.611   4.573   9.748 -1.4400  0.3262  0.1477
 7714SOL    HW234779   3.562   4.698   9.786  1.3321  0.2234  3.5215
 7715SOL     OW34780   0.768   2.352   5.927 -0.5665 -1.0395  0.4651
 7715SOL    HW134781   0.699   2.418   5.922 -1.4583 -2.1014 -0.9772
 7715SOL    HW234782   0.845   2.395   5.889 -0.7532  1.0915  2.4874
 7716SOL     OW34783   2.660   2.036   6.768  0.3664 -0.4734 -1.0145
 7716SOL    HW134784   2.717   2.086   6.826 -0.8340 -0.3373  0.0318
 7716SOL    HW234785   2.685   2.067   6.681 -0.0847  2.9330  0.0926
 7717SOL     OW34786   1.681   1.124  12.014  0.0512  0.2485  0.1700
 7717SOL    HW134787   1.596   1.132  12.058 -0.0146 -2.8730  0.6662
 7717SOL    HW234788   1.706   1.041  12.056 -2.3339 -1.6101 -2.0439
 7718SOL     OW34789   0.632   1.219   5.591 -0.5297  0.1050 -0.8505
 7718SOL    HW134790   0.616   1.166   5.513 -0.8856  0.4796 -1.0323
 7718SOL    HW234791   0.727   1.207   5.598 -0.2562  2.7417 -0.0115
 7719SOL     OW34792   1.663   3.653   6.110  0.7959 -0.2729  0.1939
 7719SOL    HW134793   1.758   3.665   6.118  0.9219 -0.5157 -0.8792
 7719SOL    HW234794   1.638   3.644   6.202 -1.2957 -0.3130 -0.3808
 7720SOL     OW34795   3.781   4.584   1.663  0.0455 -0.5498 -0.2876
 7720SOL    HW134796   3.871   4.616   1.667 -0.4767  1.4831 -4.4314
 7720SOL    HW234797   3.796   4.490   1.649  0.7615 -0.6544  1.2839
 7721SOL     OW34798   0.484   2.388   8.027 -0.0442 -0.1231 -0.1545
 7721SOL    HW134799   0.435   2.438   7.962  1.1652 -1.0836 -1.8074
 7721SOL    HW234800   0.421   2.367   8.096 -1.2983  1.1539 -0.9250
 7722SOL     OW34801   2.780   3.882   0.053  0.1791  0.1308 -0.5726
 7722SOL    HW134802   2.792   3.827   0.130 -0.6735 -1.0587 -1.2941
 7722SOL    HW234803   2.764   3.967   0.095  0.2546 -0.4920  0.7311
 7723SOL     OW34804   3.236   0.220   5.844 -0.4027  0.1925 -0.1817
 7723SOL    HW134805   3.159   0.249   5.894  0.2413  0.3122  0.7433
 7723SOL    HW234806   3.303   0.238   5.910 -2.4558 -0.2319  2.0483
 7724SOL     OW34807   1.416   4.024   6.848 -0.1166 -0.2840  0.0149
 7724SOL    HW134808   1.428   4.088   6.918 -0.1234  1.9275 -2.0386
 7724SOL    HW234809   1.349   4.072   6.800  1.0279  0.8451 -0.4738
 7725SOL     OW34810   3.604   4.104   2.835  0.0695 -0.2822  0.0490
 7725SOL    HW134811   3.552   4.161   2.892  2.8098  0.8455  1.4299
 7725SOL    HW234812   3.640   4.044   2.900 -1.5020 -0.5407  0.6662
 7726SOL     OW34813   1.143   0.069   1.518 -0.4603  0.1800  0.1078
 7726SOL    HW134814   1.068   0.123   1.493 -1.0400 -0.6746 -0.0010
 7726SOL    HW234815   1.150   0.015   1.440 -0.4295 -0.6032  0.6506
 7727SOL     OW34816   4.531   1.080   0.847  0.2762 -0.1148 -0.6407
 7727SOL    HW134817   4.545   1.166   0.808  0.7578  0.8142  1.6139
 7727SOL    HW234818   4.616   1.060   0.886  0.8927 -0.3210 -2.1085
 7728SOL     OW34819   1.589   4.246   5.922 -0.7094 -0.5779 -0.6361
 7728SOL    HW134820   1.588   4.153   5.902 -0.6004 -0.6323 -0.3896
 7728SOL    HW234821   1.660   4.242   5.986 -1.8296 -0.9392  0.5724
 7729SOL     OW34822   3.156   3.376   2.424  0.6195  0.1964 -0.6484
 7729SOL    HW134823   3.109   3.423   2.494  0.1115 -1.7122  0.2867
 7729SOL    HW234824   3.233   3.432   2.413  0.8178  0.3705  1.6496
 7730SOL     OW34825   3.863   2.465   6.516 -0.1009 -0.8299  0.0648
 7730SOL    HW134826   3.904   2.501   6.595 -0.0116 -1.2557  0.2177
 7730SOL    HW234827   3.809   2.395   6.553 -1.5106 -1.6393 -3.5310
 7731SOL     OW34828   1.469   2.784   6.610 -0.4972 -0.1959  0.1723
 7731SOL    HW134829   1.535   2.807   6.545 -0.1964 -0.9076  0.2258
 7731SOL    HW234830   1.425   2.869   6.615 -0.1552 -0.0124  0.0542
 7732SOL     OW34831   0.884   2.343   3.224 -0.3236 -0.6233  0.4934
 7732SOL    HW134832   0.859   2.252   3.212 -0.5613 -0.3780 -0.8317
 7732SOL    HW234833   0.970   2.322   3.262  1.4266  0.9888 -2.5554
 7733SOL     OW34834   3.239   0.733   9.559  1.0301  0.1867  0.4028
 7733SOL    HW134835   3.240   0.637   9.554 -2.2752  0.0739  1.5630
 7733SOL    HW234836   3.256   0.739   9.653 -5.0902 -1.2669  1.6292
 7734SOL     OW34837   3.813   4.627   7.498 -0.0362 -0.1805 -0.1190
 7734SOL    HW134838   3.871   4.663   7.565 -0.1042 -0.8555  0.2964
 7734SOL    HW234839   3.808   4.532   7.508 -1.8030 -0.1019 -0.3185
 7735SOL     OW34840   1.705   1.754   7.354  0.2323  0.4121 -0.4562
 7735SOL    HW134841   1.788   1.710   7.373 -0.9823 -2.3068 -1.5795
 7735SOL    HW234842   1.671   1.776   7.441  0.0611  0.2199 -0.4748
 7736SOL     OW34843   1.779   4.199   1.772  0.8278  0.1536 -0.2096
 7736SOL    HW134844   1.757   4.124   1.826  0.6060  0.5502  0.2584
 7736SOL    HW234845   1.718   4.271   1.788 -2.6841 -2.3642 -2.3979
 7737SOL     OW34846   1.009   2.163   2.725  0.3010  0.4811  0.5342
 7737SOL    HW134847   1.105   2.157   2.717  0.0345 -0.9472 -1.5408
 7737SOL    HW234848   1.005   2.141   2.818  1.9105  2.3245  1.0441
 7738SOL     OW34849   3.223   2.452  17.080 -0.3283 -0.5496  0.7169
 7738SOL    HW134850   3.138   2.414  17.056 -0.2191  0.2340 -0.8994
 7738SOL    HW234851   3.207   2.540  17.047  0.6900 -0.5709  0.1891
 7739SOL     OW34852   1.086   2.574   6.998 -0.0670 -0.6442  0.2537
 7739SOL    HW134853   1.177   2.552   6.983 -1.1586 -4.6863 -0.3738
 7739SOL    HW234854   1.076   2.582   7.093 -2.0518 -0.9985  0.0887
 7740SOL     OW34855   1.189   4.434  13.196 -0.0258  0.2316 -0.2725
 7740SOL    HW134856   1.284   4.430  13.209  0.1529 -1.1850 -2.1720
 7740SOL    HW234857   1.182   4.361  13.135 -1.2158 -0.6995  0.9688
 7741SOL     OW34858   2.717   4.471   8.756  0.3965 -0.1276 -0.3866
 7741SOL    HW134859   2.788   4.447   8.815 -1.1815 -2.8739  0.3956
 7741SOL    HW234860   2.685   4.386   8.727  0.0438  0.9603 -3.1999
 7742SOL     OW34861   0.387   2.890   1.355  0.2060  0.2508 -0.2676
 7742SOL    HW134862   0.329   2.836   1.409  1.3316 -0.5675  0.1234
 7742SOL    HW234863   0.328   2.917   1.285 -0.4403 -0.4099  0.0281
 7743SOL     OW34864   4.390   0.544   6.282 -0.2862  0.2261  0.5050
 7743SOL    HW134865   4.419   0.629   6.314 -1.0389  0.5824  0.2393
 7743SOL    HW234866   4.342   0.511   6.358 -1.0365 -0.3277 -0.2036
 7744SOL     OW34867   1.879   1.927   6.820  0.2476  0.6125  0.5505
 7744SOL    HW134868   1.914   1.882   6.897  1.5666 -0.1715 -0.4909
 7744SOL    HW234869   1.895   1.873   6.742 -1.4581  0.6534  0.1842
 7745SOL     OW34870   4.065   0.456   3.312 -0.1537  0.2219  0.4845
 7745SOL    HW134871   4.070   0.546   3.344  1.2613  0.5091 -0.5339
 7745SOL    HW234872   3.986   0.410   3.339  0.4037 -0.2481  1.3272
 7746SOL     OW34873   1.072   4.017   3.603 -0.0313  0.0518  0.3050
 7746SOL    HW134874   1.023   3.945   3.642 -0.1819 -0.4958 -0.8848
 7746SOL    HW234875   1.057   4.082   3.671  2.7292 -0.5059  1.4457
 7747SOL     OW34876   1.915   3.855  11.448  0.1166  0.1382 -0.1855
 7747SOL    HW134877   1.966   3.935  11.464 -0.9769  1.3259 -2.7304
 7747SOL    HW234878   1.842   3.894  11.400  0.5134 -1.0138 -1.7031
 7748SOL     OW34879   0.703   0.680   9.137  0.2794 -0.1851 -0.3094
 7748SOL    HW134880   0.689   0.748   9.071  1.0233  2.4962  2.3017
 7748SOL    HW234881   0.691   0.724   9.221 -0.7182 -0.1460 -0.4732
 7749SOL     OW34882   1.926   2.793   2.389 -0.2949  0.5736 -0.7998
 7749SOL    HW134883   1.991   2.822   2.325 -0.1986  0.5497 -0.7118
 7749SOL    HW234884   1.944   2.699   2.393  1.9433  0.8760 -4.3604
 7750SOL     OW34885   4.119   4.165   3.594  0.1082 -0.1338 -0.0128
 7750SOL    HW134886   4.112   4.186   3.501 -1.8268  1.0677  0.3964
 7750SOL    HW234887   4.202   4.117   3.588  0.6504  0.8440 -0.3357
 7751SOL     OW34888   0.410   0.747   6.591 -0.3709 -0.8356 -0.2785
 7751SOL    HW134889   0.467   0.824   6.594  0.2782 -1.4077  1.8399
 7751SOL    HW234890   0.418   0.699   6.673 -3.2389  2.2312  1.7412
 7752SOL     OW34891   0.197   3.861  12.067  1.0166  0.2658  0.6180
 7752SOL    HW134892   0.259   3.917  12.113  1.1605 -0.4903  1.3557
 7752SOL    HW234893   0.182   3.798  12.138 -0.6027 -0.2789 -0.1988
 7753SOL     OW34894   1.019   4.441   7.924 -0.4414  0.4703  0.8747
 7753SOL    HW134895   1.059   4.464   8.009  1.4170 -1.1642  0.4310
 7753SOL    HW234896   1.073   4.483   7.857 -2.5311  0.3751 -0.8612
 7754SOL     OW34897   2.523   2.592   7.777 -0.3108 -0.0741 -0.3719
 7754SOL    HW134898   2.564   2.517   7.819 -1.7513 -0.5031  0.2559
 7754SOL    HW234899   2.434   2.559   7.787 -0.1141 -0.0981  1.2591
 7755SOL     OW34900   0.282   4.219   9.382  0.1329  0.1820  0.5559
 7755SOL    HW134901   0.325   4.251   9.461  1.0062  0.5847 -0.0901
 7755SOL    HW234902   0.324   4.275   9.316 -2.0095 -0.2672 -1.2245
 7756SOL     OW34903   2.201   4.423  10.675  0.0702  0.4199 -0.2657
 7756SOL    HW134904   2.230   4.355  10.736  0.7925  0.1100 -0.9592
 7756SOL    HW234905   2.125   4.461  10.721  1.8075  1.5003  1.7436
 7757SOL     OW34906   0.519   3.743   9.028 -0.3147  0.6037 -0.1052
 7757SOL    HW134907   0.611   3.715   9.021  0.6279  3.5839  0.3118
 7757SOL    HW234908   0.488   3.695   9.104 -0.4238  0.1791 -0.4221
 7758SOL     OW34909   1.087   1.600   0.869 -0.0291 -1.0595 -0.5753
 7758SOL    HW134910   1.182   1.591   0.862 -0.0278 -1.5514  0.0304
 7758SOL    HW234911   1.077   1.592   0.964 -2.0635  0.6594 -0.6661
 7759SOL     OW34912   3.185   4.236   2.942  0.4283  0.1420 -0.5970
 7759SOL    HW134913   3.241   4.188   2.881 -1.2330 -2.4480 -0.0855
 7759SOL    HW234914   3.123   4.170   2.973  0.5566  0.2702 -0.0490
 7760SOL     OW34915   4.121   1.587   6.586 -0.3112  0.5597  0.2436
 7760SOL    HW134916   4.087   1.614   6.671  2.2184  0.9960  1.1358
 7760SOL    HW234917   4.046   1.567   6.531  0.3394 -0.5499 -0.2302
 7761SOL     OW34918   4.367   4.034   3.556 -0.3152  0.7161  0.3924
 7761SOL    HW134919   4.459   4.043   3.580 -0.0622 -0.7289  0.0102
 7761SOL    HW234920   4.347   3.974   3.628 -0.0930 -0.1303 -0.2433
 7762SOL     OW34921   1.007   2.009   8.841  0.5123 -0.6291 -0.8053
 7762SOL    HW134922   1.020   1.915   8.837  1.6677 -0.4709 -0.6698
 7762SOL    HW234923   1.045   2.027   8.756  1.0124  0.4606 -0.3604
 7763SOL     OW34924   3.720   0.066  15.483 -0.2248 -0.1861  0.5533
 7763SOL    HW134925   3.672   0.021  15.413  1.8389 -0.6570 -0.5779
 7763SOL    HW234926   3.814   0.061  15.465 -0.2683 -0.5702  0.4254
 7764SOL     OW34927   0.340   0.408   9.808  0.2594 -0.0410  0.1313
 7764SOL    HW134928   0.378   0.474   9.866  1.3537 -0.9233  0.4259
 7764SOL    HW234929   0.414   0.359   9.771 -0.5655 -0.4024 -1.0641
 7765SOL     OW34930   2.498   4.637   6.214  0.8661  0.0639 -0.8460
 7765SOL    HW134931   2.407   4.620   6.189 -0.4009  1.5108  2.9822
 7765SOL    HW234932   2.521   4.693   6.140 -0.3068  1.0400 -0.4499
 7766SOL     OW34933   4.692   2.706  11.182  0.0407 -0.6143  0.2779
 7766SOL    HW134934   4.706   2.747  11.097 -0.1922 -1.6278 -0.2491
 7766SOL    HW234935   4.730   2.619  11.165 -1.2744 -0.6441 -2.4575
 7767SOL     OW34936   1.943   3.897   7.754 -0.3775 -0.4708 -0.4423
 7767SOL    HW134937   1.993   3.837   7.809 -0.7613  1.0713  1.5959
 7767SOL    HW234938   1.876   3.935   7.812  1.6986 -0.0438  1.6653
 7768SOL     OW34939   0.135   1.761   7.232 -0.0137 -0.2865  0.3121
 7768SOL    HW134940   0.195   1.819   7.279  1.2866 -1.5385  0.1680
 7768SOL    HW234941   0.190   1.697   7.187  0.2029  0.2747 -0.2373
 7769SOL     OW34942   1.601   1.474   5.152 -0.1426  0.2261 -0.0308
 7769SOL    HW134943   1.574   1.525   5.076 -2.1169  0.4561  0.8325
 7769SOL    HW234944   1.618   1.548   5.210 -0.6526 -0.4014  0.9072
 7770SOL     OW34945   0.872   1.741   5.470 -0.1081  0.1928 -0.2050
 7770SOL    HW134946   0.889   1.835   5.467  0.7489  0.0116 -1.1592
 7770SOL    HW234947   0.801   1.730   5.406 -0.4848 -0.1615  0.2769
 7771SOL     OW34948   1.644   2.018  15.014  0.0986 -0.6419 -0.0735
 7771SOL    HW134949   1.707   2.084  14.984 -0.1019  0.5141  2.0011
 7771SOL    HW234950   1.698   1.942  15.035 -0.3926 -1.7323 -2.7642
 7772SOL     OW34951   2.414   2.554   3.590  0.1990 -0.1905 -0.5079
 7772SOL    HW134952   2.426   2.604   3.671 -0.7457  0.4283 -0.7519
 7772SOL    HW234953   2.501   2.562   3.550  0.6016 -0.1145  0.3633
 7773SOL     OW34954   0.732   4.275   7.631 -0.1969 -0.2855 -0.3849
 7773SOL    HW134955   0.726   4.223   7.710 -0.7265 -1.6148 -1.3119
 7773SOL    HW234956   0.815   4.318   7.654  0.0619 -0.1926 -1.4773
 7774SOL     OW34957   2.887   1.363   7.569 -0.3118  0.2744  0.4720
 7774SOL    HW134958   2.865   1.395   7.481 -0.3844  0.1979  0.4614
 7774SOL    HW234959   2.932   1.439   7.605  0.3403 -1.0109  2.3608
 7775SOL     OW34960   0.004   2.309   2.655  0.5429 -0.1021 -0.2163
 7775SOL    HW134961   0.069   2.375   2.631 -3.0690  2.9796 -1.5583
 7775SOL    HW234962   0.059   2.231   2.652 -0.3172 -0.6534 -1.8785
 7776SOL     OW34963   1.101   1.215   7.090 -0.5752 -0.1015  0.1260
 7776SOL    HW134964   1.086   1.253   7.003  0.3344 -0.9511 -0.3931
 7776SOL    HW234965   1.172   1.273   7.117 -0.6302  0.0063  0.0408
 7777SOL     OW34966   4.060   2.710   4.663  0.5402  0.6757  1.1230
 7777SOL    HW134967   3.981   2.675   4.704  2.0748 -2.0072  1.7257
 7777SOL    HW234968   4.052   2.801   4.694  1.6046  0.7664  1.1192
 7778SOL     OW34969   1.021   0.351   2.877 -0.4480  0.2682 -0.3263
 7778SOL    HW134970   1.080   0.422   2.901 -0.4870 -0.8390  3.1012
 7778SOL    HW234971   1.077   0.298   2.821  1.4707  0.7340  1.1579
 7779SOL     OW34972   2.274   3.187   9.161 -0.2237 -0.0374 -0.4107
 7779SOL    HW134973   2.194   3.156   9.118  0.3653 -0.2701 -1.3400
 7779SOL    HW234974   2.264   3.146   9.247  2.5970  3.6661  1.6627
 7780SOL     OW34975   2.314   1.087  14.673 -0.1879  0.3439 -0.2326
 7780SOL    HW134976   2.321   1.047  14.587 -1.9660 -2.7794  1.0912
 7780SOL    HW234977   2.399   1.050  14.697 -0.2484 -0.1379 -0.7718
 7781SOL     OW34978   2.886   2.967   7.584 -0.4478  0.2226 -0.1995
 7781SOL    HW134979   2.862   3.043   7.530  0.2385  2.7897  3.1105
 7781SOL    HW234980   2.944   2.917   7.527  1.8600 -2.7880  4.7968
 7782SOL     OW34981   4.493   1.577   2.813  0.3251  0.2884 -0.6300
 7782SOL    HW134982   4.433   1.601   2.742 -0.5448 -2.1874 -0.6963
 7782SOL    HW234983   4.445   1.608   2.890 -1.7462 -2.6489 -0.7497
 7783SOL     OW34984   3.767   0.315  16.611  0.1580 -0.0826 -0.0979
 7783SOL    HW134985   3.705   0.295  16.542 -0.6013  2.5012 -0.1678
 7783SOL    HW234986   3.840   0.256  16.589 -2.3065 -2.4650 -1.7982
 7784SOL     OW34987   4.638   0.468  17.327  0.6546  0.6192  0.4690
 7784SOL    HW134988   4.554   0.476  17.373  0.9169 -1.5964  1.3414
 7784SOL    HW234989   4.697   0.417  17.384 -1.3611 -1.1466  0.9995
 7785SOL     OW34990   2.634   3.565   0.164 -0.4222 -0.2546  0.0543
 7785SOL    HW134991   2.591   3.571   0.249  1.6925 -1.0730  1.1561
 7785SOL    HW234992   2.721   3.602   0.175  0.2293 -1.3929 -1.4151
 7786SOL     OW34993   1.093   4.215   8.455  0.0846 -0.4749 -0.4372
 7786SOL    HW134994   1.022   4.156   8.482  0.9344 -1.5420 -0.5328
 7786SOL    HW234995   1.114   4.235   8.546 -1.8022 -0.8997  0.0868
 7787SOL     OW34996   0.449   1.266   7.957  0.1681  0.0012  0.0581
 7787SOL    HW134997   0.357   1.291   7.942  0.7714  0.5224 -2.7207
 7787SOL    HW234998   0.460   1.182   7.913 -2.1953  0.5470 -1.5652
 7788SOL     OW34999   1.751   1.701   5.845 -0.0832 -0.0386 -0.0188
 7788SOL    HW135000   1.842   1.677   5.861 -0.0536  0.4216  0.5361
 7788SOL    HW235001   1.758   1.790   5.881  0.4425 -1.1099  2.5433
 7789SOL     OW35002   1.834   3.298   6.329 -0.2964  0.3125 -0.6732
 7789SOL    HW135003   1.898   3.350   6.377 -2.0553  0.1648  1.8073
 7789SOL    HW235004   1.880   3.214   6.320 -0.7388 -0.1060  0.8584
 7790SOL     OW35005   2.363   2.197   8.720  0.6141 -0.2131 -0.2734
 7790SOL    HW135006   2.378   2.224   8.629  0.0369  0.7604 -0.0816
 7790SOL    HW235007   2.454   2.206   8.747  0.6230  1.0767 -0.7541
 7791SOL     OW35008   1.321   4.385  15.798  0.8358  0.4279 -0.2863
 7791SOL    HW135009   1.291   4.323  15.731  0.2984  0.1998  0.1664
 7791SOL    HW235010   1.413   4.396  15.775  0.6063 -0.2840 -1.5211
 7792SOL     OW35011   3.064   1.676   2.412 -0.9513 -0.3703  0.1004
 7792SOL    HW135012   3.017   1.727   2.346 -0.0236 -0.1718 -0.4123
 7792SOL    HW235013   3.135   1.730   2.447  1.4105 -0.6723 -4.0871
 7793SOL     OW35014   3.914   4.235   2.952  0.1629 -0.0369 -0.1474
 7793SOL    HW135015   3.872   4.274   3.028 -1.7025 -0.8381 -0.7629
 7793SOL    HW235016   3.949   4.151   2.982 -2.2573 -1.3226 -0.8611
 7794SOL     OW35017   0.436   2.122  15.218 -0.2075 -0.7722  0.3678
 7794SOL    HW135018   0.348   2.156  15.230  0.2168  0.6792 -0.6635
 7794SOL    HW235019   0.453   2.076  15.301 -0.1270 -1.3067  0.0533
 7795SOL     OW35020   0.492   1.821   4.334  0.0217 -0.4101 -0.2051
 7795SOL    HW135021   0.483   1.845   4.427  0.9091 -0.7982 -0.0179
 7795SOL    HW235022   0.535   1.900   4.300 -1.3014  1.0714  1.5325
 7796SOL     OW35023   1.241   3.500  13.218  0.2823 -0.2506 -0.3120
 7796SOL    HW135024   1.255   3.516  13.311  0.4852  0.2180 -0.4259
 7796SOL    HW235025   1.174   3.431  13.220  0.3520 -0.3582 -2.3085
 7797SOL     OW35026   3.347   1.125   3.631  0.7404 -0.5404  0.2819
 7797SOL    HW135027   3.316   1.203   3.585 -0.3209 -1.6485 -0.8704
 7797SOL    HW235028   3.299   1.056   3.586 -0.5660  0.5519  0.0147
 7798SOL     OW35029   4.408   1.945   6.221 -0.1025 -0.4247 -0.1938
 7798SOL    HW135030   4.403   1.966   6.128  0.7397  0.6394 -0.0003
 7798SOL    HW235031   4.355   2.016   6.259  1.2328 -0.3606  1.5557
 7799SOL     OW35032   1.108   2.545   7.932  0.4766 -0.1242  0.4530
 7799SOL    HW135033   1.201   2.562   7.921  0.7042 -1.0765  0.8447
 7799SOL    HW235034   1.065   2.630   7.919  0.5531 -0.4089 -1.5906
 7800SOL     OW35035   2.914   3.416   3.396 -0.2887  0.2357  0.0551
 7800SOL    HW135036   2.882   3.471   3.325  0.6005 -1.6330 -1.7763
 7800SOL    HW235037   2.841   3.356   3.408  0.1137 -0.3021 -0.1977
 7801SOL     OW35038   4.227   1.324   0.870 -0.0546  0.1777 -0.0734
 7801SOL    HW135039   4.157   1.361   0.816 -0.6550 -0.0348  0.5667
 7801SOL    HW235040   4.251   1.401   0.922 -0.0728  0.2112 -0.1140
 7802SOL     OW35041   2.602   3.495   5.302 -0.3400 -0.6939 -0.1297
 7802SOL    HW135042   2.698   3.498   5.299 -0.3351  0.7588  1.5598
 7802SOL    HW235043   2.576   3.416   5.255 -3.7256  2.3404 -3.3119
 7803SOL     OW35044   0.546   0.492   9.318  0.0628  0.2190  0.0131
 7803SOL    HW135045   0.516   0.539   9.396 -0.9006 -1.1610  0.4857
 7803SOL    HW235046   0.607   0.554   9.280 -0.5664  1.5924  1.2318
 7804SOL     OW35047   2.779   0.586  14.865 -0.2381 -0.4333 -0.1023
 7804SOL    HW135048   2.757   0.626  14.949  2.3543  0.3002  0.2482
 7804SOL    HW235049   2.753   0.498  14.891  1.5789 -1.3617 -1.3952
 7805SOL     OW35050   2.189   4.703   2.836 -0.2014  0.1239 -0.1313
 7805SOL    HW135051   2.218   0.038   2.893  0.1016  0.8828 -1.2408
 7805SOL    HW235052   2.210   4.737   2.749 -1.6348 -0.2949 -0.6431
 7806SOL     OW35053   4.590   3.203   6.565  0.4349 -0.4571  0.6649
 7806SOL    HW135054   4.604   3.111   6.543 -0.1751 -0.2316 -0.6576
 7806SOL    HW235055   4.668   3.219   6.618 -0.6053  1.2923  1.6803
 7807SOL     OW35056   2.033   1.034   0.799 -0.2054  0.2002  0.0010
 7807SOL    HW135057   2.066   0.986   0.875 -3.3496  0.8803  1.7896
 7807SOL    HW235058   2.063   1.124   0.809 -0.9874  0.3970  0.6023
 7808SOL     OW35059   3.374   3.679   8.499  0.0577 -0.1382 -0.4809
 7808SOL    HW135060   3.366   3.699   8.405 -0.0600 -0.7627 -0.6047
 7808SOL    HW235061   3.301   3.617   8.506  0.3822 -0.1253  3.0003
 7809SOL     OW35062   0.092   1.088  17.274  0.5251  0.5201 -0.1396
 7809SOL    HW135063   0.153   1.127  17.211  1.0242 -0.9100 -0.5321
 7809SOL    HW235064   0.142   1.010  17.298 -1.1941 -0.4515  0.2650
 7810SOL     OW35065   1.205   2.314   3.628  0.1230 -0.8041  0.2619
 7810SOL    HW135066   1.177   2.259   3.700  0.2586  0.0159  0.9404
 7810SOL    HW235067   1.275   2.260   3.591 -0.1453 -0.6593 -0.4670
 7811SOL     OW35068   0.776   0.368   9.690  0.3366  0.1825  0.3563
 7811SOL    HW135069   0.867   0.337   9.685 -0.1422 -0.9830 -1.2904
 7811SOL    HW235070   0.778   0.433   9.620  0.1287  1.3552  1.4462
 7812SOL     OW35071   2.004   0.525   4.683 -0.2673  0.0161  0.0225
 7812SOL    HW135072   1.915   0.503   4.711 -0.2829 -0.0807 -0.1067
 7812SOL    HW235073   2.038   0.445   4.643 -2.0981 -0.4963 -0.4892
 7813SOL     OW35074   3.655   2.621   0.101  0.1883 -0.3713 -0.8743
 7813SOL    HW135075   3.622   2.695   0.151  0.5708  0.0504 -1.2486
 7813SOL    HW235076   3.671   2.551   0.165  1.2180 -0.5714 -1.3551
 7814SOL     OW35077   2.366   1.355  15.492  0.4414 -0.2139 -0.4812
 7814SOL    HW135078   2.319   1.326  15.413  2.5195 -1.6272 -1.2056
 7814SOL    HW235079   2.380   1.445  15.463  0.2944  0.3208  1.0898
 7815SOL     OW35080   3.566   0.319   7.796  0.5046 -0.2996 -0.5148
 7815SOL    HW135081   3.582   0.224   7.801 -1.1262 -0.6092 -0.9338
 7815SOL    HW235082   3.485   0.323   7.847  0.9452  0.2525  0.1390
 7816SOL     OW35083   2.030   3.729   7.960 -0.1912 -0.5274  0.6088
 7816SOL    HW135084   2.063   3.639   7.962 -0.8909 -0.8066 -0.4662
 7816SOL    HW235085   1.940   3.703   7.977 -0.0184 -2.2057 -0.9618
 7817SOL     OW35086   0.040   3.150   0.289  0.6624  0.2748  0.3017
 7817SOL    HW135087   0.045   3.196   0.205  0.7952  2.4539  1.5324
 7817SOL    HW235088   4.716   3.208   0.333 -1.6377 -1.5952 -0.3853
 7818SOL     OW35089   4.561   1.287   2.259 -0.2536 -0.1787 -0.3522
 7818SOL    HW135090   4.576   1.277   2.165  2.3108 -1.0346  0.1496
 7818SOL    HW235091   4.645   1.321   2.292 -0.8745  0.9050  0.1269
 7819SOL     OW35092   0.506   1.579   4.186  0.1696 -0.2161 -0.1868
 7819SOL    HW135093   0.520   1.647   4.253  0.2459  0.7608 -1.1786
 7819SOL    HW235094   0.468   1.507   4.235  0.9343 -1.6170 -1.6396
 7820SOL     OW35095   1.407   4.722  11.636  0.2275  0.0629  0.4550
 7820SOL    HW135096   1.482   0.026  11.677 -1.0223  0.7838  2.0097
 7820SOL    HW235097   1.376   4.685  11.719  0.6775 -1.1244  0.0936
 7821SOL     OW35098   2.600   1.942  13.903  0.6376  0.1360  0.0400
 7821SOL    HW135099   2.672   1.888  13.936 -0.1046 -0.3571  0.8361
 7821SOL    HW235100   2.527   1.889  13.933 -0.6507  1.6363 -0.4379
 7822SOL     OW35101   0.666   0.602   6.489  0.3847  0.5374 -0.0389
 7822SOL    HW135102   0.631   0.552   6.562 -1.5153  1.1119 -0.5574
 7822SOL    HW235103   0.591   0.655   6.463 -0.0993  0.0893  0.4614
 7823SOL     OW35104   3.989   3.594   9.174  0.1613 -0.6987  0.0824
 7823SOL    HW135105   3.935   3.518   9.197 -0.5921 -0.7188 -1.7701
 7823SOL    HW235106   3.983   3.646   9.254  2.8917  0.7924 -0.7013
 7824SOL     OW35107   0.977   2.699   3.096 -0.6890 -0.2546 -0.0928
 7824SOL    HW135108   0.976   2.773   3.036 -0.9558 -0.5669 -0.4728
 7824SOL    HW235109   0.904   2.731   3.149  0.6281  1.6874  0.5440
 7825SOL     OW35110   2.308   2.138   4.977  0.1398  0.0385 -0.0022
 7825SOL    HW135111   2.282   2.078   5.047  2.0971  1.1383  1.6680
 7825SOL    HW235112   2.375   2.091   4.925  0.5404 -0.0223  0.5723
 7826SOL     OW35113   1.336   0.732  17.344  0.0741 -0.4092 -0.1677
 7826SOL    HW135114   1.328   0.712  17.437 -1.8650  1.3796  0.0338
 7826SOL    HW235115   1.366   0.647  17.312 -3.0860 -2.3275  1.9967
 7827SOL     OW35116   4.356   3.298  15.801 -0.2326  0.2303  0.0112
 7827SOL    HW135117   4.333   3.382  15.761  1.3133 -0.1744 -1.7516
 7827SOL    HW235118   4.446   3.318  15.827 -0.8388 -0.6568  2.7228
 7828SOL     OW35119   0.412   0.781   2.163 -0.6129  0.1937 -0.2250
 7828SOL    HW135120   0.365   0.720   2.220 -3.2000  2.2831 -0.1058
 7828SOL    HW235121   0.410   0.859   2.219 -0.3873  0.4010 -0.5079
 7829SOL     OW35122   4.362   1.815   8.375  0.1967  0.0837 -0.1865
 7829SOL    HW135123   4.437   1.755   8.376 -0.6576 -1.0380 -2.2685
 7829SOL    HW235124   4.360   1.833   8.281  2.4688 -1.0230 -0.4556
 7830SOL     OW35125   0.045   1.541  11.636 -0.3931  0.0715 -0.1087
 7830SOL    HW135126   0.047   1.507  11.546  0.7839  0.8791 -0.3923
 7830SOL    HW235127   4.703   1.594  11.645 -0.8823 -0.2123 -2.6141
 7831SOL     OW35128   3.550   3.533  13.683  0.0343  0.4232  0.0508
 7831SOL    HW135129   3.499   3.614  13.691 -0.5565  0.0623 -0.1277
 7831SOL    HW235130   3.636   3.565  13.656  1.2943 -0.4616  3.0260
 7832SOL     OW35131   2.024   0.858   7.547  0.3430 -0.2855  0.2175
 7832SOL    HW135132   2.029   0.954   7.550 -1.7094 -0.2200  1.7799
 7832SOL    HW235133   2.049   0.826   7.634 -0.6322  1.8470  1.2986
 7833SOL     OW35134   0.259   4.415   2.437 -0.1047 -0.1065 -0.2761
 7833SOL    HW135135   0.226   4.471   2.367 -1.3763  1.5180  1.6431
 7833SOL    HW235136   0.334   4.382   2.387  0.1618 -0.1076  0.1235
 7834SOL     OW35137   1.311   1.121   3.936  1.1215  0.7710 -0.0637
 7834SOL    HW135138   1.353   1.207   3.936  0.3452  1.1476  0.3786
 7834SOL    HW235139   1.332   1.109   3.843  0.6170  3.5531 -0.5487
 7835SOL     OW35140   3.583   3.940   1.330 -0.5401 -0.3148 -0.4016
 7835SOL    HW135141   3.532   3.866   1.298  1.5130 -1.1832 -1.6464
 7835SOL    HW235142   3.668   3.897   1.328 -0.8173 -0.8136 -1.5263
 7836SOL     OW35143   2.083   0.316   1.264 -0.1132 -0.5457 -0.7333
 7836SOL    HW135144   2.107   0.388   1.323  0.8276  1.0472 -3.0547
 7836SOL    HW235145   2.005   0.361   1.231 -0.0906  0.0982  0.0792
 7837SOL     OW35146   2.982   1.914  16.286 -0.4787  0.1760  0.3636
 7837SOL    HW135147   3.068   1.941  16.317 -0.4502  0.8867 -0.3404
 7837SOL    HW235148   2.997   1.937  16.195 -1.3405 -2.2892 -0.4107
 7838SOL     OW35149   1.665   1.823   2.397  0.0067 -0.2829  0.2535
 7838SOL    HW135150   1.631   1.786   2.479  0.7668 -3.0421 -0.6915
 7838SOL    HW235151   1.585   1.840   2.347  1.3521  0.6423 -1.5635
 7839SOL     OW35152   0.089   4.644   2.643  0.2181  0.0572  0.1495
 7839SOL    HW135153   0.012   4.679   2.688  0.0874  0.2635 -0.2362
 7839SOL    HW235154   0.132   4.720   2.604  2.0421 -0.8608  0.3990
 7840SOL     OW35155   4.358   3.728  17.086 -0.5690  0.0264 -0.1731
 7840SOL    HW135156   4.379   3.675  17.163 -0.3366 -0.1082 -0.3307
 7840SOL    HW235157   4.385   3.677  17.010  1.2007  0.1992  0.3353
 7841SOL     OW35158   1.791   0.406  17.465 -0.3698  0.0180  0.6852
 7841SOL    HW135159   1.743   0.479  17.504 -0.7780 -0.2619  0.7073
 7841SOL    HW235160   1.715   0.348  17.475 -0.5856  0.5530  2.2055
 7842SOL     OW35161   0.297   2.683   3.066  0.6597 -0.4428  0.7209
 7842SOL    HW135162   0.237   2.656   2.996  1.1082  2.9017 -0.9739
 7842SOL    HW235163   0.344   2.603   3.087  1.7845  0.0153 -0.0158
 7843SOL     OW35164   3.472   4.308   3.001  0.5545 -0.0618 -0.1315
 7843SOL    HW135165   3.377   4.317   2.997  0.3347 -2.2879 -0.2851
 7843SOL    HW235166   3.483   4.260   3.084 -2.4117  2.8505  1.9362
 7844SOL     OW35167   3.860   3.953   5.187  1.1025 -0.2506 -0.1261
 7844SOL    HW135168   3.806   3.874   5.186  1.6130 -0.5803 -2.5031
 7844SOL    HW235169   3.911   3.932   5.265  0.5835 -0.0259  0.2753
 7845SOL     OW35170   1.698   1.379   1.877  0.5420 -0.0739 -0.2904
 7845SOL    HW135171   1.781   1.426   1.867  0.9121  0.1078  3.9048
 7845SOL    HW235172   1.670   1.418   1.960 -0.6601 -0.6745 -0.4147
 7846SOL     OW35173   3.718   0.968   0.150  0.1165 -0.3039 -0.2534
 7846SOL    HW135174   3.647   0.941   0.092 -2.3938  0.7056  2.3472
 7846SOL    HW235175   3.794   0.925   0.111  0.3967  0.9140 -1.0314
 7847SOL     OW35176   0.978   3.234   1.282 -0.6400 -0.3752  0.1822
 7847SOL    HW135177   1.038   3.295   1.323 -0.4117 -0.1532 -0.4734
 7847SOL    HW235178   1.025   3.203   1.205 -0.9250  0.5334 -0.3626
 7848SOL     OW35179   2.893   2.500   9.952 -1.2706  0.3424 -0.1747
 7848SOL    HW135180   2.809   2.473   9.989 -1.4436 -0.5752 -1.2391
 7848SOL    HW235181   2.932   2.528  10.035  0.8212  0.1064 -1.0860
 7849SOL     OW35182   3.884   1.992   8.361  0.0156  0.1041  0.1086
 7849SOL    HW135183   3.935   2.050   8.305 -1.6593  0.6981 -0.8152
 7849SOL    HW235184   3.946   1.944   8.415 -0.6774  2.2350  2.7881
 7850SOL     OW35185   1.720   0.055   2.842  0.8653 -0.3132 -0.4262
 7850SOL    HW135186   1.732   0.137   2.794  1.4980 -0.5190 -0.6200
 7850SOL    HW235187   1.797   4.737   2.829  1.1142  0.4456 -2.1013
 7851SOL     OW35188   0.467   3.260  17.649 -0.2591  0.1670 -0.4986
 7851SOL    HW135189   0.415   3.340  17.638 -1.9650 -0.9294 -0.5315
 7851SOL    HW235190   0.536   3.287  17.589  0.0685 -0.9627 -0.6345
 7852SOL     OW35191   0.707   3.925  10.718  0.2844  0.6301  0.1500
 7852SOL    HW135192   0.754   3.963  10.792 -0.1954 -1.0292  1.3006
 7852SOL    HW235193   0.690   3.836  10.750  0.3564  0.1010 -1.2876
 7853SOL     OW35194   2.489   3.072   8.984  0.3439  0.0364 -0.3609
 7853SOL    HW135195   2.446   3.017   8.919  1.0790 -1.1468  0.1514
 7853SOL    HW235196   2.418   3.085   9.047 -0.9935  0.4947 -1.9749
 7854SOL     OW35197   2.189   0.824   2.964  0.0425  0.4676 -0.1817
 7854SOL    HW135198   2.179   0.884   2.890 -1.0879  2.5530  1.6618
 7854SOL    HW235199   2.214   0.876   3.041 -0.9042  1.0566 -0.2794
 7855SOL     OW35200   2.031   1.730   5.298  0.0810 -0.1245  0.2369
 7855SOL    HW135201   1.983   1.757   5.219  0.8162 -2.1061 -0.9035
 7855SOL    HW235202   2.039   1.636   5.280  1.7201  0.1226 -0.2686
 7856SOL     OW35203   2.871   3.192   8.752  0.0033  0.4308  0.3489
 7856SOL    HW135204   2.798   3.206   8.813 -0.7045 -3.8320  0.5112
 7856SOL    HW235205   2.889   3.099   8.765 -1.3514  0.1263  0.1211
 7857SOL     OW35206   2.856   4.548  10.545 -0.2551 -0.4796  0.3233
 7857SOL    HW135207   2.921   4.604  10.587  0.5166 -0.1394 -1.3224
 7857SOL    HW235208   2.858   4.470  10.601  2.4194 -0.3358  0.4040
 7858SOL     OW35209   1.997   1.862  17.195  0.4408  0.2972  0.1015
 7858SOL    HW135210   2.058   1.805  17.149  0.6052 -1.0650  2.0161
 7858SOL    HW235211   1.973   1.912  17.118 -0.2622  0.0035  0.1259
 7859SOL     OW35212   4.213   1.160   0.644  0.1277  0.1567  0.0390
 7859SOL    HW135213   4.229   1.203   0.729  0.1951 -2.1889  1.2194
 7859SOL    HW235214   4.296   1.172   0.598  0.1294 -1.7962 -0.4629
 7860SOL     OW35215   3.007   0.686   7.851  0.4549 -0.4645  0.0786
 7860SOL    HW135216   3.051   0.723   7.774 -0.6402  1.2459  0.2600
 7860SOL    HW235217   2.982   0.770   7.891 -2.2509 -1.0619 -0.3244
 7861SOL     OW35218   2.585   3.242   5.196  0.0759  0.0910 -0.1660
 7861SOL    HW135219   2.503   3.194   5.191  1.1883 -1.7106 -1.0446
 7861SOL    HW235220   2.630   3.194   5.266 -1.2900 -1.0627 -0.0832
 7862SOL     OW35221   1.434   0.530   3.592  0.1097 -0.1158  0.3153
 7862SOL    HW135222   1.436   0.559   3.501 -3.9780 -2.2416 -0.4868
 7862SOL    HW235223   1.492   0.454   3.591  0.5491  0.2519 -2.4993
 7863SOL     OW35224   2.307   0.500   9.066  0.3855 -0.8614  0.2843
 7863SOL    HW135225   2.318   0.414   9.024  0.2636 -0.8704  0.2725
 7863SOL    HW235226   2.349   0.551   8.996  0.6033 -0.2551  0.8617
 7864SOL     OW35227   1.118   0.820  13.015 -0.5128 -0.1958  0.7168
 7864SOL    HW135228   1.116   0.769  13.096 -0.5738  2.5976  2.4870
 7864SOL    HW235229   1.037   0.869  13.023  0.0171  1.1236 -1.9297
 7865SOL     OW35230   2.652   3.185   2.219  0.0385  1.4400  0.2663
 7865SOL    HW135231   2.668   3.091   2.207  1.8966  2.0222 -1.7218
 7865SOL    HW235232   2.558   3.199   2.209 -0.1093  0.0893 -0.2627
 7866SOL     OW35233   1.150   0.103   6.726 -0.2758  0.1199 -0.5798
 7866SOL    HW135234   1.221   0.132   6.669  0.9961 -1.1947  0.3283
 7866SOL    HW235235   1.095   0.045   6.674  0.1982 -1.4922  0.6927
 7867SOL     OW35236   0.053   1.445  10.358  0.4648  0.3734 -0.6438
 7867SOL    HW135237   4.696   1.434  10.342  0.3701 -2.2171  1.8002
 7867SOL    HW235238   0.098   1.362  10.342 -0.1055  0.2969 -1.9386
 7868SOL     OW35239   3.158   3.555  13.289  0.5779 -0.0273  0.0774
 7868SOL    HW135240   3.227   3.564  13.354 -0.1670 -0.3580  0.9129
 7868SOL    HW235241   3.198   3.490  13.231  1.0343 -0.4132  0.8318
 7869SOL     OW35242   1.270   2.125   3.067 -0.1933  0.4195 -0.1986
 7869SOL    HW135243   1.355   2.131   3.025  0.5843 -0.8299  1.2204
 7869SOL    HW235244   1.273   2.045   3.120  0.7052 -0.0166 -0.9223
 7870SOL     OW35245   1.505   3.487   5.594 -0.1457  0.2115  0.4749
 7870SOL    HW135246   1.520   3.579   5.573  1.7790  0.6019  3.5954
 7870SOL    HW235247   1.584   3.447   5.557 -0.5871  0.3827 -0.6527
 7871SOL     OW35248   2.594   0.945   2.684 -0.5147 -0.0837 -0.3202
 7871SOL    HW135249   2.577   0.853   2.666  0.6063 -0.3472 -0.0525
 7871SOL    HW235250   2.661   0.934   2.752  1.0584  3.4318 -1.2826
 7872SOL     OW35251   3.781   3.454   9.277 -0.3537  0.2994  0.4782
 7872SOL    HW135252   3.751   3.413   9.196 -0.2707  0.4534  0.3689
 7872SOL    HW235253   3.702   3.443   9.331  1.3962  0.8192  3.1595
 7873SOL     OW35254   2.843   0.579  16.318  0.2188 -0.5654 -0.0267
 7873SOL    HW135255   2.906   0.601  16.387  0.4128 -2.2966  0.3320
 7873SOL    HW235256   2.879   0.624  16.241 -1.1790  0.2041 -0.2401
 7874SOL     OW35257   2.239   1.392   2.931  0.2495 -0.1391 -0.6251
 7874SOL    HW135258   2.216   1.440   2.851  0.0015 -0.3548 -0.6853
 7874SOL    HW235259   2.334   1.386   2.928  0.3299  0.5062  0.5323
 7875SOL     OW35260   3.532   4.682   1.630  0.0233 -0.7261  0.2457
 7875SOL    HW135261   3.560   0.027   1.588 -0.2529 -0.4605  0.5816
 7875SOL    HW235262   3.619   4.641   1.628  0.4853  0.3821 -4.2158
 7876SOL     OW35263   2.618   1.788   7.858 -0.0124 -0.5209 -0.3374
 7876SOL    HW135264   2.552   1.857   7.852  0.0586 -0.3717  0.5330
 7876SOL    HW235265   2.692   1.830   7.903 -0.6589  0.4345 -0.1778
 7877SOL     OW35266   1.407   2.346  15.660  0.4361 -0.2391  0.6572
 7877SOL    HW135267   1.491   2.380  15.690  0.8386 -1.3942  0.8543
 7877SOL    HW235268   1.377   2.280  15.724  1.5131 -1.1315  0.2388
 7878SOL     OW35269   2.906   3.397   6.925 -0.0815 -0.0414  0.0326
 7878SOL    HW135270   2.967   3.470   6.937  0.3413 -0.2432 -0.8792
 7878SOL    HW235271   2.927   3.369   6.836  1.7888  0.9679  0.1491
 7879SOL     OW35272   3.731   1.457  12.599 -0.0161 -0.4438  0.0259
 7879SOL    HW135273   3.799   1.425  12.539 -0.2962 -0.0311 -0.5054
 7879SOL    HW235274   3.723   1.375  12.649  0.7228 -0.8093 -0.4591
 7880SOL     OW35275   2.674   1.934   1.221 -0.3586 -0.0959  0.1878
 7880SOL    HW135276   2.689   2.016   1.268  0.5656  0.4060 -0.9589
 7880SOL    HW235277   2.611   1.954   1.151 -0.4219 -0.4890  0.1332
 7881SOL     OW35278   2.694   2.322   7.984  0.2373 -0.0411 -0.2827
 7881SOL    HW135279   2.605   2.344   7.957  0.6002 -0.7726 -2.0333
 7881SOL    HW235280   2.699   2.345   8.077 -1.4977 -1.4738  0.1835
 7882SOL     OW35281   0.687   3.059   3.985 -0.0563 -0.3011 -0.0063
 7882SOL    HW135282   0.780   3.042   3.970  0.1751  1.4339 -0.5542
 7882SOL    HW235283   0.651   2.975   3.958 -0.6466  0.9153 -2.9494
 7883SOL     OW35284   3.331   2.436   1.715  0.0268  0.4591 -0.0930
 7883SOL    HW135285   3.251   2.480   1.744 -0.3402 -1.1577  1.3213
 7883SOL    HW235286   3.334   2.365   1.779  3.6727 -2.0021 -3.0349
 7884SOL     OW35287   4.355   3.862   3.756  0.4970 -0.4452  0.0668
 7884SOL    HW135288   4.434   3.836   3.805  1.5938  0.9068 -0.9786
 7884SOL    HW235289   4.303   3.909   3.821 -2.6555 -0.9374 -2.1408
 7885SOL     OW35290   3.292   3.406  15.518 -0.6516 -0.0762 -0.2279
 7885SOL    HW135291   3.286   3.358  15.436 -2.3001 -1.1240  0.5028
 7885SOL    HW235292   3.286   3.497  15.491 -1.9115 -0.1314 -0.1462
 7886SOL     OW35293   4.504   0.789   6.399 -0.1143  0.1234 -0.1476
 7886SOL    HW135294   4.431   0.850   6.395  1.1378  1.6893  0.5087
 7886SOL    HW235295   4.554   0.832   6.330 -0.8651 -0.6985 -1.1819
 7887SOL     OW35296   3.242   1.933   8.940 -0.2123 -0.0466 -0.2988
 7887SOL    HW135297   3.289   1.855   8.970  1.2480  1.1129  0.4323
 7887SOL    HW235298   3.298   2.004   8.972 -0.3917 -0.9073  1.9019
 7888SOL     OW35299   2.601   0.537   5.977 -0.4574  0.7120  0.3041
 7888SOL    HW135300   2.627   0.626   6.001  0.5717  0.4093  0.3142
 7888SOL    HW235301   2.685   0.507   5.942 -1.4423 -0.6275 -0.9065
 7889SOL     OW35302   0.357   2.727   8.135 -0.0510  0.1461  0.0228
 7889SOL    HW135303   0.436   2.718   8.081 -0.2389 -0.1907 -0.1915
 7889SOL    HW235304   0.321   2.809   8.101  1.0818  0.2425 -0.9536
 7890SOL     OW35305   0.029   1.214   4.518 -0.4129  0.0547  0.1775
 7890SOL    HW135306   0.067   1.248   4.599  1.3017  0.8382 -0.9421
 7890SOL    HW235307   4.698   1.161   4.559 -1.9797  0.9551 -1.2622
 7891SOL     OW35308   0.462   0.942  16.072 -0.9435  0.2204  0.7738
 7891SOL    HW135309   0.366   0.946  16.062 -0.8714 -2.2496 -0.9742
 7891SOL    HW235310   0.485   0.892  15.993 -0.2867 -0.4622  1.4064
 7892SOL     OW35311   0.597   4.262   8.956 -0.3474  0.0578  0.0707
 7892SOL    HW135312   0.654   4.339   8.950 -0.6686  0.1516 -1.7538
 7892SOL    HW235313   0.517   4.304   8.923  1.0902  2.7471 -0.0223
 7893SOL     OW35314   0.277   0.118   2.549 -0.2359 -0.1548  0.0990
 7893SOL    HW135315   0.289   0.211   2.570  3.9954 -0.5065 -0.8278
 7893SOL    HW235316   0.357   0.085   2.589  0.1519 -0.8883 -1.2967
 7894SOL     OW35317   3.441   0.333   7.277  0.1496 -0.6433  0.1736
 7894SOL    HW135318   3.513   0.306   7.334  0.2654  0.1253  0.3983
 7894SOL    HW235319   3.450   0.425   7.254  1.4820 -1.6186 -3.1463
 7895SOL     OW35320   0.610   1.135  11.749 -0.5206  0.3930 -0.0106
 7895SOL    HW135321   0.526   1.146  11.794 -0.9719  3.4304 -1.5835
 7895SOL    HW235322   0.674   1.134  11.820 -1.6334 -0.5925  0.9750
 7896SOL     OW35323   3.597   2.316   1.638  0.2123  0.2766 -0.2021
 7896SOL    HW135324   3.563   2.239   1.591  1.2814 -0.5492  0.3631
 7896SOL    HW235325   3.508   2.337   1.664  0.2491  1.3151 -0.9572
 7897SOL     OW35326   1.855   1.735  12.566  0.0569 -0.0870  0.0071
 7897SOL    HW135327   1.815   1.658  12.604  1.2422 -0.8296 -0.2344
 7897SOL    HW235328   1.821   1.804  12.623  0.2263 -0.1534  0.1873
 7898SOL     OW35329   2.918   1.280   9.446  0.1968  0.0186 -0.2765
 7898SOL    HW135330   2.876   1.245   9.525  1.0893 -0.6996 -0.1123
 7898SOL    HW235331   2.930   1.372   9.466  1.6108 -0.4184  0.8495
 7899SOL     OW35332   0.127   0.724   8.024 -0.4469  0.2870  0.4708
 7899SOL    HW135333   0.091   0.698   8.109  2.5403 -0.9744  1.3267
 7899SOL    HW235334   0.194   0.658   8.008 -0.3955  0.9941 -2.1752
 7900SOL     OW35335   1.081   3.512  15.492  0.1745  0.0450  0.0682
 7900SOL    HW135336   1.080   3.580  15.559 -0.5634 -0.8675  0.9910
 7900SOL    HW235337   1.090   3.435  15.548 -0.6095  1.1351  1.7160
 7901SOL     OW35338   2.783   0.471   9.184 -0.5149 -0.0410 -0.0734
 7901SOL    HW135339   2.845   0.513   9.243  0.4030  0.0356 -1.1033
 7901SOL    HW235340   2.757   0.545   9.128 -2.0005  0.7649  1.6582
 7902SOL     OW35341   0.373   4.626  17.438 -0.1592 -0.3345  0.5563
 7902SOL    HW135342   0.446   4.564  17.436  0.7623  0.8127 -1.9423
 7902SOL    HW235343   0.414   4.703  17.398  3.0027 -0.4954  3.5018
 7903SOL     OW35344   4.639   1.145   2.657 -0.2587 -0.3851  0.4171
 7903SOL    HW135345   4.684   1.060   2.660  1.4869  0.5343 -0.1778
 7903SOL    HW235346   4.559   1.129   2.607  0.2884  1.6181 -1.1014
 7904SOL     OW35347   2.868   3.452  10.397 -0.0348 -0.0458  0.0154
 7904SOL    HW135348   2.959   3.471  10.420 -0.0542  1.0740 -0.8404
 7904SOL    HW235349   2.822   3.512  10.456 -0.4013 -0.0505 -0.2694
 7905SOL     OW35350   0.178   0.900   7.553  0.9059 -0.0048  0.2096
 7905SOL    HW135351   0.188   0.879   7.646  2.0232  1.6955  0.4824
 7905SOL    HW235352   0.175   0.810   7.521 -0.6676 -0.2454  1.0180
 7906SOL     OW35353   2.902   0.393   5.481 -0.1994 -0.3531  0.2600
 7906SOL    HW135354   2.921   0.472   5.533 -0.5996 -1.5763  2.2715
 7906SOL    HW235355   2.919   0.322   5.542  0.2600 -2.6114 -2.5306
 7907SOL     OW35356   4.479   2.329   4.413  0.3370  0.0870 -0.1438
 7907SOL    HW135357   4.431   2.408   4.437  3.8893  1.5241  2.2252
 7907SOL    HW235358   4.474   2.346   4.319  2.6118 -0.4963 -0.3550
 7908SOL     OW35359   1.270   2.515   1.183 -0.1455  0.2829 -0.6021
 7908SOL    HW135360   1.206   2.446   1.166 -1.7094  2.2581 -2.6283
 7908SOL    HW235361   1.219   2.592   1.160  0.4004 -0.4348 -4.0786
 7909SOL     OW35362   3.271   3.092  16.398  0.3126 -0.8701 -0.3396
 7909SOL    HW135363   3.238   3.017  16.448 -1.3517  0.6509  0.8593
 7909SOL    HW235364   3.364   3.072  16.399  0.8434  1.7256  1.4978
 7910SOL     OW35365   0.957   3.121   6.153 -0.0896  0.3667 -0.4932
 7910SOL    HW135366   1.022   3.078   6.098 -2.0978 -2.8065 -0.3719
 7910SOL    HW235367   0.971   3.213   6.131 -1.7643  1.0188  1.1948
 7911SOL     OW35368   3.995   0.316  13.120 -0.1585 -0.5089 -0.5729
 7911SOL    HW135369   3.946   0.293  13.042 -1.8194  0.1925  0.2746
 7911SOL    HW235370   3.946   0.275  13.192  2.8202 -1.6626  0.8180
 7912SOL     OW35371   2.998   1.533   0.438 -0.0855  0.5865 -0.0510
 7912SOL    HW135372   3.063   1.507   0.373  0.1806 -0.0526  0.4610
 7912SOL    HW235373   3.046   1.597   0.491  1.3994 -1.0548  0.5974
 7913SOL     OW35374   4.508   4.367   5.528  0.0362  0.0386  0.2767
 7913SOL    HW135375   4.477   4.453   5.501 -1.3493 -0.3735  0.5416
 7913SOL    HW235376   4.538   4.325   5.447  1.4113  1.1345  0.2278
 7914SOL     OW35377   2.782   4.611   6.092  0.3961 -0.1524  0.4057
 7914SOL    HW135378   2.747   4.673   6.028  3.3249  0.1876 -0.8693
 7914SOL    HW235379   2.858   4.585   6.040 -1.0611 -1.4384 -1.1162
 7915SOL     OW35380   4.679   0.419   4.745 -0.4325 -0.1964 -0.2057
 7915SOL    HW135381   0.029   0.440   4.711 -0.9707  0.2659 -1.3109
 7915SOL    HW235382   4.703   0.385   4.831 -2.1088 -0.8432  0.0077
 7916SOL     OW35383   3.858   4.446   7.703 -0.0651 -0.4374  0.1037
 7916SOL    HW135384   3.770   4.435   7.739 -0.4932  0.8100 -0.5826
 7916SOL    HW235385   3.865   4.369   7.646  0.2248 -0.1951 -0.1887
 7917SOL     OW35386   3.080   3.592   8.789  0.0794  0.0030  0.0626
 7917SOL    HW135387   3.093   3.498   8.774 -0.4002 -0.1361  0.5397
 7917SOL    HW235388   3.030   3.623   8.714 -1.1726 -1.2705  0.3683
 7918SOL     OW35389   2.165   2.963  13.261  0.0448 -0.3598 -0.6553
 7918SOL    HW135390   2.178   2.874  13.294  0.0726 -0.7045 -1.5919
 7918SOL    HW235391   2.207   3.011  13.332  1.0013 -2.0685 -0.0743
 7919SOL     OW35392   4.610   2.215  16.577 -0.5769  0.1609 -0.5602
 7919SOL    HW135393   4.530   2.192  16.623 -1.1513  0.0488 -1.6256
 7919SOL    HW235394   4.635   2.291  16.631 -1.9847  0.0498  0.2551
 7920SOL     OW35395   2.300   3.097   9.979 -0.7822  0.3858  0.2121
 7920SOL    HW135396   2.364   3.057   9.920  0.9811  1.2504  1.5233
 7920SOL    HW235397   2.292   3.025  10.041 -1.3294 -0.5660 -0.9651
 7921SOL     OW35398   2.818   1.773   4.312 -0.1792  0.1376  0.6400
 7921SOL    HW135399   2.871   1.711   4.362 -0.8299 -0.1818  0.9413
 7921SOL    HW235400   2.848   1.851   4.357 -1.1095  0.7906  0.1349
 7922SOL     OW35401   3.997   2.200  15.499 -0.4155 -0.0455  0.2371
 7922SOL    HW135402   4.006   2.107  15.479 -1.3788 -0.4702  1.7245
 7922SOL    HW235403   3.952   2.227  15.419 -1.3924 -3.2156 -0.2971
 7923SOL     OW35404   1.014   2.859   9.186 -0.6183 -0.0149  0.0673
 7923SOL    HW135405   1.028   2.890   9.096  3.0954  1.2973  1.0910
 7923SOL    HW235406   0.922   2.834   9.192 -0.6457  0.5923  2.0500
 7924SOL     OW35407   1.306   4.474   0.832 -0.6438 -0.2618 -0.0302
 7924SOL    HW135408   1.211   4.474   0.819 -0.4092 -0.3437 -1.7466
 7924SOL    HW235409   1.340   4.386   0.819 -1.0291 -0.1154 -2.0962
 7925SOL     OW35410   1.425   4.118  13.954 -0.2780 -0.1333 -0.4886
 7925SOL    HW135411   1.401   4.117  14.047 -0.0183 -3.0114 -0.4658
 7925SOL    HW235412   1.494   4.052  13.945 -2.0342 -1.9949 -0.2709
 7926SOL     OW35413   0.668   2.507  13.249  0.7059 -0.5808 -0.3550
 7926SOL    HW135414   0.689   2.473  13.163  0.5926 -0.5240 -0.4053
 7926SOL    HW235415   0.599   2.572  13.235  0.4780 -0.4480  1.3103
 7927SOL     OW35416   3.119   3.385   0.670 -0.6611  0.1156  0.2349
 7927SOL    HW135417   3.122   3.291   0.688 -0.8465  0.0911  0.1431
 7927SOL    HW235418   3.043   3.416   0.719 -1.6208 -2.3738  0.3240
 7928SOL     OW35419   0.971   1.844  10.354  0.1387  0.3244  0.6974
 7928SOL    HW135420   0.998   1.921  10.305  0.0138  0.6764  1.1855
 7928SOL    HW235421   0.988   1.869  10.445 -0.4782 -0.7973  1.1281
 7929SOL     OW35422   1.443   0.783   3.952  0.3049 -0.5608 -0.5006
 7929SOL    HW135423   1.488   0.798   3.869 -0.8210 -0.5465 -1.1104
 7929SOL    HW235424   1.431   0.689   3.961 -2.8483 -0.2386 -1.4113
 7930SOL     OW35425   4.553   3.291   0.408 -0.3936  0.8599 -0.0147
 7930SOL    HW135426   4.556   3.297   0.504 -0.9623  0.7919  0.0093
 7930SOL    HW235427   4.584   3.381   0.392  1.0454 -0.2326 -3.2549
 7931SOL     OW35428   1.535   3.948  10.411 -0.6482 -0.0789  0.2074
 7931SOL    HW135429   1.476   4.014  10.448 -0.6860  0.0373 -0.0597
 7931SOL    HW235430   1.542   3.979  10.321 -0.4791 -1.4831 -0.2582
 7932SOL     OW35431   1.345   4.127   2.553 -0.1554  0.0575  0.5185
 7932SOL    HW135432   1.309   4.193   2.611 -0.2854 -0.6456  1.2422
 7932SOL    HW235433   1.391   4.069   2.614 -1.5414 -0.3900  1.1356
 7933SOL     OW35434   2.405   3.152   8.066  0.1411 -0.1628 -0.3122
 7933SOL    HW135435   2.456   3.234   8.069  1.2354 -0.8127 -1.0701
 7933SOL    HW235436   2.482   3.098   8.046  0.0793 -0.1881 -0.4840
 7934SOL     OW35437   0.989   1.440   1.200 -0.4923 -0.5752 -0.3388
 7934SOL    HW135438   1.060   1.504   1.200 -1.8452  0.9260  0.8904
 7934SOL    HW235439   0.914   1.493   1.228  0.5986  0.4013  0.7666
 7935SOL     OW35440   3.091   4.571  16.294  0.1794 -0.0480 -0.3131
 7935SOL    HW135441   3.054   4.630  16.227 -0.6699 -0.8257 -0.5334
 7935SOL    HW235442   3.168   4.619  16.323 -0.3217  1.2617 -1.1259
 7936SOL     OW35443   2.980   3.437  15.260  0.6334 -0.3428 -0.0375
 7936SOL    HW135444   3.003   3.367  15.320 -0.8034 -1.1370 -0.4055
 7936SOL    HW235445   2.889   3.447  15.288  0.9532  0.0844  0.8353
 7937SOL     OW35446   4.594   4.570   5.792  0.6555  0.0723  0.0532
 7937SOL    HW135447   4.610   4.487   5.838  1.1084  0.2382  0.1939
 7937SOL    HW235448   4.509   4.545   5.757  0.5413  1.2968 -0.5313
 7938SOL     OW35449   0.483   1.008  12.335  0.2246  0.1322  0.7091
 7938SOL    HW135450   0.422   0.934  12.335 -1.7001  1.7200 -0.8345
 7938SOL    HW235451   0.513   1.006  12.426 -0.3773 -2.5121  0.8582
 7939SOL     OW35452   0.737   0.083  17.425  1.0786  0.2538 -0.4473
 7939SOL    HW135453   0.794   0.006  17.432 -1.7333 -1.7626  0.3681
 7939SOL    HW235454   0.792   0.123  17.358  0.7069  3.7748  1.3402
 7940SOL     OW35455   4.421   3.453   5.914 -0.1640  0.1947  0.1625
 7940SOL    HW135456   4.510   3.422   5.930 -1.9251 -2.0704  5.7090
 7940SOL    HW235457   4.373   3.401   5.978  0.1852  0.7209  0.8588
 7941SOL     OW35458   4.522   2.749   5.554  0.6689 -0.2818  0.2602
 7941SOL    HW135459   4.480   2.669   5.522  2.8017 -0.6161 -1.7090
 7941SOL    HW235460   4.564   2.725   5.637 -3.4963 -1.5567  1.9746
 7942SOL     OW35461   3.198   2.060   3.922 -0.3615  0.2372 -0.0859
 7942SOL    HW135462   3.253   2.136   3.905 -1.4585  0.8410 -0.8795
 7942SOL    HW235463   3.111   2.099   3.910 -0.7674 -1.3891 -2.4115
 7943SOL     OW35464   0.136   1.208   5.939 -0.3000 -0.3156  0.3095
 7943SOL    HW135465   0.096   1.293   5.919 -1.7396 -1.9550 -3.7430
 7943SOL    HW235466   0.203   1.229   6.003 -1.0444 -1.8458  1.5970
 7944SOL     OW35467   4.299   4.690  13.005  0.0957 -0.5234  0.2355
 7944SOL    HW135468   4.362   4.673  12.935 -0.2906 -0.5890 -0.0925
 7944SOL    HW235469   4.360   4.696  13.079 -0.5627  0.3502  0.7127
 7945SOL     OW35470   1.843   2.287   3.369 -0.3177  0.0107  0.3654
 7945SOL    HW135471   1.859   2.378   3.342 -1.7450 -0.2954 -1.5134
 7945SOL    HW235472   1.763   2.276   3.318  1.0598  1.2621 -2.0759
 7946SOL     OW35473   0.846   0.555  13.105 -0.2313 -0.3816 -0.0325
 7946SOL    HW135474   0.817   0.472  13.066  0.6885 -1.4468  1.5591
 7946SOL    HW235475   0.765   0.594  13.136  1.7274  2.6283  1.2605
 7947SOL     OW35476   0.212   3.305  14.767  0.1776 -0.2288 -0.5044
 7947SOL    HW135477   0.179   3.380  14.817  2.2146  1.3474 -1.5670
 7947SOL    HW235478   0.232   3.350  14.685 -0.6238  0.7823 -0.1391
 7948SOL     OW35479   2.321   4.440   8.595 -0.0031 -0.1817 -0.0425
 7948SOL    HW135480   2.405   4.453   8.551  0.6586  1.1042  1.5639
 7948SOL    HW235481   2.308   4.526   8.635  2.6438  0.4929 -0.6570
 7949SOL     OW35482   2.578   3.436   4.028  0.1253 -0.4830 -0.2133
 7949SOL    HW135483   2.567   3.364   3.965  0.7046 -0.7429 -0.0131
 7949SOL    HW235484   2.486   3.455   4.045  0.0477  3.4339 -4.8171
 7950SOL     OW35485   3.149   4.355   4.009 -0.6696  0.2040  0.4780
 7950SOL    HW135486   3.194   4.348   4.093  2.1437 -0.1985 -1.0651
 7950SOL    HW235487   3.143   4.264   3.982  0.6430  0.1829  0.2777
 7951SOL     OW35488   3.496   0.972   5.160  0.2192  0.0594  0.0649
 7951SOL    HW135489   3.434   0.910   5.123 -0.1858  1.6129 -1.8582
 7951SOL    HW235490   3.450   1.053   5.136  0.3630 -0.5491 -2.2062
 7952SOL     OW35491   3.434   2.379   0.328 -0.2776  0.0148 -1.1597
 7952SOL    HW135492   3.482   2.296   0.333 -0.4112  0.0526  1.1017
 7952SOL    HW235493   3.494   2.444   0.292 -0.0562  1.4005  1.7104
 7953SOL     OW35494   3.181   4.122   7.335  0.4468 -0.1097  0.5846
 7953SOL    HW135495   3.185   4.206   7.289 -1.0437 -0.2039  0.2521
 7953SOL    HW235496   3.208   4.062   7.265 -0.6452  1.5368 -1.2680
 7954SOL     OW35497   0.179   1.819  16.504 -0.4430  0.0623 -0.0693
 7954SOL    HW135498   0.208   1.735  16.539  0.2655 -0.4848 -1.9654
 7954SOL    HW235499   0.111   1.787  16.444  0.0785 -1.0777 -0.0611
 7955SOL     OW35500   3.724   0.777  14.980  0.3705 -0.1603 -0.3179
 7955SOL    HW135501   3.752   0.766  14.889  2.7617  0.2207  0.3728
 7955SOL    HW235502   3.797   0.828  15.015 -0.1410  0.3546  0.0010
 7956SOL     OW35503   0.962   1.245  16.391 -0.3426  0.2263  0.3703
 7956SOL    HW135504   0.940   1.152  16.386  0.8194  0.0876 -2.2292
 7956SOL    HW235505   1.019   1.250  16.314 -1.0321  0.7919 -0.1030
 7957SOL     OW35506   2.055   2.706   4.728 -0.0261  0.5194 -0.4858
 7957SOL    HW135507   2.103   2.689   4.647  0.5795 -1.5861  0.3076
 7957SOL    HW235508   2.126   2.707   4.793 -1.0285 -0.5895  0.6275
 7958SOL     OW35509   3.044   2.951  14.728 -0.1935  0.0023  0.4496
 7958SOL    HW135510   3.022   2.902  14.649  2.8628 -2.2699  1.0115
 7958SOL    HW235511   3.071   3.029  14.680 -2.7910  0.8141  0.2994
 7959SOL     OW35512   0.676   1.947   2.446  0.2294  0.0939 -0.5657
 7959SOL    HW135513   0.698   2.040   2.455  1.3424 -0.3005  0.7331
 7959SOL    HW235514   0.733   1.921   2.374 -0.1309 -2.2148 -0.0047
 7960SOL     OW35515   4.447   3.605   4.213  0.2346  0.0560  0.3942
 7960SOL    HW135516   4.489   3.542   4.155  0.5256  0.5973  0.0138
 7960SOL    HW235517   4.381   3.636   4.150  0.4340 -0.7244 -0.1960
 7961SOL     OW35518   4.098   2.926  16.962 -0.5294 -0.5450 -0.6534
 7961SOL    HW135519   4.068   2.840  16.936 -0.5932 -0.1938 -1.7504
 7961SOL    HW235520   4.079   2.924  17.056  0.3797  2.9157 -0.3678
 7962SOL     OW35521   1.621   1.403   9.003  0.2278  0.0109 -0.5811
 7962SOL    HW135522   1.632   1.421   8.910  0.7287 -2.8314 -1.0447
 7962SOL    HW235523   1.544   1.347   9.006 -1.4931  2.3859  0.0864
 7963SOL     OW35524   2.697   4.009   7.445 -0.2437 -0.0733 -0.2833
 7963SOL    HW135525   2.761   4.069   7.407 -0.3816 -0.4330 -1.0702
 7963SOL    HW235526   2.708   4.034   7.537  0.6626 -0.2226 -0.3476
 7964SOL     OW35527   3.066   3.613  11.858  0.2975  0.0210  0.1609
 7964SOL    HW135528   2.988   3.664  11.879 -0.1338  0.2475 -1.9618
 7964SOL    HW235529   3.032   3.523  11.861 -1.8178  0.8818  2.1129
 7965SOL     OW35530   3.639   2.344   8.717 -0.0967  0.7127 -0.3130
 7965SOL    HW135531   3.684   2.383   8.792 -0.7638  0.5255  0.1837
 7965SOL    HW235532   3.697   2.384   8.652 -1.0241 -0.7405 -2.0275
 7966SOL     OW35533   0.900   2.577   4.054 -0.3004  0.1894 -0.1433
 7966SOL    HW135534   0.856   2.585   3.969  0.3684 -0.4520 -0.5581
 7966SOL    HW235535   0.830   2.558   4.115 -0.9299  1.4976 -0.4604
 7967SOL     OW35536   0.629   2.853   3.842  0.3264 -0.1223  0.0034
 7967SOL    HW135537   0.639   2.775   3.786  0.2019 -0.0870 -0.0688
 7967SOL    HW235538   0.571   2.914   3.796  0.4170  0.0845  0.1661
 7968SOL     OW35539   4.514   2.180   3.105  0.0093 -0.0069 -0.3250
 7968SOL    HW135540   4.510   2.249   3.039  1.8185 -0.6691 -1.1180
 7968SOL    HW235541   4.600   2.140   3.092 -0.4011 -0.6563 -1.0746
 7969SOL     OW35542   3.533   3.449   2.946  0.4115  0.4291  0.2677
 7969SOL    HW135543   3.488   3.365   2.946 -0.0693  0.6902  0.3444
 7969SOL    HW235544   3.617   3.423   2.907  0.2242 -1.4997  1.1707
 7970SOL     OW35545   3.557   4.215  10.439 -0.7160 -0.4215  0.7642
 7970SOL    HW135546   3.639   4.207  10.488 -0.2427  0.9870  0.2101
 7970SOL    HW235547   3.588   4.183  10.354 -0.6954 -0.8369  0.9294
 7971SOL     OW35548   2.387   4.021   2.332 -0.0703  0.1727 -0.0496
 7971SOL    HW135549   2.371   4.050   2.242 -0.1447 -1.0087 -0.4175
 7971SOL    HW235550   2.344   4.092   2.380 -0.5979  0.1152 -0.4410
 7972SOL     OW35551   2.775   3.824   9.273  0.2782 -0.3843 -0.2747
 7972SOL    HW135552   2.753   3.772   9.196  1.3992 -0.1813 -0.7369
 7972SOL    HW235553   2.789   3.757   9.341  3.1709  0.7039  0.2132
 7973SOL     OW35554   2.133   0.298   4.610 -0.2733  0.0201 -0.0903
 7973SOL    HW135555   2.107   0.214   4.572  1.1005 -0.4285 -0.0705
 7973SOL    HW235556   2.170   0.266   4.693  0.4892 -1.1963 -0.8893
 7974SOL     OW35557   0.822   2.224   5.359 -0.3423 -0.4062 -0.4208
 7974SOL    HW135558   0.754   2.247   5.423  1.2994 -0.9057  1.4788
 7974SOL    HW235559   0.812   2.311   5.321 -1.3783  1.0239  3.1108
 7975SOL     OW35560   0.567   1.837   8.874  0.1420  0.2286  0.0841
 7975SOL    HW135561   0.477   1.860   8.849 -0.2689  0.5047  1.8174
 7975SOL    HW235562   0.587   1.782   8.799 -2.3832 -2.3447  1.2984
 7976SOL     OW35563   1.868   1.873   1.179 -0.0817 -0.3922  0.2210
 7976SOL    HW135564   1.839   1.795   1.132 -1.1669 -1.0938  2.0701
 7976SOL    HW235565   1.884   1.938   1.111  0.9630 -3.4276 -2.4325
 7977SOL     OW35566   2.635   1.287   8.325 -0.4309 -0.1245  0.3840
 7977SOL    HW135567   2.642   1.245   8.411 -0.4485  1.9526  1.3848
 7977SOL    HW235568   2.728   1.301   8.310 -0.6429 -0.1725 -0.9405
 7978SOL     OW35569   4.543   2.078   4.519  0.2463 -0.5845  0.4503
 7978SOL    HW135570   4.493   2.029   4.454 -1.4759 -0.5206  1.7542
 7978SOL    HW235571   4.558   2.161   4.473  0.1781 -0.8936 -0.1375
 7979SOL     OW35572   2.371   2.656   3.869  0.1386 -0.1097 -0.3107
 7979SOL    HW135573   2.442   2.711   3.901 -0.4448 -0.2780  1.3170
 7979SOL    HW235574   2.341   2.619   3.952  1.4120 -1.0073 -0.2535
 7980SOL     OW35575   3.481   1.172  12.192 -0.2093  0.2153 -0.3265
 7980SOL    HW135576   3.426   1.225  12.250  1.7580 -0.1353  1.8769
 7980SOL    HW235577   3.425   1.158  12.115  0.8430 -0.2221 -1.0099
 7981SOL     OW35578   1.365   0.345  13.048  0.1334  0.1738 -0.7690
 7981SOL    HW135579   1.363   0.436  13.076  0.9933  0.0171 -0.1959
 7981SOL    HW235580   1.422   0.336  12.971  0.3322  0.8110 -0.6928
 7982SOL     OW35581   2.865   2.386   3.316  0.0198  0.1357 -0.0820
 7982SOL    HW135582   2.893   2.305   3.273  1.1184  0.3736  0.2128
 7982SOL    HW235583   2.782   2.411   3.274  0.7450 -0.9645 -2.1529
 7983SOL     OW35584   0.059   0.393   4.991  0.2047  0.2869 -0.2568
 7983SOL    HW135585   0.108   0.426   5.066 -1.1559  1.2819  0.1774
 7983SOL    HW235586   4.710   0.383   5.032  0.5673 -0.5252  0.3293
 7984SOL     OW35587   1.912   3.018   4.980 -0.0828  0.4767  0.1055
 7984SOL    HW135588   1.882   3.078   5.048 -0.1127  1.0420 -0.4071
 7984SOL    HW235589   1.922   2.945   5.041 -0.7676 -0.0309 -0.3926
 7985SOL     OW35590   2.413   4.577   4.781  0.2250  0.1440 -0.2113
 7985SOL    HW135591   2.384   4.487   4.771 -2.4332  1.3109 -2.9975
 7985SOL    HW235592   2.337   4.625   4.748  1.5751  2.4338 -0.0082
 7986SOL     OW35593   3.953   0.065   4.153  0.1482 -0.5444  0.0685
 7986SOL    HW135594   4.013   0.084   4.081 -1.5753 -0.0416 -1.2366
 7986SOL    HW235595   3.981   4.713   4.176  0.3168 -0.9924 -1.8771
 7987SOL     OW35596   0.270   0.825  16.805  0.9650 -0.3275  0.4598
 7987SOL    HW135597   0.347   0.864  16.846  0.4584 -2.3583  3.3798
 7987SOL    HW235598   0.197   0.880  16.832  1.0310  0.9319 -1.9124
 7988SOL     OW35599   2.254   1.869   9.620 -0.4835  0.1581  0.0503
 7988SOL    HW135600   2.340   1.909   9.630 -0.3889  0.3044 -1.3492
 7988SOL    HW235601   2.208   1.949   9.593  0.5425  0.8545  0.3791
 7989SOL     OW35602   0.653   4.005   3.285 -0.2938  0.0772  0.5590
 7989SOL    HW135603   0.627   4.038   3.371  3.1095  0.0014  1.6088
 7989SOL    HW235604   0.632   4.078   3.227 -2.9925  0.0748  1.5328
 7990SOL     OW35605   2.658   1.813   8.387 -0.3235  0.4899  0.2458
 7990SOL    HW135606   2.652   1.761   8.306  0.5859  2.1506 -0.8779
 7990SOL    HW235607   2.631   1.750   8.454 -2.6896 -0.2482 -1.3940
 7991SOL     OW35608   3.761   1.800   7.364  0.5062 -0.0504 -0.8278
 7991SOL    HW135609   3.704   1.753   7.302 -2.2915  1.4373  0.5928
 7991SOL    HW235610   3.801   1.719   7.396 -0.9633  0.3070  1.9911
 7992SOL     OW35611   4.019   4.083   8.668  0.2065  0.8061 -0.3332
 7992SOL    HW135612   3.951   4.103   8.732 -0.6744  0.0720 -1.0419
 7992SOL    HW235613   4.090   4.056   8.726 -0.3229 -0.0589 -0.0928
 7993SOL     OW35614   4.046   1.697  17.450 -0.5021  0.7722  0.4982
 7993SOL    HW135615   4.079   1.613  17.417 -0.6354  1.4818 -1.3957
 7993SOL    HW235616   4.112   1.728  17.511  0.0036  1.4495 -0.4125
 7994SOL     OW35617   1.508   1.205   6.971 -0.5032 -0.1925 -0.3726
 7994SOL    HW135618   1.504   1.168   7.058 -1.1794  0.6055 -0.0669
 7994SOL    HW235619   1.547   1.128   6.929  1.1469 -0.1464  1.0629
 7995SOL     OW35620   1.329   2.127   3.808  0.3971 -0.0814  0.7097
 7995SOL    HW135621   1.422   2.145   3.796 -0.1560  2.9599  1.0224
 7995SOL    HW235622   1.305   2.184   3.882  0.1336  0.1536  0.4415
 7996SOL     OW35623   0.511   3.403   6.354  0.2903 -0.2694 -0.4290
 7996SOL    HW135624   0.462   3.338   6.303 -0.2581 -1.0334  1.0925
 7996SOL    HW235625   0.602   3.376   6.352  0.3467 -0.0585 -0.9587
 7997SOL     OW35626   3.570   2.383   2.396  0.0757 -0.4517  0.1366
 7997SOL    HW135627   3.482   2.354   2.424  0.3969 -1.0484  0.5375
 7997SOL    HW235628   3.556   2.475   2.377  0.6531 -0.6788 -1.3270
 7998SOL     OW35629   0.977   1.227   5.043 -0.0389  0.1696 -0.0267
 7998SOL    HW135630   0.985   1.322   5.054  2.7986 -0.0456 -0.3124
 7998SOL    HW235631   1.047   1.203   4.982  0.8640  1.7062  0.4181
 7999SOL     OW35632   4.472   0.721   7.920  0.3797  0.1167 -0.2286
 7999SOL    HW135633   4.471   0.802   7.971  0.5105 -0.2429  0.3552
 7999SOL    HW235634   4.477   0.655   7.990 -1.2355  0.6051  0.3480
 8000SOL     OW35635   0.983   0.722   8.941 -0.1142  0.3132 -0.1141
 8000SOL    HW135636   0.890   0.720   8.918  0.2409 -0.9472 -1.4522
 8000SOL    HW235637   1.007   0.804   8.897 -0.2927 -0.2016 -1.1631
 8001SOL     OW35638   1.262   4.113   4.262 -0.6325 -0.1225 -0.6231
 8001SOL    HW135639   1.344   4.159   4.245 -1.7511  2.0461 -0.2331
 8001SOL    HW235640   1.204   4.188   4.279  0.1982  0.7777 -1.7359
 8002SOL     OW35641   2.589   0.712  16.433 -0.3228 -0.0630  0.0997
 8002SOL    HW135642   2.644   0.663  16.372 -3.5309 -2.5227 -0.7779
 8002SOL    HW235643   2.647   0.785  16.455 -0.3826  0.1267 -0.3734
 8003SOL     OW35644   2.932   1.323   3.491 -0.4146 -0.4710 -0.1410
 8003SOL    HW135645   2.903   1.232   3.497  3.5802 -1.6309  1.2681
 8003SOL    HW235646   2.856   1.367   3.529  0.5707  1.4776 -0.4300
 8004SOL     OW35647   4.351   0.484  13.097 -0.6132  0.0294 -0.3852
 8004SOL    HW135648   4.342   0.436  13.015 -2.6689 -2.0180  1.0290
 8004SOL    HW235649   4.296   0.430  13.155 -2.5337  1.1833 -1.1245
 8005SOL     OW35650   1.254   3.513  13.493  0.3517 -0.4813 -0.4112
 8005SOL    HW135651   1.328   3.476  13.540  0.6155 -1.4000 -1.5702
 8005SOL    HW235652   1.230   3.592  13.543 -1.5727  0.4995 -2.8579
 8006SOL     OW35653   1.081   1.834   5.257  0.0542 -0.1286 -0.1799
 8006SOL    HW135654   1.041   1.747   5.254  0.3583 -0.2881  0.6040
 8006SOL    HW235655   1.129   1.832   5.174  0.1945  1.9691 -0.1452
 8007SOL     OW35656   2.807   0.420  16.776 -0.5823 -0.1688  0.3153
 8007SOL    HW135657   2.831   0.487  16.713  2.1113  0.8404  2.3851
 8007SOL    HW235658   2.771   0.346  16.728  0.1939 -1.6476  2.0076
 8008SOL     OW35659   1.377   2.052  17.725  0.0319  0.6117  0.4797
 8008SOL    HW135660   1.437   2.061   0.053 -1.2659  4.7173  0.9972
 8008SOL    HW235661   1.439   2.010  17.666 -0.8791 -1.2991  0.8901
 8009SOL     OW35662   1.932   3.979  14.760  0.3026  0.0158  0.2389
 8009SOL    HW135663   1.855   4.036  14.752  1.3716  1.1358 -2.2210
 8009SOL    HW235664   1.947   3.963  14.667  0.5378 -0.9141  0.4446
 8010SOL     OW35665   4.064   0.465  15.719  0.1514  0.7915 -0.2539
 8010SOL    HW135666   4.084   0.496  15.631 -0.7980  1.1858 -0.3330
 8010SOL    HW235667   4.031   0.376  15.722  0.6162  0.6472  0.5655
 8011SOL     OW35668   2.774   0.683   4.100  0.0580  0.0548  0.3167
 8011SOL    HW135669   2.757   0.727   4.183  1.0478 -0.0915  0.6017
 8011SOL    HW235670   2.856   0.728   4.079  0.4806 -0.5237  0.7167
 8012SOL     OW35671   4.088   3.617   0.733 -0.4192 -0.0076 -0.3052
 8012SOL    HW135672   4.095   3.537   0.786  1.6157 -0.2053 -0.8724
 8012SOL    HW235673   4.067   3.688   0.793  1.4927 -1.0011  1.5142
 8013SOL     OW35674   3.268   2.367  17.346  0.1242 -1.0997  0.6595
 8013SOL    HW135675   3.282   2.408  17.261  1.1982  0.0381  1.3799
 8013SOL    HW235676   3.331   2.411  17.403 -2.8091  2.5000  1.0876
 8014SOL     OW35677   2.671   0.507   1.399  0.4329 -0.2833 -0.1836
 8014SOL    HW135678   2.737   0.522   1.467  1.4711  0.1238 -1.2784
 8014SOL    HW235679   2.722   0.479   1.323 -0.3621  3.0875 -1.9281
 8015SOL     OW35680   0.437   1.160   4.069 -0.2810  0.1064 -0.5484
 8015SOL    HW135681   0.491   1.174   3.991  0.3438 -0.4631 -0.2131
 8015SOL    HW235682   0.466   1.075   4.103 -1.7998 -0.3402 -0.3792
 8016SOL     OW35683   4.096   3.047   2.235  0.1587  0.4532 -0.7226
 8016SOL    HW135684   4.112   3.085   2.321  1.4652  0.0090 -0.7577
 8016SOL    HW235685   4.030   3.108   2.201 -1.9320 -0.9171  0.8893
 8017SOL     OW35686   3.988   2.918  17.242  0.8353 -0.2883  0.3525
 8017SOL    HW135687   3.990   2.824  17.259 -0.7877 -0.2057  1.0421
 8017SOL    HW235688   3.898   2.938  17.269  0.1192  0.0092 -2.2942
 8018SOL     OW35689   3.925   1.568   8.941  0.3063 -0.4164  0.3626
 8018SOL    HW135690   4.001   1.625   8.928 -0.3791  0.2894 -0.5659
 8018SOL    HW235691   3.965   1.488   8.908  2.1581  1.4035 -1.8340
 8019SOL     OW35692   2.991   1.067   6.798  0.1806  0.2402 -0.3370
 8019SOL    HW135693   2.908   1.020   6.791 -0.9485  2.2787 -0.7369
 8019SOL    HW235694   2.976   1.127   6.872 -2.5039 -0.4690 -0.3063
 8020SOL     OW35695   1.910   3.565   7.609 -0.1488  0.0226  0.0132
 8020SOL    HW135696   1.993   3.563   7.657  0.4405  0.0095 -1.0115
 8020SOL    HW235697   1.942   3.579   7.520  0.5673 -1.4898  0.0300
 8021SOL     OW35698   3.655   0.270  16.374 -0.4703 -0.3186  0.2862
 8021SOL    HW135699   3.700   0.335  16.321 -1.6073 -0.0727 -0.3628
 8021SOL    HW235700   3.673   0.191  16.323  0.4422 -0.8784  1.4676
 8022SOL     OW35701   1.043   3.333  16.167  0.1928 -0.8586  0.5482
 8022SOL    HW135702   1.097   3.278  16.111  0.1186  0.3312 -0.6856
 8022SOL    HW235703   1.001   3.270  16.226 -0.9140 -1.6525 -1.0907
 8023SOL     OW35704   0.653   2.124   5.847 -0.4126  0.5984 -0.7307
 8023SOL    HW135705   0.632   2.112   5.939 -0.5824 -1.7532 -1.0738
 8023SOL    HW235706   0.705   2.203   5.860  0.8441 -0.1753 -1.0642
 8024SOL     OW35707   4.337   1.985   9.827  0.8636  0.1967  0.3076
 8024SOL    HW135708   4.317   1.892   9.838  1.3684 -0.2454 -2.4692
 8024SOL    HW235709   4.319   2.017   9.915  0.2626 -0.1043  0.2914
 8025SOL     OW35710   0.423   0.156   9.201  0.1425 -0.1637 -0.8124
 8025SOL    HW135711   0.397   0.064   9.198 -1.1875  0.2324 -1.3224
 8025SOL    HW235712   0.338   0.194   9.224  0.0369 -1.1458  0.4220
 8026SOL     OW35713   4.296   0.575   6.933  0.1822 -0.9600  0.8021
 8026SOL    HW135714   4.380   0.543   6.900  0.9651  2.8412 -0.9225
 8026SOL    HW235715   4.321   0.558   7.023  3.0910  4.0627  0.9726
 8027SOL     OW35716   3.882   2.196  15.259 -0.6244 -0.3739  0.7450
 8027SOL    HW135717   3.826   2.119  15.266 -1.9533  0.6172  1.1336
 8027SOL    HW235718   3.847   2.222  15.173 -0.8690 -0.6787  0.7513
 8028SOL     OW35719   2.809   3.244  11.080  0.2148  0.0430 -0.4598
 8028SOL    HW135720   2.866   3.198  11.141 -0.9766  0.1345  0.7289
 8028SOL    HW235721   2.747   3.276  11.146  0.1738 -3.3329  1.1301
 8029SOL     OW35722   2.333   3.359  14.022 -0.0017 -0.3111  0.3682
 8029SOL    HW135723   2.373   3.355  14.109  0.3587  0.0815  0.2199
 8029SOL    HW235724   2.369   3.275  13.997  1.6744  0.7587 -0.7606
 8030SOL     OW35725   4.126   0.911   3.693  0.3253 -0.1617 -0.0881
 8030SOL    HW135726   4.212   0.875   3.714  0.7008  0.2434 -0.9112
 8030SOL    HW235727   4.141   1.004   3.675  3.4078 -0.3711  1.3548
 8031SOL     OW35728   3.812   1.623   2.548  0.2069  0.4150 -0.0758
 8031SOL    HW135729   3.742   1.689   2.549 -0.5937 -0.3766 -2.0474
 8031SOL    HW235730   3.839   1.622   2.456 -1.4454  1.6216 -0.5717
 8032SOL     OW35731   2.539   3.210   4.701  0.2987 -0.2661  0.2418
 8032SOL    HW135732   2.625   3.201   4.661 -0.8450  1.8350 -2.6708
 8032SOL    HW235733   2.520   3.294   4.660 -0.0483  0.8490  2.6848
 8033SOL     OW35734   0.652   1.701   5.265 -0.1641 -0.5001 -0.1102
 8033SOL    HW135735   0.654   1.780   5.210  1.4951 -0.1753  0.4211
 8033SOL    HW235736   0.653   1.643   5.190 -0.3424 -0.7524  0.0839
 8034SOL     OW35737   1.217   1.298   3.615 -0.1927 -0.2863 -0.0106
 8034SOL    HW135738   1.277   1.225   3.628  1.1597  1.0626  1.3161
 8034SOL    HW235739   1.132   1.280   3.655 -1.4480  3.1354 -1.2039
 8035SOL     OW35740   1.092   0.487   1.481 -0.3465  0.4725 -0.2903
 8035SOL    HW135741   1.056   0.398   1.472  1.7385 -0.2277 -1.7819
 8035SOL    HW235742   1.045   0.540   1.416 -1.4414  0.6597  0.6633
 8036SOL     OW35743   1.513   0.119  12.554 -0.1818  0.2577  0.1887
 8036SOL    HW135744   1.522   0.197  12.499  0.9851 -0.3314 -0.4616
 8036SOL    HW235745   1.430   0.083  12.523  0.5566 -1.0068 -0.3596
 8037SOL     OW35746   1.046   3.546   9.024 -0.8917  0.5874 -0.4714
 8037SOL    HW135747   1.016   3.463   8.987 -1.1397 -1.4447  4.1813
 8037SOL    HW235748   1.137   3.522   9.041 -1.6546 -0.8767  1.6049
 8038SOL     OW35749   1.256   0.322   3.645  0.1924  0.0943 -0.1765
 8038SOL    HW135750   1.317   0.296   3.714 -0.0165 -2.0516 -0.8051
 8038SOL    HW235751   1.300   0.382   3.585 -2.5453  1.3480 -0.9160
 8039SOL     OW35752   3.539   4.219   6.105 -0.1963 -0.1451  0.6530
 8039SOL    HW135753   3.577   4.134   6.083  0.3431  0.0791  0.7045
 8039SOL    HW235754   3.487   4.237   6.027  2.3543  1.4060 -0.7014
 8040SOL     OW35755   1.698   3.167   1.701 -0.1213 -0.5834 -0.2382
 8040SOL    HW135756   1.698   3.077   1.669 -0.7339  0.1691 -2.3414
 8040SOL    HW235757   1.732   3.143   1.787  0.1993 -0.0089 -0.2012
 8041SOL     OW35758   1.123   4.562   7.685 -0.1389 -0.1456  0.4895
 8041SOL    HW135759   1.082   4.648   7.682  0.0540 -0.0318  0.9561
 8041SOL    HW235760   1.071   4.515   7.620  1.4205  0.7243 -1.3991
 8042SOL     OW35761   3.928   3.124   0.782  0.4182 -0.0382  0.0288
 8042SOL    HW135762   3.894   3.141   0.694 -0.9285 -1.9192  0.1967
 8042SOL    HW235763   3.931   3.029   0.773  0.5227  0.1087 -1.5787
 8043SOL     OW35764   0.077   0.960   7.926 -0.1841 -0.0380 -0.1272
 8043SOL    HW135765   0.113   1.025   7.986 -0.5711 -1.2303  1.3765
 8043SOL    HW235766   0.115   0.880   7.963 -0.6037  0.8772  2.2709
 8044SOL     OW35767   0.777   3.617   9.007 -0.0056 -0.1411  0.2243
 8044SOL    HW135768   0.753   3.554   9.075 -2.0000 -1.4906 -1.7308
 8044SOL    HW235769   0.871   3.599   9.011 -0.5104 -2.6015  0.8602
 8045SOL     OW35770   0.559   2.597   1.645  0.1615 -0.0832  0.8235
 8045SOL    HW135771   0.608   2.662   1.594 -0.8364 -1.0880 -1.4270
 8045SOL    HW235772   0.477   2.645   1.654 -0.4473 -0.6703 -1.5390
 8046SOL     OW35773   3.859   3.595   4.071 -0.0412 -0.3837 -0.1273
 8046SOL    HW135774   3.881   3.518   4.019  0.1359  0.4848 -1.3392
 8046SOL    HW235775   3.891   3.673   4.025 -0.7952 -0.2045 -0.3475
 8047SOL     OW35776   3.210   2.301   9.190 -0.2127  0.3698 -0.3405
 8047SOL    HW135777   3.156   2.380   9.184  0.2055  0.3552 -3.9696
 8047SOL    HW235778   3.151   2.227   9.181  0.4601 -0.2252  0.0889
 8048SOL     OW35779   0.335   2.228   7.052 -0.3786  0.0974  0.0059
 8048SOL    HW135780   0.347   2.267   7.138 -1.1931  1.7699 -0.6514
 8048SOL    HW235781   0.242   2.242   7.040 -0.1636  0.0470 -1.7165
 8049SOL     OW35782   2.491   3.913  12.258 -0.2006 -0.2347  0.6623
 8049SOL    HW135783   2.552   3.975  12.218 -1.2181 -1.2320 -2.4492
 8049SOL    HW235784   2.515   3.836  12.206 -0.9477  0.1614 -0.2653
 8050SOL     OW35785   4.560   2.041   9.086 -0.9001 -0.4805 -0.7451
 8050SOL    HW135786   4.500   1.968   9.103  0.3026 -1.4399 -0.6723
 8050SOL    HW235787   4.505   2.105   9.041 -2.7559 -1.6884 -0.2056
 8051SOL     OW35788   1.299   1.694  12.574 -0.1084 -0.2993  0.2681
 8051SOL    HW135789   1.240   1.621  12.554  0.6982 -1.7295  3.1511
 8051SOL    HW235790   1.282   1.686  12.667  0.6374 -0.7422  0.3734
 8052SOL     OW35791   1.542   0.283   5.443 -0.3480  0.1435 -0.8144
 8052SOL    HW135792   1.496   0.201   5.429  3.0140 -1.8968  0.2203
 8052SOL    HW235793   1.484   0.351   5.408 -0.0507  0.3313 -0.9415
 8053SOL     OW35794   2.296   2.890   3.700  0.6254  0.0084  0.1914
 8053SOL    HW135795   2.378   2.865   3.741  0.6491  1.1785  0.8248
 8053SOL    HW235796   2.298   2.815   3.640 -3.0323  0.8461 -1.0325
 8054SOL     OW35797   0.888   3.891   8.984 -0.0268  0.1113 -0.5212
 8054SOL    HW135798   0.906   3.836   8.907  1.4373 -0.2919  0.1179
 8054SOL    HW235799   0.793   3.902   8.979 -0.1802 -0.3619  1.3737
 8055SOL     OW35800   3.730   2.763   6.618 -0.0172 -0.5207  0.5452
 8055SOL    HW135801   3.674   2.707   6.673 -0.1018  0.3706  1.3603
 8055SOL    HW235802   3.759   2.823   6.687  1.3937 -0.6616  0.0535
 8056SOL     OW35803   3.297   3.650   2.729  0.8318 -0.3161  0.5374
 8056SOL    HW135804   3.300   3.631   2.635  1.0883 -2.4006  0.9503
 8056SOL    HW235805   3.384   3.686   2.744  0.7845  0.4603 -1.0867
 8057SOL     OW35806   1.491   1.658   5.763  0.3623  0.1482  0.1081
 8057SOL    HW135807   1.476   1.565   5.780 -2.2628  0.4173 -0.6212
 8057SOL    HW235808   1.576   1.668   5.806  0.6296  0.9085 -0.5925
 8058SOL     OW35809   0.215   3.418   6.066 -0.0276  0.2270 -0.1798
 8058SOL    HW135810   0.269   3.384   6.137 -1.7773 -1.1455  0.4963
 8058SOL    HW235811   0.176   3.498   6.101 -0.7227 -0.6731  1.0915
 8059SOL     OW35812   1.158   3.880  13.246  0.0942  0.2414  0.1191
 8059SOL    HW135813   1.230   3.913  13.300  0.4093 -1.0075  0.4558
 8059SOL    HW235814   1.080   3.908  13.294  0.4562  1.3180  0.0866
 8060SOL     OW35815   3.491   0.811   6.870 -0.3641 -0.1552 -0.7087
 8060SOL    HW135816   3.436   0.887   6.849 -0.8733 -0.4481 -0.4462
 8060SOL    HW235817   3.558   0.854   6.924 -0.0119 -0.9584 -0.5122
 8061SOL     OW35818   4.509   0.349   1.798 -0.5033  0.1982  0.0586
 8061SOL    HW135819   4.457   0.425   1.826  0.6874  0.7210  0.8073
 8061SOL    HW235820   4.584   0.344   1.856  1.5640  0.4871 -2.5768
 8062SOL     OW35821   1.505   3.432   5.175 -0.4086  0.5661  0.5445
 8062SOL    HW135822   1.434   3.494   5.159 -0.6954 -0.4592 -2.2653
 8062SOL    HW235823   1.563   3.486   5.228 -0.3917  0.4751  0.6184
 8063SOL     OW35824   0.347   1.545   5.670  0.0940  0.6776  0.3768
 8063SOL    HW135825   0.357   1.586   5.585  1.7702  0.6538  0.5661
 8063SOL    HW235826   0.439   1.520   5.675  0.2746  1.4875  1.3769
 8064SOL     OW35827   2.383   3.422   7.094 -0.3162  0.4030  0.7570
 8064SOL    HW135828   2.470   3.398   7.125 -0.5052 -0.1069  0.8919
 8064SOL    HW235829   2.398   3.416   7.000 -1.5196  0.0869  0.5819
 8065SOL     OW35830   4.450   2.904   0.096  0.4395  0.0765  0.3796
 8065SOL    HW135831   4.405   2.980   0.133  1.5096 -0.6547  3.1234
 8065SOL    HW235832   4.518   2.894   0.162  0.6186 -1.7514 -0.0884
 8066SOL     OW35833   2.916   0.224  12.103  0.7300 -1.1141  0.3427
 8066SOL    HW135834   2.972   0.285  12.055  0.1074  1.6433  3.0930
 8066SOL    HW235835   2.853   0.199  12.036  1.2567  1.1917 -0.9963
 8067SOL     OW35836   2.632   3.893   7.204  0.8245 -0.2560  0.0420
 8067SOL    HW135837   2.556   3.839   7.228  0.7943 -0.1869  0.1047
 8067SOL    HW235838   2.650   3.936   7.288  1.6996 -2.0159  0.7713
 8068SOL     OW35839   3.625   3.548   1.444  0.6446  0.0722 -0.0807
 8068SOL    HW135840   3.622   3.467   1.394  2.6216  0.1292 -0.2852
 8068SOL    HW235841   3.543   3.582   1.406  0.6321  1.1595  0.9153
 8069SOL     OW35842   0.956   1.655   9.012  0.1546 -0.0203  0.4675
 8069SOL    HW135843   0.988   1.570   9.042  0.5731 -0.9379 -2.6034
 8069SOL    HW235844   1.032   1.701   8.975  0.1870 -0.0477  0.4997
 8070SOL     OW35845   2.089   3.356   4.010 -0.0062  0.3801 -0.2802
 8070SOL    HW135846   2.044   3.272   4.015 -1.8307  1.3082 -1.0343
 8070SOL    HW235847   2.018   3.419   4.009 -0.2724  0.0738 -0.7759
 8071SOL     OW35848   3.542   3.967   7.549 -0.0194  0.1406 -0.1743
 8071SOL    HW135849   3.532   3.914   7.470  0.1378  1.5705 -1.1403
 8071SOL    HW235850   3.485   3.921   7.612  0.5275 -0.5945 -0.2206
 8072SOL     OW35851   2.609   0.293   4.482  0.3519 -0.5172 -0.0961
 8072SOL    HW135852   2.699   0.322   4.464  0.0412  1.1972  1.1317
 8072SOL    HW235853   2.566   0.377   4.491 -0.7862 -0.7814 -2.9092
 8073SOL     OW35854   3.045   0.760  17.444  0.6167  0.5195  0.5515
 8073SOL    HW135855   3.001   0.828  17.496  0.5647  0.4739  0.5669
 8073SOL    HW235856   3.114   0.809  17.399  1.1072 -0.9538 -0.2977
 8074SOL     OW35857   4.485   0.803   9.047  0.3250 -0.3578  0.4958
 8074SOL    HW135858   4.403   0.824   9.093  0.2987 -2.1555  1.2651
 8074SOL    HW235859   4.451   0.723   9.006 -0.6066  0.2271  0.1283
 8075SOL     OW35860   2.445   4.641  11.864  0.3953  0.5905 -0.6339
 8075SOL    HW135861   2.401   4.583  11.802 -0.1037  0.5799 -0.2641
 8075SOL    HW235862   2.535   4.641  11.831 -0.0512  1.2401 -1.8616
 8076SOL     OW35863   2.215   1.039   6.074 -0.7634  0.1363 -0.2118
 8076SOL    HW135864   2.156   1.022   6.000 -0.9431  0.3114 -0.1084
 8076SOL    HW235865   2.207   0.960   6.128 -0.6396  0.3546  0.1194
 8077SOL     OW35866   1.533   0.763  10.175 -0.4204 -1.0938  0.3653
 8077SOL    HW135867   1.497   0.697  10.116 -2.8387 -0.5562  1.2301
 8077SOL    HW235868   1.484   0.737  10.254  1.8116  1.1484  2.4967
 8078SOL     OW35869   4.574   4.377   8.730  0.3614 -0.3720  0.1649
 8078SOL    HW135870   4.669   4.369   8.743  0.5792 -2.2503 -2.6665
 8078SOL    HW235871   4.545   4.300   8.778  1.5461 -0.6402  0.4596
 8079SOL     OW35872   3.173   4.292   0.910 -0.4628  0.4523  0.4083
 8079SOL    HW135873   3.099   4.234   0.929 -1.1370  1.4681  0.8823
 8079SOL    HW235874   3.207   4.261   0.826 -1.0281 -1.0366  0.7202
 8080SOL     OW35875   2.468   0.048   5.999  0.2336 -0.4526  0.2040
 8080SOL    HW135876   2.433   0.129   5.963 -0.6750 -0.5513  0.8715
 8080SOL    HW235877   2.557   0.040   5.965  0.3826  0.6019  0.3440
 8081SOL     OW35878   4.227   1.137   3.433 -0.0477  0.5570 -0.5742
 8081SOL    HW135879   4.272   1.063   3.393  0.8553 -0.0568  1.5784
 8081SOL    HW235880   4.270   1.145   3.518  0.5413 -1.7068 -0.6847
 8082SOL     OW35881   0.430   4.247  12.356 -0.6725  0.6654 -0.1221
 8082SOL    HW135882   0.523   4.231  12.344 -1.0749 -3.0064  1.5872
 8082SOL    HW235883   0.434   4.288  12.442  1.3219 -0.0744  0.1234
 8083SOL     OW35884   4.633   2.706   8.459 -0.3052 -0.0505  0.1383
 8083SOL    HW135885   4.544   2.671   8.470  1.5741 -5.1305 -0.5927
 8083SOL    HW235886   4.684   2.636   8.501  1.1169  2.1004  2.0175
 8084SOL     OW35887   4.190   1.668   8.871  0.2609 -0.1126  0.2012
 8084SOL    HW135888   4.277   1.637   8.847  0.2493  2.5433 -3.2484
 8084SOL    HW235889   4.189   1.661   8.966 -4.0104 -0.7600  0.1112
 8085SOL     OW35890   3.645   4.667   7.034 -0.0527 -0.0651 -0.1103
 8085SOL    HW135891   3.731   4.631   7.013 -0.6729 -1.1303 -0.7877
 8085SOL    HW235892   3.674   0.020   7.042  0.4404 -0.0650 -1.8906
 8086SOL     OW35893   0.543   0.167   3.145  0.2725 -0.1858 -0.1322
 8086SOL    HW135894   0.571   0.076   3.141  0.6930 -0.0830  0.3854
 8086SOL    HW235895   0.618   0.212   3.106 -0.2522  0.8110 -0.0068
 8087SOL     OW35896   0.999   4.357   7.542 -0.1058 -0.0362  0.0241
 8087SOL    HW135897   1.077   4.310   7.570  0.4387  0.7894 -0.0938
 8087SOL    HW235898   0.994   4.351   7.447 -0.0840  0.7300 -0.0275
 8088SOL     OW35899   3.282   4.410  11.262  0.1544  0.7568  0.2683
 8088SOL    HW135900   3.207   4.463  11.288 -1.6016 -0.1378 -2.9716
 8088SOL    HW235901   3.260   4.321  11.287 -1.5700  2.0198  3.1755
 8089SOL     OW35902   4.643   1.689   3.198 -0.2592 -0.1488 -0.2434
 8089SOL    HW135903   4.575   1.757   3.200 -0.7004 -0.5999  0.0003
 8089SOL    HW235904   4.601   1.615   3.241  0.7228  1.1106  2.9249
 8090SOL     OW35905   3.530   1.791   4.455  0.3183 -0.5655  0.0956
 8090SOL    HW135906   3.512   1.705   4.418  0.1725 -0.7279  0.5559
 8090SOL    HW235907   3.508   1.768   4.545  1.6835 -0.2985  0.5092
 8091SOL     OW35908   3.266   4.225  17.384 -0.3017 -0.2888  0.6096
 8091SOL    HW135909   3.225   4.285  17.322 -1.8332 -0.9427  0.9876
 8091SOL    HW235910   3.194   4.163  17.399 -1.2101  1.0580  1.7124
 8092SOL     OW35911   1.984   1.636   3.460  0.3174 -0.2876  0.1448
 8092SOL    HW135912   1.893   1.639   3.431  0.8644  0.1154 -1.5749
 8092SOL    HW235913   2.021   1.597   3.380 -1.3429  0.6293 -1.0629
 8093SOL     OW35914   2.803   1.256   4.636  0.0401  0.3006  0.2505
 8093SOL    HW135915   2.823   1.332   4.690 -2.4249  0.9777  0.2256
 8093SOL    HW235916   2.779   1.185   4.695  1.0960  0.8528  1.3452
 8094SOL     OW35917   0.417   2.606  12.053 -0.6139 -0.3555  0.3619
 8094SOL    HW135918   0.379   2.607  11.965  0.8665  2.7906 -0.2065
 8094SOL    HW235919   0.499   2.561  12.032  0.4138  1.3166  0.8614
 8095SOL     OW35920   3.204   4.479   3.062 -0.6475  0.0406  0.3846
 8095SOL    HW135921   3.214   4.442   3.150  1.7206 -1.4502 -0.5258
 8095SOL    HW235922   3.178   4.399   3.017 -1.5725 -0.9763  2.7045
 8096SOL     OW35923   2.744   4.329   7.700  0.0512  0.1789 -0.1587
 8096SOL    HW135924   2.712   4.408   7.658 -0.0202  0.2159 -0.0333
 8096SOL    HW235925   2.670   4.285   7.742  0.1848  0.6918  0.6100
 8097SOL     OW35926   4.663   1.069   0.414 -0.1916 -0.0409 -0.1983
 8097SOL    HW135927   4.611   1.069   0.333 -0.2301 -1.9425 -0.1743
 8097SOL    HW235928   4.597   1.096   0.479  1.3165  4.1474 -0.4309
 8098SOL     OW35929   1.147   0.730   4.607 -0.0318 -0.0020 -0.0595
 8098SOL    HW135930   1.052   0.735   4.598  0.0848 -0.4812 -1.6469
 8098SOL    HW235931   1.152   0.651   4.553  1.2376 -0.0321  0.1027
 8099SOL     OW35932   0.939   2.185   9.249 -0.1212  0.3073 -0.1313
 8099SOL    HW135933   1.000   2.114   9.268 -1.4369 -1.5328 -2.7250
 8099SOL    HW235934   0.950   2.242   9.325  1.3021  0.0620 -0.1436
 8100SOL     OW35935   1.194   4.565   8.098  0.1333 -0.2693  0.0250
 8100SOL    HW135936   1.268   4.504   8.101  0.7944  0.5475  0.2952
 8100SOL    HW235937   1.160   4.560   8.187  0.4122 -1.4649  0.0710
 8101SOL     OW35938   0.224   1.303  13.338  0.3392  0.1896 -0.1081
 8101SOL    HW135939   0.295   1.242  13.318 -0.5622 -0.7940 -0.2774
 8101SOL    HW235940   0.243   1.367  13.269 -0.4620  0.9990  0.4299
 8102SOL     OW35941   2.954   3.705   2.418  0.5145 -0.0139  0.0907
 8102SOL    HW135942   2.909   3.623   2.437  0.1559 -0.2557 -1.8897
 8102SOL    HW235943   2.898   3.750   2.356  0.3232  2.0679  1.7618
 8103SOL     OW35944   2.619   0.188   2.309 -0.0116  0.2255  0.8368
 8103SOL    HW135945   2.614   0.267   2.254  1.4134 -2.0013 -2.5126
 8103SOL    HW235946   2.541   0.139   2.284  0.4196  0.4365 -0.9160
 8104SOL     OW35947   2.687   0.271   9.005 -0.4879  0.1236  0.4013
 8104SOL    HW135948   2.714   0.318   9.084  1.5654 -2.5203  1.2764
 8104SOL    HW235949   2.702   0.182   9.037 -0.0963 -0.2629 -0.8636
 8105SOL     OW35950   2.786   4.051   7.054  0.3599 -1.0623  0.0689
 8105SOL    HW135951   2.721   3.986   7.080 -2.7289  1.4887 -1.2796
 8105SOL    HW235952   2.797   4.096   7.138 -0.9715  0.6316 -0.6692
 8106SOL     OW35953   3.252   0.726   4.676 -0.9040  0.3384 -0.3038
 8106SOL    HW135954   3.293   0.801   4.720 -0.3751  0.1524 -0.4871
 8106SOL    HW235955   3.157   0.736   4.676 -1.0020 -0.4995  1.7461
 8107SOL     OW35956   0.018   2.208  15.694 -0.1721 -0.2772 -0.0288
 8107SOL    HW135957   4.662   2.219  15.678  0.1373 -0.0815 -1.7651
 8107SOL    HW235958   0.030   2.135  15.633  0.6617 -0.5159  0.4139
 8108SOL     OW35959   3.972   3.198   8.507  0.0391  0.0248 -0.5082
 8108SOL    HW135960   3.998   3.107   8.516  0.3705  0.1412 -0.3108
 8108SOL    HW235961   3.923   3.219   8.587  0.2899 -0.2092 -0.2938
 8109SOL     OW35962   0.286   2.133  10.818  0.2135  0.2292  0.2224
 8109SOL    HW135963   0.258   2.141  10.909 -1.0466 -0.2923 -0.1297
 8109SOL    HW235964   0.382   2.132  10.826  0.1479 -0.0934  0.9317
 8110SOL     OW35965   2.191   4.677  13.017 -0.1770 -0.5962 -0.1409
 8110SOL    HW135966   2.118   4.625  12.985 -2.1140  0.3787  2.7353
 8110SOL    HW235967   2.158   0.026  12.993 -0.2583 -0.4931  0.3367
 8111SOL     OW35968   4.339   1.905  14.112  0.0228 -0.3823 -0.1681
 8111SOL    HW135969   4.429   1.928  14.134 -0.3096 -0.3790  1.1693
 8111SOL    HW235970   4.288   1.966  14.164  1.0987  1.1156 -0.8830
 8112SOL     OW35971   3.145   2.108   5.633  0.4357  0.4245  0.7192
 8112SOL    HW135972   3.213   2.048   5.663 -0.5432 -0.5926  0.9387
 8112SOL    HW235973   3.144   2.165   5.710 -4.3090 -1.8499  2.3470
 8113SOL     OW35974   3.114   2.472  16.131  0.0837  0.2982  0.1993
 8113SOL    HW135975   3.117   2.551  16.077 -0.5567  0.7320  0.8066
 8113SOL    HW235976   3.029   2.433  16.108  0.0856  0.3334  0.1338
 8114SOL     OW35977   1.597   4.260   2.584 -0.2527  0.0828 -0.1822
 8114SOL    HW135978   1.520   4.216   2.549  0.2656 -1.4080  0.5650
 8114SOL    HW235979   1.646   4.278   2.504 -0.3366 -1.0331 -0.4742
 8115SOL     OW35980   3.462   1.855   7.708  0.2442 -0.1942 -0.4953
 8115SOL    HW135981   3.476   1.857   7.614  0.0807 -0.3874 -0.5236
 8115SOL    HW235982   3.441   1.766   7.734 -1.6357  0.3920 -0.0386
 8116SOL     OW35983   1.772   3.026   1.949  0.5046 -0.2332 -0.3240
 8116SOL    HW135984   1.750   2.935   1.970 -1.7852  0.2402 -0.6449
 8116SOL    HW235985   1.835   3.045   2.019  1.0306  2.4054 -1.5042
 8117SOL     OW35986   1.795   3.068  11.538 -0.3826  0.5262  0.4625
 8117SOL    HW135987   1.869   3.077  11.478 -0.2311  3.2455  1.0425
 8117SOL    HW235988   1.788   2.974  11.555 -0.6124  0.5032  0.2462
 8118SOL     OW35989   2.626   0.784   5.107 -0.1682  0.4413  0.5209
 8118SOL    HW135990   2.565   0.715   5.133 -0.2805  0.5363  0.5108
 8118SOL    HW235991   2.678   0.797   5.186  0.5849  0.1035  0.0784
 8119SOL     OW35992   3.733   0.309   4.118  0.2048  0.1374  0.0569
 8119SOL    HW135993   3.735   0.220   4.155  0.4445  0.0402 -0.1848
 8119SOL    HW235994   3.827   0.330   4.116  0.1342  0.3718 -0.6231
 8120SOL     OW35995   1.013   0.485   3.804  0.1083 -0.0675  0.2507
 8120SOL    HW135996   1.053   0.399   3.788  1.6826  1.0797 -1.9979
 8120SOL    HW235997   1.093   0.537   3.807 -0.5848  1.0966 -1.2349
 8121SOL     OW35998   0.585   0.578  15.891  0.5022  0.1776  0.1007
 8121SOL    HW135999   0.676   0.563  15.913  0.3999  0.1248  0.4825
 8121SOL    HW236000   0.587   0.664  15.849  0.7838 -0.1011 -0.4642
 8122SOL     OW36001   3.522   1.855   2.392 -0.6661  0.0662  0.0548
 8122SOL    HW136002   3.598   1.880   2.444 -0.9487 -0.6866  0.8339
 8122SOL    HW236003   3.479   1.796   2.454  1.5527 -0.6900  0.8724
 8123SOL     OW36004   2.997   3.076   5.338 -0.1963 -0.5470 -0.3221
 8123SOL    HW136005   3.080   3.104   5.378 -0.2729 -1.0784  0.2081
 8123SOL    HW236006   3.025   3.014   5.271 -0.7715  1.8886 -2.8389
 8124SOL     OW36007   1.585   3.907   4.327  0.7030 -0.4589  0.0134
 8124SOL    HW136008   1.615   3.832   4.378 -1.0348 -0.2528  1.3180
 8124SOL    HW236009   1.656   3.971   4.328 -0.0516  0.3996 -1.0792
 8125SOL     OW36010   3.672   0.214   2.410  0.1643 -0.1290  0.0110
 8125SOL    HW136011   3.725   0.147   2.453  1.3448  1.0172  0.3357
 8125SOL    HW236012   3.701   0.291   2.458 -1.2032 -1.5789  3.1426
 8126SOL     OW36013   1.327   2.497   6.901  0.0384 -0.7024 -0.5692
 8126SOL    HW136014   1.378   2.416   6.912  1.7802  1.0080  4.0489
 8126SOL    HW236015   1.364   2.525   6.818  0.9491  1.4600  0.5706
 8127SOL     OW36016   1.759   3.322   3.318 -0.2887 -0.2141  0.7822
 8127SOL    HW136017   1.722   3.326   3.406 -0.3023  0.6805  0.7308
 8127SOL    HW236018   1.791   3.408   3.291  1.5703 -1.3755 -0.7834
 8128SOL     OW36019   1.925   1.102   7.483  0.1589 -0.2704  0.0740
 8128SOL    HW136020   1.942   1.065   7.397 -0.4668 -1.2520  0.3843
 8128SOL    HW236021   1.854   1.163   7.462 -0.2689 -0.8873 -0.2535
 8129SOL     OW36022   3.143   1.380   7.904 -0.0525  0.7284  0.6276
 8129SOL    HW136023   3.094   1.321   7.961 -1.1517  0.0723 -0.9960
 8129SOL    HW236024   3.178   1.313   7.844 -1.2942  0.4917  0.1627
 8130SOL     OW36025   2.080   2.547   3.704  0.3166 -0.1837  0.2690
 8130SOL    HW136026   2.039   2.462   3.687  0.8886 -1.1738  3.8199
 8130SOL    HW236027   2.140   2.543   3.779  0.5329 -0.7873  0.0609
 8131SOL     OW36028   3.811   3.705   5.680 -0.1030  0.0462  0.1149
 8131SOL    HW136029   3.792   3.644   5.751 -0.3250 -0.3646 -0.3001
 8131SOL    HW236030   3.863   3.772   5.724 -0.5159 -0.4297  1.3279
 8132SOL     OW36031   0.717   2.777   6.169 -0.1067  0.6143 -0.0192
 8132SOL    HW136032   0.683   2.690   6.188  0.3590  0.0199 -1.9161
 8132SOL    HW236033   0.799   2.755   6.126 -0.8317 -0.0437 -1.0753
 8133SOL     OW36034   3.520   1.202   4.003 -0.1959 -0.1531  0.1174
 8133SOL    HW136035   3.465   1.125   3.992 -1.1012  0.2686  1.6835
 8133SOL    HW236036   3.464   1.259   3.950 -1.0984 -1.0199  0.1589
 8134SOL     OW36037   1.520   3.119  11.459 -0.2507  0.4368  0.3298
 8134SOL    HW136038   1.612   3.095  11.476 -0.2369  0.3197  0.0760
 8134SOL    HW236039   1.528   3.201  11.411 -0.8353  0.3363  0.0673
 8135SOL     OW36040   4.445   1.897   3.147  0.5983 -0.3254 -0.2385
 8135SOL    HW136041   4.451   1.991   3.131  0.7560 -0.3981 -0.6035
 8135SOL    HW236042   4.472   1.879   3.057 -0.7031  1.5401 -0.9999
 8136SOL     OW36043   1.380   1.804   2.316  0.0732  0.4739 -0.1475
 8136SOL    HW136044   1.367   1.711   2.302 -0.5828  0.8323 -1.9778
 8136SOL    HW236045   1.361   1.835   2.227 -0.1939  2.7066  0.6836
 8137SOL     OW36046   1.731   2.870   5.403 -0.2033  0.2639 -0.0579
 8137SOL    HW136047   1.699   2.814   5.474 -1.3302  1.8279  0.6626
 8137SOL    HW236048   1.673   2.847   5.331  0.4650 -1.8934  0.0799
 8138SOL     OW36049   4.479   4.683   2.365  0.6649 -0.3479 -0.5500
 8138SOL    HW136050   4.418   4.708   2.434 -0.0717 -0.6958 -1.0838
 8138SOL    HW236051   4.556   4.662   2.418  1.0005 -1.3983 -1.4433
 8139SOL     OW36052   0.647   1.744   8.616 -0.0846  0.7866  0.0872
 8139SOL    HW136053   0.603   1.665   8.586  1.2951  0.0281  0.0296
 8139SOL    HW236054   0.659   1.796   8.536  0.5048 -1.1449 -1.0623
 8140SOL     OW36055   0.994   1.656   8.206 -0.4660 -0.4933 -0.1642
 8140SOL    HW136056   1.033   1.629   8.123 -1.3227  1.2817 -1.1261
 8140SOL    HW236057   1.043   1.596   8.263 -0.2326 -0.7849 -0.6713
 8141SOL     OW36058   3.526   3.079   7.765 -0.2811 -0.0515  0.0837
 8141SOL    HW136059   3.488   3.002   7.722  1.1377 -1.5940  1.6079
 8141SOL    HW236060   3.456   3.106   7.824 -1.4831 -0.7756 -0.9862
 8142SOL     OW36061   1.798   0.269  13.420  0.0965 -0.4493  0.1005
 8142SOL    HW136062   1.766   0.205  13.357 -1.5491  1.4739 -1.0249
 8142SOL    HW236063   1.834   0.334  13.359 -1.6483  0.9597  0.5378
 8143SOL     OW36064   3.108   1.220   2.310 -0.0582  0.3414  0.0879
 8143SOL    HW136065   3.129   1.165   2.386  1.1186  0.6655  0.0127
 8143SOL    HW236066   3.196   1.256   2.298 -1.0428  2.3120 -1.1903
 8144SOL     OW36067   3.623   2.703  15.695  1.0876 -0.1010 -0.6232
 8144SOL    HW136068   3.541   2.711  15.744  1.1857  1.5135 -0.7231
 8144SOL    HW236069   3.596   2.720  15.604 -0.5902  0.9429  0.0761
 8145SOL     OW36070   3.473   4.170   2.378  0.1657 -0.5483 -1.0120
 8145SOL    HW136071   3.383   4.202   2.365  1.2008  1.7526 -2.6278
 8145SOL    HW236072   3.461   4.093   2.433 -0.3861  0.4785  0.2924
 8146SOL     OW36073   2.792   2.604   1.224  0.3554 -0.3851 -0.2318
 8146SOL    HW136074   2.882   2.593   1.253 -0.2960 -1.2405  1.4670
 8146SOL    HW236075   2.750   2.617   1.309 -1.4357 -0.2465 -1.1295
 8147SOL     OW36076   0.120   1.076   8.942  0.3496  0.0557 -0.0840
 8147SOL    HW136077   0.161   1.110   9.022 -1.5704  3.2783 -0.4586
 8147SOL    HW236078   0.148   1.149   8.886  1.7639 -0.3529  0.0902
 8148SOL     OW36079   2.715   2.797   9.373 -0.0541  0.4409  0.0883
 8148SOL    HW136080   2.784   2.844   9.420 -0.1636  0.2731  0.4222
 8148SOL    HW236081   2.706   2.860   9.302 -0.4532  0.1732 -0.1014
 8149SOL     OW36082   3.348   0.428   7.913  0.3290 -0.1140  0.2700
 8149SOL    HW136083   3.344   0.404   8.006  0.7952 -1.8218 -0.1424
 8149SOL    HW236084   3.391   0.513   7.923 -1.0876  0.8454 -1.6193
 8150SOL     OW36085   2.701   3.137   4.002 -0.2039 -0.3820 -0.0721
 8150SOL    HW136086   2.770   3.159   4.066  0.0778  3.7070 -1.8109
 8150SOL    HW236087   2.748   3.151   3.920 -0.0579  0.4481  0.1537
 8151SOL     OW36088   0.499   4.694  13.244  0.6091  0.0984  0.5086
 8151SOL    HW136089   0.501   4.600  13.225  2.9585  0.0760  0.8468
 8151SOL    HW236090   0.585   4.716  13.282  1.2436  0.0023 -0.8703
 8152SOL     OW36091   1.507   1.067   8.518  0.1106  0.2575 -0.6467
 8152SOL    HW136092   1.568   1.018   8.463 -0.5813 -3.4925  1.9682
 8152SOL    HW236093   1.439   1.000   8.510  0.9230 -0.8517  1.8334
 8153SOL     OW36094   0.383   2.104   2.205 -0.1965  0.0186  0.1788
 8153SOL    HW136095   0.459   2.151   2.242  0.1313  0.9009 -1.6398
 8153SOL    HW236096   0.387   2.016   2.243 -0.0051 -0.7227 -1.5934
 8154SOL     OW36097   1.513   2.624  13.984  0.6929  0.0131 -0.3179
 8154SOL    HW136098   1.566   2.703  13.972  1.3005 -0.3220  0.2109
 8154SOL    HW236099   1.459   2.626  13.905 -2.2161 -1.3489  1.6271
 8155SOL     OW36100   2.724   4.065   0.261 -0.2331 -0.3269 -0.4300
 8155SOL    HW136101   2.808   4.100   0.290 -0.9856  0.1454  1.1700
 8155SOL    HW236102   2.667   4.140   0.280 -0.8080  0.0096 -3.5111
 8156SOL     OW36103   3.472   0.329   8.372  0.1926 -0.0551 -0.2642
 8156SOL    HW136104   3.550   0.370   8.410  0.2595  0.8931 -1.3998
 8156SOL    HW236105   3.404   0.360   8.432 -1.0376 -2.4390 -0.4555
 8157SOL     OW36106   2.724   1.125   2.159 -0.0416 -0.5644  0.0461
 8157SOL    HW136107   2.651   1.075   2.195  0.9084 -2.1074 -0.1542
 8157SOL    HW236108   2.685   1.176   2.089 -1.2534 -2.1586 -0.4274
 8158SOL     OW36109   4.457   0.991  14.612 -0.1210 -0.5286 -0.7095
 8158SOL    HW136110   4.548   0.990  14.639 -0.5347  0.0196  0.6668
 8158SOL    HW236111   4.408   0.958  14.687 -1.1265  3.1510  0.2408
 8159SOL     OW36112   4.624   3.405  15.631 -0.6135 -0.1651 -0.1500
 8159SOL    HW136113   4.635   3.311  15.640  1.4735  0.1573  0.6335
 8159SOL    HW236114   4.621   3.441  15.720  2.1226 -0.7315  0.1422
 8160SOL     OW36115   1.778   2.206  16.646 -0.1300 -0.7609 -0.0457
 8160SOL    HW136116   1.812   2.184  16.733 -2.1453  0.0473  0.9505
 8160SOL    HW236117   1.809   2.296  16.635  0.4004 -1.0318 -0.7480
 8161SOL     OW36118   3.118   3.852   3.787  0.2824 -0.9001  0.0153
 8161SOL    HW136119   3.053   3.836   3.720 -0.5531  3.3405 -0.1663
 8161SOL    HW236120   3.063   3.852   3.865  0.4310 -1.2909  0.1227
 8162SOL     OW36121   0.643   3.556   0.644  0.2477  0.0481 -0.4999
 8162SOL    HW136122   0.628   3.542   0.550  2.0315 -1.0473 -0.6223
 8162SOL    HW236123   0.557   3.587   0.671  0.0410 -0.8857 -0.0902
 8163SOL     OW36124   4.472   2.053   7.055  0.5959 -0.1386  0.2560
 8163SOL    HW136125   4.421   1.990   7.105 -0.5704 -1.1671 -2.2321
 8163SOL    HW236126   4.557   2.052   7.099  0.7138 -0.5010  0.0151
 8164SOL     OW36127   1.631   3.935   8.738 -0.2558 -0.7201 -0.6694
 8164SOL    HW136128   1.601   3.949   8.648 -0.3534 -2.5235 -0.9192
 8164SOL    HW236129   1.672   4.021   8.747 -1.1638 -0.5263  1.6827
 8165SOL     OW36130   2.213   3.193   4.346 -0.1146 -0.0719  0.1715
 8165SOL    HW136131   2.149   3.225   4.410  1.4076 -0.1125  1.7252
 8165SOL    HW236132   2.268   3.137   4.400  0.7793  0.1725 -0.5001
 8166SOL     OW36133   3.742   0.083   5.408  0.7165 -0.1776 -0.1491
 8166SOL    HW136134   3.691   0.134   5.345  1.9066  0.5160 -0.5425
 8166SOL    HW236135   3.811   0.042   5.356  0.5798  1.4917 -1.6288
 8167SOL     OW36136   3.539   2.589  17.563 -0.4016 -0.1082  0.0662
 8167SOL    HW136137   3.454   2.581  17.608  0.0949 -1.1027  0.8276
 8167SOL    HW236138   3.602   2.565  17.630 -0.0674  1.1872  0.2011
 8168SOL     OW36139   1.974   2.853   6.195  0.1458  0.0406 -0.3717
 8168SOL    HW136140   2.024   2.775   6.219  1.8357  1.9098  2.1678
 8168SOL    HW236141   1.929   2.845   6.111 -0.0955  2.0453 -0.4450
 8169SOL     OW36142   3.565   0.558   3.365 -0.5028  0.0222  0.0639
 8169SOL    HW136143   3.641   0.611   3.388 -0.3670 -0.1787  0.0752
 8169SOL    HW236144   3.515   0.581   3.443 -1.0638  0.1218 -0.3261
 8170SOL     OW36145   1.698   2.126   8.188 -0.2597 -0.9432 -0.2332
 8170SOL    HW136146   1.703   2.214   8.225 -0.1630 -0.8792 -0.3995
 8170SOL    HW236147   1.603   2.123   8.190 -0.2293 -1.6025  0.3161
 8171SOL     OW36148   0.960   1.036  12.756  0.5168 -0.2702 -0.7009
 8171SOL    HW136149   0.923   1.085  12.830  1.0744  0.8404 -1.1622
 8171SOL    HW236150   0.891   1.066  12.697  1.8142  2.9090 -0.6152
 8172SOL     OW36151   4.012   2.004   5.491 -0.1552  0.3014  0.2050
 8172SOL    HW136152   3.966   1.923   5.511  2.3573 -1.5485 -1.6067
 8172SOL    HW236153   4.101   1.978   5.514  0.1127  1.4532  0.4951
 8173SOL     OW36154   0.613   0.807   6.233  0.1911  0.2120 -0.3307
 8173SOL    HW136155   0.526   0.794   6.270 -0.3156  2.6904 -0.6329
 8173SOL    HW236156   0.598   0.778   6.143 -1.8904 -2.1518  0.7851
 8174SOL     OW36157   0.303   1.146   7.245  0.1070  0.6895 -0.2073
 8174SOL    HW136158   0.273   1.057   7.227  2.5899 -0.3885  1.1219
 8174SOL    HW236159   0.296   1.151   7.340  2.5497  0.7608 -0.0336
 8175SOL     OW36160   4.277   3.953   4.712  0.7240 -0.3243 -0.0713
 8175SOL    HW136161   4.334   3.933   4.787  0.4268  0.0467  0.2582
 8175SOL    HW236162   4.277   4.049   4.704 -0.4806 -0.3543 -0.3022
 8176SOL     OW36163   1.723   4.678   1.834  0.9305  0.3430  0.0694
 8176SOL    HW136164   1.640   4.723   1.819  0.0701 -1.5165 -0.7923
 8176SOL    HW236165   1.724   4.690   1.929 -1.3091  1.9599 -0.1164
 8177SOL     OW36166   3.700   1.925   5.813 -0.6153  0.0628 -0.0172
 8177SOL    HW136167   3.623   1.968   5.850 -2.1277 -0.4556 -2.5477
 8177SOL    HW236168   3.770   1.990   5.818 -0.2035 -0.5024  1.2748
 8178SOL     OW36169   2.751   2.780   8.976  0.4282 -0.2668  0.6049
 8178SOL    HW136170   2.760   2.701   9.030  0.1220  0.0219  1.0750
 8178SOL    HW236171   2.730   2.850   9.037 -1.0762  0.3642 -0.6314
 8179SOL     OW36172   4.553   1.596   4.236 -0.1868  0.4995  0.5758
 8179SOL    HW136173   4.564   1.513   4.283 -2.5065 -1.4373 -2.2751
 8179SOL    HW236174   4.604   1.571   4.159 -0.4327 -1.6267  1.0835
 8180SOL     OW36175   1.440   3.590   4.499  0.3586  0.6609  0.9455
 8180SOL    HW136176   1.405   3.621   4.415  0.5365 -0.6198  0.4045
 8180SOL    HW236177   1.512   3.651   4.510  0.5622  0.8046 -1.2347
 8181SOL     OW36178   3.635   3.918   3.057 -0.0574 -0.5579  0.4076
 8181SOL    HW136179   3.702   3.964   3.109 -0.7661 -1.0486  1.7633
 8181SOL    HW236180   3.556   3.923   3.111 -1.6484 -1.1822 -1.8949
 8182SOL     OW36181   2.413   1.363   5.964  0.1742  0.3270 -0.0597
 8182SOL    HW136182   2.418   1.288   5.905 -0.8345 -1.5754  2.2488
 8182SOL    HW236183   2.394   1.339   6.055  2.6014 -0.3950  0.2520
 8183SOL     OW36184   0.817   3.737  11.695  0.1595  0.0492 -0.1552
 8183SOL    HW136185   0.779   3.776  11.774  0.3258  1.3377 -0.7171
 8183SOL    HW236186   0.888   3.797  11.674 -0.5680  1.1232  0.4546
 8184SOL     OW36187   0.255   2.583   2.774 -0.7848 -0.2791  0.1927
 8184SOL    HW136188   0.293   2.495   2.772  1.5626  0.7140  1.9491
 8184SOL    HW236189   0.331   2.624   2.734 -1.3845  0.0553 -0.6195
 8185SOL     OW36190   4.109   1.698   1.789 -0.4526 -0.0886 -0.9971
 8185SOL    HW136191   4.197   1.692   1.752  0.7973  0.0117  1.9126
 8185SOL    HW236192   4.082   1.785   1.760 -1.2598 -0.4149 -1.2035
 8186SOL     OW36193   2.215   0.708   2.486 -0.0019 -0.3366 -0.1034
 8186SOL    HW136194   2.191   0.638   2.424 -1.1294 -1.1001  1.1963
 8186SOL    HW236195   2.298   0.672   2.517 -1.1583 -1.5813  1.5127
 8187SOL     OW36196   3.727   1.470   2.099  0.1817 -0.3322 -0.2001
 8187SOL    HW136197   3.653   1.416   2.071  0.2289 -0.0781 -0.8222
 8187SOL    HW236198   3.797   1.409   2.076 -0.4966 -1.0886 -0.3046
 8188SOL     OW36199   1.411   1.716   9.747 -0.2421  0.0733  0.3469
 8188SOL    HW136200   1.350   1.789   9.737 -0.6373 -0.2029  0.7136
 8188SOL    HW236201   1.493   1.760   9.768 -0.9826  2.9991 -2.9063
 8189SOL     OW36202   0.272   2.427   7.408  0.4382 -0.2905 -0.5540
 8189SOL    HW136203   0.264   2.477   7.489  2.1772  1.8723 -1.6982
 8189SOL    HW236204   0.246   2.488   7.339 -0.5245 -0.6889 -0.5421
 8190SOL     OW36205   4.188   2.282  13.259  0.5650  0.2584 -0.5973
 8190SOL    HW136206   4.183   2.204  13.314 -0.0769 -1.2924 -2.8508
 8190SOL    HW236207   4.145   2.348  13.313  1.1244 -0.1328  0.3344
 8191SOL     OW36208   0.828   2.746   2.716 -0.2915 -0.1937  0.2384
 8191SOL    HW136209   0.807   2.662   2.757 -1.5123 -0.2397 -0.4644
 8191SOL    HW236210   0.886   2.787   2.780 -1.3668  0.9787  0.4716
 8192SOL     OW36211   0.118   2.074  16.339  0.0240  0.1202  0.5964
 8192SOL    HW136212   0.169   2.076  16.258 -1.3416  2.9639 -0.1920
 8192SOL    HW236213   0.094   1.981  16.343 -1.5361  0.4441 -1.1914
 8193SOL     OW36214   0.870   4.697   9.031 -0.2531 -0.4085 -0.1233
 8193SOL    HW136215   0.896   0.041   8.986 -1.5765 -0.1045 -0.3693
 8193SOL    HW236216   0.952   4.651   9.045  0.4178  0.4133 -1.3252
 8194SOL     OW36217   2.646   1.298  15.584  0.1453  0.4396 -0.9544
 8194SOL    HW136218   2.640   1.337  15.672  2.8082  0.1957 -0.6648
 8194SOL    HW236219   2.571   1.343  15.545 -0.4060 -0.5590 -1.0524
 8195SOL     OW36220   0.497   2.359   8.407 -0.0292 -0.4256  0.4639
 8195SOL    HW136221   0.512   2.303   8.484  0.1444  2.2263  2.3632
 8195SOL    HW236222   0.520   2.294   8.340  1.6800 -0.9933  1.6017
 8196SOL     OW36223   1.511   0.907  13.163  0.1827 -0.3169  0.2168
 8196SOL    HW136224   1.459   0.983  13.138 -0.1378 -0.4961  0.3348
 8196SOL    HW236225   1.492   0.850  13.088  2.5732 -0.0887 -0.5816
 8197SOL     OW36226   2.736   0.117   3.990  0.3313 -0.1189 -0.4053
 8197SOL    HW136227   2.818   0.137   4.035 -0.2343 -1.6077  1.2926
 8197SOL    HW236228   2.679   0.176   4.039  0.5615  0.5599 -0.9524
 8198SOL     OW36229   1.517   1.446   6.831  0.0087 -0.1278 -0.0356
 8198SOL    HW136230   1.482   1.438   6.742 -2.6999  1.4328  0.9121
 8198SOL    HW236231   1.524   1.357   6.865 -0.5406  0.4362  1.5321
 8199SOL     OW36232   3.040   1.348   2.710 -0.3584  0.1049  0.2901
 8199SOL    HW136233   3.105   1.279   2.707  1.0774  1.4166  1.0429
 8199SOL    HW236234   3.087   1.417   2.662 -1.1454  0.4413 -0.0132
 8200SOL     OW36235   1.842   0.648   5.225 -0.1647 -0.2176  0.2611
 8200SOL    HW136236   1.793   0.596   5.289 -2.5499  0.0013 -1.4003
 8200SOL    HW236237   1.878   0.577   5.172  0.4244 -0.9068  1.5747
 8201SOL     OW36238   2.146   3.870   9.262 -0.8543  0.5222  0.0163
 8201SOL    HW136239   2.178   3.791   9.219  0.8677  1.2272 -0.0218
 8201SOL    HW236240   2.151   3.856   9.357  0.0330 -1.1939 -0.2973
 8202SOL     OW36241   2.753   4.659   1.978  0.2261  0.3344  0.1732
 8202SOL    HW136242   2.828   4.709   1.946 -0.9852  0.8468 -1.8717
 8202SOL    HW236243   2.770   4.566   1.966  1.4505  0.8408 -2.0803
 8203SOL     OW36244   1.232   3.168   4.577 -0.2848 -0.3845 -0.1280
 8203SOL    HW136245   1.249   3.086   4.530  0.3084  0.7594 -1.8991
 8203SOL    HW236246   1.319   3.208   4.572 -0.1924 -0.5626  0.0840
 8204SOL     OW36247   2.713   3.368  13.586 -0.1242 -0.7111 -0.1663
 8204SOL    HW136248   2.784   3.431  13.596  0.0508 -0.8647 -0.4309
 8204SOL    HW236249   2.752   3.325  13.509  0.4728 -3.0436  1.4546
 8205SOL     OW36250   0.437   1.600   0.926  0.1539  0.1900  0.4201
 8205SOL    HW136251   0.359   1.617   0.980 -1.4171 -3.1249 -0.8083
 8205SOL    HW236252   0.460   1.515   0.963  0.1898 -0.2699 -0.6733
 8206SOL     OW36253   2.046   2.197  13.674 -0.2923  0.8531 -0.5432
 8206SOL    HW136254   2.007   2.132  13.733 -1.2879  3.0340  1.1872
 8206SOL    HW236255   1.976   2.262  13.670 -0.1098  1.2119  2.1637
 8207SOL     OW36256   0.938   3.597   6.334  0.2641 -0.0092  0.0196
 8207SOL    HW136257   0.985   3.674   6.302 -1.7197  1.0281 -0.4377
 8207SOL    HW236258   0.999   3.564   6.400  1.1866  0.2360 -0.7231
 8208SOL     OW36259   1.835   3.297   4.362 -0.3099 -0.1985  0.1089
 8208SOL    HW136260   1.906   3.331   4.417 -1.0699 -1.7725  2.0742
 8208SOL    HW236261   1.824   3.375   4.309  1.3447 -0.0366 -0.0108
 8209SOL     OW36262   3.998   0.619  15.143  0.3951 -0.4810 -0.1582
 8209SOL    HW136263   3.977   0.601  15.234 -0.0927 -0.6527 -0.3038
 8209SOL    HW236264   4.069   0.556  15.128  0.2408 -1.3406  2.7881
 8210SOL     OW36265   4.734   0.070   7.727  0.1560  0.5867  0.0476
 8210SOL    HW136266   4.676   0.133   7.684 -0.6432 -0.7335 -0.8055
 8210SOL    HW236267   4.688   4.729   7.698  0.7513  0.5833 -0.8676
 8211SOL     OW36268   0.903   1.600   4.113 -0.4160 -0.4140  0.2551
 8211SOL    HW136269   0.959   1.604   4.190 -1.0088 -0.1958  0.6739
 8211SOL    HW236270   0.901   1.694   4.093 -2.9107 -0.5056  0.0748
 8212SOL     OW36271   1.012   2.306   5.739 -0.6672  0.0800 -0.3119
 8212SOL    HW136272   1.032   2.215   5.718  0.9627 -0.0676  1.9180
 8212SOL    HW236273   0.985   2.336   5.652 -1.1637 -1.7545 -0.7907
 8213SOL     OW36274   3.449   3.333  14.168  0.3224 -0.6120 -0.3525
 8213SOL    HW136275   3.438   3.425  14.192  1.9780 -0.4001 -0.3902
 8213SOL    HW236276   3.492   3.349  14.084  0.3660 -0.6446 -0.3364
 8214SOL     OW36277   0.719   2.792   9.072  0.6245  0.7400 -0.1356
 8214SOL    HW136278   0.707   2.802   9.166  0.8744  2.9588 -0.3392
 8214SOL    HW236279   0.646   2.837   9.030 -0.2416  0.5066  1.1272
 8215SOL     OW36280   1.369   1.264   7.562 -0.0327  0.0069  0.1509
 8215SOL    HW136281   1.350   1.179   7.523 -0.6248 -1.2851  3.2161
 8215SOL    HW236282   1.320   1.267   7.644  1.5552 -0.1275  1.1270
 8216SOL     OW36283   0.837   1.235   6.332  0.3055 -0.4602  0.5105
 8216SOL    HW136284   0.901   1.282   6.387  0.6127  2.5401 -2.3618
 8216SOL    HW236285   0.883   1.156   6.305 -0.3547 -0.7720  0.3177
 8217SOL     OW36286   2.216   3.907  12.262 -0.3901 -0.4606  0.6745
 8217SOL    HW136287   2.180   3.992  12.240  1.0405 -0.1482 -0.4754
 8217SOL    HW236288   2.311   3.918  12.273 -0.2740  0.3569 -1.1793
 8218SOL     OW36289   3.853   4.172   3.601 -0.1603 -0.2027 -0.0602
 8218SOL    HW136290   3.828   4.166   3.694  0.1763  1.3878  0.1335
 8218SOL    HW236291   3.940   4.133   3.602 -1.8817 -4.0305  1.1320
 8219SOL     OW36292   0.665   3.344   8.386 -0.2753 -0.1943 -0.0437
 8219SOL    HW136293   0.628   3.430   8.409  0.2083 -0.6423  2.3496
 8219SOL    HW236294   0.610   3.318   8.312  1.0309 -0.6868 -0.8415
 8220SOL     OW36295   3.261   2.782   8.448  0.3635  0.3957 -0.3818
 8220SOL    HW136296   3.310   2.700   8.435  1.4970  0.7776  1.4695
 8220SOL    HW236297   3.217   2.758   8.529 -1.6932  0.9444 -1.3525
 8221SOL     OW36298   1.017   0.948  12.229  0.2294 -0.2645 -0.6240
 8221SOL    HW136299   1.043   1.006  12.157 -0.5748 -0.0489 -0.7487
 8221SOL    HW236300   0.927   0.976  12.245  0.0998 -1.6870  1.0753
 8222SOL     OW36301   0.680   3.988  16.703 -0.3212 -0.5974  0.0494
 8222SOL    HW136302   0.615   4.030  16.646 -0.2317 -0.7436 -0.1593
 8222SOL    HW236303   0.759   4.020  16.660  1.4875 -4.5112  0.5237
 8223SOL     OW36304   3.990   3.276   6.052  0.5223  0.0301  0.1434
 8223SOL    HW136305   3.925   3.323   6.000  1.1759  3.1214  2.1449
 8223SOL    HW236306   3.956   3.189   6.030  2.0852 -1.3750  3.3267
 8224SOL     OW36307   2.956   1.202   7.293  0.1380 -0.9141  0.0229
 8224SOL    HW136308   2.911   1.125   7.328 -1.8249 -0.8422 -2.3511
 8224SOL    HW236309   2.974   1.172   7.204 -1.1657 -0.0445 -0.5424
 8225SOL     OW36310   1.227   2.857  16.514  0.2757  0.3790  0.1460
 8225SOL    HW136311   1.165   2.867  16.586  2.0783 -2.0970  2.0054
 8225SOL    HW236312   1.228   2.762  16.517 -1.6975  0.3140 -1.1102
 8226SOL     OW36313   4.043   1.431   7.610 -0.1290 -0.1196  0.3181
 8226SOL    HW136314   3.962   1.431   7.662  0.4905 -0.8543  1.2712
 8226SOL    HW236315   4.090   1.356   7.645 -1.2375  0.2433  2.5987
 8227SOL     OW36316   1.917   4.393   1.965 -0.5860 -0.2335 -0.7679
 8227SOL    HW136317   1.829   4.400   1.930 -1.6278 -0.1969  1.8161
 8227SOL    HW236318   1.958   4.477   1.943  2.0830 -0.8733  1.7105
 8228SOL     OW36319   0.990   4.483   1.681 -0.7413  0.1197 -0.0817
 8228SOL    HW136320   0.922   4.547   1.660 -1.0122 -0.2550 -0.3207
 8228SOL    HW236321   0.966   4.396   1.650  1.0534 -0.5912  0.5304
 8229SOL     OW36322   4.476   3.549   8.647 -0.0073  0.4521  0.1297
 8229SOL    HW136323   4.474   3.574   8.739  0.1993  0.7545  0.0529
 8229SOL    HW236324   4.570   3.531   8.641 -0.5020 -2.0844 -0.1190
 8230SOL     OW36325   0.401   3.278   4.144 -0.4412  0.3838  0.2608
 8230SOL    HW136326   0.341   3.224   4.093 -1.1315  0.8618  0.5763
 8230SOL    HW236327   0.464   3.302   4.076  0.9558 -1.1912  0.9856
 8231SOL     OW36328   2.185   0.590   3.856  0.1785 -0.0578  0.2408
 8231SOL    HW136329   2.278   0.582   3.835 -0.3410 -0.3096 -1.9266
 8231SOL    HW236330   2.192   0.656   3.925  1.2783 -0.2137  0.2869
 8232SOL     OW36331   4.344   3.041   0.525  0.1133 -0.3085 -0.2700
 8232SOL    HW136332   4.373   3.062   0.436 -2.5558 -0.3587 -1.1429
 8232SOL    HW236333   4.253   3.072   0.521  0.0847 -0.2801  0.5173
 8233SOL     OW36334   1.681   1.490  16.334 -0.3398 -0.1705  0.3810
 8233SOL    HW136335   1.689   1.518  16.425 -0.1199 -0.8530  0.5737
 8233SOL    HW236336   1.758   1.433  16.326 -0.6504 -0.5405  0.0226
 8234SOL     OW36337   1.528   3.308   8.233 -0.1267  0.4004 -0.2642
 8234SOL    HW136338   1.507   3.244   8.165 -0.3845  0.9886 -0.7348
 8234SOL    HW236339   1.471   3.375   8.195 -1.2785 -0.8384 -0.7312
 8235SOL     OW36340   1.804   0.499   9.059  0.3853  0.0328  0.4333
 8235SOL    HW136341   1.748   0.441   9.110  0.3857 -1.3136 -1.0900
 8235SOL    HW236342   1.876   0.437   9.047 -2.6102 -3.1979 -0.8593
 8236SOL     OW36343   3.260   2.184   2.158  0.4015 -0.6878  0.4391
 8236SOL    HW136344   3.316   2.188   2.236  1.1477 -0.0010 -0.1423
 8236SOL    HW236345   3.205   2.108   2.180  1.3658 -1.8523 -1.2074
 8237SOL     OW36346   1.996   1.799   7.233  0.2035  0.1446 -0.5500
 8237SOL    HW136347   2.043   1.715   7.239 -1.0356 -0.4309  0.9361
 8237SOL    HW236348   1.940   1.781   7.158 -1.3282 -1.0134  0.8810
 8238SOL     OW36349   3.406   2.338  14.718 -0.1911 -0.6340  0.0569
 8238SOL    HW136350   3.341   2.378  14.776  0.8208  2.3024 -0.8347
 8238SOL    HW236351   3.403   2.245  14.741 -3.7420 -0.4483  0.2980
 8239SOL     OW36352   3.398   3.922   3.191  0.5011 -0.1500 -0.0649
 8239SOL    HW136353   3.310   3.897   3.162  1.2740 -0.5151 -2.1445
 8239SOL    HW236354   3.377   3.946   3.281  2.0623 -0.1033  0.2860
 8240SOL     OW36355   0.806   3.191  12.007  0.2152  0.1629  0.5968
 8240SOL    HW136356   0.768   3.177  12.094  0.0400  0.9453  0.6495
 8240SOL    HW236357   0.769   3.112  11.968 -0.1308  0.2586  0.7321
 8241SOL     OW36358   3.162   0.396   2.526  0.8254  0.8715 -0.2050
 8241SOL    HW136359   3.203   0.317   2.490 -1.5579 -0.0107 -0.9914
 8241SOL    HW236360   3.069   0.373   2.530  1.0196 -0.1625 -1.4555
 8242SOL     OW36361   1.316   1.096   6.539 -0.9018  0.5389 -0.0421
 8242SOL    HW136362   1.230   1.125   6.510 -0.1242  1.6783 -1.2293
 8242SOL    HW236363   1.304   1.098   6.634 -1.3465  2.2083 -0.1277
 8243SOL     OW36364   3.604   0.405  17.607  0.2827  0.3506 -0.6843
 8243SOL    HW136365   3.518   0.447  17.609 -0.4169 -1.1410  0.4452
 8243SOL    HW236366   3.609   0.365  17.520  1.1220  0.4806 -0.6985
 8244SOL     OW36367   2.867   1.238   2.441  0.7330 -0.4298  0.0880
 8244SOL    HW136368   2.932   1.230   2.372  1.3951  0.7635  0.5733
 8244SOL    HW236369   2.877   1.330   2.467  1.2207  0.1137 -2.0087
 8245SOL     OW36370   3.053   0.507   4.681  0.0049  0.0768 -0.2941
 8245SOL    HW136371   3.116   0.479   4.747  1.1096 -1.0616 -1.8367
 8245SOL    HW236372   3.091   0.486   4.595  0.7593 -1.8238  0.4960
 8246SOL     OW36373   3.801   4.557   1.354  0.1809 -0.2126  0.2777
 8246SOL    HW136374   3.774   4.644   1.382 -0.3965 -0.8126  1.5918
 8246SOL    HW236375   3.804   4.509   1.437 -1.3077 -3.6147 -1.6153
 8247SOL     OW36376   3.861   4.186  14.784  0.4401  0.4521 -0.3991
 8247SOL    HW136377   3.938   4.219  14.830  1.9520 -1.2438 -1.7045
 8247SOL    HW236378   3.790   4.201  14.847  0.5486  0.7655 -0.3515
 8248SOL     OW36379   3.356   0.966   4.046  0.3201 -0.2499 -0.1661
 8248SOL    HW136380   3.272   0.957   3.999 -0.8762  0.6559  1.7819
 8248SOL    HW236381   3.398   0.883   4.027  1.4736  0.6544 -1.5932
 8249SOL     OW36382   3.889   1.915   2.365 -0.1434 -0.1330  0.2669
 8249SOL    HW136383   3.869   1.829   2.328 -0.0687  0.6654 -1.6017
 8249SOL    HW236384   3.978   1.932   2.335 -1.1317 -0.1081 -2.6069
 8250SOL     OW36385   0.020   4.147  10.631  0.9048 -0.3209  0.2620
 8250SOL    HW136386   4.721   4.157  10.719  0.1825  0.8177 -0.1628
 8250SOL    HW236387   4.688   4.191  10.581 -0.1781 -1.3204  0.8562
 8251SOL     OW36388   1.374   1.499   0.849  0.8286  0.4024  0.1850
 8251SOL    HW136389   1.368   1.423   0.906 -2.7738  0.0564 -0.6706
 8251SOL    HW236390   1.462   1.487   0.813  0.9514 -0.9742  0.9429
 8252SOL     OW36391   0.138   2.554   7.052  0.1551 -0.3679 -0.3011
 8252SOL    HW136392   0.156   2.512   6.968  1.6369 -0.2283 -0.0613
 8252SOL    HW236393   0.043   2.545   7.049  0.0878 -0.7326  3.0127
 8253SOL     OW36394   0.149   1.452   8.443  0.6483  0.7331  0.1444
 8253SOL    HW136395   0.224   1.504   8.413 -0.0286  1.3688 -0.4255
 8253SOL    HW236396   0.134   1.486   8.532  0.1402 -2.0352  1.1067
 8254SOL     OW36397   1.454   4.721   5.644  0.3775  0.0499  0.1062
 8254SOL    HW136398   1.374   0.032   5.666  0.8516  0.7474  0.2711
 8254SOL    HW236399   1.466   0.001   5.551 -0.6133 -0.3190 -0.0967
 8255SOL     OW36400   0.128   3.470   6.674  0.0965  0.2768 -0.2000
 8255SOL    HW136401   0.098   3.380   6.687 -2.8840  1.2588 -0.3144
 8255SOL    HW236402   0.102   3.516   6.754 -0.0073 -1.5218  0.8126
 8256SOL     OW36403   1.338   4.338   5.710 -0.3507 -0.4766 -0.6160
 8256SOL    HW136404   1.269   4.349   5.775  2.6595 -1.6404  2.8066
 8256SOL    HW236405   1.410   4.385   5.752 -0.0303  0.4958 -2.2692
 8257SOL     OW36406   0.619   1.806   4.042  0.0480 -0.2900  0.0897
 8257SOL    HW136407   0.591   1.721   4.077  0.2584 -0.3137  0.1972
 8257SOL    HW236408   0.664   1.843   4.117  0.5180 -1.1192  0.2268
 8258SOL     OW36409   2.083   0.004  13.820 -0.0154 -0.1173 -0.0987
 8258SOL    HW136410   2.103   0.051  13.739  1.4766  1.0581  0.9441
 8258SOL    HW236411   2.092   0.078  13.880 -0.3319  1.4173 -1.9506
 8259SOL     OW36412   1.349   0.712   1.890 -0.3929  0.2975 -0.2713
 8259SOL    HW136413   1.368   0.802   1.916  0.2938 -0.5428  2.0819
 8259SOL    HW236414   1.304   0.722   1.806 -0.9063 -0.7665 -0.1181
 8260SOL     OW36415   1.124   4.073  13.043 -0.1952  0.1980 -0.3459
 8260SOL    HW136416   1.210   4.088  13.003 -0.5305  1.6286 -0.5588
 8260SOL    HW236417   1.134   4.008  13.112 -1.2258 -0.3001 -0.6712
 8261SOL     OW36418   4.120   1.015   2.959  0.0599  0.7996  0.3875
 8261SOL    HW136419   4.101   1.013   2.865 -1.5924  3.4732  0.6592
 8261SOL    HW236420   4.079   1.100   2.976 -0.9118  0.7038 -1.5336
 8262SOL     OW36421   0.261   0.870   4.564 -0.4734  0.5590 -0.2925
 8262SOL    HW136422   0.330   0.933   4.545 -1.6280  1.8716 -0.1327
 8262SOL    HW236423   0.212   0.912   4.634 -0.3613  0.3679 -0.0974
 8263SOL     OW36424   3.097   2.073   1.203 -0.1767  0.1765  0.0516
 8263SOL    HW136425   3.066   2.143   1.260  0.6883 -0.5184  1.3750
 8263SOL    HW236426   3.192   2.079   1.195 -0.2946  1.1719 -0.6894
 8264SOL     OW36427   3.947   1.202   3.369 -0.0161  0.1222 -0.4924
 8264SOL    HW136428   4.040   1.215   3.385  0.2728  0.4862 -2.4265
 8264SOL    HW236429   3.910   1.281   3.409  1.1895  1.0839 -1.2478
 8265SOL     OW36430   0.510   2.779   2.920 -0.1224  0.0048 -0.6973
 8265SOL    HW136431   0.422   2.763   2.954  0.7377  0.7304  1.8740
 8265SOL    HW236432   0.528   2.867   2.954  0.7141 -0.2581 -0.4615
 8266SOL     OW36433   0.725   0.458   3.289 -0.6082  0.3842  0.3456
 8266SOL    HW136434   0.774   0.390   3.242  0.0905  0.2494  1.2606
 8266SOL    HW236435   0.742   0.432   3.379  1.6281  0.0353 -0.1592
 8267SOL     OW36436   3.152   0.806   5.686  0.0689  0.3085  0.1867
 8267SOL    HW136437   3.225   0.845   5.637 -1.0195 -1.1247 -2.5872
 8267SOL    HW236438   3.161   0.835   5.777  1.3301  0.5035  0.0130
 8268SOL     OW36439   4.128   2.291  14.393 -0.0611 -0.2628  0.1825
 8268SOL    HW136440   4.054   2.350  14.376 -0.4511 -0.7305  0.2677
 8268SOL    HW236441   4.077   2.240  14.456 -1.5730  2.1351  0.9227
 8269SOL     OW36442   2.978   2.235   7.324  0.5550 -0.3496  0.3190
 8269SOL    HW136443   2.970   2.325   7.294 -0.3154 -0.0347  1.5063
 8269SOL    HW236444   3.014   2.242   7.412 -1.3807 -2.5220  1.2942
 8270SOL     OW36445   0.268   1.252   2.475  0.0973 -0.5237  0.1250
 8270SOL    HW136446   0.250   1.256   2.569 -0.0789  1.4194  0.0039
 8270SOL    HW236447   0.225   1.168   2.456 -0.1507  0.2120 -2.5060
 8271SOL     OW36448   0.106   3.292   2.569  0.2832 -0.3789 -0.5132
 8271SOL    HW136449   0.149   3.378   2.567 -0.2106 -0.1762 -2.2155
 8271SOL    HW236450   0.121   3.261   2.480  1.1156 -1.0595 -0.1326
 8272SOL     OW36451   2.938   4.401   8.884 -0.0616  0.1011  0.0837
 8272SOL    HW136452   3.015   4.396   8.940 -0.4750 -2.0771  0.4544
 8272SOL    HW236453   2.881   4.348   8.940 -0.9219 -0.2034 -1.0878
 8273SOL     OW36454   0.460   0.883  12.715 -0.2304 -1.1384  0.5443
 8273SOL    HW136455   0.392   0.824  12.682  0.1730 -0.7038 -1.0728
 8273SOL    HW236456   0.417   0.968  12.710  2.1022 -0.1021 -2.2127
 8274SOL     OW36457   3.706   3.504  11.484  0.4583  0.1782  0.2627
 8274SOL    HW136458   3.654   3.432  11.449  0.3223  0.4535 -0.1025
 8274SOL    HW236459   3.714   3.475  11.575 -0.5854 -0.1745  0.2389
 8275SOL     OW36460   1.265   1.333   3.348 -0.4666  0.3882 -0.4974
 8275SOL    HW136461   1.193   1.271   3.351  0.5355 -0.8505 -2.4564
 8275SOL    HW236462   1.267   1.372   3.436 -1.6125  0.9122 -0.7077
 8276SOL     OW36463   4.623   3.923   7.154  0.2932  0.0596  0.1001
 8276SOL    HW136464   4.637   3.849   7.213  2.0896  0.4403  0.1566
 8276SOL    HW236465   4.546   3.963   7.194  1.2003  0.3046  1.6063
 8277SOL     OW36466   4.529   0.938   3.444 -0.3487  0.2384 -0.1573
 8277SOL    HW136467   4.584   1.003   3.400  0.4414 -0.7143 -0.5791
 8277SOL    HW236468   4.534   0.968   3.535 -0.5525 -1.1253  0.3014
 8278SOL     OW36469   1.967   3.942   8.527  0.0079 -0.2550 -0.6509
 8278SOL    HW136470   1.940   3.852   8.508 -0.9010  0.2945 -2.0104
 8278SOL    HW236471   1.979   3.951   8.622  0.7058  0.8659 -0.8533
 8279SOL     OW36472   1.239   2.824   6.405 -0.1584  0.0243 -0.2755
 8279SOL    HW136473   1.272   2.855   6.490 -1.7013 -1.1789  0.7620
 8279SOL    HW236474   1.317   2.855   6.359 -0.3344 -0.2631 -0.7629
 8280SOL     OW36475   2.022   3.890   7.140 -0.4094 -0.2845  0.0378
 8280SOL    HW136476   2.066   3.865   7.221 -1.0630  0.3771  0.5915
 8280SOL    HW236477   1.969   3.813   7.115 -0.8842  0.7948 -2.3246
 8281SOL     OW36478   2.688   1.192   8.582 -0.3705 -0.6067  0.2224
 8281SOL    HW136479   2.746   1.115   8.585 -1.4964 -1.4611  0.1401
 8281SOL    HW236480   2.659   1.198   8.673  1.3783  1.3104  0.6615
 8282SOL     OW36481   1.384   2.138   8.970  0.0151 -0.1104 -0.0904
 8282SOL    HW136482   1.435   2.069   8.927 -1.3154 -0.1937 -1.5351
 8282SOL    HW236483   1.441   2.215   8.961  1.4852 -1.0176  1.5497
 8283SOL     OW36484   4.148   2.420   3.716 -0.0658  0.0564 -0.0220
 8283SOL    HW136485   4.069   2.460   3.678 -3.2038 -2.6618  3.6368
 8283SOL    HW236486   4.213   2.486   3.692  3.4763 -3.8863 -1.1854
 8284SOL     OW36487   0.868   1.881  10.975  0.0385  0.4974  0.3778
 8284SOL    HW136488   0.921   1.884  11.055  0.8483 -1.3426 -0.0833
 8284SOL    HW236489   0.873   1.786  10.967 -0.6424  0.7434 -3.1193
 8285SOL     OW36490   1.479   3.651   2.048  0.2429  0.3747  0.2339
 8285SOL    HW136491   1.521   3.728   2.086  0.0246  1.2075 -1.2010
 8285SOL    HW236492   1.494   3.669   1.955  0.4340  1.1844  0.4245
 8286SOL     OW36493   0.686   3.169   9.539 -0.0686  0.0036 -0.0336
 8286SOL    HW136494   0.749   3.112   9.583  0.0407  0.9436  0.9995
 8286SOL    HW236495   0.605   3.149   9.585 -1.1907 -1.1236 -2.4407
 8287SOL     OW36496   4.000   3.827   1.504  0.4737  0.0926  0.0525
 8287SOL    HW136497   4.077   3.802   1.453 -1.3197 -0.7103 -2.2954
 8287SOL    HW236498   4.031   3.802   1.591  0.2968 -0.7846 -0.1281
 8288SOL     OW36499   2.537   1.369   2.920  0.1851  0.3644 -0.3026
 8288SOL    HW136500   2.622   1.362   2.877  0.4161  0.3961  0.1440
 8288SOL    HW236501   2.524   1.463   2.923  0.8945  0.4279  0.8438
 8289SOL     OW36502   2.217   4.103   6.144  0.0606  0.7180  0.5344
 8289SOL    HW136503   2.308   4.133   6.137 -0.5077  2.0284 -1.4221
 8289SOL    HW236504   2.182   4.129   6.059 -1.7373 -0.0145  1.0706
 8290SOL     OW36505   4.571   2.969   9.281  0.0386  0.5873  0.2127
 8290SOL    HW136506   4.655   3.009   9.257  0.7539 -1.4737 -0.6941
 8290SOL    HW236507   4.508   2.985   9.211  1.1122  1.4165 -0.5683
 8291SOL     OW36508   1.615   1.387   5.472  0.2456  0.2717  0.3206
 8291SOL    HW136509   1.702   1.417   5.498  0.8303 -2.8760  2.0468
 8291SOL    HW236510   1.640   1.307   5.425 -0.5283  0.4843 -0.4641
 8292SOL     OW36511   3.269   1.315   8.668 -0.2365 -0.2676  0.1560
 8292SOL    HW136512   3.340   1.302   8.732 -0.9204 -0.7653  0.8161
 8292SOL    HW236513   3.284   1.235   8.618 -1.0520  0.1122 -0.6863
 8293SOL     OW36514   3.802   2.113   1.656  0.3556  0.8041  0.3914
 8293SOL    HW136515   3.757   2.197   1.651  1.0767  1.2171  0.8643
 8293SOL    HW236516   3.738   2.042   1.648 -0.2773  1.3617  0.5456
 8294SOL     OW36517   0.949   4.505   6.683  0.6981  0.3059 -0.7952
 8294SOL    HW136518   1.044   4.512   6.675  0.8891 -0.4490  1.0237
 8294SOL    HW236519   0.917   4.595   6.671 -1.3659 -0.1074  1.7201
 8295SOL     OW36520   0.606   4.359   2.307 -0.3925  0.5010 -0.4000
 8295SOL    HW136521   0.577   4.435   2.357  0.6333  1.2022 -0.8703
 8295SOL    HW236522   0.636   4.397   2.224 -0.2374 -0.2805 -0.7005
 8296SOL     OW36523   1.259   1.813   2.989 -0.2889 -0.0046  0.0202
 8296SOL    HW136524   1.170   1.789   3.016 -0.5831  0.9424 -0.1305
 8296SOL    HW236525   1.296   1.845   3.071  0.1919  0.9018 -0.5640
 8297SOL     OW36526   2.204   4.734  15.322  0.0624  0.4552  0.2267
 8297SOL    HW136527   2.145   0.067  15.295  1.4311  1.5245  0.0410
 8297SOL    HW236528   2.239   4.701  15.239  0.5473  0.9104  0.2497
 8298SOL     OW36529   4.523   3.990   8.273 -0.0369 -0.4687 -0.4082
 8298SOL    HW136530   4.602   3.941   8.252  0.8148  0.9356 -0.4711
 8298SOL    HW236531   4.486   3.946   8.349  2.8271  2.4551  2.6439
 8299SOL     OW36532   4.410   1.166   7.842 -0.1738 -0.3437 -0.5317
 8299SOL    HW136533   4.432   1.159   7.749  0.2757 -0.2456 -0.4300
 8299SOL    HW236534   4.329   1.116   7.853 -1.7556  2.5471  0.9259
 8300SOL     OW36535   1.253   2.247  15.391  0.0884  0.3263 -0.4642
 8300SOL    HW136536   1.292   2.264  15.477 -0.8130  0.3937 -0.0707
 8300SOL    HW236537   1.286   2.309  15.326 -0.0773  2.9497  1.9180
 8301SOL     OW36538   3.202   2.873   2.098  0.2729 -0.2728 -0.3281
 8301SOL    HW136539   3.293   2.844   2.085 -0.5159 -2.0726 -1.9495
 8301SOL    HW236540   3.210   2.954   2.048  4.2613 -0.5568 -0.1892
 8302SOL     OW36541   0.877   2.105  12.315  0.3528  0.5794  0.0269
 8302SOL    HW136542   0.792   2.080  12.277 -0.3886  0.8200  1.5120
 8302SOL    HW236543   0.920   2.020  12.303 -1.0171 -0.1133 -0.0415
 8303SOL     OW36544   1.125   1.052  12.454  0.2683 -0.1689 -0.0149
 8303SOL    HW136545   1.103   1.005  12.373  0.7233 -0.4558  0.0283
 8303SOL    HW236546   1.149   0.982  12.514 -0.6754 -1.8910 -1.6359
 8304SOL     OW36547   4.456   3.811   6.716 -0.5848  0.0235  0.0444
 8304SOL    HW136548   4.446   3.717   6.702 -0.9061  0.1146 -0.3383
 8304SOL    HW236549   4.529   3.810   6.777 -0.5454 -1.9344 -0.0619
 8305SOL     OW36550   4.195   2.792   0.137 -0.1802  0.1500 -0.0852
 8305SOL    HW136551   4.167   2.826   0.051 -0.6270 -1.3335 -0.5279
 8305SOL    HW236552   4.288   2.794   0.117  0.0287 -0.4067  0.8676
 8306SOL     OW36553   2.526   0.905   4.635 -0.4044 -0.0565 -0.1892
 8306SOL    HW136554   2.438   0.935   4.660 -0.4393 -0.8554  0.6032
 8306SOL    HW236555   2.522   0.902   4.539  0.5433 -3.8058 -0.0877
 8307SOL     OW36556   2.637   1.536  16.854  0.0153 -0.4818  0.2613
 8307SOL    HW136557   2.701   1.497  16.913  0.1209 -0.4175  0.1871
 8307SOL    HW236558   2.569   1.563  16.916 -0.8448 -0.9900 -0.4570
 8308SOL     OW36559   2.117   3.970  10.964  0.4925  0.3972 -0.6103
 8308SOL    HW136560   2.118   3.876  10.946  0.8012  0.3711 -0.4572
 8308SOL    HW236561   2.027   3.999  10.948 -0.3785 -1.0029  1.7609
 8309SOL     OW36562   1.277   1.222   2.624 -0.0345 -0.0956 -0.0942
 8309SOL    HW136563   1.275   1.304   2.673  2.5838  0.3273 -0.6953
 8309SOL    HW236564   1.369   1.230   2.598 -0.9795 -0.3062 -3.4595
 8310SOL     OW36565   1.243   2.238   4.067  0.2403  0.2121 -0.0687
 8310SOL    HW136566   1.296   2.318   4.060  2.1347 -0.9163  1.4000
 8310SOL    HW236567   1.300   2.196   4.131 -1.5700 -0.6560  0.9827
 8311SOL     OW36568   2.345   1.243  12.238  0.4199 -0.0233  0.4775
 8311SOL    HW136569   2.439   1.251  12.251  0.6603 -3.3115  0.7945
 8311SOL    HW236570   2.340   1.199  12.153  0.7848  2.0330 -0.5950
 8312SOL     OW36571   3.985   4.217   8.378 -0.5655 -0.2661  0.3221
 8312SOL    HW136572   4.050   4.175   8.322 -0.1681  1.0329 -0.1872
 8312SOL    HW236573   3.981   4.156   8.452 -0.8146  0.8697  1.2552
 8313SOL     OW36574   2.370   1.487   7.670  0.2235 -0.0368  0.2152
 8313SOL    HW136575   2.326   1.569   7.691 -0.4464 -0.6983  1.3984
 8313SOL    HW236576   2.340   1.436   7.745  1.7943 -2.1036 -0.5528
 8314SOL     OW36577   1.502   2.243  14.742  0.3973  0.2790  0.2010
 8314SOL    HW136578   1.428   2.227  14.684  0.4051 -3.6131  1.2953
 8314SOL    HW236579   1.554   2.307  14.692  0.2586  0.1623 -0.0950
 8315SOL     OW36580   1.448   4.430  11.535  0.4435 -0.4828 -0.2923
 8315SOL    HW136581   1.475   4.508  11.583 -1.9463  0.2144 -0.0774
 8315SOL    HW236582   1.366   4.422  11.585  0.0379 -0.7558 -1.0042
 8316SOL     OW36583   2.932   2.122   7.088  0.0962 -0.0819  0.3460
 8316SOL    HW136584   2.999   2.055   7.101  0.8281  0.7220  0.7018
 8316SOL    HW236585   2.917   2.161   7.174 -2.0953  0.0049 -0.0710
 8317SOL     OW36586   0.485   1.985  15.434  0.8148 -0.3460  0.1571
 8317SOL    HW136587   0.557   2.037  15.469  1.0481  0.9482 -2.2297
 8317SOL    HW236588   0.528   1.905  15.403 -1.4814 -0.7329 -2.0729
 8318SOL     OW36589   4.352   3.807   5.760 -0.1230  0.3013 -0.2677
 8318SOL    HW136590   4.294   3.785   5.833 -1.3587 -1.3042 -1.7580
 8318SOL    HW236591   4.366   3.730   5.705  0.1852 -0.6451  1.1387
 8319SOL     OW36592   1.669   4.071   3.749 -0.2289  0.0594 -0.5067
 8319SOL    HW136593   1.741   4.132   3.765 -0.9133  1.5535 -3.0390
 8319SOL    HW236594   1.713   3.986   3.752 -3.0552 -1.4270 -0.7591
 8320SOL     OW36595   1.047   1.679   6.254  0.2448 -0.4693  0.1620
 8320SOL    HW136596   1.037   1.731   6.334  0.9363  3.9073 -2.5601
 8320SOL    HW236597   1.101   1.732   6.196 -0.5466  1.2484  0.9956
 8321SOL     OW36598   2.725   4.182   5.399 -0.3681  0.2465 -0.0082
 8321SOL    HW136599   2.733   4.221   5.312 -0.3280 -1.4703 -0.7856
 8321SOL    HW236600   2.713   4.255   5.459  0.4493 -0.3540  0.8761
 8322SOL     OW36601   2.434   4.048   7.064 -0.2428  0.1994  0.0414
 8322SOL    HW136602   2.488   3.976   7.097 -0.2655  0.9599  1.7693
 8322SOL    HW236603   2.469   4.126   7.107 -1.9724  0.2311  1.4216
 8323SOL     OW36604   0.113   3.587   2.456  0.0692  0.3914 -0.3029
 8323SOL    HW136605   0.047   3.651   2.482 -0.1129 -0.9879  2.6108
 8323SOL    HW236606   0.057   3.534   2.399  2.7085 -3.1414  0.3812
 8324SOL     OW36607   0.728   0.851   3.974  0.1863 -0.0833  0.0723
 8324SOL    HW136608   0.778   0.911   3.919 -1.9690 -0.7029 -2.5020
 8324SOL    HW236609   0.773   0.767   3.963  1.0794  0.2447  1.1099
 8325SOL     OW36610   2.923   4.306   2.722 -0.6043  0.4143 -0.4486
 8325SOL    HW136611   2.989   4.300   2.652 -0.6543  0.2942 -0.4863
 8325SOL    HW236612   2.871   4.377   2.684 -2.2240  0.2706  1.5533
 8326SOL     OW36613   2.589   3.652  13.259  0.3004 -0.1700  0.0355
 8326SOL    HW136614   2.604   3.564  13.225 -0.0491 -0.3617  0.3821
 8326SOL    HW236615   2.623   3.697  13.182  0.7331 -0.8851 -0.1857
 8327SOL     OW36616   0.437   3.942   7.202  0.3325 -0.0418  0.2246
 8327SOL    HW136617   0.449   3.982   7.116  0.5851  0.6436  0.5789
 8327SOL    HW236618   0.526   3.908   7.218 -0.4306 -1.3666  1.7250
 8328SOL     OW36619   3.017   1.267   8.821  0.3426 -0.7132 -0.2459
 8328SOL    HW136620   3.084   1.300   8.761 -0.6751 -3.0492 -2.6978
 8328SOL    HW236621   2.999   1.331   8.890  1.9972 -0.2131 -0.2794
 8329SOL     OW36622   4.131   2.647  13.291 -0.0961  0.2975  0.0447
 8329SOL    HW136623   4.116   2.571  13.348 -0.7974  1.3182  1.2066
 8329SOL    HW236624   4.046   2.657  13.248 -0.8705 -0.7922  1.3237
 8330SOL     OW36625   2.790   3.557   0.529  0.3975  0.0124  0.0878
 8330SOL    HW136626   2.809   3.541   0.622  1.7711 -3.4073 -0.7693
 8330SOL    HW236627   2.854   3.510   0.476 -1.5193 -2.0290 -0.4335
 8331SOL     OW36628   1.356   2.203   7.372  0.5501  0.2032 -0.1305
 8331SOL    HW136629   1.270   2.177   7.338  0.0198  0.2709  1.1589
 8331SOL    HW236630   1.389   2.122   7.411  2.3833  0.3471 -1.3481
 8332SOL     OW36631   1.697   2.911   4.569  0.4941  0.3830 -0.0084
 8332SOL    HW136632   1.626   2.916   4.633  1.3518  0.3026  0.9364
 8332SOL    HW236633   1.652   2.859   4.501 -0.4004 -0.7677  1.4644
 8333SOL     OW36634   3.731   0.197  17.156 -0.6121 -1.0728 -0.1644
 8333SOL    HW136635   3.788   0.123  17.177 -0.3717 -1.3891 -1.9246
 8333SOL    HW236636   3.717   0.195  17.061 -0.6828 -0.1553 -0.1734
 8334SOL     OW36637   0.853   3.434   5.375 -0.2905  0.3503 -0.3658
 8334SOL    HW136638   0.899   3.362   5.332  0.4975  0.3447  0.4940
 8334SOL    HW236639   0.866   3.409   5.466 -1.3953 -1.0638 -0.5990
 8335SOL     OW36640   1.525   1.084   0.518  0.6657 -0.3022 -0.2916
 8335SOL    HW136641   1.619   1.080   0.535  0.6441  2.1481  0.3369
 8335SOL    HW236642   1.488   1.128   0.594 -0.1511 -2.1325  0.3755
 8336SOL     OW36643   2.096   2.410   2.729  0.1382  0.3098  0.5339
 8336SOL    HW136644   2.083   2.398   2.635 -0.2610 -4.0316  1.1559
 8336SOL    HW236645   2.173   2.465   2.739 -0.4709  1.5717 -1.5720
 8337SOL     OW36646   3.479   1.877  14.066  0.4784  0.4327  0.5098
 8337SOL    HW136647   3.476   1.814  14.138 -0.1345  1.4910  1.4003
 8337SOL    HW236648   3.467   1.960  14.110  1.8316  2.3259 -2.6918
 8338SOL     OW36649   0.256   4.194  10.940 -0.1104 -0.1923 -0.0348
 8338SOL    HW136650   0.326   4.150  10.892  1.2257  0.9415  0.8952
 8338SOL    HW236651   0.191   4.124  10.948  0.0493 -0.1084  1.9571
 8339SOL     OW36652   3.912   3.748  17.587 -0.4166  0.1343  0.0173
 8339SOL    HW136653   3.969   3.824  17.575 -0.4579 -0.3178 -2.9055
 8339SOL    HW236654   3.918   3.706  17.502 -0.2202  2.2538 -1.0092
 8340SOL     OW36655   2.130   0.022   7.736 -0.5176  0.5278  0.2023
 8340SOL    HW136656   2.057   4.726   7.683  0.9082 -3.6082  0.8202
 8340SOL    HW236657   2.159   4.679   7.779 -1.0936 -0.2323 -0.8200
 8341SOL     OW36658   0.973   2.015   3.869  0.0767  0.0843  0.0377
 8341SOL    HW136659   1.037   1.988   3.803 -2.5846  1.4129 -3.1030
 8341SOL    HW236660   0.888   1.995   3.828  0.1696 -0.4473  0.1003
 8342SOL     OW36661   4.015   1.281  15.368  0.4252  0.1657 -0.4353
 8342SOL    HW136662   4.012   1.299  15.462 -1.1821  1.1028 -0.6695
 8342SOL    HW236663   3.956   1.207  15.355  0.6361  0.1411 -1.2291
 8343SOL     OW36664   2.015   0.211  15.140  0.4304  0.2629 -0.0023
 8343SOL    HW136665   1.978   0.140  15.087 -0.7966 -1.2660  2.8589
 8343SOL    HW236666   1.954   0.282  15.121 -1.6323 -1.7628 -1.0399
 8344SOL     OW36667   4.697   2.974   0.643 -0.4099 -0.0180 -0.1509
 8344SOL    HW136668   4.721   2.982   0.736  1.6955  1.9717 -0.8740
 8344SOL    HW236669   4.603   2.988   0.653 -0.8430 -2.8594 -0.3775
 8345SOL     OW36670   1.991   1.722   9.001  0.2670 -0.4496  1.0400
 8345SOL    HW136671   1.897   1.710   8.992  0.2799  0.4911 -0.5530
 8345SOL    HW236672   2.008   1.646   9.056 -0.1841 -0.7577  0.7498
 8346SOL     OW36673   1.152   2.905   8.916  0.0760 -0.4640  0.0051
 8346SOL    HW136674   1.240   2.876   8.891  0.7433 -0.1714  2.0311
 8346SOL    HW236675   1.102   2.878   8.839  0.2005 -1.2457  0.2059
 8347SOL     OW36676   0.647   0.922  12.879  0.0679 -0.2616 -0.0528
 8347SOL    HW136677   0.575   0.950  12.936 -0.6322 -0.0440 -1.0349
 8347SOL    HW236678   0.592   0.905  12.802 -2.6309 -2.1947  2.2719
 8348SOL     OW36679   4.157   2.984  15.643  0.0917  0.2434 -0.4968
 8348SOL    HW136680   4.074   2.938  15.631  0.6902 -1.5117  1.9485
 8348SOL    HW236681   4.166   3.001  15.549 -1.1807 -2.7381 -1.1848
 8349SOL     OW36682   0.747   0.923   5.743  0.5641  0.1015  0.4569
 8349SOL    HW136683   0.701   0.910   5.660 -0.9006  1.2807  1.0866
 8349SOL    HW236684   0.793   1.004   5.722  1.6434 -0.6148  0.0793
 8350SOL     OW36685   3.583   2.476   3.273  0.2232  0.0870 -0.2714
 8350SOL    HW136686   3.581   2.568   3.301 -2.0370  0.7224 -2.5347
 8350SOL    HW236687   3.665   2.440   3.306 -0.4185 -1.1526 -0.0406
 8351SOL     OW36688   2.609   0.615  10.807 -0.3496  0.6150 -0.4476
 8351SOL    HW136689   2.585   0.608  10.715  0.4151 -1.1884 -0.5000
 8351SOL    HW236690   2.568   0.697  10.835 -0.9752  0.3096 -0.4925
 8352SOL     OW36691   4.131   1.411   8.495 -1.0594 -0.5272  0.3630
 8352SOL    HW136692   4.188   1.480   8.530  1.1324 -1.0705 -2.0551
 8352SOL    HW236693   4.069   1.468   8.449  1.5375  0.6757 -1.6459
 8353SOL     OW36694   0.838   4.122   5.417  0.0452 -0.1621  0.6422
 8353SOL    HW136695   0.885   4.043   5.446 -0.1422  0.1465  1.7602
 8353SOL    HW236696   0.748   4.107   5.443 -0.6759  1.2172 -1.1036
 8354SOL     OW36697   3.793   3.848  15.411  0.0204 -0.4404  0.4299
 8354SOL    HW136698   3.824   3.906  15.342 -0.4094  0.0630  0.6594
 8354SOL    HW236699   3.717   3.810  15.366  1.3957  0.4287 -2.6176
 8355SOL     OW36700   2.230   3.868   8.093  0.1414  0.5748  0.2912
 8355SOL    HW136701   2.281   3.840   8.017  0.3388  1.2251  0.1889
 8355SOL    HW236702   2.141   3.847   8.067  0.1989  0.1180  0.4662
 8356SOL     OW36703   2.048   4.260  17.461  0.0278  0.0897  0.0063
 8356SOL    HW136704   2.019   4.181  17.506  0.3982  0.3425  0.6988
 8356SOL    HW236705   2.133   4.237  17.424  0.5144  0.5805  0.8063
 8357SOL     OW36706   0.071   4.658   3.577  0.2027 -0.2621 -0.5984
 8357SOL    HW136707   0.016   4.644   3.499  0.2161 -0.0459 -0.6465
 8357SOL    HW236708   0.096   4.569   3.603 -1.8010 -0.9107 -0.8104
 8358SOL     OW36709   4.580   4.736  14.930  0.3286  0.1485  0.7546
 8358SOL    HW136710   4.645   4.677  14.892  1.6678  1.3132  1.2347
 8358SOL    HW236711   4.573   4.701  15.019 -0.8530  0.3846  0.7577
 8359SOL     OW36712   0.398   0.991   2.303  0.4861 -0.1488 -0.6062
 8359SOL    HW136713   0.306   0.980   2.327  0.5619 -1.9300 -1.1124
 8359SOL    HW236714   0.440   0.982   2.388  0.6391 -1.2051 -0.7959
 8360SOL     OW36715   2.926   0.894  12.010 -0.5651 -0.0528  0.1770
 8360SOL    HW136716   2.926   0.799  12.024  0.5928  0.1763  1.7428
 8360SOL    HW236717   2.879   0.909  11.928 -1.6003 -1.3880  0.5055
 8361SOL     OW36718   1.594   2.970  14.235 -0.3390  0.2992 -0.4224
 8361SOL    HW136719   1.508   2.961  14.275  0.8273 -1.2439  1.6856
 8361SOL    HW236720   1.623   3.045  14.287 -1.5283  0.4916 -0.0454
 8362SOL     OW36721   3.892   0.962   2.447 -0.3751  0.2081  0.5691
 8362SOL    HW136722   3.846   1.000   2.371  0.9619  1.1854  0.2480
 8362SOL    HW236723   3.814   0.972   2.502 -1.0199  1.7288 -0.5761
 8363SOL     OW36724   1.362   0.305   2.926  0.2034  0.3611  0.2812
 8363SOL    HW136725   1.359   0.359   2.846  0.2919  0.8704  0.6214
 8363SOL    HW236726   1.446   0.336   2.960  0.7769 -0.9574  0.0713
 8364SOL     OW36727   3.208   1.858   7.424  0.1676  0.6557 -0.4591
 8364SOL    HW136728   3.304   1.864   7.423  0.1686  0.9108  1.7452
 8364SOL    HW236729   3.189   1.820   7.509 -1.2518 -0.6683 -1.3660
 8365SOL     OW36730   1.519   2.410   3.417 -0.0743  0.0603 -0.0134
 8365SOL    HW136731   1.497   2.334   3.471  2.3399 -1.4003 -1.0779
 8365SOL    HW236732   1.595   2.453   3.457 -1.6268  2.6869  0.0535
 8366SOL     OW36733   2.418   4.464  11.597 -0.2326  0.0733 -0.5763
 8366SOL    HW136734   2.455   4.390  11.549 -1.3447 -1.5183  1.0252
 8366SOL    HW236735   2.477   4.537  11.577 -0.2344  1.0097  2.7381
 8367SOL     OW36736   2.605   3.775   5.029 -0.1189  0.2762 -0.1286
 8367SOL    HW136737   2.639   3.826   5.103  2.1992  0.4263 -1.3091
 8367SOL    HW236738   2.512   3.787   5.048 -0.0021  0.6835  0.1946
 8368SOL     OW36739   3.291   2.326   6.612 -0.1343 -0.3110 -0.3343
 8368SOL    HW136740   3.264   2.340   6.522  0.1699  0.5590 -0.2831
 8368SOL    HW236741   3.314   2.233   6.615 -1.1374 -0.5429  0.5819
 8369SOL     OW36742   1.127   3.816   6.310 -0.1266  0.4286  0.1950
 8369SOL    HW136743   1.174   3.809   6.393  0.2910  0.2214 -0.0588
 8369SOL    HW236744   1.074   3.893   6.329  0.4554  0.8308  0.1958
 8370SOL     OW36745   1.933   3.765   0.802 -0.0843  0.5899  0.2638
 8370SOL    HW136746   2.000   3.745   0.737  0.0851 -0.6036  0.8073
 8370SOL    HW236747   1.932   3.679   0.844 -1.5839 -0.0471 -1.0529
 8371SOL     OW36748   1.255   2.808  12.475 -0.6170  0.3781  0.6496
 8371SOL    HW136749   1.224   2.771  12.393 -3.0750 -0.5902  2.0304
 8371SOL    HW236750   1.289   2.896  12.458  0.8492  0.1018  2.1314
 8372SOL     OW36751   1.940   3.954   5.915  0.6221 -0.6875  0.4540
 8372SOL    HW136752   2.014   3.912   5.958  2.7149  1.7457 -0.7539
 8372SOL    HW236753   1.981   4.010   5.849  0.5848  0.2159  1.1828
 8373SOL     OW36754   4.389   1.929   8.135  0.0223  0.0009 -0.0103
 8373SOL    HW136755   4.333   1.907   8.061  0.3394  0.7668 -0.4719
 8373SOL    HW236756   4.460   1.983   8.101 -0.9206  0.6711 -0.9035
 8374SOL     OW36757   1.758   3.594   2.437  0.2420  0.0344  0.2546
 8374SOL    HW136758   1.687   3.553   2.387 -1.0239  1.8131  0.5777
 8374SOL    HW236759   1.741   3.688   2.432 -1.0577 -0.0876  2.2852
 8375SOL     OW36760   0.996   2.104   5.180  0.2987 -0.0070  0.6888
 8375SOL    HW136761   1.004   2.028   5.237  2.7220  0.6153  1.1659
 8375SOL    HW236762   0.945   2.162   5.236  0.1349  0.0379  0.4929
 8376SOL     OW36763   1.552   2.836   5.727 -1.1364 -0.2451  0.1322
 8376SOL    HW136764   1.524   2.782   5.801 -1.5762 -0.4920 -0.2097
 8376SOL    HW236765   1.622   2.778   5.695  0.1338  0.1438  2.2321
 8377SOL     OW36766   2.534   4.453  17.033 -0.3337  0.0147 -0.4641
 8377SOL    HW136767   2.440   4.458  17.013 -0.1239  2.4935 -0.7692
 8377SOL    HW236768   2.551   4.507  17.110 -0.8146 -2.0069  1.0828
 8378SOL     OW36769   4.173   2.558   4.310  0.6300 -0.0694 -0.3923
 8378SOL    HW136770   4.225   2.566   4.390 -2.6671  1.7307  1.5884
 8378SOL    HW236771   4.130   2.643   4.300 -0.8184 -1.0764 -2.8246
 8379SOL     OW36772   1.429   2.043   8.198 -0.0654 -0.0362 -0.3855
 8379SOL    HW136773   1.434   1.964   8.251 -1.2227 -0.2881 -0.6580
 8379SOL    HW236774   1.373   2.023   8.123  1.5566  1.2650 -1.9485
 8380SOL     OW36775   4.666   3.054   3.931 -0.4002 -0.2855 -0.0576
 8380SOL    HW136776   4.709   2.987   3.878 -0.0527 -0.5515  0.5542
 8380SOL    HW236777   4.598   3.081   3.870 -0.3189 -0.2451 -0.1297
 8381SOL     OW36778   1.134   2.726   1.080 -0.0320  0.1923  0.3196
 8381SOL    HW136779   1.060   2.679   1.042  1.5754 -2.2044  0.0930
 8381SOL    HW236780   1.124   2.816   1.051 -0.1207  0.0925  0.0365
 8382SOL     OW36781   1.198   1.038  15.272 -0.5687 -0.4104 -0.2038
 8382SOL    HW136782   1.230   0.965  15.326  2.4419  0.6169 -0.6296
 8382SOL    HW236783   1.161   0.985  15.202  0.1214 -0.8221 -0.2567
 8383SOL     OW36784   2.978   3.258   0.102  0.2529 -0.0879  0.1598
 8383SOL    HW136785   3.022   3.187   0.054  0.5511  0.0955  0.1629
 8383SOL    HW236786   2.894   3.276   0.061 -0.1632 -0.2997  0.9068
 8384SOL     OW36787   4.608   2.717   8.085  0.1503  0.7874 -0.2175
 8384SOL    HW136788   4.623   2.771   8.163  0.5534  0.2447  0.0823
 8384SOL    HW236789   4.699   2.687   8.075 -0.6490 -1.1613 -1.6982
 8385SOL     OW36790   4.106   0.272   7.489 -0.7308 -0.0926 -0.0063
 8385SOL    HW136791   4.202   0.268   7.497 -0.7294 -1.0877 -0.5104
 8385SOL    HW236792   4.100   0.303   7.399  0.4138 -0.8367 -0.3405
 8386SOL     OW36793   0.413   1.160  13.222  0.0520  0.1903 -0.0308
 8386SOL    HW136794   0.464   1.217  13.164 -3.2255 -0.5518 -3.6082
 8386SOL    HW236795   0.397   1.081  13.171 -0.4910 -1.2202  2.3579
 8387SOL     OW36796   3.718   4.327  11.503 -0.1591  0.0746  0.5409
 8387SOL    HW136797   3.688   4.330  11.594  0.8625  1.2674  0.8463
 8387SOL    HW236798   3.768   4.245  11.497  1.2764  0.9008  1.1459
 8388SOL     OW36799   1.184   0.277  17.479  0.2215  0.0187 -0.0184
 8388SOL    HW136800   1.189   0.224  17.559  0.7528  1.4243  0.8915
 8388SOL    HW236801   1.265   0.329  17.474  1.8998 -2.3195  2.6213
 8389SOL     OW36802   1.834   0.421   2.932  0.0254 -0.1692  0.3157
 8389SOL    HW136803   1.893   0.413   3.007  0.0802 -0.7880  0.2092
 8389SOL    HW236804   1.882   0.494   2.893 -0.0701 -0.0194  0.4831
 8390SOL     OW36805   4.321   3.538  13.813  0.0195 -0.3204  0.1343
 8390SOL    HW136806   4.270   3.461  13.789 -1.4363  0.2025  1.5478
 8390SOL    HW236807   4.262   3.583  13.873  0.2627 -2.9404  2.3289
 8391SOL     OW36808   4.664   4.434   6.737  0.3287  0.3414 -0.4321
 8391SOL    HW136809   4.683   4.371   6.668  2.1701  0.8370 -0.3679
 8391SOL    HW236810   4.674   4.368   6.806 -2.7794  1.5017  1.1483
 8392SOL     OW36811   1.890   2.997   1.122 -0.8631  0.0200  0.0104
 8392SOL    HW136812   1.816   2.987   1.183 -0.4504 -0.0526  0.4989
 8392SOL    HW236813   1.923   3.086   1.137 -1.7073  0.4817 -0.8195
 8393SOL     OW36814   4.201   0.203  15.352  0.1518 -0.2684 -0.0466
 8393SOL    HW136815   4.197   0.294  15.324 -0.9555 -0.8957 -1.8445
 8393SOL    HW236816   4.246   0.170  15.274  0.6772 -1.3032  0.6849
 8394SOL     OW36817   0.056   3.405   1.845 -0.4144 -0.4945 -0.1209
 8394SOL    HW136818   0.042   3.403   1.750 -1.1405 -1.1992  0.0080
 8394SOL    HW236819   4.711   3.376   1.884 -0.1736 -0.4654  0.4114
 8395SOL     OW36820   2.322   0.424   7.347 -0.3999 -0.5621 -0.6536
 8395SOL    HW136821   2.364   0.386   7.424  1.1183  1.8145 -0.3051
 8395SOL    HW236822   2.270   0.498   7.379 -1.4763 -2.8927  2.9545
 8396SOL     OW36823   0.654   1.534   9.027  0.4539  0.0292  0.1038
 8396SOL    HW136824   0.673   1.596   9.097  2.7229 -0.1660 -0.3333
 8396SOL    HW236825   0.743   1.507   9.003  1.3304  1.2016  2.0577
 8397SOL     OW36826   4.157   1.050  11.197  0.3459  0.1722 -0.0688
 8397SOL    HW136827   4.168   0.977  11.136 -1.1634 -0.4959  0.4658
 8397SOL    HW236828   4.156   1.129  11.144 -2.0024 -0.8117 -1.4621
 8398SOL     OW36829   3.952   2.637   4.011 -0.1411  0.4053 -0.6346
 8398SOL    HW136830   3.907   2.717   3.983  1.0692  1.3923  0.2560
 8398SOL    HW236831   3.925   2.631   4.103 -0.2383 -2.2960 -0.8392
 8399SOL     OW36832   1.682   3.113   7.779 -0.1188 -0.2786 -0.4310
 8399SOL    HW136833   1.652   3.022   7.789 -0.6211  0.0121  0.8028
 8399SOL    HW236834   1.655   3.136   7.690 -0.9678 -1.4202 -0.4683
 8400SOL     OW36835   4.428   4.471  10.019 -0.5262  0.0052 -0.4326
 8400SOL    HW136836   4.487   4.524   9.965  0.2628 -2.1552 -1.6685
 8400SOL    HW236837   4.427   4.392   9.965  2.2146 -0.4254  0.1510
 8401SOL     OW36838   3.244   2.998  13.692 -0.0007 -0.0405 -0.2365
 8401SOL    HW136839   3.324   3.045  13.716  0.5794  0.0494 -2.3133
 8401SOL    HW236840   3.257   2.921  13.747  0.9934  0.7060  0.5781
 8402SOL     OW36841   0.094   4.101   7.385 -0.1738  0.4968 -0.0409
 8402SOL    HW136842   0.127   4.015   7.359 -2.0483 -0.7303  1.5824
 8402SOL    HW236843   0.103   4.102   7.481  1.3000  1.7125 -0.1924
 8403SOL     OW36844   4.131   1.155  13.811 -0.3964  0.0862 -0.5737
 8403SOL    HW136845   4.126   1.250  13.810  1.1855  0.1895  0.3862
 8403SOL    HW236846   4.192   1.141  13.739  0.0222 -1.2741  0.0254
 8404SOL     OW36847   0.946   3.942   1.910  0.8979  0.2070 -0.1491
 8404SOL    HW136848   1.010   3.888   1.957 -0.3803 -0.4925  0.7882
 8404SOL    HW236849   0.920   4.009   1.973  1.4594  0.9757 -0.7361
 8405SOL     OW36850   3.216   2.168   7.184 -0.1105  0.3937 -0.3698
 8405SOL    HW136851   3.191   2.240   7.243 -1.0037  0.8209 -1.2854
 8405SOL    HW236852   3.145   2.105   7.183 -0.2588  0.5834 -1.4055
 8406SOL     OW36853   1.162   1.525   1.509 -0.1639 -0.0610  0.9183
 8406SOL    HW136854   1.146   1.542   1.602 -0.7830  0.5763  0.6972
 8406SOL    HW236855   1.164   1.430   1.512  0.7853 -0.0824 -0.6960
 8407SOL     OW36856   0.423   4.111   8.424  0.7780  0.7010  0.1798
 8407SOL    HW136857   0.400   4.039   8.483  4.7304  1.1514  2.3030
 8407SOL    HW236858   0.443   4.063   8.344 -0.2245  0.3758  0.1334
 8408SOL     OW36859   0.072   4.516   6.450  0.1023 -0.1895 -0.3285
 8408SOL    HW136860   0.067   4.427   6.486 -0.2196 -0.2592 -0.5475
 8408SOL    HW236861   4.716   4.536   6.452  0.3128  0.7323  0.5546
 8409SOL     OW36862   1.556   4.023   5.023 -0.7611  0.2015 -0.0778
 8409SOL    HW136863   1.507   3.941   5.019  1.8227 -1.2311 -2.9642
 8409SOL    HW236864   1.582   4.015   5.114 -0.6782 -3.7866 -0.4388
 8410SOL     OW36865   3.856   3.069  17.493 -0.3670 -0.5014  0.4076
 8410SOL    HW136866   3.795   3.109  17.555  0.6240  1.1855  0.2781
 8410SOL    HW236867   3.927   3.132  17.492  0.8146 -1.7913  2.5524
 8411SOL     OW36868   4.175   1.667   4.658 -0.3351  0.0944 -0.1478
 8411SOL    HW136869   4.120   1.710   4.722  1.9079  0.5992  1.4463
 8411SOL    HW236870   4.237   1.739   4.648 -0.6503  0.1217 -1.8790
 8412SOL     OW36871   4.311   2.234   8.029  0.2502  0.0463  0.5972
 8412SOL    HW136872   4.350   2.320   8.044 -1.7175  0.9348  0.5925
 8412SOL    HW236873   4.244   2.228   8.097 -2.0493 -1.0522 -1.7538
 8413SOL     OW36874   1.579   0.950  11.059  0.0928  0.1536  0.9597
 8413SOL    HW136875   1.516   0.944  10.987  0.4402 -1.4785  0.8047
 8413SOL    HW236876   1.521   0.942  11.134  1.6496  1.5363  2.3081
 8414SOL     OW36877   3.299   2.870   3.826 -0.1892 -0.4337 -0.1433
 8414SOL    HW136878   3.308   2.803   3.758  0.4626  0.1716 -0.6539
 8414SOL    HW236879   3.230   2.920   3.783 -1.6505 -2.8627 -0.6069
 8415SOL     OW36880   0.702   1.060   0.443  0.1535  0.4217 -0.0111
 8415SOL    HW136881   0.622   1.111   0.429 -0.5334  0.1678  3.1237
 8415SOL    HW236882   0.694   1.014   0.526 -0.2974  0.7973  0.1556
 8416SOL     OW36883   2.700   2.987   0.789 -0.4828 -0.4571 -0.2286
 8416SOL    HW136884   2.617   2.947   0.763 -0.5791 -0.1829 -0.3427
 8416SOL    HW236885   2.754   2.917   0.825 -0.3431 -0.7092 -0.9268
 8417SOL     OW36886   4.408   2.988   1.443  0.5269  0.1222  0.1491
 8417SOL    HW136887   4.470   3.045   1.397 -1.8448  1.5513 -1.3070
 8417SOL    HW236888   4.455   2.909   1.470 -0.9999 -1.4333 -1.7629
 8418SOL     OW36889   0.791   2.144   9.893  0.1051  0.2237 -0.1350
 8418SOL    HW136890   0.824   2.067   9.846  1.3773  0.9039 -0.3444
 8418SOL    HW236891   0.802   2.121   9.985 -1.9111  0.4490  0.1733
 8419SOL     OW36892   1.367   3.794   3.789 -0.3925 -0.4346 -0.0725
 8419SOL    HW136893   1.278   3.762   3.807 -0.2526 -2.2930 -2.7794
 8419SOL    HW236894   1.381   3.829   3.877  1.2135  1.1928 -0.9966
 8420SOL     OW36895   1.358   3.350  16.716  0.0658 -0.1887 -0.1271
 8420SOL    HW136896   1.364   3.274  16.657  0.0560  1.4270 -2.1932
 8420SOL    HW236897   1.395   3.426  16.672  2.0916 -1.3870 -0.4854
 8421SOL     OW36898   4.659   3.250  12.350 -0.1069 -0.4242  0.2006
 8421SOL    HW136899   4.614   3.317  12.402  4.4523  1.8415  1.2174
 8421SOL    HW236900   4.737   3.301  12.330 -0.3511  0.4431  1.4306
 8422SOL     OW36901   0.089   2.551   0.576 -0.5829  0.0839 -0.3954
 8422SOL    HW136902   0.058   2.501   0.652  0.1494 -0.4203 -0.4307
 8422SOL    HW236903   0.172   2.504   0.568 -0.6258 -0.1815  0.6904
 8423SOL     OW36904   0.969   0.853   2.369 -0.1870 -0.0227  0.3034
 8423SOL    HW136905   0.960   0.814   2.456 -2.5647 -0.6121 -0.2089
 8423SOL    HW236906   0.892   0.834   2.316 -0.2376 -0.8387  0.6810
 8424SOL     OW36907   1.996   3.098  12.517  0.6575  0.0676 -0.2140
 8424SOL    HW136908   2.025   3.069  12.603 -0.6935 -3.2748 -0.9018
 8424SOL    HW236909   1.914   3.049  12.510  0.8522 -0.5484  2.0166
 8425SOL     OW36910   2.160   4.062  11.241  0.1489 -0.2951 -0.0302
 8425SOL    HW136911   2.241   4.113  11.243 -0.5826  0.9426 -2.4121
 8425SOL    HW236912   2.155   4.012  11.160  0.0849  0.5763 -0.5656
 8426SOL     OW36913   1.827   3.125   3.038 -0.2153 -0.3649  0.1875
 8426SOL    HW136914   1.775   3.135   2.958 -1.2708  1.9471  1.1513
 8426SOL    HW236915   1.849   3.217   3.051  1.2042 -1.2193  3.8162
 8427SOL     OW36916   0.096   2.073  14.775  0.0085 -0.1029  0.0331
 8427SOL    HW136917   0.046   2.145  14.737  0.2183  0.4298  0.7813
 8427SOL    HW236918   0.055   2.041  14.855  0.7684  1.7425  1.1539
 8428SOL     OW36919   3.145   0.547  15.800 -0.1264  0.4158  0.0808
 8428SOL    HW136920   3.202   0.582  15.732  1.6343  1.3332  2.0605
 8428SOL    HW236921   3.062   0.553  15.752  0.1955  2.0781 -0.2619
 8429SOL     OW36922   1.044   0.369   6.622 -0.1876 -0.0530  0.3375
 8429SOL    HW136923   1.045   0.394   6.714  1.1011 -0.5560  0.4565
 8429SOL    HW236924   1.133   0.335   6.612 -0.3455  0.0575 -1.3921
 8430SOL     OW36925   0.431   4.663   5.914  0.6526 -0.3724  0.2243
 8430SOL    HW136926   0.337   4.678   5.904  1.4813  3.1767 -2.1438
 8430SOL    HW236927   0.437   4.569   5.931 -2.3503 -0.7736 -0.8982
 8431SOL     OW36928   0.976   3.099   2.105  0.6074  0.1420 -0.2647
 8431SOL    HW136929   1.042   3.161   2.135  0.0420 -0.7416  2.7402
 8431SOL    HW236930   0.936   3.087   2.191 -1.6207  1.2087 -1.1639
 8432SOL     OW36931   2.345   3.536   8.538 -0.4927  0.3466 -0.0323
 8432SOL    HW136932   2.289   3.459   8.547 -1.0079  0.5649 -1.3197
 8432SOL    HW236933   2.308   3.573   8.457  0.8969  0.5602 -0.5811
 8433SOL     OW36934   4.537   2.827   9.520  0.1382 -0.0614  0.1362
 8433SOL    HW136935   4.585   2.748   9.496  1.0531 -0.1909  2.3680
 8433SOL    HW236936   4.531   2.881   9.441  0.1733 -0.7516 -0.3405
 8434SOL     OW36937   3.146   3.014   8.318 -0.3616  0.7776 -0.3888
 8434SOL    HW136938   3.174   2.949   8.383 -1.8515 -0.6228 -1.1285
 8434SOL    HW236939   3.230   3.046   8.286  0.0449 -0.1390 -0.2354
 8435SOL     OW36940   4.330   1.757   6.856 -0.2577  0.4461  0.2901
 8435SOL    HW136941   4.286   1.820   6.912 -0.3984 -1.8414  2.7371
 8435SOL    HW236942   4.313   1.679   6.910  1.2776 -0.8415 -1.0646
 8436SOL     OW36943   4.147   3.367   6.471 -0.5971 -0.0497 -0.0795
 8436SOL    HW136944   4.196   3.293   6.507  0.2775  0.1706 -0.8202
 8436SOL    HW236945   4.069   3.326   6.432  0.3956 -0.7382 -1.3233
 8437SOL     OW36946   3.299   1.062   1.699  0.6492 -0.2221  0.2501
 8437SOL    HW136947   3.264   1.137   1.746 -0.1315 -0.8898  0.7239
 8437SOL    HW236948   3.383   1.048   1.743 -0.0921  2.4886  2.5318
 8438SOL     OW36949   1.663   3.229   8.947 -0.0159  0.6824 -0.4918
 8438SOL    HW136950   1.611   3.214   9.026 -0.9162  2.2389 -0.7858
 8438SOL    HW236951   1.655   3.324   8.944  0.1300  0.7950  2.5064
 8439SOL     OW36952   4.730   1.800  14.771 -0.0309  0.3378 -0.4165
 8439SOL    HW136953   0.020   1.884  14.735  0.7092 -1.0262 -3.0776
 8439SOL    HW236954   0.076   1.762  14.800  0.9483  2.6110 -0.2564
 8440SOL     OW36955   3.560   3.666   5.977 -0.2687  0.7640 -0.0574
 8440SOL    HW136956   3.484   3.640   6.029  0.4562  0.1085  0.6786
 8440SOL    HW236957   3.528   3.699   5.893  1.5972  0.1739 -1.0177
 8441SOL     OW36958   1.185   0.880  12.755 -0.3185 -0.0629  0.4076
 8441SOL    HW136959   1.111   0.941  12.758  1.0501  1.6735 -0.7300
 8441SOL    HW236960   1.170   0.867  12.849  0.0143 -3.0974  0.0322
 8442SOL     OW36961   0.266   2.129   0.894  0.2096 -0.3077 -0.4062
 8442SOL    HW136962   0.183   2.171   0.915  0.5748  0.4886 -0.5652
 8442SOL    HW236963   0.320   2.206   0.879  0.6320  0.1080  3.1120
 8443SOL     OW36964   2.181   4.173   6.975 -0.3564  0.2352 -0.4689
 8443SOL    HW136965   2.249   4.127   7.024 -1.5660  1.0352  1.9719
 8443SOL    HW236966   2.115   4.104   6.972 -0.7032  0.6211 -1.9244
 8444SOL     OW36967   0.391   0.694   4.204 -0.2875 -0.5286 -0.3712
 8444SOL    HW136968   0.374   0.635   4.130 -2.1584  0.9850 -1.1599
 8444SOL    HW236969   0.463   0.646   4.243  1.3656  1.1397 -1.3817
 8445SOL     OW36970   0.212   2.826  11.741 -0.0669  0.2583  0.4657
 8445SOL    HW136971   0.197   2.826  11.647  1.6871 -0.2141  0.1854
 8445SOL    HW236972   0.216   2.732  11.756 -0.5117  0.2250  0.3754
 8446SOL     OW36973   3.342   3.194   2.884  0.0578  0.0836 -1.3445
 8446SOL    HW136974   3.295   3.166   2.963  0.2671  0.3607 -1.1224
 8446SOL    HW236975   3.296   3.278   2.884 -1.6612 -0.8759  0.1524
 8447SOL     OW36976   1.114   2.515   3.927  0.0605 -0.6352  0.4968
 8447SOL    HW136977   1.096   2.428   3.891 -1.3374 -0.1642  0.0476
 8447SOL    HW236978   1.034   2.530   3.976  0.9449 -0.1446  1.7883
 8448SOL     OW36979   4.407   0.894   8.153 -0.2780  0.0339 -0.3812
 8448SOL    HW136980   4.475   0.960   8.161 -0.6443  0.4975 -1.1865
 8448SOL    HW236981   4.381   0.875   8.243  0.8297 -0.0518 -0.0774
 8449SOL     OW36982   4.320   0.050   2.802 -0.0737  0.1532 -0.4504
 8449SOL    HW136983   4.305   0.144   2.811  0.2210  0.1468  0.0686
 8449SOL    HW236984   4.264   0.033   2.878 -0.9598  0.5832 -0.9965
 8450SOL     OW36985   2.553   1.608   6.727  0.1532 -0.3472  0.1203
 8450SOL    HW136986   2.526   1.663   6.802  1.6685  1.6158 -0.7582
 8450SOL    HW236987   2.593   1.677   6.673 -1.6400  0.8948  0.3817
 8451SOL     OW36988   0.112   3.659   8.000  0.0601 -0.2230 -0.0608
 8451SOL    HW136989   0.070   3.741   7.974 -1.4579 -0.7715  0.7034
 8451SOL    HW236990   0.207   3.673   8.000  0.1769 -0.9825 -1.8817
 8452SOL     OW36991   3.856   2.755   2.759 -0.3365 -0.0633 -0.2695
 8452SOL    HW136992   3.940   2.785   2.723  0.3486 -1.0805  0.4845
 8452SOL    HW236993   3.847   2.678   2.703  2.9987 -1.7907  1.5899
 8453SOL     OW36994   1.502   2.593   4.238  0.1183 -0.0927  0.2561
 8453SOL    HW136995   1.583   2.633   4.206  0.3061  0.5133  1.4784
 8453SOL    HW236996   1.471   2.544   4.162 -1.4653  1.2872  0.0073
 8454SOL     OW36997   0.570   4.455   5.498  0.5106 -0.1206 -0.1173
 8454SOL    HW136998   0.513   4.532   5.500  0.0333 -0.5031  1.0346
 8454SOL    HW236999   0.654   4.495   5.519  1.1624 -1.6089  0.0788
 8455SOL     OW37000   2.356   3.273  11.899  0.6617  0.2162 -0.5995
 8455SOL    HW137001   2.320   3.343  11.845  0.4593 -1.8406 -3.1501
 8455SOL    HW237002   2.281   3.228  11.938  2.2424  0.2724  2.4984
 8456SOL     OW37003   3.173   0.557   6.296  0.1366 -0.4299  0.4751
 8456SOL    HW137004   3.248   0.509   6.260  1.8844  0.7143  2.5757
 8456SOL    HW237005   3.203   0.585   6.382 -3.3485  1.2719  1.1359
 8457SOL     OW37006   1.728   2.853   8.754  0.2706 -0.0552  0.5142
 8457SOL    HW137007   1.808   2.896   8.723 -0.3450  0.6146 -0.1710
 8457SOL    HW237008   1.731   2.890   8.842  0.2822  1.3894 -0.0925
 8458SOL     OW37009   0.245   0.057   3.394  0.2505 -0.0323  0.0942
 8458SOL    HW137010   0.320   4.736   3.408 -0.5861 -1.1985 -0.2495
 8458SOL    HW237011   0.174   0.019   3.446  2.1188 -1.4265  1.6405
 8459SOL     OW37012   0.518   0.835  15.806  0.8447  0.1412 -0.5611
 8459SOL    HW137013   0.481   0.814  15.721 -0.5640  0.3916 -0.0051
 8459SOL    HW237014   0.582   0.904  15.786  0.2032  0.9235  0.0780
 8460SOL     OW37015   3.515   2.790   7.552  0.1576 -0.0975  0.1273
 8460SOL    HW137016   3.605   2.782   7.581  0.9715 -0.0496 -2.4101
 8460SOL    HW237017   3.457   2.759   7.622  0.1068  1.6370  0.8375
 8461SOL     OW37018   0.151   4.163   4.182 -0.0501 -0.0753 -0.3366
 8461SOL    HW137019   0.158   4.141   4.275 -1.4943 -0.9513 -0.4433
 8461SOL    HW237020   0.122   4.081   4.143  0.8525 -0.0640 -1.0200
 8462SOL     OW37021   4.421   4.049   7.267 -0.1108  0.6963  0.4572
 8462SOL    HW137022   4.344   4.050   7.211  0.9775 -0.1373 -1.0648
 8462SOL    HW237023   4.387   4.032   7.355 -1.0743 -1.2649 -0.2850
 8463SOL     OW37024   3.012   3.183   2.260 -0.3025 -0.3371  0.1974
 8463SOL    HW137025   3.064   3.246   2.310  0.1472 -0.6794  0.1593
 8463SOL    HW237026   3.036   3.095   2.289 -0.1851 -0.2969  0.2231
 8464SOL     OW37027   4.377   0.056   3.886 -0.2205  0.4187 -0.7122
 8464SOL    HW137028   4.446   0.033   3.948 -0.1782 -1.1260 -1.3325
 8464SOL    HW237029   4.416   0.047   3.799  1.9467 -0.6425  0.3850
 8465SOL     OW37030   4.611   0.925   5.601  0.4395 -0.5067 -0.0870
 8465SOL    HW137031   4.632   0.998   5.544  0.7903  1.1571  2.1600
 8465SOL    HW237032   4.698   0.887   5.617  0.5892 -1.0282 -2.0910
 8466SOL     OW37033   2.143   0.029   6.421  0.4890 -0.2574 -0.9961
 8466SOL    HW137034   2.161   0.123   6.425 -0.4028 -0.1500  1.0046
 8466SOL    HW237035   2.189   4.728   6.496 -1.1765 -0.4395 -0.0588
 8467SOL     OW37036   3.166   3.141   3.116 -0.0647  0.2349  0.0890
 8467SOL    HW137037   3.100   3.153   3.048 -1.6473  1.2019  1.7797
 8467SOL    HW237038   3.158   3.218   3.172 -1.4798  0.3717 -0.2971
 8468SOL     OW37039   3.534   3.647   3.379 -0.0162 -0.3156  0.2144
 8468SOL    HW137040   3.465   3.697   3.337 -1.6594 -3.2132 -0.5534
 8468SOL    HW237041   3.504   3.648   3.470  0.7721  0.2054  0.4626
 8469SOL     OW37042   2.319   3.818  14.998  0.2630  0.2544 -0.2724
 8469SOL    HW137043   2.403   3.853  15.029  0.8922 -1.5457  0.0385
 8469SOL    HW237044   2.262   3.889  15.028  0.0627 -0.2440  0.5365
 8470SOL     OW37045   1.963   1.657   4.826 -0.4003 -0.0667 -0.0367
 8470SOL    HW137046   1.942   1.564   4.824  1.2837 -0.3993 -1.9462
 8470SOL    HW237047   1.886   1.687   4.777 -2.3340 -0.6213  2.6585
 8471SOL     OW37048   1.573   2.239   3.885  0.8442  0.3024  0.1689
 8471SOL    HW137049   1.548   2.325   3.853 -0.5249 -0.8123 -1.7820
 8471SOL    HW237050   1.667   2.242   3.900  0.7547  0.1133  0.7595
 8472SOL     OW37051   1.967   1.274   3.647 -0.1423  0.0945  0.2756
 8472SOL    HW137052   2.004   1.358   3.621  1.7910  0.0097  2.7713
 8472SOL    HW237053   1.986   1.283   3.740 -0.4771 -0.2301  0.3723
 8473SOL     OW37054   0.744   1.461   6.202  0.0700  0.6769  0.3333
 8473SOL    HW137055   0.756   1.370   6.229 -1.1164  0.1966 -0.7421
 8473SOL    HW237056   0.759   1.458   6.107  1.8857 -0.5240  0.6535
 8474SOL     OW37057   2.571   3.883   4.639  0.2219  0.4509 -0.3135
 8474SOL    HW137058   2.606   3.886   4.550 -0.2104  3.2163 -0.3817
 8474SOL    HW237059   2.618   3.803   4.663 -2.4758 -1.2963 -0.8169
 8475SOL     OW37060   1.480   1.294   1.751 -0.1044 -0.2807  0.0860
 8475SOL    HW137061   1.464   1.358   1.683 -2.4480 -1.6682 -0.6584
 8475SOL    HW237062   1.570   1.320   1.772 -0.2727  1.4025 -1.2684
 8476SOL     OW37063   4.251   2.181  17.727  0.7789 -0.0581  0.2533
 8476SOL    HW137064   4.190   2.129  17.674 -0.6892  1.2065  0.6825
 8476SOL    HW237065   4.196   2.259  17.723  2.8776  1.4135  0.0040
 8477SOL     OW37066   3.802   4.180   5.516 -0.0501 -0.3142 -0.0870
 8477SOL    HW137067   3.824   4.114   5.581  2.8181 -1.2351 -1.9912
 8477SOL    HW237068   3.719   4.223   5.535  0.3070 -0.2907  1.4191
 8478SOL     OW37069   2.414   3.622  13.456  0.0341  0.4304 -0.3082
 8478SOL    HW137070   2.387   3.713  13.469  1.4282  1.0287 -1.5799
 8478SOL    HW237071   2.483   3.623  13.390  0.6817  0.2721  0.3664
 8479SOL     OW37072   0.103   0.970   9.334 -0.1424  0.1259  0.7210
 8479SOL    HW137073   0.149   1.035   9.281 -0.5964 -1.1429 -1.2218
 8479SOL    HW237074   0.017   0.971   9.292  0.6121  1.8200 -0.7810
 8480SOL     OW37075   1.752   0.069   2.117  0.4109 -0.2536  0.1543
 8480SOL    HW137076   1.842   0.054   2.147  0.3568 -0.4096  0.2372
 8480SOL    HW237077   1.756   0.163   2.098 -0.6153 -0.5852 -1.6576
 8481SOL     OW37078   2.963   0.626   6.889 -0.0071 -0.0991 -0.1272
 8481SOL    HW137079   2.934   0.547   6.935 -0.0296  0.4623  0.8204
 8481SOL    HW237080   2.897   0.634   6.820 -0.9282  0.3395  0.8064
 8482SOL     OW37081   4.183   2.267  16.478 -0.2521  0.3176 -0.4577
 8482SOL    HW137082   4.113   2.216  16.438  2.4233  1.1967 -6.2520
 8482SOL    HW237083   4.140   2.306  16.554  1.4735 -1.2104  1.3235
 8483SOL     OW37084   0.166   1.001   2.425  0.0928 -0.5639 -0.1655
 8483SOL    HW137085   0.081   0.984   2.384  0.2231  0.8130 -1.0319
 8483SOL    HW237086   0.145   0.960   2.509 -0.0323  1.3900  0.7514
 8484SOL     OW37087   4.407   0.757   2.316  0.1550  0.1887  0.9076
 8484SOL    HW137088   4.464   0.684   2.290  0.2580  0.6891 -0.2467
 8484SOL    HW237089   4.348   0.762   2.240 -0.3897  2.6683  1.5065
 8485SOL     OW37090   1.944   3.008   2.632 -0.7896  0.0715 -0.4102
 8485SOL    HW137091   2.011   2.990   2.565 -0.2211  0.7919 -0.0324
 8485SOL    HW237092   1.993   3.041   2.707  1.8882  0.0637 -2.1165
 8486SOL     OW37093   0.216   0.322   9.257 -0.1934  0.2952 -0.5252
 8486SOL    HW137094   0.236   0.367   9.339  0.5134 -0.1460 -0.4555
 8486SOL    HW237095   0.133   0.284   9.285  0.5711 -2.0018 -1.4094
 8487SOL     OW37096   0.950   4.498   9.250  0.2262  0.5171  0.0496
 8487SOL    HW137097   0.967   4.404   9.263 -5.0228 -0.3967  0.2586
 8487SOL    HW237098   1.031   4.529   9.209 -0.0148  1.8372  0.5854
 8488SOL     OW37099   1.888   4.570   7.708  0.2460  0.0083  0.2456
 8488SOL    HW137100   1.922   4.481   7.718  1.3067  0.4291  0.4465
 8488SOL    HW237101   1.869   4.599   7.798  1.3638  0.5041  0.3276
 8489SOL     OW37102   0.968   4.305   6.097  0.6578  0.2009  0.0226
 8489SOL    HW137103   0.937   4.301   6.006  0.3298  1.1847  0.0922
 8489SOL    HW237104   1.004   4.393   6.109  3.4238 -0.9278 -0.0630
 8490SOL     OW37105   4.619   3.373   4.196 -0.2750 -0.1703 -0.3493
 8490SOL    HW137106   4.644   3.407   4.282  0.9729 -0.7281 -0.4831
 8490SOL    HW237107   4.608   3.283   4.225  0.4185  1.2669  4.3676
 8491SOL     OW37108   2.847   3.435   1.550 -0.1352  0.0729  0.4978
 8491SOL    HW137109   2.911   3.507   1.552 -1.4052  1.1511  1.8461
 8491SOL    HW237110   2.760   3.472   1.567 -2.1102 -3.6525 -1.6898
 8492SOL     OW37111   2.826   0.398  10.158  0.3363 -0.2158  0.1512
 8492SOL    HW137112   2.841   0.306  10.179 -0.8064 -1.0927 -2.7824
 8492SOL    HW237113   2.766   0.411  10.231 -1.7090 -0.6979 -1.4381
 8493SOL     OW37114   3.089   3.831   2.828 -0.4632  1.0201  0.7057
 8493SOL    HW137115   3.109   3.818   2.920  0.5259 -0.6495  0.2666
 8493SOL    HW237116   3.175   3.802   2.797 -2.0752 -3.4474  0.3456
 8494SOL     OW37117   3.055   0.570  13.242 -0.1984  0.7664  0.0400
 8494SOL    HW137118   3.042   0.515  13.319  2.1141  0.6986  0.3805
 8494SOL    HW237119   3.007   0.650  13.263  0.1355  1.0897 -0.4030
 8495SOL     OW37120   1.337   3.923   0.940  0.0933 -0.8663 -0.1327
 8495SOL    HW137121   1.354   3.839   0.982 -1.2413 -1.3805 -0.6198
 8495SOL    HW237122   1.288   3.885   0.867 -0.5455 -0.4069  0.0616
 8496SOL     OW37123   1.221   2.137   7.719  0.0527  0.0558 -0.1141
 8496SOL    HW137124   1.167   2.206   7.758 -0.7583 -1.7196  1.8951
 8496SOL    HW237125   1.288   2.128   7.787  0.0258 -0.6634 -0.1829
 8497SOL     OW37126   0.749   0.671   5.172 -0.0226  0.5533 -0.0923
 8497SOL    HW137127   0.795   0.680   5.256  0.6598  1.2536 -0.5305
 8497SOL    HW237128   0.720   0.759   5.145  1.5092  1.1817  0.2794
 8498SOL     OW37129   0.763   4.026   8.386  0.4350  0.0608  0.1748
 8498SOL    HW137130   0.726   4.091   8.445  1.1249  1.0672 -0.4969
 8498SOL    HW237131   0.815   4.085   8.331  1.6641 -0.1420  1.1251
 8499SOL     OW37132   3.912   0.994   6.779  0.1127  0.4912 -0.7615
 8499SOL    HW137133   3.929   1.020   6.869  0.7297 -1.8556 -0.1872
 8499SOL    HW237134   3.978   0.925   6.782  0.1887  0.4789 -2.5351
 8500SOL     OW37135   3.776   0.977   7.621 -0.1345  0.3593  0.0674
 8500SOL    HW137136   3.736   0.979   7.708  0.6764 -2.1142  0.5075
 8500SOL    HW237137   3.703   1.020   7.578  0.2087  1.3022  0.4331
 8501SOL     OW37138   2.535   0.698   2.626 -0.0146 -0.3347 -0.2961
 8501SOL    HW137139   2.489   0.661   2.702  3.6632  2.0614  3.1179
 8501SOL    HW237140   2.520   0.621   2.571  0.2483 -1.5000  1.2685
 8502SOL     OW37141   1.300   3.218   5.869  0.0442  0.5325  0.6741
 8502SOL    HW137142   1.308   3.311   5.848  1.1492 -0.0785 -1.5964
 8502SOL    HW237143   1.387   3.189   5.841 -0.7552 -0.9045 -0.3133
 8503SOL     OW37144   4.130   3.225   3.785  0.3375 -0.4565 -0.0063
 8503SOL    HW137145   4.159   3.292   3.723 -3.0413 -1.1034 -2.2903
 8503SOL    HW237146   4.201   3.227   3.848  1.7037  2.3677 -1.6357
 8504SOL     OW37147   2.740   0.082   5.923  0.6417 -0.6687 -0.1980
 8504SOL    HW137148   2.827   0.123   5.915  0.3811  0.2737  1.7624
 8504SOL    HW237149   2.722   0.076   5.829 -0.0066  2.5378 -0.2745
 8505SOL     OW37150   4.566   0.527   2.256  0.2650  0.1425 -0.5612
 8505SOL    HW137151   4.629   0.541   2.185  0.9199 -1.9984 -0.3757
 8505SOL    HW237152   4.499   0.472   2.216  0.6287  0.1438 -1.1714
 8506SOL     OW37153   4.241   2.614   6.381  0.2600  0.2697 -0.1660
 8506SOL    HW137154   4.231   2.659   6.465 -0.6274 -3.2222  1.6041
 8506SOL    HW237155   4.161   2.632   6.332 -0.4367  1.0951  1.3018
 8507SOL     OW37156   2.285   0.598   7.634  0.0433  0.0807  0.0051
 8507SOL    HW137157   2.301   0.536   7.705  1.2399 -1.2752 -1.4598
 8507SOL    HW237158   2.216   0.653   7.671  0.7502 -0.5082  2.1966
 8508SOL     OW37159   4.001   1.994   7.647 -0.2513 -0.0994 -0.2738
 8508SOL    HW137160   4.089   1.998   7.609 -0.4420 -1.1785 -0.8414
 8508SOL    HW237161   4.005   1.899   7.663 -2.6826  0.1472  1.6565
 8509SOL     OW37162   1.105   0.167  15.188 -0.0477 -0.7071 -0.0897
 8509SOL    HW137163   1.132   0.151  15.098  1.3962  1.1220  0.0098
 8509SOL    HW237164   1.144   0.093  15.234 -1.3696 -1.0858  0.4333
 8510SOL     OW37165   0.504   3.227   0.353 -0.0068 -0.1121 -0.1137
 8510SOL    HW137166   0.468   3.194   0.271  2.1909  2.8971 -2.2791
 8510SOL    HW237167   0.539   3.148   0.395 -2.9814 -0.4377  1.7624
 8511SOL     OW37168   1.040   0.173  16.671 -0.0145  0.5250  0.1885
 8511SOL    HW137169   0.954   0.165  16.629  0.0020 -1.9087  0.5959
 8511SOL    HW237170   1.086   0.222  16.603 -0.9175  0.5354 -0.4192
 8512SOL     OW37171   4.613   4.268   7.259  0.0435 -0.9128 -0.6482
 8512SOL    HW137172   4.534   4.214   7.249 -0.1830 -0.4434 -1.3234
 8512SOL    HW237173   4.672   4.201   7.294  0.3795 -0.3977 -0.2325
 8513SOL     OW37174   1.143   1.967   7.504  0.0205  0.4347 -0.6155
 8513SOL    HW137175   1.219   1.917   7.475  0.6038  0.5390  0.7196
 8513SOL    HW237176   1.164   2.011   7.587  1.7310  0.5183 -1.0852
 8514SOL     OW37177   0.723   3.446  17.642 -0.4962  0.8556 -0.0683
 8514SOL    HW137178   0.640   3.473  17.604 -0.3959  0.9707 -0.2033
 8514SOL    HW237179   0.752   3.395  17.566 -2.6219  0.0612 -0.3543
 8515SOL     OW37180   4.010   2.345   4.843  0.0392  0.5488 -0.0407
 8515SOL    HW137181   3.923   2.353   4.802  0.7303 -1.1991 -1.8472
 8515SOL    HW237182   3.979   2.278   4.904  0.0277 -0.8664 -1.6060
 8516SOL     OW37183   2.783   2.339   9.157 -0.0862 -0.2563 -0.0943
 8516SOL    HW137184   2.715   2.272   9.157 -1.0547  0.7373  0.0794
 8516SOL    HW237185   2.829   2.299   9.232  1.5129  1.3200 -0.2431
 8517SOL     OW37186   0.864   1.296  12.194 -0.2664  0.2733  0.2684
 8517SOL    HW137187   0.791   1.355  12.175 -0.4827 -0.0525  0.1040
 8517SOL    HW237188   0.873   1.243  12.115  0.1959 -1.9329  1.8210
 8518SOL     OW37189   2.411   3.537  16.519  0.6912  0.2746 -0.0320
 8518SOL    HW137190   2.473   3.485  16.468 -0.7890 -2.0295  0.4582
 8518SOL    HW237191   2.386   3.609  16.461 -1.7658 -1.2443 -0.8656
 8519SOL     OW37192   4.105   1.305   4.784  0.1071  0.1164 -0.1052
 8519SOL    HW137193   4.184   1.256   4.807 -0.0403  0.3456  0.9230
 8519SOL    HW237194   4.131   1.328   4.695 -0.7874  0.6566 -0.2219
 8520SOL     OW37195   0.429   1.850   2.323  0.0654 -0.0980  0.5078
 8520SOL    HW137196   0.516   1.857   2.362 -0.4776 -0.1376  1.7117
 8520SOL    HW237197   0.385   1.798   2.390  0.4700  1.8154  2.2474
 8521SOL     OW37198   0.211   0.017   8.252  0.3124  0.3201  0.3124
 8521SOL    HW137199   0.141   0.070   8.215 -0.9662 -0.7517  1.1990
 8521SOL    HW237200   0.252   4.725   8.171 -1.3330  0.3842 -0.5430
 8522SOL     OW37201   0.563   3.415   3.505  0.0052  0.2222  0.3842
 8522SOL    HW137202   0.650   3.380   3.486 -0.5771 -1.6917  1.2406
 8522SOL    HW237203   0.499   3.344   3.493  1.8455 -1.6257  1.4155
 8523SOL     OW37204   3.570   4.101   8.510  0.1046  0.1570  0.5961
 8523SOL    HW137205   3.482   4.075   8.484  0.8600 -1.1034 -0.6962
 8523SOL    HW237206   3.543   4.161   8.579 -1.2990 -1.6516  1.6237
 8524SOL     OW37207   0.465   4.268  17.632  0.1028 -0.0451  0.8724
 8524SOL    HW137208   0.521   4.191  17.634  1.8990  1.3197  2.4656
 8524SOL    HW237209   0.378   4.228  17.642 -0.6260  1.6238  1.3206
 8525SOL     OW37210   1.311   3.123  16.529  0.3193  0.1724 -0.1407
 8525SOL    HW137211   1.219   3.133  16.553 -0.0089 -2.7447 -0.1730
 8525SOL    HW237212   1.320   3.028  16.529 -0.1699  0.1285  1.0084
 8526SOL     OW37213   4.087   2.840   3.541  0.2015 -0.4804  0.4370
 8526SOL    HW137214   4.049   2.925   3.518  0.9632  0.2027  1.7147
 8526SOL    HW237215   4.129   2.816   3.458  2.4612 -1.4067  1.8439
 8527SOL     OW37216   4.057   4.234   3.297  0.5037 -0.2920  0.1756
 8527SOL    HW137217   4.141   4.272   3.321  1.8487 -3.0702 -0.2436
 8527SOL    HW237218   4.009   4.310   3.331  1.1509 -0.6463  1.8558
 8528SOL     OW37219   3.795   4.527  12.700  0.4911  0.9712  0.2259
 8528SOL    HW137220   3.803   4.455  12.638  2.8015  0.9002  0.6003
 8528SOL    HW237221   3.725   4.576  12.656 -0.5853 -0.4720  0.3231
 8529SOL     OW37222   1.661   4.459   5.168  0.0392 -0.2934 -0.1115
 8529SOL    HW137223   1.576   4.416   5.177 -0.0032 -0.0857  0.5367
 8529SOL    HW237224   1.708   4.389   5.214 -0.5117  0.8845  2.2688
 8530SOL     OW37225   3.959   3.424   7.359 -0.1776  0.1214 -0.5096
 8530SOL    HW137226   4.023   3.354   7.370 -0.8604 -0.5193 -0.6016
 8530SOL    HW237227   4.024   3.494   7.358 -0.8032  0.6906 -0.9565
 8531SOL     OW37228   2.525   4.397  10.694 -0.0472  0.0410 -0.0963
 8531SOL    HW137229   2.492   4.402  10.783 -2.5482 -2.8055 -0.8799
 8531SOL    HW237230   2.617   4.420  10.706  0.1788 -0.1991 -1.3531
 8532SOL     OW37231   4.704   4.180  14.537 -0.4528 -0.2445  0.3082
 8532SOL    HW137232   4.619   4.140  14.517  0.6173 -1.4966 -1.7849
 8532SOL    HW237233   0.006   4.124  14.603 -2.0571 -0.0315  1.4326
 8533SOL     OW37234   0.553   1.863  17.434 -0.1146  0.1068 -0.1120
 8533SOL    HW137235   0.599   1.791  17.477 -0.7658 -0.9532 -1.2204
 8533SOL    HW237236   0.536   1.917  17.511  1.3402  0.7253 -0.2229
 8534SOL     OW37237   3.368   0.890   7.680  0.2758 -0.3607 -0.7393
 8534SOL    HW137238   3.363   0.796   7.664  0.6315 -0.2087 -1.7168
 8534SOL    HW237239   3.447   0.897   7.733 -0.2355 -0.1620 -0.0028
 8535SOL     OW37240   1.360   2.619   8.227  0.5273  0.1561  0.1377
 8535SOL    HW137241   1.341   2.695   8.172  1.2823  1.2995  1.4482
 8535SOL    HW237242   1.350   2.546   8.166 -0.0303  1.1335 -0.9338
 8536SOL     OW37243   0.160   2.916   8.697 -0.1450 -0.1154  0.3071
 8536SOL    HW137244   0.123   2.854   8.761 -0.1304  0.9596  1.3502
 8536SOL    HW237245   0.245   2.873   8.687 -0.6263 -1.0786  0.3630
 8537SOL     OW37246   2.617   2.789   4.740  0.1796  0.1584  0.2538
 8537SOL    HW137247   2.676   2.845   4.689 -1.2435  1.1256 -0.3520
 8537SOL    HW237248   2.628   2.703   4.699  0.5993 -0.5248  1.8322
 8538SOL     OW37249   3.123   3.277  12.124 -0.5015 -0.8854  0.4185
 8538SOL    HW137250   3.186   3.205  12.120 -2.1509 -2.1607 -2.2346
 8538SOL    HW237251   3.175   3.350  12.157  0.1476 -0.4873 -1.5232
 8539SOL     OW37252   3.146   0.720  10.696 -0.0368  0.0340  0.1107
 8539SOL    HW137253   3.104   0.634  10.688 -2.5740  1.2171  0.8465
 8539SOL    HW237254   3.071   0.779  10.697  0.5080  0.6684  2.4192
 8540SOL     OW37255   1.072   2.932   3.621  0.6554 -0.0246  0.3945
 8540SOL    HW137256   1.072   2.896   3.532 -0.6541 -0.1321  0.4305
 8540SOL    HW237257   1.050   2.849   3.664  0.7277 -0.2495  0.0009
 8541SOL     OW37258   1.544   2.876   9.060 -0.5866 -0.2996 -0.2218
 8541SOL    HW137259   1.482   2.875   8.986  0.3214 -0.1325 -0.9830
 8541SOL    HW237260   1.516   2.799   9.109 -1.0609 -0.6539 -1.0478
 8542SOL     OW37261   0.917   0.048   5.830 -0.2474 -0.0801  0.0335
 8542SOL    HW137262   0.828   0.083   5.830  0.7281  2.3499  1.7516
 8542SOL    HW237263   0.942   0.052   5.922 -0.2055 -1.2392  0.0769
 8543SOL     OW37264   2.681   0.697  10.083 -0.1691 -0.3661  0.4192
 8543SOL    HW137265   2.586   0.692  10.098  0.1731 -2.4519  1.9139
 8543SOL    HW237266   2.722   0.665  10.163  3.6141  1.2838 -0.8783
 8544SOL     OW37267   1.631   1.011  11.481 -0.1129  0.5544 -0.0129
 8544SOL    HW137268   1.549   0.996  11.435  0.2233 -0.7149 -0.2173
 8544SOL    HW237269   1.652   1.090  11.430 -0.3955 -0.4556 -1.7089
 8545SOL     OW37270   4.098   4.131   0.084 -0.1174  0.2218 -0.4165
 8545SOL    HW137271   4.136   4.209   0.045  1.6421 -1.3460 -1.8414
 8545SOL    HW237272   4.014   4.164   0.117  0.6445  1.7677 -0.0436
 8546SOL     OW37273   3.858   4.615   3.063  0.3134 -0.1263 -0.4789
 8546SOL    HW137274   3.829   4.528   3.091  0.4767  0.5327  1.7846
 8546SOL    HW237275   3.782   4.657   3.022  0.3143 -0.2078 -0.5645
 8547SOL     OW37276   2.570   2.985   3.088 -0.0847  0.0771  0.2958
 8547SOL    HW137277   2.558   3.079   3.076  0.2963  0.0408 -0.3724
 8547SOL    HW237278   2.656   2.969   3.051  0.0066  0.2618  0.4292
 8548SOL     OW37279   2.293   1.548   1.584  0.3756 -0.0694  0.1547
 8548SOL    HW137280   2.360   1.584   1.642 -2.7393  1.5385  2.7370
 8548SOL    HW237281   2.350   1.540   1.507 -1.7677 -1.4614 -1.2701
 8549SOL     OW37282   0.889   0.791  16.424 -0.1136  0.0755  0.1076
 8549SOL    HW137283   0.795   0.794  16.409 -0.2902 -1.0958  0.9718
 8549SOL    HW237284   0.918   0.838  16.346 -1.7479  1.3396  0.2631
 8550SOL     OW37285   1.599   1.332  13.005 -0.6651 -0.4459  0.0210
 8550SOL    HW137286   1.672   1.392  13.017 -1.1143  0.2566 -0.7884
 8550SOL    HW237287   1.638   1.270  12.944  0.0790 -0.6927  0.7436
 8551SOL     OW37288   1.513   2.357   9.580  0.4543 -0.1269 -0.0019
 8551SOL    HW137289   1.439   2.393   9.629  0.3279 -1.9591  1.1366
 8551SOL    HW237290   1.462   2.347   9.499 -0.3097  1.9794  0.2044
 8552SOL     OW37291   4.720   1.058  14.633 -0.3477  0.5874 -0.4919
 8552SOL    HW137292   0.025   1.114  14.698  1.1978  2.4668 -3.1416
 8552SOL    HW237293   0.036   1.084  14.557 -0.1793  0.8206 -0.2946
 8553SOL     OW37294   0.407   1.400   9.011  0.6419  0.2086  0.2765
 8553SOL    HW137295   0.462   1.474   9.035 -1.5835  1.5176  1.3208
 8553SOL    HW237296   0.462   1.367   8.940 -1.7592 -1.7845 -0.6669
 8554SOL     OW37297   1.121   1.254   5.514  0.0290  0.6743  0.3759
 8554SOL    HW137298   1.182   1.318   5.478 -0.5138  0.8209 -0.2765
 8554SOL    HW237299   1.178   1.195   5.563 -0.0368  1.7763  1.7946
 8555SOL     OW37300   4.128   3.139   0.413 -0.6181 -0.5268 -0.0724
 8555SOL    HW137301   4.048   3.171   0.453 -0.8208  0.4334 -1.2452
 8555SOL    HW237302   4.118   3.165   0.322  0.2617  1.8351  0.5112
 8556SOL     OW37303   1.955   1.411   4.125 -0.1919 -0.1789 -0.2386
 8556SOL    HW137304   2.005   1.363   4.060  0.6395  1.4291 -0.8058
 8556SOL    HW237305   2.030   1.430   4.182 -2.3940  1.5682  2.0883
 8557SOL     OW37306   0.395   3.673  12.863 -0.5274  0.7367  0.4464
 8557SOL    HW137307   0.464   3.609  12.878 -1.4680 -0.7249 -1.3770
 8557SOL    HW237308   0.371   3.706  12.950 -1.5463 -1.7723  1.1175
 8558SOL     OW37309   2.953   4.513   4.572  0.8649  0.0393 -0.0016
 8558SOL    HW137310   2.953   4.588   4.513  3.1110  1.5947  1.9816
 8558SOL    HW237311   2.951   4.439   4.511 -0.5343  0.1321 -0.0637
 8559SOL     OW37312   4.150   1.137   6.025 -0.5520 -0.2921  0.1581
 8559SOL    HW137313   4.103   1.173   6.100  0.9480 -2.1942  2.0016
 8559SOL    HW237314   4.217   1.083   6.067 -0.8444 -1.3982 -0.8050
 8560SOL     OW37315   2.235   0.883  11.582 -0.3067  0.0622  0.0797
 8560SOL    HW137316   2.201   0.794  11.568 -3.7345  1.5106 -1.0120
 8560SOL    HW237317   2.148   0.923  11.588 -0.6086 -0.1191 -3.1078
 8561SOL     OW37318   3.886   0.866   8.225  0.7558  0.0131 -0.1920
 8561SOL    HW137319   3.975   0.852   8.193  0.2468 -0.6471 -1.2980
 8561SOL    HW237320   3.907   0.923   8.299  2.3092 -1.9456  0.8995
 8562SOL     OW37321   1.369   2.010   8.648  0.2538  0.5650 -0.0602
 8562SOL    HW137322   1.422   2.074   8.696  0.3305  0.5902 -0.1789
 8562SOL    HW237323   1.283   2.048   8.630  0.5240  0.8568 -0.7449
 8563SOL     OW37324   3.403   2.162   3.602 -0.6391  0.0891 -0.1729
 8563SOL    HW137325   3.340   2.171   3.530 -1.5068  0.4403  0.6309
 8563SOL    HW237326   3.352   2.202   3.672  0.8437  2.4211 -0.4315
 8564SOL     OW37327   3.471   0.894   0.015 -0.2355 -0.9569  0.5212
 8564SOL    HW137328   3.385   0.928   0.039 -0.3611 -0.2815 -0.8952
 8564SOL    HW237329   3.489   0.917  17.670 -0.6436 -1.2480  0.3722
 8565SOL     OW37330   2.258   1.938   9.147  0.3585  0.2003  0.0431
 8565SOL    HW137331   2.258   2.009   9.082  3.3713 -1.8781 -2.2691
 8565SOL    HW237332   2.164   1.930   9.165 -0.1995 -0.4920 -3.0930
 8566SOL     OW37333   3.380   2.693   5.129 -0.0463  0.2990  0.2426
 8566SOL    HW137334   3.463   2.706   5.083  0.3585 -1.6867  0.4001
 8566SOL    HW237335   3.337   2.669   5.047  0.3260 -0.1957  0.1879
 8567SOL     OW37336   1.361   0.098   5.976  0.3465 -0.0144 -0.3428
 8567SOL    HW137337   1.409   0.027   5.934  0.7681 -1.6713  2.9492
 8567SOL    HW237338   1.426   0.128   6.040  0.3277 -0.6402 -0.0350
 8568SOL     OW37339   2.313   3.646  11.521  0.4803  0.2219 -0.8971
 8568SOL    HW137340   2.310   3.710  11.592 -1.3599 -0.6348 -0.2149
 8568SOL    HW237341   2.218   3.638  11.515  0.6406 -0.5112 -2.5188
 8569SOL     OW37342   3.857   3.046   1.866 -0.1762 -0.2389  0.1139
 8569SOL    HW137343   3.791   3.102   1.825  0.5347 -0.2693 -1.0703
 8569SOL    HW237344   3.830   2.961   1.833  1.3198 -0.9127  0.6345
 8570SOL     OW37345   1.335   2.995   1.774 -0.5173 -0.2034  0.0529
 8570SOL    HW137346   1.255   2.956   1.739  0.1646 -0.9607 -0.6772
 8570SOL    HW237347   1.396   2.924   1.754 -1.0320 -0.1348 -1.7917
 8571SOL     OW37348   1.200   0.005   8.772 -0.6098 -0.2319  0.5779
 8571SOL    HW137349   1.106   0.001   8.791 -0.6837 -0.0814  0.2501
 8571SOL    HW237350   1.215   0.088   8.817  1.3375 -0.7870  0.9562
 8572SOL     OW37351   3.583   3.686   1.688  0.2967  0.4225  0.1213
 8572SOL    HW137352   3.581   3.646   1.601 -0.1625  0.0205  0.3156
 8572SOL    HW237353   3.629   3.622   1.742 -0.0043  1.4714  1.6259
 8573SOL     OW37354   2.866   3.182   0.511  0.6866  0.5613 -0.2857
 8573SOL    HW137355   2.953   3.148   0.493  0.6252  0.3628 -0.2093
 8573SOL    HW237356   2.835   3.137   0.433  2.6769  0.5541 -1.0746
 8574SOL     OW37357   4.227   3.729  14.012 -0.3680 -0.1079 -0.6286
 8574SOL    HW137358   4.303   3.716  14.069 -0.7812  0.0169 -0.0504
 8574SOL    HW237359   4.189   3.810  14.044 -1.1402 -0.0887 -1.5894
 8575SOL     OW37360   2.644   0.354   8.217 -0.5592 -0.2398 -0.3504
 8575SOL    HW137361   2.732   0.382   8.241 -0.5991 -0.6128  0.2381
 8575SOL    HW237362   2.652   0.276   8.273 -0.1968  1.6114  2.1595
 8576SOL     OW37363   0.278   2.054   3.714  0.2320  0.4424 -0.1805
 8576SOL    HW137364   0.349   2.013   3.665 -0.9382  1.3355 -2.5810
 8576SOL    HW237365   0.317   2.058   3.802  0.1002 -1.1973 -0.0537
 8577SOL     OW37366   3.045   2.216  10.432  0.2724 -0.1889 -0.2123
 8577SOL    HW137367   2.987   2.256  10.368  0.3598 -0.0657 -0.2143
 8577SOL    HW237368   3.033   2.281  10.501  3.9482  0.9984 -0.6521
 8578SOL     OW37369   1.446   0.659  13.970  0.1797  0.3580 -0.2168
 8578SOL    HW137370   1.358   0.659  13.935  0.9314  0.4503 -2.0808
 8578SOL    HW237371   1.488   0.683  13.887  3.1403 -1.9817  0.5814
 8579SOL     OW37372   1.168   1.264   2.107 -0.3693 -0.7307 -0.2179
 8579SOL    HW137373   1.079   1.258   2.142  0.6857 -0.4379  2.4373
 8579SOL    HW237374   1.212   1.257   2.191  1.2571  1.5661 -0.8848
 8580SOL     OW37375   2.842   4.651   7.990 -0.1914 -0.3815 -0.6776
 8580SOL    HW137376   2.860   0.003   7.959  4.2414 -1.4737 -1.2259
 8580SOL    HW237377   2.873   4.654   8.081 -0.3845 -0.4720 -0.6090
 8581SOL     OW37378   3.669   4.248   4.118  0.4416  0.2709  0.4696
 8581SOL    HW137379   3.708   4.218   4.036 -0.3106 -1.9919  0.9635
 8581SOL    HW237380   3.714   4.187   4.176  0.8738 -0.6898 -0.8914
 8582SOL     OW37381   2.514   0.114  11.030  0.2403 -0.2771 -0.1765
 8582SOL    HW137382   2.504   0.152  11.117  0.5166 -1.2639  0.2851
 8582SOL    HW237383   2.573   0.174  10.984  0.2823  0.0133  0.2589
 8583SOL     OW37384   1.702   0.751  10.470 -0.0944  0.3053 -0.0325
 8583SOL    HW137385   1.631   0.702  10.430  1.2904  0.8961 -3.2292
 8583SOL    HW237386   1.775   0.717  10.418 -1.4352 -1.2837 -0.8354
 8584SOL     OW37387   2.817   2.536   2.331  0.4216  0.0586 -0.6450
 8584SOL    HW137388   2.905   2.519   2.297  0.7604  0.3586  0.0628
 8584SOL    HW237389   2.817   2.628   2.303 -0.7593 -0.1420 -1.2993
 8585SOL     OW37390   4.562   3.455   3.688  0.0804 -0.5857  0.1340
 8585SOL    HW137391   4.552   3.382   3.749 -0.5280  0.5153  1.3378
 8585SOL    HW237392   4.488   3.511   3.711  1.5700  0.7060  1.7302
 8586SOL     OW37393   3.824   3.936   6.845 -0.4756 -0.1944 -0.5518
 8586SOL    HW137394   3.873   3.939   6.927  0.1226  0.5861 -0.9349
 8586SOL    HW237395   3.826   3.848   6.807  0.3765  0.4181 -1.9151
 8587SOL     OW37396   1.165   3.441  16.904  0.2776  0.0305  0.0607
 8587SOL    HW137397   1.077   3.408  16.884  0.8194 -1.6504  0.4536
 8587SOL    HW237398   1.211   3.379  16.847 -0.5896 -0.8558  0.3157
 8588SOL     OW37399   1.799   3.292   8.699  0.1588  0.2669 -1.0769
 8588SOL    HW137400   1.874   3.345   8.674  1.4069 -0.5412  0.9673
 8588SOL    HW237401   1.810   3.272   8.792 -0.8888 -1.2204 -1.2837
 8589SOL     OW37402   2.621   1.388   0.360 -0.4479  0.0283 -0.5659
 8589SOL    HW137403   2.529   1.397   0.385 -0.1912 -0.0487  0.3936
 8589SOL    HW237404   2.612   1.369   0.267  0.5801 -1.4658 -0.3511
 8590SOL     OW37405   3.613   3.751  13.448 -0.7332 -0.1656 -0.4495
 8590SOL    HW137406   3.673   3.709  13.508 -0.9704  1.4873  0.9475
 8590SOL    HW237407   3.662   3.823  13.409  0.8016 -0.8329  0.2779
 8591SOL     OW37408   1.796   1.681  11.066 -0.2286 -0.1462 -0.4503
 8591SOL    HW137409   1.872   1.735  11.088  0.1878 -1.4993  1.4921
 8591SOL    HW237410   1.838   1.611  11.015 -0.0907  0.4012 -1.0975
 8592SOL     OW37411   4.163   1.664  15.087 -0.0375  0.1558  0.0143
 8592SOL    HW137412   4.136   1.604  15.017  1.1427  1.8457 -1.9075
 8592SOL    HW237413   4.099   1.628  15.148 -0.8665  1.9323  0.1719
 8593SOL     OW37414   0.704   0.041   1.038 -0.1391  0.3530 -0.0571
 8593SOL    HW137415   0.657   4.728   0.972 -0.0251  1.2263 -0.7926
 8593SOL    HW237416   0.644   0.036   1.113  0.1684  1.4864  0.2587
 8594SOL     OW37417   0.472   2.973  12.193  0.3653 -0.0310 -0.3744
 8594SOL    HW137418   0.421   2.918  12.134  0.2418  0.0220 -0.3180
 8594SOL    HW237419   0.416   2.958  12.270  0.1495 -0.2067 -0.5685
 8595SOL     OW37420   0.142   2.483   0.848 -1.0168 -0.8778  0.0503
 8595SOL    HW137421   0.232   2.474   0.878 -1.8301 -1.8652  2.1467
 8595SOL    HW237422   0.127   2.570   0.885 -0.7195  0.7528 -3.6117
 8596SOL     OW37423   2.958   0.499   1.267 -0.0041  0.6494 -0.3972
 8596SOL    HW137424   2.952   0.570   1.203 -1.3511 -0.7786 -1.8650
 8596SOL    HW237425   2.958   0.551   1.347  2.0935  1.3842 -0.8638
 8597SOL     OW37426   0.673   2.547   2.252  0.1780  0.4900 -0.5054
 8597SOL    HW137427   0.732   2.597   2.309 -0.7095 -0.8633  1.6073
 8597SOL    HW237428   0.611   2.613   2.219 -0.9425  1.3126  3.2346
 8598SOL     OW37429   0.489   4.138   7.495 -0.0018 -0.1946  0.1317
 8598SOL    HW137430   0.438   4.193   7.436  0.2729  1.4493  1.4241
 8598SOL    HW237431   0.578   4.140   7.461 -0.0859  2.0846  0.0979
 8599SOL     OW37432   3.848   2.653   8.907 -0.1140 -0.0565 -0.5015
 8599SOL    HW137433   3.798   2.580   8.943 -0.2331  0.8891  1.2665
 8599SOL    HW237434   3.901   2.674   8.984  1.2644  0.9641 -1.7326
 8600SOL     OW37435   3.719   0.203   7.053 -0.1132  0.6457  0.2448
 8600SOL    HW137436   3.736   0.286   7.097 -3.6724 -0.2047  3.2531
 8600SOL    HW237437   3.639   0.214   7.001  0.3113 -2.7453 -1.1431
 8601SOL     OW37438   0.135   0.402  12.819  0.4637  0.3027 -0.1413
 8601SOL    HW137439   0.102   0.340  12.754  1.4579  0.2248 -0.5734
 8601SOL    HW237440   0.200   0.348  12.866 -1.4703 -3.3088 -1.6143
 8602SOL     OW37441   1.014   0.041  13.781 -0.4035 -0.1089 -0.2836
 8602SOL    HW137442   1.030   0.041  13.687  0.1195 -0.6233 -0.1928
 8602SOL    HW237443   1.050   0.125  13.809 -1.3671 -0.0096  0.6847
 8603SOL     OW37444   4.178   0.856  14.516  0.0338 -0.0022 -0.0442
 8603SOL    HW137445   4.226   0.774  14.510  1.5776  0.7594  2.1588
 8603SOL    HW237446   4.249   0.911  14.549  1.2897 -2.0859  0.6942
 8604SOL     OW37447   2.945   4.293  12.805 -0.0968  0.0228  0.0974
 8604SOL    HW137448   2.871   4.327  12.755  0.0253  0.1947  0.0312
 8604SOL    HW237449   3.013   4.297  12.737  1.5300 -0.5910  1.6855
 8605SOL     OW37450   1.247   4.336   2.722 -0.0796  0.7339  0.2158
 8605SOL    HW137451   1.263   4.383   2.804 -1.7117 -0.4627  1.2242
 8605SOL    HW237452   1.219   4.407   2.664  0.1147  0.9467  0.3815
 8606SOL     OW37453   1.477   1.898   8.431 -0.3368  0.8744 -0.0677
 8606SOL    HW137454   1.437   1.934   8.510  2.3536 -1.1322  2.2491
 8606SOL    HW237455   1.404   1.838   8.420 -0.9860  1.3581  1.5931
 8607SOL     OW37456   0.812   3.678   1.452 -0.2607  0.1833 -0.2733
 8607SOL    HW137457   0.836   3.727   1.531  1.6923 -1.4332  0.1186
 8607SOL    HW237458   0.788   3.591   1.484 -1.2070  0.7097  0.4489
 8608SOL     OW37459   2.193   2.108   3.240 -0.0667  0.6419  0.2271
 8608SOL    HW137460   2.172   2.199   3.257 -2.0027  0.2790 -0.2873
 8608SOL    HW237461   2.172   2.104   3.147  0.4035  0.4521  0.1247
 8609SOL     OW37462   2.703   1.417  10.793 -0.6024 -0.1087  0.2976
 8609SOL    HW137463   2.650   1.451  10.865  1.1855 -0.0920  1.6210
 8609SOL    HW237464   2.790   1.452  10.815  0.7300 -2.4069 -1.3015
 8610SOL     OW37465   0.476   2.738   4.175  0.0258 -0.0431  0.6672
 8610SOL    HW137466   0.529   2.773   4.104 -2.2885  1.6150 -0.2310
 8610SOL    HW237467   0.490   2.644   4.164  1.0726  0.1526  0.3149
 8611SOL     OW37468   4.694   3.507   5.638 -0.0116  0.2429  0.2001
 8611SOL    HW137469   4.737   3.524   5.723  0.0785 -1.5482  0.5175
 8611SOL    HW237470   0.029   3.469   5.588  0.4706  0.8301  0.4416
 8612SOL     OW37471   1.860   2.291   4.658 -0.0299  0.6240 -0.1079
 8612SOL    HW137472   1.816   2.364   4.614  0.3538  1.0567  0.2197
 8612SOL    HW237473   1.940   2.337   4.685 -0.4399  0.9035  0.6251
 8613SOL     OW37474   4.666   2.234  13.237 -0.8178 -0.0133 -0.0889
 8613SOL    HW137475   4.701   2.276  13.159 -1.3901 -0.7529 -0.7411
 8613SOL    HW237476   4.609   2.310  13.254 -1.1389  0.2133 -2.2195
 8614SOL     OW37477   4.703   0.900   9.639  0.2009  0.0094  0.1752
 8614SOL    HW137478   4.721   0.819   9.686  1.0898 -0.7464 -1.4654
 8614SOL    HW237479   4.621   0.887   9.593  1.1154  3.1618 -2.3390
 8615SOL     OW37480   0.191   0.292   4.672  0.0709 -0.3913  0.1417
 8615SOL    HW137481   0.257   0.346   4.715 -1.1792  0.5640  0.8535
 8615SOL    HW237482   0.160   0.246   4.750 -1.0641 -0.0964 -0.1441
 8616SOL     OW37483   4.494   1.111   6.565  0.2616 -0.2222 -0.2871
 8616SOL    HW137484   4.401   1.117   6.540  0.8095 -1.3003 -2.6040
 8616SOL    HW237485   4.500   1.201   6.597  0.0763  0.1987 -1.4155
 8617SOL     OW37486   0.045   4.642   4.668  0.0390 -0.0271  0.1290
 8617SOL    HW137487   0.033   4.569   4.728 -0.9964  0.6273  0.7290
 8617SOL    HW237488   0.100   4.703   4.718  2.0458 -0.7602 -1.1978
 8618SOL     OW37489   0.847   4.671   4.110  0.5720  0.3404  0.1136
 8618SOL    HW137490   0.857   4.605   4.179  0.1329 -0.3981 -0.5244
 8618SOL    HW237491   0.820   4.615   4.037 -0.7928  1.9436 -0.6346
 8619SOL     OW37492   1.790   3.676   4.848  0.9295 -0.4041  0.2442
 8619SOL    HW137493   1.694   3.671   4.846  0.8527  1.4367 -0.0455
 8619SOL    HW237494   1.812   3.754   4.799 -0.5626 -0.2956 -0.2619
 8620SOL     OW37495   2.037   2.303  16.842 -0.4278 -0.3556 -0.4721
 8620SOL    HW137496   2.000   2.360  16.774  3.2550  0.0263 -2.1487
 8620SOL    HW237497   1.998   2.334  16.924  0.4551  0.6394 -0.4314
 8621SOL     OW37498   0.391   3.563   5.460  0.2174 -0.1646 -0.5328
 8621SOL    HW137499   0.435   3.515   5.530 -1.2414 -2.5964 -1.2710
 8621SOL    HW237500   0.334   3.493   5.427 -0.0680  0.5436 -1.5448
 8622SOL     OW37501   0.841   3.169   3.072 -0.0177  0.7971  0.1549
 8622SOL    HW137502   0.789   3.204   3.000  1.0316  1.5689 -0.2393
 8622SOL    HW237503   0.927   3.158   3.030 -1.2893 -3.9703 -1.1986
 8623SOL     OW37504   4.440   0.556   5.266 -0.2548 -0.2311 -0.1725
 8623SOL    HW137505   4.473   0.500   5.336 -0.2253  0.5164  0.4158
 8623SOL    HW237506   4.452   0.644   5.301 -1.6981 -0.0340 -0.1824
 8624SOL     OW37507   1.701   0.737   2.166 -0.1505 -0.0583  0.0190
 8624SOL    HW137508   1.680   0.805   2.101 -1.8618 -1.4595 -0.8868
 8624SOL    HW237509   1.796   0.729   2.159 -0.0406  0.0590  1.3610
 8625SOL     OW37510   0.427   0.222   4.903 -0.0450  0.5314  0.2465
 8625SOL    HW137511   0.522   0.214   4.915  0.1035  1.0108 -0.5540
 8625SOL    HW237512   0.413   0.312   4.874 -1.1711 -0.0332 -0.9723
 8626SOL     OW37513   4.684   1.145  10.657 -0.4995 -0.2208  0.0404
 8626SOL    HW137514   4.617   1.097  10.608 -0.3251 -1.5711  1.1432
 8626SOL    HW237515   0.026   1.097  10.634  0.2910  1.6970 -1.1999
 8627SOL     OW37516   4.075   3.619  12.302 -0.4587  0.6650  0.2656
 8627SOL    HW137517   4.068   3.645  12.210 -0.0570  2.5087  0.7723
 8627SOL    HW237518   3.984   3.625  12.331 -0.5817 -0.6636  0.1542
 8628SOL     OW37519   3.029   0.007   3.768  0.4699 -0.2202  0.5702
 8628SOL    HW137520   3.096   4.735   3.700 -1.0994 -1.2149 -0.8213
 8628SOL    HW237521   3.066   0.074   3.825 -2.4322  2.5196 -0.8090
 8629SOL     OW37522   0.981   2.895  12.606 -0.5225 -0.8285  0.1272
 8629SOL    HW137523   1.060   2.868  12.559  1.4063  1.2915  2.1625
 8629SOL    HW237524   0.918   2.911  12.536 -0.1226 -0.8895 -0.2535
 8630SOL     OW37525   1.158   1.202  16.195  0.0288 -0.5038  0.1366
 8630SOL    HW137526   1.212   1.125  16.176 -1.4328 -1.7020  0.8339
 8630SOL    HW237527   1.097   1.188  16.123  1.3575  2.2839 -1.5777
 8631SOL     OW37528   1.342   0.505  12.416 -0.0357 -0.1791 -0.3415
 8631SOL    HW137529   1.339   0.595  12.384 -0.6505 -0.5713 -1.4031
 8631SOL    HW237530   1.262   0.505  12.469  0.7572 -0.2285  0.8486
 8632SOL     OW37531   3.020   3.223   9.220 -0.5618 -0.5591 -0.0061
 8632SOL    HW137532   2.961   3.185   9.285  1.8979 -2.7906  0.9082
 8632SOL    HW237533   2.962   3.264   9.156 -0.3938  1.2026  0.9502
 8633SOL     OW37534   4.311   0.200   3.065 -0.5561  0.1029  0.0084
 8633SOL    HW137535   4.267   0.124   3.103  2.0050 -1.4709 -0.1673
 8633SOL    HW237536   4.405   0.185   3.074 -0.8271 -0.2259  2.2669
 8634SOL     OW37537   1.442   0.287  10.444  0.3283  0.7187 -0.1836
 8634SOL    HW137538   1.486   0.267  10.361 -0.8079 -3.8503  0.2992
 8634SOL    HW237539   1.505   0.338  10.495  0.4727  0.1565  0.1963
 8635SOL     OW37540   4.019   0.755   8.601 -0.2471  0.1703 -0.3787
 8635SOL    HW137541   4.086   0.816   8.631 -0.7939  0.3870  0.3885
 8635SOL    HW237542   3.956   0.763   8.672 -0.2580  0.5695 -0.4334
 8636SOL     OW37543   1.075   4.169  12.383  0.1541  0.2747 -0.1150
 8636SOL    HW137544   1.021   4.228  12.437 -0.9995  0.4574 -1.4490
 8636SOL    HW237545   1.115   4.111  12.447  0.6847 -0.5506 -1.2039
 8637SOL     OW37546   1.946   3.172   3.483  0.1229 -0.7760  0.0475
 8637SOL    HW137547   1.897   3.218   3.415 -0.4429  2.2462  2.4885
 8637SOL    HW237548   2.026   3.160   3.432 -0.5392 -0.6323 -1.0201
 8638SOL     OW37549   3.257   0.257  13.954 -0.0928 -0.1532 -0.2699
 8638SOL    HW137550   3.166   0.266  13.927 -1.0656 -2.3009  2.2910
 8638SOL    HW237551   3.281   0.340  13.913 -1.0010  0.4133  0.3637
 8639SOL     OW37552   2.643   3.975   8.919  0.1275  0.0351 -0.0316
 8639SOL    HW137553   2.577   3.908   8.900  0.8583 -0.9110  0.7991
 8639SOL    HW237554   2.617   4.009   9.005  1.3947  2.4076 -0.5592
 8640SOL     OW37555   1.049   4.088   5.732 -0.2010  0.0062 -0.2149
 8640SOL    HW137556   0.994   4.012   5.710 -0.1944  0.6550 -2.4202
 8640SOL    HW237557   0.992   4.151   5.775  1.4253  1.5795 -0.3648
 8641SOL     OW37558   3.462   2.764   9.235  0.2391 -0.1990  0.0574
 8641SOL    HW137559   3.489   2.672   9.231  0.1726 -0.3101  1.9247
 8641SOL    HW237560   3.493   2.803   9.153  0.4239  0.0880  0.2622
 8642SOL     OW37561   1.592   3.229  12.706  0.0984  0.3390  0.3503
 8642SOL    HW137562   1.638   3.165  12.761 -0.0576 -1.8414 -2.0667
 8642SOL    HW237563   1.662   3.284  12.672  1.3410 -1.3372  0.1944
 8643SOL     OW37564   0.251   2.482   0.167 -0.2290  0.7151  0.5106
 8643SOL    HW137565   0.285   2.569   0.188 -0.5948  0.8549  0.5139
 8643SOL    HW237566   0.160   2.501   0.145 -0.2163 -0.8432 -0.9072
 8644SOL     OW37567   1.061   2.992   1.847  0.4852  0.0072  0.0094
 8644SOL    HW137568   1.029   3.018   1.934  2.4523  1.9021  0.1693
 8644SOL    HW237569   1.047   2.897   1.853  1.7882 -0.2733 -1.4513
 8645SOL     OW37570   0.190   4.728   6.609  0.2542 -0.0595 -0.2852
 8645SOL    HW137571   0.191   4.637   6.580  1.9674 -0.0062 -0.3666
 8645SOL    HW237572   0.230   4.723   6.696  1.0766 -0.0409 -0.6643
 8646SOL     OW37573   2.566   2.170   3.405 -0.5030  0.0455 -0.1065
 8646SOL    HW137574   2.481   2.180   3.447  1.3823  1.6442  3.3333
 8646SOL    HW237575   2.552   2.184   3.311 -1.9546  1.0914  0.2530
 8647SOL     OW37576   1.764   3.436   5.533  0.8285  0.1766  0.3026
 8647SOL    HW137577   1.796   3.361   5.584  2.2642 -0.0378 -0.9168
 8647SOL    HW237578   1.784   3.516   5.580 -2.6177 -0.4626  2.8524
 8648SOL     OW37579   1.607   2.833  10.575  1.0268  0.1267 -0.5066
 8648SOL    HW137580   1.564   2.756  10.539  0.6796  1.6000 -3.1874
 8648SOL    HW237581   1.561   2.906  10.536 -0.0005 -0.8297 -1.0707
 8649SOL     OW37582   3.114   2.031   9.516 -0.4439 -0.3534  0.3013
 8649SOL    HW137583   3.051   2.079   9.570 -0.2832 -1.1569  1.2126
 8649SOL    HW237584   3.067   1.958   9.476 -1.5592 -0.1163  1.1852
 8650SOL     OW37585   3.905   0.684   2.617 -0.0695  0.0494 -0.1479
 8650SOL    HW137586   3.926   0.629   2.692 -0.1048  0.3964  0.1187
 8650SOL    HW237587   3.831   0.737   2.646 -0.3951  1.1142 -2.9728
 8651SOL     OW37588   0.463   3.084   1.031 -0.3738 -0.3371  0.5825
 8651SOL    HW137589   0.515   3.069   1.110 -1.2569 -0.2591  1.1764
 8651SOL    HW237590   0.521   3.122   0.965  0.0904 -0.5682  0.8569
 8652SOL     OW37591   2.884   2.132   2.861 -0.3316  0.6448 -0.6373
 8652SOL    HW137592   2.962   2.157   2.811 -0.4405  2.6216  0.1478
 8652SOL    HW237593   2.875   2.044   2.825 -1.4216  0.9122 -1.0402
 8653SOL     OW37594   0.301   4.267   7.025 -0.1549  0.2937  0.7101
 8653SOL    HW137595   0.314   4.348   6.975  0.2313  0.0173  0.3558
 8653SOL    HW237596   0.394   4.244   7.035 -1.4587 -4.4146  2.1096
 8654SOL     OW37597   2.066   2.194   6.040  0.1423 -0.0928  0.1527
 8654SOL    HW137598   2.099   2.163   5.955 -0.5409  0.2324 -0.2313
 8654SOL    HW237599   2.110   2.279   6.044  0.2031 -0.1084 -0.1576
 8655SOL     OW37600   4.721   4.724   0.751  0.4769  0.3772 -0.0965
 8655SOL    HW137601   0.013   4.635   0.767  0.0408  0.4518  1.1490
 8655SOL    HW237602   0.042   0.036   0.809  1.4980 -2.3702  1.1708
 8656SOL     OW37603   2.059   2.116   7.319  0.1852  0.3203 -0.1061
 8656SOL    HW137604   2.025   2.046   7.375  2.2217 -0.4032  0.2309
 8656SOL    HW237605   1.994   2.186   7.324  1.2441  1.3832 -1.0189
 8657SOL     OW37606   2.370   1.826   3.803 -0.5582  0.4733  0.0447
 8657SOL    HW137607   2.345   1.850   3.892 -0.1792 -0.0426  0.2944
 8657SOL    HW237608   2.465   1.816   3.813 -0.1159  1.2987 -3.4110
 8658SOL     OW37609   1.361   4.490  10.882  0.2051  0.2236 -0.2506
 8658SOL    HW137610   1.362   4.486  10.977  1.8195  0.5940 -0.2445
 8658SOL    HW237611   1.452   4.466  10.865 -0.0006 -1.3628  0.8914
 8659SOL     OW37612   2.700   2.982   9.159 -0.2441 -0.4801  0.6257
 8659SOL    HW137613   2.613   3.000   9.123 -0.6262 -0.2306  1.6678
 8659SOL    HW237614   2.711   3.070   9.195  2.1629 -0.9299  0.9819
 8660SOL     OW37615   1.174   1.059   8.187 -0.1412  0.6962  0.3958
 8660SOL    HW137616   1.159   1.095   8.099 -3.0103  1.7560  1.3275
 8660SOL    HW237617   1.254   1.008   8.171 -1.1996 -0.6101 -0.8108
 8661SOL     OW37618   3.351   0.869   5.511  0.0834 -0.1636  0.9520
 8661SOL    HW137619   3.395   0.955   5.511  0.2189 -0.2293  0.3790
 8661SOL    HW237620   3.421   0.821   5.556  0.7252 -1.6003 -1.5463
 8662SOL     OW37621   1.469   1.400   7.954 -0.0635 -0.2405  0.1816
 8662SOL    HW137622   1.415   1.478   7.947 -0.7391 -0.9710 -2.4044
 8662SOL    HW237623   1.477   1.382   8.048  0.1005  0.1928  0.2485
 8663SOL     OW37624   1.881   0.081   4.225  0.0826  0.4424  0.0386
 8663SOL    HW137625   1.850   4.734   4.261 -0.5291  0.8189  0.3938
 8663SOL    HW237626   1.962   0.043   4.190 -0.1093  1.3000 -1.3270
 8664SOL     OW37627   2.488   0.088   6.591 -0.1039 -0.5653 -0.2199
 8664SOL    HW137628   2.460   0.013   6.539 -1.2791  0.5519 -1.1885
 8664SOL    HW237629   2.408   0.091   6.643  1.1882  0.2864  1.6969
 8665SOL     OW37630   3.727   0.822   6.170 -0.3538 -0.2176  0.0656
 8665SOL    HW137631   3.725   0.771   6.089 -1.3946  2.0918 -1.3713
 8665SOL    HW237632   3.633   0.841   6.177 -0.3112  0.0386 -0.0366
 8666SOL     OW37633   4.257   2.796   9.556  0.4105  0.4655  0.5266
 8666SOL    HW137634   4.238   2.843   9.637 -0.3949  2.1122 -0.6160
 8666SOL    HW237635   4.352   2.798   9.540  0.4055  0.3510  0.4836
 8667SOL     OW37636   3.957   3.005   6.343 -0.4447 -0.4019  0.2065
 8667SOL    HW137637   3.878   2.959   6.313 -1.3744  2.0845 -1.0774
 8667SOL    HW237638   4.019   2.980   6.275 -2.7536 -1.6971 -1.4142
 8668SOL     OW37639   0.617   2.526   6.174  0.4418  0.2603 -0.4231
 8668SOL    HW137640   0.654   2.439   6.188 -0.9891 -0.5276 -1.4280
 8668SOL    HW237641   0.561   2.501   6.100 -1.2660  0.6932  0.7136
 8669SOL     OW37642   2.168   0.762  15.698 -0.2289  0.3198 -0.2588
 8669SOL    HW137643   2.135   0.788  15.784 -1.5804 -0.0491 -0.6772
 8669SOL    HW237644   2.224   0.688  15.722  2.8840  2.4816 -0.8786
 8670SOL     OW37645   1.628   1.716   5.250  0.6504 -0.4603  0.3700
 8670SOL    HW137646   1.659   1.745   5.336 -1.6796  0.3405  0.9178
 8670SOL    HW237647   1.682   1.764   5.186  2.1585 -2.1202  0.4035
 8671SOL     OW37648   2.001   3.573   2.171  0.4836 -0.5721  0.2203
 8671SOL    HW137649   1.956   3.488   2.164  0.5115 -0.7060  1.7242
 8671SOL    HW237650   1.982   3.609   2.084  0.1437  0.5896  0.7737
 8672SOL     OW37651   0.523   1.053   4.418  0.4598 -0.2083  0.3747
 8672SOL    HW137652   0.583   0.979   4.402 -1.6864 -1.5807 -1.2811
 8672SOL    HW237653   0.452   1.032   4.357  0.0916  1.5855  0.1773
 8673SOL     OW37654   3.406   2.341  10.654  0.2731 -0.1017  0.3526
 8673SOL    HW137655   3.323   2.388  10.664  0.8019  1.0366 -0.6096
 8673SOL    HW237656   3.451   2.370  10.733  0.2204  0.0080  0.3426
 8674SOL     OW37657   3.199   3.677  12.387 -0.3737  0.2807  0.1899
 8674SOL    HW137658   3.259   3.737  12.344 -0.6716 -0.4610 -1.2486
 8674SOL    HW237659   3.174   3.725  12.466 -1.2290 -1.4369  0.9686
 8675SOL     OW37660   2.552   1.061  13.366  0.0529 -0.3068  0.0669
 8675SOL    HW137661   2.456   1.051  13.365 -0.0997  1.0917  0.4159
 8675SOL    HW237662   2.575   1.012  13.287  1.1861 -0.3683  0.4365
 8676SOL     OW37663   3.782   4.226   6.838  0.0165  0.2783 -0.3320
 8676SOL    HW137664   3.709   4.245   6.779  0.2572 -0.4980 -0.8692
 8676SOL    HW237665   3.789   4.131   6.840 -1.0500  0.2169  0.8710
 8677SOL     OW37666   4.272   3.783   5.282 -0.1249  0.2629 -0.1247
 8677SOL    HW137667   4.259   3.690   5.296  1.0737  0.1781  0.4451
 8677SOL    HW237668   4.313   3.785   5.196 -0.7060  1.7306 -0.3792
 8678SOL     OW37669   1.246   3.028   3.210 -0.3974  0.4725 -0.4010
 8678SOL    HW137670   1.250   3.100   3.273  2.9785 -2.1909  2.4242
 8678SOL    HW237671   1.193   2.961   3.253  1.5476 -1.1980 -0.5952
 8679SOL     OW37672   2.891   1.256   6.965  0.2190  0.0973  0.5133
 8679SOL    HW137673   2.812   1.300   6.931 -0.0314  1.5351  2.9017
 8679SOL    HW237674   2.964   1.316   6.952  0.3889 -0.1803  0.2026
 8680SOL     OW37675   2.991   3.273   7.553  0.5203 -0.0512  0.0354
 8680SOL    HW137676   2.987   3.349   7.495 -3.1996  0.0975  0.5389
 8680SOL    HW237677   2.906   3.279   7.596  0.7170 -1.2321  0.6176
 8681SOL     OW37678   0.910   3.292   5.591 -0.5273  0.3256 -0.3109
 8681SOL    HW137679   0.991   3.251   5.622 -1.1504  1.1146  2.3926
 8681SOL    HW237680   0.900   3.239   5.512 -1.3777  0.8050 -0.5275
 8682SOL     OW37681   0.883   1.645   8.741  0.3698 -0.3891 -0.3853
 8682SOL    HW137682   0.912   1.671   8.828 -0.3738 -0.2177 -0.1858
 8682SOL    HW237683   0.802   1.694   8.728  1.0850  0.7663 -0.4192
 8683SOL     OW37684   0.614   3.659   6.328  0.1672 -0.2182 -0.3107
 8683SOL    HW137685   0.577   3.574   6.352  1.2530 -0.1176  1.7809
 8683SOL    HW237686   0.707   3.640   6.311  0.5150  1.0576  0.0976
 8684SOL     OW37687   3.883   3.692  11.589  0.0006  0.4691 -0.0020
 8684SOL    HW137688   3.933   3.610  11.601 -1.1374 -0.2885 -0.4628
 8684SOL    HW237689   3.801   3.661  11.551  0.9022 -1.5773 -0.2907
 8685SOL     OW37690   4.211   0.598   0.576  0.4895 -0.4689  0.2168
 8685SOL    HW137691   4.274   0.668   0.557 -0.3359  0.7310  1.9233
 8685SOL    HW237692   4.231   0.581   0.668  1.0329  0.0504  0.1931
 8686SOL     OW37693   2.163   2.810   6.839  0.0643 -0.0135 -0.9429
 8686SOL    HW137694   2.091   2.788   6.899 -1.4552  1.1300 -2.3221
 8686SOL    HW237695   2.146   2.734   6.784 -1.3928  0.4632 -1.1513
 8687SOL     OW37696   4.337   2.012   5.956  0.1790  0.6940  0.5403
 8687SOL    HW137697   4.382   2.041   5.877 -1.1886  0.2162 -0.4203
 8687SOL    HW237698   4.277   1.947   5.919  0.7581  0.8116 -0.6032
 8688SOL     OW37699   1.967   1.388  16.039  0.3836 -0.1846  0.0748
 8688SOL    HW137700   1.885   1.355  16.003 -0.8687  2.9662  0.0334
 8688SOL    HW237701   1.991   1.463  15.984  0.2449  0.4700  0.9110
 8689SOL     OW37702   2.854   2.931   3.366  0.4899 -0.1668  0.1861
 8689SOL    HW137703   2.948   2.935   3.380  0.2195  0.8263  1.6450
 8689SOL    HW237704   2.833   2.903   3.277  0.3343 -1.5586  0.6659
 8690SOL     OW37705   1.451   4.235   3.713 -0.5723  0.0663  0.3567
 8690SOL    HW137706   1.486   4.278   3.792 -1.7467  1.2570  0.2380
 8690SOL    HW237707   1.489   4.148   3.725 -1.6734 -0.1165  2.6124
 8691SOL     OW37708   0.578   2.722   7.935  0.0693 -0.1103  0.1379
 8691SOL    HW137709   0.565   2.789   7.868  0.4820  1.1846  1.3449
 8691SOL    HW237710   0.504   2.664   7.916 -0.3258 -0.0107  1.3680
 8692SOL     OW37711   4.723   0.277  16.728  0.2477 -0.4510 -0.0215
 8692SOL    HW137712   4.680   0.345  16.675  1.0197  0.0752  0.0248
 8692SOL    HW237713   4.723   0.202  16.668 -1.5724  1.0691 -1.9089
 8693SOL     OW37714   0.779   3.621   5.178 -0.4497  0.6420 -0.3114
 8693SOL    HW137715   0.791   3.571   5.259 -1.0339  0.1108 -0.5506
 8693SOL    HW237716   0.786   3.541   5.125  0.4037  2.1940 -2.5452
 8694SOL     OW37717   1.512   2.830   9.535 -0.0556 -0.1509  0.8068
 8694SOL    HW137718   1.601   2.857   9.557 -0.3206  1.2710  0.1778
 8694SOL    HW237719   1.480   2.783   9.611  0.6477 -1.0414  0.5484
 8695SOL     OW37720   0.676   2.126  11.899  0.2033 -1.0288  0.2086
 8695SOL    HW137721   0.672   2.097  11.808 -0.2082 -0.5277  0.0680
 8695SOL    HW237722   0.641   2.051  11.948  0.8459 -0.1107  2.0958
 8696SOL     OW37723   1.236   2.934   4.446  0.2774  0.7492  0.2259
 8696SOL    HW137724   1.290   2.895   4.377  1.9706  0.2206  1.8372
 8696SOL    HW237725   1.187   2.858   4.479  2.4333 -1.5381 -1.8353
 8697SOL     OW37726   0.690   1.439   2.192  0.2104 -0.2692 -0.3297
 8697SOL    HW137727   0.631   1.423   2.265  2.4353  0.1987  1.5651
 8697SOL    HW237728   0.743   1.364   2.220  1.4624  0.5327 -0.5639
 8698SOL     OW37729   3.255   0.509   4.910  0.2240  0.5510  0.8910
 8698SOL    HW137730   3.331   0.456   4.938 -0.3020 -1.0006 -0.6522
 8698SOL    HW237731   3.302   0.587   4.880 -2.6771  1.4321 -1.2555
 8699SOL     OW37732   2.172   1.883  10.446  0.2278 -0.3498  0.2396
 8699SOL    HW137733   2.185   1.847  10.534  0.7985 -0.1498  0.2400
 8699SOL    HW237734   2.078   1.897  10.457  0.1223  0.0009 -1.1302
 8700SOL     OW37735   2.107   2.160   1.682 -0.4364 -0.4741  0.2352
 8700SOL    HW137736   2.087   2.244   1.723 -0.0772  0.4555 -1.4901
 8700SOL    HW237737   2.016   2.136   1.667 -0.4671 -0.2160  0.0235
 8701SOL     OW37738   1.652   2.125  12.680  0.0164 -0.2857  0.3706
 8701SOL    HW137739   1.635   2.192  12.746  0.3565  1.1467 -0.9895
 8701SOL    HW237740   1.625   2.055  12.739  0.5521 -0.7943  0.0117
 8702SOL     OW37741   4.584   4.220   5.754  0.2839  0.2257  0.2350
 8702SOL    HW137742   4.564   4.265   5.672  0.3297  1.3482  0.8283
 8702SOL    HW237743   4.496   4.187   5.767  0.7602 -1.0820  0.1281
 8703SOL     OW37744   0.358   3.861   6.502 -0.0768 -1.0150  0.1588
 8703SOL    HW137745   0.346   3.766   6.503 -1.2314 -0.8940 -0.9814
 8703SOL    HW237746   0.335   3.888   6.413 -0.8036  1.9100  1.2574
 8704SOL     OW37747   2.154   2.291  16.090  0.3777 -0.1384  0.2761
 8704SOL    HW137748   2.105   2.365  16.054 -3.5061 -1.9965  1.6416
 8704SOL    HW237749   2.245   2.311  16.070  0.9856 -2.5416  0.6171
 8705SOL     OW37750   1.313   2.948   5.575 -0.0717 -0.1187  0.0364
 8705SOL    HW137751   1.320   2.874   5.516 -1.6301 -2.2186  2.5109
 8705SOL    HW237752   1.381   2.918   5.635  1.7042  1.2212 -1.3052
 8706SOL     OW37753   1.920   1.277  14.233  0.6933  0.4806 -0.3369
 8706SOL    HW137754   1.826   1.275  14.247  1.3589 -2.4478  3.4780
 8706SOL    HW237755   1.929   1.219  14.157  1.4944 -1.0260  0.9183
 8707SOL     OW37756   2.607   2.733   8.765  0.7301  0.0602  0.1468
 8707SOL    HW137757   2.540   2.793   8.799  1.8561  1.8855 -0.8996
 8707SOL    HW237758   2.666   2.745   8.839  1.7098 -0.9954 -0.4634
 8708SOL     OW37759   2.720   1.586   6.413  0.0818  0.7006 -0.4085
 8708SOL    HW137760   2.638   1.599   6.367 -1.5505 -1.4794  1.8431
 8708SOL    HW237761   2.720   1.649   6.485  2.3154 -0.6464  0.7787
 8709SOL     OW37762   2.505   4.277   7.156 -0.4476 -0.6316  0.2707
 8709SOL    HW137763   2.423   4.325   7.166 -0.9541 -1.7538  1.6046
 8709SOL    HW237764   2.553   4.314   7.230 -1.9639  0.9833  0.4510
 8710SOL     OW37765   4.185   0.202   3.676  0.3713  0.0861  0.2505
 8710SOL    HW137766   4.223   0.190   3.589  0.3590  0.1891  0.2307
 8710SOL    HW237767   4.252   0.239   3.733  0.7931 -0.2499 -0.0180
 8711SOL     OW37768   0.547   1.644   6.762 -0.3530  0.4643 -0.3314
 8711SOL    HW137769   0.600   1.631   6.684 -1.0967 -3.8669 -0.0975
 8711SOL    HW237770   0.568   1.561   6.805 -0.6330  2.0113  2.7927
 8712SOL     OW37771   2.210   0.197  13.970 -0.0954 -0.2966 -0.3367
 8712SOL    HW137772   2.281   0.184  14.032 -0.7272 -2.2936 -0.0321
 8712SOL    HW237773   2.268   0.220  13.898 -0.0802  0.0019 -0.2279
 8713SOL     OW37774   2.429   2.643  12.384  0.0700  0.5202  0.0319
 8713SOL    HW137775   2.479   2.581  12.436  2.0278  0.5396 -1.8508
 8713SOL    HW237776   2.496   2.705  12.356 -0.8438  1.6294  0.2848
 8714SOL     OW37777   2.104   2.477  15.549  0.4711  0.1808 -0.4767
 8714SOL    HW137778   2.142   2.389  15.547  0.2865  0.0710  1.9954
 8714SOL    HW237779   2.149   2.520  15.476 -0.4334 -0.5370 -1.4681
 8715SOL     OW37780   3.084   3.559   3.545 -0.4660 -0.1433 -0.0137
 8715SOL    HW137781   3.019   3.493   3.521  1.3813 -1.4607 -1.3735
 8715SOL    HW237782   3.025   3.625   3.581 -0.5127  0.6046 -1.4469
 8716SOL     OW37783   0.236   3.298   5.802 -0.5970 -0.3166  0.2465
 8716SOL    HW137784   0.247   3.337   5.889  0.0473  0.4861 -0.1947
 8716SOL    HW237785   0.226   3.376   5.748  0.4387 -0.2662  0.1365
 8717SOL     OW37786   1.072   1.948   0.988 -0.3884  0.0055  0.1833
 8717SOL    HW137787   1.024   1.896   0.922 -1.1057 -0.8607  1.3854
 8717SOL    HW237788   1.146   1.891   1.006  0.0542  0.8719  1.0756
 8718SOL     OW37789   1.746   1.857  12.787 -0.3135 -0.0457  0.1533
 8718SOL    HW137790   1.668   1.814  12.820 -0.8989  1.1868  0.3892
 8718SOL    HW237791   1.800   1.857  12.866 -1.0983 -0.9661  0.6821
 8719SOL     OW37792   1.075   1.811   7.091  0.0923  0.1124 -0.0505
 8719SOL    HW137793   1.131   1.816   7.169  1.5322  2.0208 -1.2222
 8719SOL    HW237794   1.019   1.888   7.089 -1.1601 -0.8235 -1.3129
 8720SOL     OW37795   2.128   0.916  16.036 -0.5712  0.2457 -0.0910
 8720SOL    HW137796   2.169   0.907  16.122  0.1678 -1.2747 -0.6038
 8720SOL    HW237797   2.134   1.011  16.028  2.3793  0.0407 -0.3349
 8721SOL     OW37798   3.919   3.185  11.706 -0.1930 -0.0486  0.6021
 8721SOL    HW137799   4.002   3.232  11.698  0.0272 -0.3128  1.3571
 8721SOL    HW237800   3.940   3.095  11.678 -0.3075  0.4207 -0.9858
 8722SOL     OW37801   1.097   3.661   4.994 -0.0762 -0.1582  0.1053
 8722SOL    HW137802   1.151   3.686   4.919  0.1105  0.3469  0.4057
 8722SOL    HW237803   1.139   3.576   5.011  2.7091  0.8688 -1.6207
 8723SOL     OW37804   1.459   2.155   3.524  0.2729 -0.2191 -0.2381
 8723SOL    HW137805   1.419   2.071   3.543  0.6288 -0.8406 -2.2494
 8723SOL    HW237806   1.546   2.122   3.501  0.1328  0.7547 -2.1886
 8724SOL     OW37807   1.263   2.012   2.765 -0.3417  0.0494 -0.1330
 8724SOL    HW137808   1.234   1.938   2.818  1.9667 -2.5927 -2.5879
 8724SOL    HW237809   1.269   1.975   2.678 -0.2818 -0.8093  0.2401
 8725SOL     OW37810   2.088   1.934  11.910 -0.0060 -0.7420 -0.3220
 8725SOL    HW137811   2.028   1.927  11.984  3.1595 -3.4513  1.9554
 8725SOL    HW237812   2.104   2.028  11.905 -1.8996 -0.3260  1.4974
 8726SOL     OW37813   3.533   3.780   2.818  0.1977 -0.2494 -0.4528
 8726SOL    HW137814   3.625   3.768   2.799  0.3445 -2.5460  1.7892
 8726SOL    HW237815   3.529   3.842   2.891  2.1606 -1.1183  0.3811
 8727SOL     OW37816   4.308   0.404   5.728  0.1899 -0.7329 -0.2820
 8727SOL    HW137817   4.261   0.414   5.645 -0.7897 -0.0311  0.3649
 8727SOL    HW237818   4.273   0.317   5.746  1.4828 -1.3445 -0.6933
 8728SOL     OW37819   3.474   0.275  16.634 -0.2656 -0.3261 -0.1333
 8728SOL    HW137820   3.422   0.194  16.635 -2.5861  1.1662 -1.4733
 8728SOL    HW237821   3.548   0.247  16.582 -1.2787  1.4867 -2.5124
 8729SOL     OW37822   0.899   4.697   7.112  0.3409 -0.0586 -0.2390
 8729SOL    HW137823   0.902   4.669   7.204  0.6217  1.2104  0.1286
 8729SOL    HW237824   0.980   0.009   7.103  0.0645  0.4235 -0.1236
 8730SOL     OW37825   3.970   3.249  17.065 -0.4200 -0.4248  0.0249
 8730SOL    HW137826   3.984   3.204  17.149 -2.5077 -0.7998  0.1783
 8730SOL    HW237827   3.893   3.305  17.077 -0.4892  0.1276 -3.0286
 8731SOL     OW37828   2.575   3.828   6.614  0.0916  0.0165 -0.4726
 8731SOL    HW137829   2.521   3.871   6.680  1.0566  0.4537  0.0235
 8731SOL    HW237830   2.564   3.739   6.646  0.6900 -0.0592 -0.4868
 8732SOL     OW37831   1.855   0.178   8.794 -0.5286 -0.4926 -0.2042
 8732SOL    HW137832   1.835   0.263   8.834 -1.2782 -0.0131 -1.5926
 8732SOL    HW237833   1.766   0.158   8.765 -0.9815  0.3259  0.6375
 8733SOL     OW37834   4.509   3.021   5.352  0.6578 -0.5914 -0.0766
 8733SOL    HW137835   4.427   2.976   5.331  0.6269 -1.8938  2.7482
 8733SOL    HW237836   4.506   3.023   5.448 -2.3325 -0.4862 -0.1779
 8734SOL     OW37837   4.560   0.458  12.953 -0.0938 -0.6693 -0.0908
 8734SOL    HW137838   4.638   0.433  13.001  0.5967  2.9141  0.6575
 8734SOL    HW237839   4.501   0.493  13.020  1.0529  0.2760  0.4149
 8735SOL     OW37840   2.463   1.271   9.251  0.5761 -0.3090  0.2626
 8735SOL    HW137841   2.400   1.262   9.179 -1.6257  3.4835  1.7468
 8735SOL    HW237842   2.403   1.259   9.325  1.9875 -1.0797  1.2980
 8736SOL     OW37843   1.607   4.449  10.810 -0.4933  0.3161  0.0869
 8736SOL    HW137844   1.647   4.519  10.863  1.1089  0.6938 -1.6230
 8736SOL    HW237845   1.678   4.395  10.776  0.2274  0.5786  1.1418
 8737SOL     OW37846   1.245   4.649   6.917 -0.4914  0.8752 -0.2181
 8737SOL    HW137847   1.224   4.714   6.850  2.0269  1.0892 -0.7858
 8737SOL    HW237848   1.249   4.703   6.996  0.3019  1.3951 -0.6250
 8738SOL     OW37849   3.036   2.886   0.702 -0.1630 -0.1499 -0.2116
 8738SOL    HW137850   3.045   2.798   0.665  0.9563 -0.2003  0.1828
 8738SOL    HW237851   3.086   2.867   0.782 -1.3186  0.8763  0.7500
 8739SOL     OW37852   1.612   3.597   9.010  0.0292  0.1179  0.1841
 8739SOL    HW137853   1.675   3.584   8.939 -1.5127  1.7710 -1.5043
 8739SOL    HW237854   1.528   3.610   8.965  0.6241  0.1181 -0.9305
 8740SOL     OW37855   1.694   2.304  12.895  0.2046 -0.0428  0.1150
 8740SOL    HW137856   1.643   2.360  12.836  1.2798  0.5023 -0.2978
 8740SOL    HW237857   1.759   2.366  12.927  1.4465 -0.5111 -1.4340
 8741SOL     OW37858   4.337   1.634   2.581 -0.1135 -0.1013  0.3343
 8741SOL    HW137859   4.266   1.583   2.543 -0.3769 -0.9691  2.0050
 8741SOL    HW237860   4.390   1.645   2.501  0.3234 -0.1446  0.6206
 8742SOL     OW37861   0.707   0.265   2.960 -0.1403  0.4520 -0.7002
 8742SOL    HW137862   0.728   0.341   2.905 -0.0944  0.5466 -0.5528
 8742SOL    HW237863   0.794   0.263   3.000 -0.5590 -0.1644  0.1821
 8743SOL     OW37864   0.643   3.065   4.916  0.1983 -0.0070 -0.5307
 8743SOL    HW137865   0.550   3.051   4.932 -0.4198  1.0326 -3.2020
 8743SOL    HW237866   0.667   2.994   4.856 -0.3407  1.4008 -2.3911
 8744SOL     OW37867   3.638   1.258   2.420  0.0508 -0.2184 -0.1181
 8744SOL    HW137868   3.709   1.263   2.483 -1.7253  0.3623  1.8547
 8744SOL    HW237869   3.685   1.240   2.339 -0.5650 -1.5634 -0.1755
 8745SOL     OW37870   1.900   0.648  13.488 -0.3708 -0.4678 -0.5618
 8745SOL    HW137871   1.961   0.634  13.416  1.5987  1.4478  0.7195
 8745SOL    HW237872   1.819   0.619  13.447  0.8840 -1.7439 -2.1396
 8746SOL     OW37873   4.486   0.970   4.393  1.0250  0.1227  0.5409
 8746SOL    HW137874   4.476   0.876   4.404  1.3589  0.0243  0.0099
 8746SOL    HW237875   4.393   0.993   4.392  0.5411 -1.7830  2.0016
 8747SOL     OW37876   4.141   0.884   7.098  0.0312  1.1413 -0.1875
 8747SOL    HW137877   4.232   0.876   7.069 -0.0985 -2.0793  0.2257
 8747SOL    HW237878   4.160   0.866   7.190 -0.4768 -0.8015 -0.4567
 8748SOL     OW37879   2.186   3.820   5.397 -0.2219 -0.1509  0.3747
 8748SOL    HW137880   2.126   3.767   5.345 -1.1983  1.6529 -0.3415
 8748SOL    HW237881   2.258   3.761   5.379 -0.1237  0.7690 -2.1789
 8749SOL     OW37882   2.034   3.618  11.567  0.0868  0.7670  0.2550
 8749SOL    HW137883   1.958   3.561  11.577  1.0355 -0.4001  0.7456
 8749SOL    HW237884   1.992   3.703  11.582 -1.3001  0.2588 -0.6943
 8750SOL     OW37885   1.632   2.429   7.302 -0.7126 -0.1282  1.2306
 8750SOL    HW137886   1.570   2.375   7.253  1.1305  0.1787 -1.4716
 8750SOL    HW237887   1.609   2.516   7.268  0.1243 -0.7415 -0.9142
 8751SOL     OW37888   3.871   0.208  17.552  0.8745  0.0597  0.1272
 8751SOL    HW137889   3.802   0.262  17.513  1.4477  0.0656 -0.8708
 8751SOL    HW237890   3.814   0.131  17.556  1.6431 -0.4111  1.7350
 8752SOL     OW37891   0.916   3.842   9.252  0.8487  0.1601 -0.2990
 8752SOL    HW137892   0.909   3.866   9.159 -0.3502  1.1701  0.0577
 8752SOL    HW237893   0.914   3.747   9.262  2.2503  0.2240  0.5492
 8753SOL     OW37894   1.145   1.488  12.546 -0.5700 -0.1161  0.0880
 8753SOL    HW137895   1.081   1.418  12.534 -0.9307  0.3045 -0.4315
 8753SOL    HW237896   1.210   1.447  12.604  0.1512  0.3364 -0.4075
 8754SOL     OW37897   0.973   1.078   0.785  0.2874 -0.0235 -0.0616
 8754SOL    HW137898   1.012   1.155   0.826 -1.7881 -0.1676  2.1711
 8754SOL    HW237899   1.046   1.016   0.778  0.7567  0.8021 -2.6212
 8755SOL     OW37900   1.936   1.756  13.666 -0.0754 -0.0153  0.1173
 8755SOL    HW137901   1.851   1.760  13.710 -0.7060 -0.0389 -1.1124
 8755SOL    HW237902   1.910   1.764  13.574 -0.7143  2.4457  0.5345
 8756SOL     OW37903   0.335   2.130   8.128  0.0130 -0.2255 -0.0816
 8756SOL    HW137904   0.413   2.128   8.184  1.4285  0.9437 -2.0267
 8756SOL    HW237905   0.377   2.086   8.055  2.2811  1.9998 -0.1062
 8757SOL     OW37906   0.398   4.480   6.903  1.1211 -0.2548 -0.4873
 8757SOL    HW137907   0.434   4.460   6.817 -0.0305 -1.0278 -0.7918
 8757SOL    HW237908   0.478   4.519   6.939  0.2321  1.5308 -0.4495
 8758SOL     OW37909   3.981   1.849   3.461 -0.2533  0.3193 -0.1695
 8758SOL    HW137910   3.932   1.836   3.542 -1.2825 -0.9637 -0.9828
 8758SOL    HW237911   3.977   1.761   3.423  1.0528  0.7956 -1.4278
 8759SOL     OW37912   0.190   2.436  17.336 -0.5876 -0.2116 -0.1550
 8759SOL    HW137913   0.168   2.478  17.419  1.2635  1.0900 -0.3362
 8759SOL    HW237914   0.242   2.361  17.366 -0.8081 -0.7660 -1.1582
 8760SOL     OW37915   3.191   3.907  13.798  0.0594 -0.3342 -0.2813
 8760SOL    HW137916   3.188   3.955  13.715 -1.0341  1.1331  0.6022
 8760SOL    HW237917   3.127   3.838  13.786 -1.5748  1.0629  0.4423
 8761SOL     OW37918   4.323   2.010   5.654 -0.2588  0.3389  0.1401
 8761SOL    HW137919   4.404   1.958   5.652 -1.5962 -1.7512  1.0320
 8761SOL    HW237920   4.260   1.945   5.684  0.0486  0.7291  1.6321
 8762SOL     OW37921   1.869   2.588   1.840 -0.3867 -0.3809 -0.2366
 8762SOL    HW137922   1.894   2.578   1.748  0.2657 -0.8432 -0.0081
 8762SOL    HW237923   1.774   2.577   1.838 -0.3217 -1.3211  1.9243
 8763SOL     OW37924   0.138   0.845   5.606 -0.3369 -0.0020 -0.0565
 8763SOL    HW137925   0.136   0.759   5.648 -2.4353 -0.4750 -1.1025
 8763SOL    HW237926   0.169   0.897   5.680  1.6789 -3.5766  1.5910
 8764SOL     OW37927   2.432   1.472   6.517 -0.1982  0.2679 -0.3190
 8764SOL    HW137928   2.461   1.508   6.601 -1.2431 -1.0108  0.5979
 8764SOL    HW237929   2.455   1.549   6.465 -1.5935  1.2172  0.4813
 8765SOL     OW37930   0.600   2.889   7.163 -0.0531  0.3237 -0.0972
 8765SOL    HW137931   0.590   2.860   7.072  0.8373  0.0091 -0.0887
 8765SOL    HW237932   0.677   2.833   7.161  0.9528  1.7389 -1.3235
 8766SOL     OW37933   1.568   3.252   8.544  0.6798 -0.5455  0.1069
 8766SOL    HW137934   1.543   3.339   8.514  0.6674 -0.8995 -0.9007
 8766SOL    HW237935   1.625   3.275   8.617 -3.0635  0.5360  2.6947
 8767SOL     OW37936   4.101   2.636  16.934 -0.4106 -0.2288 -0.9217
 8767SOL    HW137937   4.188   2.599  16.950  0.0180  1.4912  0.7079
 8767SOL    HW237938   4.052   2.586  16.999 -0.2912 -2.2559 -2.4031
 8768SOL     OW37939   2.086   0.962   1.762  0.5852  0.1927  0.3490
 8768SOL    HW137940   2.129   0.955   1.848 -0.7395 -0.4703  0.9486
 8768SOL    HW237941   2.002   1.005   1.778 -0.6565 -2.7113  1.6885
 8769SOL     OW37942   0.116   2.170   7.857 -0.3409  0.3751 -0.0326
 8769SOL    HW137943   0.137   2.227   7.783 -2.0828  2.5661  1.1658
 8769SOL    HW237944   0.184   2.104   7.844 -0.0305  0.0932  3.0823
 8770SOL     OW37945   2.599   3.200   5.600 -0.0411 -0.1777 -0.5148
 8770SOL    HW137946   2.652   3.225   5.524 -0.2271 -0.4646 -0.7411
 8770SOL    HW237947   2.510   3.224   5.573 -0.6297  0.6948  2.1610
 8771SOL     OW37948   0.602   1.127   3.193  0.1089 -0.4182 -1.0931
 8771SOL    HW137949   0.556   1.206   3.164  1.5861  0.9353  0.2543
 8771SOL    HW237950   0.685   1.154   3.234 -1.1233 -0.0439  1.1583
 8772SOL     OW37951   4.362   1.655   1.708  0.3510  0.2802 -0.0819
 8772SOL    HW137952   4.440   1.608   1.677  0.4689  0.0042  0.6343
 8772SOL    HW237953   4.385   1.748   1.714 -1.7623  0.7849  0.2590
 8773SOL     OW37954   2.565   2.981   5.762  0.0802  0.6821 -0.0429
 8773SOL    HW137955   2.500   3.016   5.823  0.3526  1.4651 -0.2102
 8773SOL    HW237956   2.593   3.058   5.714 -1.6917  1.3946  0.0606
 8774SOL     OW37957   0.307   1.518   2.312 -0.0618  0.9854  0.0143
 8774SOL    HW137958   0.389   1.472   2.332 -0.1622  0.2235 -1.3281
 8774SOL    HW237959   0.333   1.570   2.236 -2.1888  1.1473 -0.6041
 8775SOL     OW37960   2.749   3.787   2.233 -0.0851  0.2100 -0.0608
 8775SOL    HW137961   2.712   3.703   2.205  1.9243 -0.4761 -0.6668
 8775SOL    HW237962   2.737   3.840   2.155 -1.1352 -0.4197 -0.3230
 8776SOL     OW37963   0.901   1.519   4.734  0.0700 -1.0108  0.2040
 8776SOL    HW137964   0.805   1.516   4.745  0.2158  0.7095  2.0166
 8776SOL    HW237965   0.909   1.589   4.798  0.0138 -1.9835  1.2876
 8777SOL     OW37966   1.283   2.672   3.115 -0.5141  0.7085 -0.2011
 8777SOL    HW137967   1.192   2.689   3.139  0.4579 -0.4987  4.2169
 8777SOL    HW237968   1.327   2.637   3.192 -0.5491  1.1645  0.0261
 8778SOL     OW37969   4.390   0.369   3.865  0.1501  0.3731 -0.1253
 8778SOL    HW137970   4.407   0.310   3.938  0.9574 -0.7613 -1.2387
 8778SOL    HW237971   4.479   0.378   3.832 -0.5423  1.3658 -1.7428
 8779SOL     OW37972   1.796   3.906   9.812  0.6379  0.1875 -0.6305
 8779SOL    HW137973   1.764   3.988   9.849 -2.1712 -1.8634  1.5083
 8779SOL    HW237974   1.731   3.890   9.744 -0.3497 -0.4471  0.4596
 8780SOL     OW37975   0.230   3.575   0.479 -0.2169  0.3994 -0.0091
 8780SOL    HW137976   0.142   3.572   0.440  0.2553 -0.5717 -1.0281
 8780SOL    HW237977   0.289   3.594   0.406  0.8791  1.0804  1.0603
 8781SOL     OW37978   2.611   4.038   9.182  0.0750  0.1925  0.6309
 8781SOL    HW137979   2.551   4.058   9.254 -0.6479  1.7253 -0.4322
 8781SOL    HW237980   2.658   3.962   9.219  0.0605 -1.5520 -2.9226
 8782SOL     OW37981   3.370   1.571   5.187 -0.5719 -0.0542  0.4374
 8782SOL    HW137982   3.414   1.652   5.210  1.8797 -1.0945 -0.6435
 8782SOL    HW237983   3.437   1.514   5.224  0.8741  0.8204 -0.8261
 8783SOL     OW37984   0.926   3.207   9.161 -0.2384  0.0162  1.1361
 8783SOL    HW137985   0.848   3.160   9.133  2.2315 -3.4178  0.0244
 8783SOL    HW237986   0.921   3.265   9.085  1.2263 -0.5261  0.6289
 8784SOL     OW37987   1.874   2.157   1.057 -1.1559  0.1532 -0.3032
 8784SOL    HW137988   1.801   2.113   1.014 -0.1169 -0.9973 -0.9073
 8784SOL    HW237989   1.923   2.174   0.976 -0.5705 -2.2014 -0.4387
 8785SOL     OW37990   4.117   2.933   4.017 -0.1915  0.1879  0.4497
 8785SOL    HW137991   4.159   2.906   3.935 -1.0595  0.6172 -0.1424
 8785SOL    HW237992   4.026   2.909   3.996 -0.3174  1.6362 -0.7239
 8786SOL     OW37993   2.742   3.610   3.917  0.2054 -0.0372  0.2421
 8786SOL    HW137994   2.782   3.555   3.850 -3.6618 -2.5691  0.0119
 8786SOL    HW237995   2.695   3.537   3.957 -0.8887 -0.2526 -1.4205
 8787SOL     OW37996   2.289   3.792   3.836 -0.9463  0.2547 -0.5723
 8787SOL    HW137997   2.244   3.709   3.853 -0.2308 -0.6201 -2.9028
 8787SOL    HW237998   2.236   3.825   3.763 -0.2300  0.0079 -1.2048
 8788SOL     OW37999   0.181   1.421  15.778  0.4155 -0.4502  0.2850
 8788SOL    HW138000   0.200   1.509  15.810  0.2769 -0.4009  0.2344
 8788SOL    HW238001   0.202   1.435  15.685  1.6795 -0.0639  0.6282
 8789SOL     OW38002   2.753   3.174   6.731  0.1865 -0.1998 -0.5318
 8789SOL    HW138003   2.665   3.153   6.700 -0.8299  3.3041 -0.0392
 8789SOL    HW238004   2.790   3.088   6.714 -0.4963 -0.8415  1.2627
 8790SOL     OW38005   3.204   0.009  15.822 -0.0002  0.1050  0.0786
 8790SOL    HW138006   3.117   0.026  15.787  0.7702  1.7380 -1.0411
 8790SOL    HW238007   3.222   0.095  15.862 -1.1919  0.1198  0.5723
 8791SOL     OW38008   1.954   2.784   0.371  0.3738  0.8583 -0.2847
 8791SOL    HW138009   1.955   2.691   0.350  0.8573  1.4112 -2.6699
 8791SOL    HW238010   1.907   2.790   0.455 -0.8974 -0.7969 -0.8676
 8792SOL     OW38011   2.208   2.769   9.724  0.0728  0.2153 -0.2456
 8792SOL    HW138012   2.209   2.777   9.819  0.7342  2.2510 -0.4185
 8792SOL    HW238013   2.132   2.713   9.707  1.9987 -2.0644 -1.3931
 8793SOL     OW38014   1.424   2.530   2.177 -0.4679  0.7711 -0.7637
 8793SOL    HW138015   1.459   2.441   2.165  1.3903  1.1077  2.1293
 8793SOL    HW238016   1.461   2.564   2.258 -1.2146 -1.6468  0.5937
 8794SOL     OW38017   1.581   2.336   6.901 -0.0985  0.1777 -0.6152
 8794SOL    HW138018   1.573   2.290   6.985  0.9515 -0.1328 -0.6918
 8794SOL    HW238019   1.663   2.385   6.905  0.0485 -0.0549 -0.8197
 8795SOL     OW38020   4.612   2.178   4.077 -0.2679 -0.2024 -0.4358
 8795SOL    HW138021   4.670   2.135   4.013  1.0941 -1.3158  1.5449
 8795SOL    HW238022   4.584   2.097   4.121  0.6420 -0.6102 -0.5972
 8796SOL     OW38023   3.871   3.613   5.363  0.1770 -0.1981 -0.8064
 8796SOL    HW138024   3.941   3.559   5.327  0.8592 -0.8858  1.5789
 8796SOL    HW238025   3.921   3.682   5.407 -0.8042 -0.2412  0.3690
 8797SOL     OW38026   0.836   2.587   8.528 -0.7532  0.4449  0.5557
 8797SOL    HW138027   0.882   2.571   8.610  0.3057  0.7692  0.0313
 8797SOL    HW238028   0.767   2.647   8.557 -1.4110 -1.1171  2.1516
 8798SOL     OW38029   0.188   4.339  13.034  0.5862 -0.4255  0.0955
 8798SOL    HW138030   0.283   4.334  13.025  0.4719 -0.1402 -1.2634
 8798SOL    HW238031   0.169   4.268  12.973  2.9369  1.3939 -2.7864
 8799SOL     OW38032   4.270   2.442   5.658  0.0373  0.0010  0.0564
 8799SOL    HW138033   4.346   2.464   5.604 -0.0093 -3.8103 -1.5357
 8799SOL    HW238034   4.206   2.435   5.587  0.8033  0.9500 -0.7237
 8800SOL     OW38035   0.025   2.013   3.905 -0.5791  0.4073 -0.3510
 8800SOL    HW138036   0.110   2.011   3.861  0.9896 -1.6180  2.7552
 8800SOL    HW238037   4.718   1.942   3.858 -1.0079 -1.4825  2.8754
 8801SOL     OW38038   1.922   3.802   3.449 -0.2529 -0.8550 -0.5065
 8801SOL    HW138039   1.942   3.708   3.456  0.3709 -0.6502  0.5218
 8801SOL    HW238040   1.831   3.796   3.419 -0.6817  1.0949  0.3854
 8802SOL     OW38041   2.287   2.939   7.152  0.2056  0.5195 -0.0288
 8802SOL    HW138042   2.303   2.845   7.142 -2.1370  0.3479 -2.0139
 8802SOL    HW238043   2.375   2.970   7.173  0.3875  0.3511 -0.5476
 8803SOL     OW38044   4.275   0.059   6.921  0.0684 -0.0400 -0.5662
 8803SOL    HW138045   4.266   0.042   7.015 -4.8153  0.2700 -0.9971
 8803SOL    HW238046   4.190   0.096   6.899 -0.3225 -1.1995 -1.0101
 8804SOL     OW38047   2.856   1.452  12.851  0.2420 -0.1243 -0.3151
 8804SOL    HW138048   2.857   1.543  12.881  1.2621 -0.5678  1.0049
 8804SOL    HW238049   2.803   1.467  12.773 -0.2216 -0.3571 -0.0485
 8805SOL     OW38050   1.943   3.436   5.251 -0.3136 -0.0100 -0.0871
 8805SOL    HW138051   1.889   3.419   5.328 -0.8069 -0.8102 -0.6062
 8805SOL    HW238052   1.943   3.531   5.236  0.6015  0.0899  0.5524
 8806SOL     OW38053   0.321   3.970   0.768  0.2984  0.7744 -0.0474
 8806SOL    HW138054   0.312   3.878   0.745  2.4340  0.4537  0.3960
 8806SOL    HW238055   0.368   4.011   0.695  0.6521 -1.5035 -1.1018
 8807SOL     OW38056   3.755   1.044  17.099  0.2809  0.1777 -0.5356
 8807SOL    HW138057   3.789   1.073  17.183 -2.2555 -0.6770  0.7665
 8807SOL    HW238058   3.814   0.969  17.088 -0.7204 -0.4719 -1.4431
 8808SOL     OW38059   1.451   0.613   2.524  0.4102  0.5745 -0.1710
 8808SOL    HW138060   1.486   0.702   2.522  1.2715  0.2639  1.1734
 8808SOL    HW238061   1.492   0.580   2.444 -3.7994 -1.0328 -1.6959
 8809SOL     OW38062   0.432   3.752   6.107  0.3954  0.2417  0.3421
 8809SOL    HW138063   0.486   3.750   6.186 -1.9357 -2.1773  1.8979
 8809SOL    HW238064   0.348   3.720   6.141 -0.4165  1.7394 -0.2840
 8810SOL     OW38065   1.419   1.319   8.591 -0.3067  0.5164  0.0684
 8810SOL    HW138066   1.463   1.369   8.523 -0.8477  1.2268  0.2390
 8810SOL    HW238067   1.440   1.228   8.568 -0.3320  0.8468 -1.2307
 8811SOL     OW38068   0.658   0.257   0.559  0.7705  0.5072 -0.6086
 8811SOL    HW138069   0.728   0.195   0.537  2.4262  2.0223  0.3792
 8811SOL    HW238070   0.710   0.337   0.568  2.1081 -0.4403  0.0900
 8812SOL     OW38071   0.535   2.599   4.916 -0.2178  0.5356  0.0680
 8812SOL    HW138072   0.526   2.504   4.922 -3.0152  0.7543 -0.8875
 8812SOL    HW238073   0.468   2.621   4.852 -2.1999 -1.0331  1.6230
 8813SOL     OW38074   3.205   3.431   2.871 -0.1710 -0.2498  0.4832
 8813SOL    HW138075   3.245   3.498   2.817  1.7278 -1.6904  0.0907
 8813SOL    HW238076   3.166   3.472   2.949 -2.1174 -0.0363 -0.6036
 8814SOL     OW38077   2.051   1.423   9.459  0.0868 -0.2650 -0.5995
 8814SOL    HW138078   2.071   1.509   9.497 -0.8235  0.5853 -2.0606
 8814SOL    HW238079   2.004   1.392   9.537  2.4939 -4.0353 -0.6723
 8815SOL     OW38080   2.454   2.997   1.514 -0.1038 -0.4027 -0.1998
 8815SOL    HW138081   2.461   3.043   1.598  1.7781  1.1747 -1.2176
 8815SOL    HW238082   2.360   3.006   1.494  0.0268  1.4924  0.0288
 8816SOL     OW38083   0.756   1.981   5.360  0.4084 -0.5783 -0.0487
 8816SOL    HW138084   0.791   2.069   5.344  0.2749 -0.4944  0.1212
 8816SOL    HW238085   0.714   1.993   5.445  1.2563  1.5971  0.0457
 8817SOL     OW38086   3.472   0.586  12.202 -0.3038 -0.2284  0.4603
 8817SOL    HW138087   3.566   0.583  12.185 -0.5064  0.9661 -0.9167
 8817SOL    HW238088   3.459   0.671  12.161 -1.5282 -0.2075  0.8920
 8818SOL     OW38089   4.159   0.176   8.202  0.4729 -0.2188 -0.1736
 8818SOL    HW138090   4.123   0.122   8.132 -1.8979  0.6582  0.3846
 8818SOL    HW238091   4.122   0.128   8.276  0.2839  0.3506  0.1020
 8819SOL     OW38092   3.703   4.139  17.588  0.3448 -0.2863  0.3119
 8819SOL    HW138093   3.736   4.186  17.511  1.1729  0.1818  0.9684
 8819SOL    HW238094   3.617   4.182  17.589  1.6494  2.3739 -1.7753
 8820SOL     OW38095   2.418   2.355  15.950 -0.3156  0.2474  0.2924
 8820SOL    HW138096   2.410   2.377  15.857  0.9201  1.1394  0.4082
 8820SOL    HW238097   2.406   2.445  15.980  0.6355  0.5197 -0.1630
 8821SOL     OW38098   4.216   2.747   6.644 -0.2810  0.1429  0.5158
 8821SOL    HW138099   4.267   2.775   6.720 -0.4151  0.6032  0.4409
 8821SOL    HW238100   4.173   2.830   6.621  0.2208  0.1823 -0.2665
 8822SOL     OW38101   1.387   4.568   7.664  0.3362 -0.3128  0.2432
 8822SOL    HW138102   1.391   4.662   7.682 -0.8053 -0.2248 -0.0006
 8822SOL    HW238103   1.293   4.573   7.649  0.4536  0.6171 -0.1839
 8823SOL     OW38104   2.643   2.397   5.491 -0.2827 -0.3034  0.2355
 8823SOL    HW138105   2.573   2.372   5.432 -0.4219 -0.2636  0.3843
 8823SOL    HW238106   2.666   2.482   5.455 -0.6273 -0.9129 -1.4323
 8824SOL     OW38107   3.805   4.649   8.272  0.3370  0.4312  0.3665
 8824SOL    HW138108   3.733   4.603   8.229 -0.4818  0.0552  2.1451
 8824SOL    HW238109   3.841   4.582   8.330 -1.0929 -0.6329  0.0173
 8825SOL     OW38110   0.617   0.893  11.545 -0.0640  0.1824 -0.0692
 8825SOL    HW138111   0.601   0.837  11.621 -0.2395 -0.6252 -0.7086
 8825SOL    HW238112   0.609   0.978  11.588  1.3064  0.2225  0.1214
 8826SOL     OW38113   0.612   3.932   6.971  0.3820 -0.2982  0.3593
 8826SOL    HW138114   0.696   3.976   6.958  0.3686 -0.5620 -0.5759
 8826SOL    HW238115   0.586   3.913   6.881  2.1629 -0.7174 -0.0579
 8827SOL     OW38116   1.262   0.213   8.924  0.0409  0.0593  0.5279
 8827SOL    HW138117   1.193   0.276   8.945 -1.1014 -0.6286 -1.1346
 8827SOL    HW238118   1.335   0.266   8.956  0.9285 -1.6275  1.3280
 8828SOL     OW38119   2.389   3.854   3.283  0.4169  0.6095 -0.2332
 8828SOL    HW138120   2.431   3.938   3.269 -2.7306  2.3711  0.7241
 8828SOL    HW238121   2.460   3.801   3.319  0.9883  0.7584 -1.1401
 8829SOL     OW38122   0.505   0.106   6.998 -0.1009 -0.0478  0.3057
 8829SOL    HW138123   0.535   0.017   7.016 -1.6808 -0.7056 -0.3521
 8829SOL    HW238124   0.587   0.140   6.964 -0.3934  0.7513  0.4018
 8830SOL     OW38125   3.117   1.170   5.402 -0.1306 -0.5196 -0.4481
 8830SOL    HW138126   3.178   1.202   5.335 -2.0395  1.9354 -0.9861
 8830SOL    HW238127   3.114   1.076   5.384  2.0206 -0.6275 -0.2534
 8831SOL     OW38128   2.974   2.394   8.631  0.2575 -0.2807 -0.9563
 8831SOL    HW138129   3.010   2.327   8.689 -2.5596 -1.1794 -0.2227
 8831SOL    HW238130   3.015   2.376   8.547  1.5128  1.1607 -0.6544
 8832SOL     OW38131   2.175   1.799  13.892  0.6710 -0.3855 -0.0700
 8832SOL    HW138132   2.151   1.886  13.923  0.5467  0.1290 -1.6298
 8832SOL    HW238133   2.094   1.754  13.919  1.5136 -0.2265  2.7881
 8833SOL     OW38134   1.822   0.229   5.968 -0.7266  0.1351 -0.4832
 8833SOL    HW138135   1.785   0.234   5.880  0.7348 -0.6604 -1.1333
 8833SOL    HW238136   1.747   0.187   6.010 -1.5635  3.9218  1.8797
 8834SOL     OW38137   0.137   3.029  12.909 -0.6304  0.2180 -0.3027
 8834SOL    HW138138   0.213   3.021  12.967  0.3170  0.3002 -1.5433
 8834SOL    HW238139   0.071   2.984  12.962  1.7400 -3.6976 -0.6741
 8835SOL     OW38140   0.140   3.308   1.028  0.0268 -0.3262  0.4707
 8835SOL    HW138141   0.050   3.288   1.056  0.1457 -0.0189  1.0513
 8835SOL    HW238142   0.119   3.341   0.940 -1.7313  1.4006  1.5349
 8836SOL     OW38143   0.083   0.497  12.493 -0.0604 -0.6292  0.8529
 8836SOL    HW138144   0.117   0.407  12.493  0.6417 -0.3613 -0.7743
 8836SOL    HW238145   4.728   0.490  12.517  0.4068  1.7872  3.2477
 8837SOL     OW38146   2.650   2.142   0.816 -0.3116  0.2883 -0.1516
 8837SOL    HW138147   2.593   2.118   0.889  0.1579  0.5586  0.3019
 8837SOL    HW238148   2.728   2.119   0.867 -0.3353  0.8404  0.1304
 8838SOL     OW38149   2.499   4.664   7.342 -0.4342  0.8407  0.6746
 8838SOL    HW138150   2.424   4.690   7.395  0.2733 -0.2220  2.1980
 8838SOL    HW238151   2.509   0.002   7.284  0.7086  0.1864  0.0213
 8839SOL     OW38152   1.406   4.619   3.866  0.1445  0.7078  0.2045
 8839SOL    HW138153   1.331   4.663   3.906 -0.6221  0.0308 -0.4723
 8839SOL    HW238154   1.470   4.689   3.878  2.4397 -1.2216 -0.6438
 8840SOL     OW38155   2.141   1.819   3.053  0.5370  0.3348 -0.4910
 8840SOL    HW138156   2.059   1.859   3.081  1.3995  0.0337  2.4233
 8840SOL    HW238157   2.119   1.734   3.013 -0.8751 -0.0383  1.1023
 8841SOL     OW38158   3.397   1.363  11.399  0.4961 -0.1217 -0.1472
 8841SOL    HW138159   3.408   1.358  11.304  0.8689  1.8394 -0.1915
 8841SOL    HW238160   3.464   1.304  11.433  0.3581 -1.1229 -1.6041
 8842SOL     OW38161   2.019   0.687  15.467 -0.1884 -0.3282  0.1315
 8842SOL    HW138162   2.083   0.710  15.534  1.9992 -0.9282 -1.7223
 8842SOL    HW238163   2.078   0.686  15.391 -1.2958 -0.3934 -0.7324
 8843SOL     OW38164   0.359   3.754   1.021 -0.7026 -0.0069  0.1047
 8843SOL    HW138165   0.269   3.762   0.989 -0.2663  0.4542 -1.0214
 8843SOL    HW238166   0.348   3.677   1.075  1.4373  0.2870  0.9626
 8844SOL     OW38167   0.914   1.881   4.108 -0.7199  0.3445 -0.6521
 8844SOL    HW138168   0.934   1.935   4.031  0.5994 -1.7094 -1.7609
 8844SOL    HW238169   0.960   1.930   4.175  3.0996  0.7161 -3.5599
 8845SOL     OW38170   1.630   0.310   8.164 -0.1642  0.0403  0.1658
 8845SOL    HW138171   1.711   0.259   8.175  0.2443  0.7635  0.5286
 8845SOL    HW238172   1.671   0.370   8.102 -0.7861  2.7651  2.4063
 8846SOL     OW38173   3.844   0.277   2.041  0.1214 -0.3540  0.2707
 8846SOL    HW138174   3.874   0.354   2.091  0.1648 -0.0832 -0.1707
 8846SOL    HW238175   3.785   0.235   2.104 -1.2200 -0.2970 -0.9566
 8847SOL     OW38176   0.862   4.412  12.262  0.9372  0.0238  0.2620
 8847SOL    HW138177   0.799   4.345  12.236 -0.3916  0.9477  1.1121
 8847SOL    HW238178   0.947   4.369  12.259  0.8804  0.0177 -1.5630
 8848SOL     OW38179   3.670   0.131   5.025 -0.4842 -0.8011  0.2538
 8848SOL    HW138180   3.641   0.184   5.099  0.5700 -0.4563  0.4201
 8848SOL    HW238181   3.581   0.117   4.992 -0.2580  2.3959 -1.7040
 8849SOL     OW38182   1.565   4.412   4.876  0.2657  0.3594 -0.3190
 8849SOL    HW138183   1.595   4.325   4.847 -0.0717 -0.9204  3.2361
 8849SOL    HW238184   1.628   4.432   4.946 -0.5640 -0.7300  0.7297
 8850SOL     OW38185   0.649   0.582   4.760  0.0689 -0.0761 -0.1504
 8850SOL    HW138186   0.681   0.652   4.816 -0.3742 -1.4648  1.8393
 8850SOL    HW238187   0.606   0.625   4.686 -0.3602 -0.7137 -0.2720
 8851SOL     OW38188   1.277   4.425   1.432  0.7478 -0.0154 -0.4139
 8851SOL    HW138189   1.317   4.381   1.357  1.7929  2.4694 -1.3215
 8851SOL    HW238190   1.219   4.486   1.388  1.3153  1.0659  0.3381
 8852SOL     OW38191   0.221   1.161   3.789 -0.0303  0.2239 -0.3165
 8852SOL    HW138192   0.143   1.187   3.740  0.5482  1.8700 -0.3700
 8852SOL    HW238193   0.202   1.213   3.868  0.7110  0.3512 -0.2275
 8853SOL     OW38194   0.752   1.503   5.920 -0.2003 -0.2182 -0.2440
 8853SOL    HW138195   0.844   1.525   5.906 -0.0502 -0.8812 -0.3048
 8853SOL    HW238196   0.704   1.585   5.922  1.0013  0.5125 -1.7829
 8854SOL     OW38197   2.416   0.523  14.221  0.2704 -0.5682  0.0319
 8854SOL    HW138198   2.324   0.507  14.239  0.1869 -2.0015 -1.6991
 8854SOL    HW238199   2.421   0.512  14.126 -1.5639  1.1770 -0.2372
 8855SOL     OW38200   1.859   4.328   4.351 -0.0539 -0.3156  0.3209
 8855SOL    HW138201   1.947   4.294   4.333  0.4745  0.2114  1.8155
 8855SOL    HW238202   1.816   4.264   4.407 -0.9784 -0.5459 -0.6719
 8856SOL     OW38203   1.550   4.430   6.238  0.0849 -0.2143 -0.5912
 8856SOL    HW138204   1.504   4.457   6.159 -1.9864  0.0080  0.6992
 8856SOL    HW238205   1.495   4.353   6.251  0.2301  0.3698  3.6347
 8857SOL     OW38206   1.251   0.964   4.204 -0.5219  0.6386 -0.2427
 8857SOL    HW138207   1.317   1.034   4.199 -0.7462  0.7990 -1.0217
 8857SOL    HW238208   1.212   0.978   4.117  0.8274  0.7162 -0.8448
 8858SOL     OW38209   1.961   4.618  16.043 -0.5120 -0.3630  0.1402
 8858SOL    HW138210   1.980   4.650  16.132 -0.0361  1.9191 -0.7881
 8858SOL    HW238211   1.893   4.681  16.020 -0.6157  0.2175  2.0026
 8859SOL     OW38212   0.664   2.993   0.810 -0.6136 -0.2894 -0.2102
 8859SOL    HW138213   0.598   3.048   0.767  0.9972  0.6134 -1.5067
 8859SOL    HW238214   0.713   3.051   0.868 -1.6551 -0.1837  0.5689
 8860SOL     OW38215   1.305   0.002   6.285 -0.3096  0.0685 -0.1476
 8860SOL    HW138216   1.374   4.673   6.291  1.2213  1.6014 -0.9463
 8860SOL    HW238217   1.350   0.086   6.277  0.3456 -0.2988 -0.2970
 8861SOL     OW38218   1.041   1.069   7.610  0.4561  0.3234  0.0493
 8861SOL    HW138219   1.113   1.111   7.657  0.5137  1.1574 -0.7828
 8861SOL    HW238220   0.976   1.051   7.678 -0.2531  0.3478 -0.6229
 8862SOL     OW38221   0.223   3.558   9.742 -0.1956  0.2187  0.4866
 8862SOL    HW138222   0.312   3.524   9.730 -0.1020  0.0403  1.7010
 8862SOL    HW238223   0.201   3.532   9.832 -1.3673  1.1298  0.4558
 8863SOL     OW38224   2.460   1.540  14.372  0.4580  0.2747 -0.4444
 8863SOL    HW138225   2.457   1.630  14.405 -1.2331  0.1965 -0.4214
 8863SOL    HW238226   2.369   1.519  14.353  0.4920 -0.0561 -0.2241
 8864SOL     OW38227   2.607   2.646   5.081  0.7814 -0.3950 -0.3870
 8864SOL    HW138228   2.640   2.604   5.002  0.2504 -0.6472 -0.4754
 8864SOL    HW238229   2.625   2.737   5.057 -0.4950  0.4601  1.8805
 8865SOL     OW38230   2.466   0.252  11.762 -0.4236  0.3061 -0.0429
 8865SOL    HW138231   2.544   0.200  11.745 -0.3627  0.3061  0.2375
 8865SOL    HW238232   2.482   0.266  11.856  1.3132 -0.8675 -0.1828
 8866SOL     OW38233   2.669   3.626  11.103  0.1991 -0.0387 -0.0959
 8866SOL    HW138234   2.612   3.637  11.179  0.6815  0.4590  0.1920
 8866SOL    HW238235   2.682   3.532  11.113 -0.4293  0.0766  1.7477
 8867SOL     OW38236   2.248   0.604   1.899 -0.1057 -0.0931 -0.8218
 8867SOL    HW138237   2.190   0.577   1.970 -0.9837 -1.8068 -2.1772
 8867SOL    HW238238   2.251   0.699   1.904  2.9926 -0.4262  3.9502
 8868SOL     OW38239   3.000   3.202   5.831  0.0870  0.0070  0.0169
 8868SOL    HW138240   3.094   3.219   5.840 -0.0895  0.1908  1.3590
 8868SOL    HW238241   3.016   3.154   5.749  0.7201 -0.7415  0.5852
 8869SOL     OW38242   3.454   3.772  13.746 -0.0965 -0.5214  0.3086
 8869SOL    HW138243   3.379   3.797  13.801  0.4230  0.4274  0.5798
 8869SOL    HW238244   3.493   3.851  13.710  0.0664 -1.7595 -2.2439
 8870SOL     OW38245   3.037   1.936   3.438 -0.2713  0.6240  0.1148
 8870SOL    HW138246   3.122   1.910   3.401 -0.2996  2.4129 -1.1841
 8870SOL    HW238247   3.009   1.862   3.492 -1.5536  0.0550 -1.3093
 8871SOL     OW38248   0.430   1.633   7.419  0.3679 -0.1171 -0.1481
 8871SOL    HW138249   0.438   1.553   7.470 -0.6420 -0.2974 -0.2722
 8871SOL    HW238250   0.357   1.617   7.359  0.6568  1.5942 -0.9600
 8872SOL     OW38251   0.195   4.288   8.469 -0.0017  0.2198 -0.2616
 8872SOL    HW138252   0.170   4.227   8.538  0.1034 -1.0643 -1.3388
 8872SOL    HW238253   0.286   4.257   8.462 -0.1694 -0.3557  0.0948
 8873SOL     OW38254   2.527   4.002  11.296  0.3590  0.0226 -0.6725
 8873SOL    HW138255   2.566   3.957  11.370 -1.8972  2.8084  2.2091
 8873SOL    HW238256   2.481   3.930  11.252 -0.0525  1.0099 -1.8983
 8874SOL     OW38257   0.923   0.272   4.925 -0.0816 -0.3193  0.1113
 8874SOL    HW138258   0.924   0.361   4.891 -0.0395 -1.2619 -2.4123
 8874SOL    HW238259   1.013   0.261   4.955 -0.2701 -3.6455 -0.5494
 8875SOL     OW38260   0.397   0.053  10.135  0.1463  0.0813  0.3120
 8875SOL    HW138261   0.462   0.094  10.192  0.2676  0.6796 -0.2612
 8875SOL    HW238262   0.317   0.099  10.162 -0.3146 -0.9376  0.6871
 8876SOL     OW38263   0.508   0.064   7.421  0.3070 -0.1889  0.0311
 8876SOL    HW138264   0.478   0.037   7.508  1.5584 -2.0612 -0.1184
 8876SOL    HW238265   0.599   0.091   7.426  0.5654 -0.4114 -3.1475
 8877SOL     OW38266   0.307   0.649  12.583 -0.6288 -0.3839 -0.7357
 8877SOL    HW138267   0.219   0.612  12.576 -1.6862  2.8008 -3.8481
 8877SOL    HW238268   0.351   0.579  12.632 -1.3434 -0.7766 -0.6494
 8878SOL     OW38269   0.117   2.332   1.881  0.1797 -0.4796 -0.5766
 8878SOL    HW138270   0.182   2.334   1.950  1.6511 -0.1772 -1.9742
 8878SOL    HW238271   0.166   2.288   1.812  1.1216  0.4916 -0.5200
 8879SOL     OW38272   3.393   0.774  17.095 -0.0660  0.1104  0.0821
 8879SOL    HW138273   3.328   0.766  17.025 -0.2532 -1.2059  0.4101
 8879SOL    HW238274   3.465   0.794  17.036  0.5418 -3.8441 -0.4502
 8880SOL     OW38275   1.218   3.718  12.476  0.9394 -0.3687 -0.7752
 8880SOL    HW138276   1.295   3.759  12.513  0.0901  0.8006 -0.3152
 8880SOL    HW238277   1.189   3.784  12.413  1.6130 -1.0911 -1.8398
 8881SOL     OW38278   0.055   2.656   8.821  0.1378  0.2823  0.0698
 8881SOL    HW138279   0.033   2.579   8.874 -0.7853  0.7059  0.2928
 8881SOL    HW238280   4.704   2.690   8.808 -0.3672 -0.8591  0.4906
 8882SOL     OW38281   2.797   0.849   5.587  0.0152 -0.2894 -0.4219
 8882SOL    HW138282   2.770   0.873   5.676  1.3232 -0.3824  0.0005
 8882SOL    HW238283   2.801   0.934   5.543 -2.3110  0.3409  0.5802
 8883SOL     OW38284   1.071   1.166  17.108 -0.4555 -0.6333  0.3381
 8883SOL    HW138285   1.130   1.216  17.051  0.4311 -0.0783  1.7289
 8883SOL    HW238286   1.047   1.236  17.169 -0.7481 -0.7348  0.3359
 8884SOL     OW38287   2.202   3.089   1.482  0.7198  0.1065 -0.4735
 8884SOL    HW138288   2.107   3.079   1.474  0.8215 -1.6931  0.6245
 8884SOL    HW238289   2.219   3.132   1.398  0.1960  0.5196 -0.3626
 8885SOL     OW38290   1.786   2.354   8.283  0.1389  0.0660  0.0233
 8885SOL    HW138291   1.881   2.362   8.271  0.6237 -2.7489  2.0998
 8885SOL    HW238292   1.767   2.446   8.263 -2.8070 -0.8888 -1.5283
 8886SOL     OW38293   2.311   0.912  16.286 -0.2536  0.4277 -0.5102
 8886SOL    HW138294   2.403   0.935  16.301  0.2497 -1.0243 -1.3824
 8886SOL    HW238295   2.280   0.998  16.315 -1.6898 -0.0553 -0.5923
 8887SOL     OW38296   3.281   4.258   4.546 -0.1731 -0.1472  0.1005
 8887SOL    HW138297   3.349   4.199   4.514  0.1584  0.3707 -0.1622
 8887SOL    HW238298   3.205   4.248   4.489 -0.5145  0.8945  0.3572
 8888SOL     OW38299   2.714   1.033   6.878 -0.0649  0.2874  0.1654
 8888SOL    HW138300   2.751   1.090   6.946  0.8144  0.0035 -0.0779
 8888SOL    HW238301   2.648   0.997   6.937 -0.3563 -2.0336 -1.5820
 8889SOL     OW38302   3.541   3.097   5.133  0.0468 -0.1610 -0.4861
 8889SOL    HW138303   3.551   3.127   5.223 -0.0559  0.3340 -0.6401
 8889SOL    HW238304   3.448   3.100   5.110 -0.3003 -1.9284  0.7262
 8890SOL     OW38305   2.328   1.653  15.106  0.5243 -0.2331  0.5936
 8890SOL    HW138306   2.298   1.695  15.026  1.1905  0.7484  0.8515
 8890SOL    HW238307   2.386   1.582  15.079  0.4969  0.0995 -0.3235
 8891SOL     OW38308   3.617   4.619   3.882 -0.1656  0.3786  0.3318
 8891SOL    HW138309   3.697   4.584   3.842 -1.3580 -0.3095 -1.4307
 8891SOL    HW238310   3.653   4.630   3.970  0.6318  1.1335 -0.0928
 8892SOL     OW38311   1.581   4.466  11.269  0.9027 -0.1249 -0.3173
 8892SOL    HW138312   1.512   4.442  11.331 -0.2125 -2.0344 -2.2894
 8892SOL    HW238313   1.661   4.443  11.316  2.0061  0.6511 -1.8050
 8893SOL     OW38314   3.479   0.510  13.481  0.1429 -0.5281  0.5908
 8893SOL    HW138315   3.392   0.479  13.458  0.8990 -1.3700 -1.1135
 8893SOL    HW238316   3.472   0.603  13.458 -0.3333 -0.4483  1.0540
 8894SOL     OW38317   3.769   1.763  16.852 -0.1868  0.1389  0.3898
 8894SOL    HW138318   3.724   1.752  16.768 -0.9805 -1.1768  0.9929
 8894SOL    HW238319   3.792   1.855  16.839 -0.0751 -0.2059 -1.9514
 8895SOL     OW38320   0.984   0.925   3.092 -0.0387 -0.1592  0.4121
 8895SOL    HW138321   0.964   0.924   2.998 -1.6595 -0.4524  0.7608
 8895SOL    HW238322   0.893   0.927   3.123  1.4301 -0.8335  4.7831
 8896SOL     OW38323   0.489   0.250   8.127 -0.2287 -0.7575  0.3991
 8896SOL    HW138324   0.527   0.319   8.181  1.9401 -0.0143 -2.0796
 8896SOL    HW238325   0.493   0.172   8.182  1.9624 -0.7637  0.2496
 8897SOL     OW38326   4.613   3.815  16.063  0.7912 -0.4415  0.5658
 8897SOL    HW138327   4.601   3.887  16.001  0.6474 -0.2331  0.8392
 8897SOL    HW238328   4.572   3.738  16.024  0.5668  0.8144 -1.6791
 8898SOL     OW38329   2.684   2.042  16.166  0.2238 -0.2329 -0.2438
 8898SOL    HW138330   2.721   2.028  16.079 -1.4378 -1.3999 -0.7600
 8898SOL    HW238331   2.602   1.998  16.143 -0.0573 -0.3276  0.9430
 8899SOL     OW38332   3.494   2.558   1.104  0.4056  0.2738 -0.4558
 8899SOL    HW138333   3.452   2.631   1.057  0.5562  0.7850  0.1962
 8899SOL    HW238334   3.557   2.601   1.162  1.4236 -0.6540 -0.8738
 8900SOL     OW38335   1.284   0.667   1.285  0.0505 -0.4492  0.1196
 8900SOL    HW138336   1.278   0.582   1.241 -0.4186 -0.0590 -0.5772
 8900SOL    HW238337   1.190   0.676   1.300 -0.0598 -0.1267 -0.7442
 8901SOL     OW38338   4.672   0.217   3.721 -0.3990 -0.5669 -0.0942
 8901SOL    HW138339   4.685   0.249   3.810 -0.4201 -0.6234 -0.0706
 8901SOL    HW238340   0.004   0.151   3.722 -0.1005 -0.2585 -0.4955
 8902SOL     OW38341   0.286   4.387   9.064  0.9470 -0.8770 -0.1842
 8902SOL    HW138342   0.366   4.360   9.108  1.6130  0.8430 -0.3295
 8902SOL    HW238343   0.253   4.302   9.035 -0.6480 -0.4976  0.5075
 8903SOL     OW38344   4.393   2.565   5.403 -0.2465  0.1364 -0.1770
 8903SOL    HW138345   4.373   2.513   5.326 -0.2990 -0.5012  0.2683
 8903SOL    HW238346   4.384   2.651   5.362  0.4085 -0.8414 -2.3931
 8904SOL     OW38347   1.297   0.639   0.241  0.2123  0.2858 -0.1510
 8904SOL    HW138348   1.289   0.733   0.223  0.0994  0.4440  0.6894
 8904SOL    HW238349   1.386   0.630   0.274 -0.2747 -0.6130  0.9256
 8905SOL     OW38350   3.621   0.978   2.536  0.2170  0.0660 -0.4150
 8905SOL    HW138351   3.590   0.913   2.599 -1.4269 -1.5942 -2.9534
 8905SOL    HW238352   3.553   0.996   2.471  0.5785 -1.0036 -1.1100
 8906SOL     OW38353   2.322   2.084  14.955 -0.5519  0.1593  0.1456
 8906SOL    HW138354   2.232   2.052  14.965 -0.6214  0.2140 -0.3253
 8906SOL    HW238355   2.364   1.998  14.947 -0.1175  0.5942 -2.0349
 8907SOL     OW38356   4.411   0.515  17.538 -0.2055 -0.3297 -0.2970
 8907SOL    HW138357   4.387   0.424  17.520 -2.4788  0.1479  0.3095
 8907SOL    HW238358   4.440   0.499  17.628 -1.5907 -0.2251  0.1682
 8908SOL     OW38359   3.520   3.332   6.812  0.4613  0.0102 -0.1038
 8908SOL    HW138360   3.426   3.338   6.829  0.8307  1.6878  1.4948
 8908SOL    HW238361   3.540   3.283   6.891  0.3094  0.6598  0.3421
 8909SOL     OW38362   0.768   2.754   1.514  0.0493 -0.2273 -0.4097
 8909SOL    HW138363   0.761   2.733   1.421  0.7700 -1.4000 -0.1965
 8909SOL    HW238364   0.797   2.844   1.501 -0.5982  0.2134  1.0720
 8910SOL     OW38365   4.319   0.455   2.244 -0.0440 -0.3639 -0.3718
 8910SOL    HW138366   4.256   0.482   2.177  0.3559 -0.9887 -0.9896
 8910SOL    HW238367   4.271   0.483   2.322  0.2855  2.9076 -1.3323
 8911SOL     OW38368   1.084   1.940  12.216  0.1420 -0.0244 -0.0693
 8911SOL    HW138369   1.115   1.931  12.306 -1.6775 -0.4424  0.4970
 8911SOL    HW238370   1.164   1.967  12.170 -0.4360 -1.6294 -2.0587
 8912SOL     OW38371   3.485   3.133   8.491 -0.0836  0.9565  0.3405
 8912SOL    HW138372   3.547   3.191   8.449  1.2273 -0.7862 -0.1236
 8912SOL    HW238373   3.437   3.114   8.411 -0.7933  1.4137  0.6572
 8913SOL     OW38374   1.088   3.764   3.010 -0.6700  0.2876 -0.3077
 8913SOL    HW138375   1.166   3.750   3.064 -0.6270  1.2019 -0.1278
 8913SOL    HW238376   1.107   3.854   2.985 -0.5750  0.1599 -0.6983
 8914SOL     OW38377   1.975   1.481  10.925 -0.2078 -0.1675  0.1100
 8914SOL    HW138378   2.070   1.497  10.926 -0.4304  1.1782 -0.1549
 8914SOL    HW238379   1.973   1.385  10.929 -1.5236 -0.0968  1.2198
 8915SOL     OW38380   3.229   0.465   1.595 -0.4958  0.1189 -0.3783
 8915SOL    HW138381   3.309   0.518   1.597 -0.1386 -0.4588  0.7464
 8915SOL    HW238382   3.255   0.389   1.543 -0.5405 -0.0839 -0.1080
 8916SOL     OW38383   4.187   1.948   3.326  0.0745 -0.4070 -0.7536
 8916SOL    HW138384   4.189   1.862   3.285 -0.3189 -1.1646  0.7929
 8916SOL    HW238385   4.119   1.941   3.393 -0.6030 -1.0238 -1.5044
 8917SOL     OW38386   4.461   4.049  14.481  0.1155  0.4750  0.1873
 8917SOL    HW138387   4.488   4.049  14.389  1.2211 -0.7137  0.5071
 8917SOL    HW238388   4.378   4.006  14.463 -0.8564  1.1774  2.9958
 8918SOL     OW38389   0.042   2.361   4.279 -0.4897 -0.0959 -0.6564
 8918SOL    HW138390   0.020   2.436   4.335  1.0385 -0.2460  0.1684
 8918SOL    HW238391   4.694   2.346   4.240 -0.8520 -0.5735  0.3131
 8919SOL     OW38392   3.124   2.268  11.446 -0.5771  0.4692 -0.5457
 8919SOL    HW138393   3.162   2.345  11.405 -0.5702  0.9780  0.4002
 8919SOL    HW238394   3.132   2.290  11.539  0.0031 -0.2353 -0.4226
 8920SOL     OW38395   2.567   0.107   1.222 -0.0975 -0.0186  0.1708
 8920SOL    HW138396   2.502   0.174   1.200 -1.8410 -1.7533  0.0052
 8920SOL    HW238397   2.652   0.145   1.200 -0.8948  1.7775  0.2622
 8921SOL     OW38398   4.051   0.376  16.335 -0.6726  0.3361 -0.0119
 8921SOL    HW138399   4.003   0.443  16.385  0.1400  0.5263  0.5128
 8921SOL    HW238400   4.016   0.298  16.378  0.3423 -1.5550 -2.6054
 8922SOL     OW38401   2.998   2.669   6.107 -0.4332  0.5138  0.3699
 8922SOL    HW138402   2.908   2.683   6.138 -0.2941  0.5779  0.7446
 8922SOL    HW238403   2.997   2.756   6.066 -1.2286  1.2375  1.8890
 8923SOL     OW38404   0.080   1.226   6.568 -0.0108  0.1211  0.0967
 8923SOL    HW138405   0.006   1.284   6.586 -0.5162 -0.6969  0.6429
 8923SOL    HW238406   0.091   1.249   6.475  0.1235  0.6834  0.2519
 8924SOL     OW38407   3.117   1.152  12.343 -0.1766  0.3317  0.0156
 8924SOL    HW138408   3.131   1.166  12.437  0.3892 -1.8757  0.2614
 8924SOL    HW238409   3.157   1.069  12.316  0.4028  0.2878  1.0053
 8925SOL     OW38410   3.285   0.766   1.837  0.2898  0.4730 -0.1333
 8925SOL    HW138411   3.244   0.682   1.859  2.3881 -0.3752  0.6118
 8925SOL    HW238412   3.222   0.816   1.888  0.2819 -0.7250  1.0389
 8926SOL     OW38413   3.766   2.279   6.690  0.5390  0.5681  0.2590
 8926SOL    HW138414   3.695   2.219   6.666  2.3006 -0.8459 -1.4434
 8926SOL    HW238415   3.840   2.219   6.683  0.2820  0.4868 -1.6537
 8927SOL     OW38416   4.622   3.707  10.614  0.7642  0.0189  0.0139
 8927SOL    HW138417   4.630   3.658  10.696  3.0568  2.1996  1.0655
 8927SOL    HW238418   4.690   3.773  10.621  0.4626  0.3619 -0.2906
 8928SOL     OW38419   2.810   0.739   9.832 -0.0598  0.2582 -0.3192
 8928SOL    HW138420   2.816   0.644   9.828 -2.3932  0.1364 -1.0089
 8928SOL    HW238421   2.765   0.739   9.916  1.0024 -1.6473  0.2477
 8929SOL     OW38422   0.375   2.032  13.093  0.0531 -0.6344  0.1419
 8929SOL    HW138423   0.461   2.012  13.129 -0.0146 -0.2012  0.5528
 8929SOL    HW238424   0.318   2.030  13.170  0.2390 -0.7312  0.2744
 8930SOL     OW38425   4.267   1.699   3.223 -0.2905 -0.0787  0.8107
 8930SOL    HW138426   4.347   1.751   3.228  0.4842 -1.3529  1.8173
 8930SOL    HW238427   4.288   1.638   3.152  0.0750  0.7059  0.2538
 8931SOL     OW38428   3.474   0.987   1.891 -0.2477 -0.0090 -0.5267
 8931SOL    HW138429   3.400   0.927   1.887 -1.2293  1.3280 -2.8517
 8931SOL    HW238430   3.545   0.923   1.889  0.3532  0.6431 -0.1218
 8932SOL     OW38431   3.693   2.305   8.171  0.4765  0.2929 -0.6551
 8932SOL    HW138432   3.772   2.323   8.222 -0.5269 -1.6176  1.5819
 8932SOL    HW238433   3.695   2.377   8.108  0.9654 -0.2535 -1.2674
 8933SOL     OW38434   3.600   4.221   8.907  0.6318  0.1252  0.0950
 8933SOL    HW138435   3.651   4.194   8.984  1.4593  0.9278 -0.1729
 8933SOL    HW238436   3.511   4.196   8.931 -0.1501  0.6247 -2.3649
 8934SOL     OW38437   2.040   1.708   4.156  0.0392  0.0109 -0.3110
 8934SOL    HW138438   1.988   1.743   4.084 -0.3159 -2.5389 -1.3095
 8934SOL    HW238439   1.969   1.706   4.220  1.0528  1.9603  0.8681
 8935SOL     OW38440   3.350   1.107   4.626 -0.1622  0.3282 -0.0526
 8935SOL    HW138441   3.367   1.179   4.687 -1.0936 -0.4356  1.0867
 8935SOL    HW238442   3.254   1.105   4.624 -0.1338 -0.4244 -0.7120
 8936SOL     OW38443   3.700   3.636  14.056 -0.0993  0.5665 -0.0909
 8936SOL    HW138444   3.790   3.605  14.063 -0.6359 -1.1148 -0.6688
 8936SOL    HW238445   3.657   3.562  14.014  1.2537  0.4053 -1.1677
 8937SOL     OW38446   3.133   0.787   7.340 -0.0907 -0.0838 -0.5287
 8937SOL    HW138447   3.096   0.823   7.421 -1.1885 -1.0183 -0.6066
 8937SOL    HW238448   3.148   0.695   7.365 -2.8324 -0.8646 -1.7507
 8938SOL     OW38449   1.097   0.333  16.445  0.2138  0.4779  0.2376
 8938SOL    HW138450   1.176   0.348  16.392  0.1376 -1.5417 -0.4498
 8938SOL    HW238451   1.027   0.380  16.399 -0.5358  0.9288  1.8353
 8939SOL     OW38452   0.380   2.500   9.720 -0.7230 -0.3619  0.1909
 8939SOL    HW138453   0.442   2.447   9.770 -1.6695 -0.2263  1.4982
 8939SOL    HW238454   0.425   2.584   9.713  1.7857 -1.7560 -0.1511
 8940SOL     OW38455   1.945   1.752   6.592 -0.1464 -0.0842  0.3675
 8940SOL    HW138456   1.969   1.842   6.568 -0.5691  0.1165  0.6871
 8940SOL    HW238457   2.033   1.714   6.593 -0.9506 -1.9464 -0.7541
 8941SOL     OW38458   1.458   4.481   6.893  0.6105  0.2392 -0.2417
 8941SOL    HW138459   1.414   4.565   6.884 -3.0650 -1.6113  0.7423
 8941SOL    HW238460   1.481   4.465   6.802 -0.4841  0.1148 -0.4892
 8942SOL     OW38461   0.187   1.953  16.727  0.2614 -0.3843  0.5860
 8942SOL    HW138462   0.188   1.910  16.642  0.3200 -0.9177  0.8552
 8942SOL    HW238463   0.160   1.882  16.785 -0.6595 -1.8789 -1.6818
 8943SOL     OW38464   1.330   2.469   1.730 -0.1866  0.8483 -0.3412
 8943SOL    HW138465   1.278   2.411   1.674  1.7507  0.7709 -2.0630
 8943SOL    HW238466   1.415   2.424   1.727 -0.7321 -0.3243  1.4978
 8944SOL     OW38467   3.555   2.947   1.783  0.3706 -0.5658  0.2111
 8944SOL    HW138468   3.517   3.033   1.802 -0.8715 -0.8726 -0.9149
 8944SOL    HW238469   3.503   2.886   1.835 -1.3288 -0.4030 -1.3158
 8945SOL     OW38470   0.279   3.674   4.317  0.3895 -0.8298 -0.3054
 8945SOL    HW138471   0.246   3.601   4.370  0.8507 -2.7020 -2.5756
 8945SOL    HW238472   0.341   3.702   4.383 -0.2214  0.1935 -0.1623
 8946SOL     OW38473   1.624   1.923   1.703 -0.1418  0.5750 -0.1348
 8946SOL    HW138474   1.614   1.828   1.695 -1.3915  0.6501  0.5831
 8946SOL    HW238475   1.533   1.948   1.715  0.2156  0.8623  2.0501
 8947SOL     OW38476   1.350   1.021   2.032  0.1155  0.4880 -0.2989
 8947SOL    HW138477   1.325   1.047   1.943 -0.1692  2.3049  0.3196
 8947SOL    HW238478   1.267   1.040   2.074 -0.3714  1.6616 -1.7586
 8948SOL     OW38479   4.157   0.347   7.220 -0.5732  0.4338  0.1304
 8948SOL    HW138480   4.104   0.355   7.140  0.7088 -2.8365 -1.0512
 8948SOL    HW238481   4.222   0.414   7.199 -1.0007  1.1447  1.0756
 8949SOL     OW38482   3.068   2.738   7.701 -0.3877 -0.6887 -0.0668
 8949SOL    HW138483   3.048   2.831   7.704  1.5013 -0.1461 -4.2833
 8949SOL    HW238484   3.162   2.745   7.720 -0.6781 -0.6717  1.3366
 8950SOL     OW38485   1.559   4.670   3.553 -0.2406  0.1686  0.3132
 8950SOL    HW138486   1.634   4.719   3.587  1.6719 -1.8556 -1.0054
 8950SOL    HW238487   1.491   0.001   3.550 -1.1300 -0.6915  0.6321
 8951SOL     OW38488   3.342   3.973  10.514 -0.0341  0.1137 -0.5146
 8951SOL    HW138489   3.430   4.001  10.489  0.7787 -1.1875  0.8944
 8951SOL    HW238490   3.286   4.036  10.469 -0.8880 -1.1282 -1.2143
 8952SOL     OW38491   4.219   3.711  15.072  0.1063 -0.1545 -0.4012
 8952SOL    HW138492   4.295   3.659  15.100  0.3330 -0.2230 -1.1339
 8952SOL    HW238493   4.235   3.793  15.118  0.5138 -0.7454  0.5066
 8953SOL     OW38494   3.148   2.735   6.898  0.4797 -0.2000  0.2075
 8953SOL    HW138495   3.171   2.645   6.877 -0.5648 -0.4912  0.3599
 8953SOL    HW238496   3.202   2.795   6.846  0.2755  1.6589  2.0939
 8954SOL     OW38497   1.064   4.605   5.646  0.4773  0.0742  0.7671
 8954SOL    HW138498   1.014   4.649   5.715  0.1255  0.3340  0.3513
 8954SOL    HW238499   1.120   4.552   5.703  0.6427 -1.4126 -0.7649
 8955SOL     OW38500   0.603   1.270   8.862  0.2418  0.2886  0.2433
 8955SOL    HW138501   0.584   1.300   8.773  0.0188 -1.6452 -0.3497
 8955SOL    HW238502   0.636   1.188   8.825 -0.7533 -0.1551  0.3550
 8956SOL     OW38503   0.912   1.370   9.838  0.1127  0.5152  0.0992
 8956SOL    HW138504   0.925   1.306   9.908  1.0808  1.5085  0.8237
 8956SOL    HW238505   0.817   1.365   9.827  0.1060  2.4268 -0.6472
 8957SOL     OW38506   2.542   2.814   9.673  0.2657  0.0789 -0.1888
 8957SOL    HW138507   2.589   2.732   9.686  0.2771  0.1554  0.2515
 8957SOL    HW238508   2.478   2.817   9.743  0.0123 -1.3649 -0.3735
 8958SOL     OW38509   1.839   0.983   4.551  0.2177 -0.0875 -0.1210
 8958SOL    HW138510   1.766   1.045   4.548  0.2392  0.0570  1.9336
 8958SOL    HW238511   1.797   0.915   4.499  1.4442 -1.0000  0.0830
 8959SOL     OW38512   3.396   3.100   8.247 -0.3490  0.5275  0.5121
 8959SOL    HW138513   3.396   3.176   8.189  0.1693 -0.7235 -1.1335
 8959SOL    HW238514   3.478   3.054   8.228  0.2851  1.6956  0.3882
 8960SOL     OW38515   3.220   4.305  12.316  0.0856 -0.0718  0.0146
 8960SOL    HW138516   3.136   4.259  12.321  0.9834 -1.7653 -0.4187
 8960SOL    HW238517   3.204   4.393  12.349 -0.8264 -0.1771 -0.1380
 8961SOL     OW38518   0.558   2.229   2.606  0.0727  0.4881 -0.3532
 8961SOL    HW138519   0.645   2.193   2.623 -1.1539 -2.0774  0.5018
 8961SOL    HW238520   0.553   2.256   2.515 -1.4637  0.0451 -0.4096
 8962SOL     OW38521   1.364   2.504   4.008 -0.1795  0.3938  0.5073
 8962SOL    HW138522   1.270   2.515   3.995 -0.6312 -0.7376  2.8709
 8962SOL    HW238523   1.400   2.557   3.937 -0.7457  0.7284  0.4754
 8963SOL     OW38524   2.217   0.306   0.426  0.2574 -0.4305 -0.0854
 8963SOL    HW138525   2.311   0.314   0.443  0.0146  0.5962  0.7366
 8963SOL    HW238526   2.208   0.211   0.418 -1.3396 -0.1469 -1.6361
 8964SOL     OW38527   3.874   2.471   2.594 -0.7479  0.2216  0.4627
 8964SOL    HW138528   3.881   2.383   2.557 -2.6913  1.2352 -2.2430
 8964SOL    HW238529   3.879   2.526   2.516  0.3138  0.3915  0.6484
 8965SOL     OW38530   3.005   0.566  17.250 -0.1241 -0.1514 -0.3338
 8965SOL    HW138531   3.033   0.618  17.325  1.9414 -2.0692  0.2156
 8965SOL    HW238532   2.952   0.628  17.200  1.3667  1.3695  0.0001
 8966SOL     OW38533   3.781   2.003  12.070  0.3524  0.1478  0.0004
 8966SOL    HW138534   3.701   1.966  12.107  1.5885 -1.9082  0.6438
 8966SOL    HW238535   3.786   2.088  12.114  0.6522  0.6190 -0.9673
 8967SOL     OW38536   2.482   0.980   4.985  0.4726 -0.1513 -0.3559
 8967SOL    HW138537   2.525   0.899   5.015 -0.4207 -0.4191  0.1795
 8967SOL    HW238538   2.428   0.950   4.911 -0.5959 -0.3728  0.5227
 8968SOL     OW38539   3.621   4.072   4.787  0.3970  0.6140  0.0735
 8968SOL    HW138540   3.564   4.148   4.776 -1.4304 -0.8200 -0.5298
 8968SOL    HW238541   3.707   4.104   4.761  1.5038 -0.0514  2.8175
 8969SOL     OW38542   0.965   3.262   7.586 -0.0549 -0.0769  0.2037
 8969SOL    HW138543   0.878   3.231   7.561 -0.2385 -1.2050  2.2930
 8969SOL    HW238544   0.969   3.335   7.524 -1.6508 -1.6672 -1.7884
 8970SOL     OW38545   0.512   1.438   7.199  0.1325 -0.1067 -0.2296
 8970SOL    HW138546   0.606   1.417   7.203 -0.0350 -1.0370 -1.1901
 8970SOL    HW238547   0.469   1.385   7.266 -1.8572  3.4755  1.3019
 8971SOL     OW38548   3.439   2.346  12.543  0.0641 -0.6170  0.1340
 8971SOL    HW138549   3.505   2.293  12.498 -2.2397 -2.0536 -1.5360
 8971SOL    HW238550   3.365   2.291  12.518 -0.8889  1.6085 -1.8746
 8972SOL     OW38551   1.446   0.515   8.198  0.4059  0.5643  0.0635
 8972SOL    HW138552   1.481   0.570   8.127 -1.2042  1.4484 -0.0457
 8972SOL    HW238553   1.494   0.435   8.178 -1.2572 -0.1543 -1.0485
 8973SOL     OW38554   1.157   1.419  17.236 -0.2645  0.2887  0.4413
 8973SOL    HW138555   1.228   1.483  17.238 -0.7525  0.8050  1.2558
 8973SOL    HW238556   1.203   1.344  17.274 -0.0833  0.6403  0.9110
 8974SOL     OW38557   1.772   1.458   7.574 -0.3194 -0.1058  0.0673
 8974SOL    HW138558   1.846   1.518   7.567 -0.8383  0.4644 -0.5097
 8974SOL    HW238559   1.799   1.411   7.653  0.0899  0.8147  0.4793
 8975SOL     OW38560   2.866   1.181   4.107  0.1936 -0.1838 -0.5052
 8975SOL    HW138561   2.949   1.193   4.153 -1.2227  2.9388  1.2255
 8975SOL    HW238562   2.834   1.269   4.129  0.8265 -0.0858  0.0320
 8976SOL     OW38563   4.291   2.569  13.990  0.1299 -0.4298  0.5084
 8976SOL    HW138564   4.244   2.614  13.920  0.7755  0.6207  0.7609
 8976SOL    HW238565   4.333   2.638  14.041  1.1110  1.6089 -3.0983
 8977SOL     OW38566   3.150   4.279   2.569 -0.2231  0.1336  0.2011
 8977SOL    HW138567   3.201   4.246   2.643  1.0657  0.0823 -0.7168
 8977SOL    HW238568   3.169   4.220   2.496  1.5456 -0.7209  1.3560
 8978SOL     OW38569   1.718   1.684  15.646  0.5350  0.1594  0.1488
 8978SOL    HW138570   1.806   1.717  15.668  0.8335 -0.8181  0.4214
 8978SOL    HW238571   1.713   1.699  15.552 -0.8523  1.2904  0.4082
 8979SOL     OW38572   0.684   0.987  13.408 -0.6081  0.2125 -0.2449
 8979SOL    HW138573   0.598   1.030  13.408 -1.7749 -2.1182  0.0624
 8979SOL    HW238574   0.742   1.059  13.435  1.0773 -0.8394 -1.0463
 8980SOL     OW38575   1.312   4.493  17.638 -0.2924 -0.3189 -0.1366
 8980SOL    HW138576   1.309   4.551  17.563 -2.1514  0.1521  0.3047
 8980SOL    HW238577   1.218   4.486  17.649 -0.3195 -2.4301 -1.6501
 8981SOL     OW38578   1.523   2.026  10.651  0.8032  0.1405  0.1472
 8981SOL    HW138579   1.564   1.955  10.701 -2.1168 -1.3398  0.4389
 8981SOL    HW238580   1.454   1.991  10.596 -0.1402 -0.2993  1.6001
 8982SOL     OW38581   1.148   2.111   1.556  0.0047 -0.3894 -0.6534
 8982SOL    HW138582   1.151   2.206   1.552 -0.8920 -0.4714 -3.1093
 8982SOL    HW238583   1.056   2.088   1.543 -0.3216  1.5338 -1.7645
 8983SOL     OW38584   3.697   1.222   2.894  0.2070  0.4068  0.1268
 8983SOL    HW138585   3.763   1.287   2.916  0.5587  1.0215 -2.6692
 8983SOL    HW238586   3.745   1.140   2.893  1.9473  1.4368 -0.4034
 8984SOL     OW38587   1.452   4.343   3.139  0.2011  0.1256 -0.2278
 8984SOL    HW138588   1.445   4.410   3.207 -0.7077  0.5810 -0.7817
 8984SOL    HW238589   1.540   4.310   3.158 -0.6171 -1.9686 -0.0884
 8985SOL     OW38590   4.065   2.153   8.817  0.2309 -0.1129 -0.0589
 8985SOL    HW138591   4.100   2.119   8.900 -0.3995 -1.1888 -0.2424
 8985SOL    HW238592   4.133   2.130   8.753 -0.2239 -1.5107 -0.0420
 8986SOL     OW38593   4.196   1.573  15.421  0.0062  0.0602  0.0065
 8986SOL    HW138594   4.106   1.555  15.394  0.2713  0.2426 -1.0161
 8986SOL    HW238595   4.198   1.509  15.491 -1.8356 -0.8878 -0.8164
 8987SOL     OW38596   0.761   4.299  14.888 -0.1102 -0.0001  0.4045
 8987SOL    HW138597   0.729   4.380  14.928  1.7566  1.2680 -0.6520
 8987SOL    HW238598   0.796   4.336  14.806 -1.8388 -0.2153 -0.4294
 8988SOL     OW38599   0.221   2.964  12.309 -0.0693  0.0499  0.0833
 8988SOL    HW138600   0.208   3.042  12.254 -0.0557 -0.3840 -0.5326
 8988SOL    HW238601   0.151   2.910  12.272 -0.2252  0.2623  0.0669
 8989SOL     OW38602   2.023   3.991   8.794 -0.6349  0.5545  0.7214
 8989SOL    HW138603   1.960   4.010   8.863 -0.9955 -0.9800  0.8120
 8989SOL    HW238604   2.097   4.049   8.813 -0.2269  1.0518 -2.4079
 8990SOL     OW38605   4.125   2.624   7.520 -0.1690  0.0760 -0.4736
 8990SOL    HW138606   4.178   2.685   7.470  0.1296  2.1376  2.3336
 8990SOL    HW238607   4.154   2.628   7.611  1.8891 -0.6634 -1.1076
 8991SOL     OW38608   0.872   2.105   1.524  0.4832 -0.3430  0.5586
 8991SOL    HW138609   0.803   2.040   1.538 -0.1809  0.7372  2.2099
 8991SOL    HW238610   0.842   2.190   1.554  3.2498  0.6144  0.6024
 8992SOL     OW38611   1.423   4.076   4.684 -0.9049 -0.0920 -0.0151
 8992SOL    HW138612   1.510   4.041   4.667 -0.2659  0.0402  2.9509
 8992SOL    HW238613   1.407   4.126   4.604  1.2240  1.8712  0.7671
 8993SOL     OW38614   2.382   3.540   5.790  0.6080  0.5783 -0.0636
 8993SOL    HW138615   2.433   3.575   5.718  2.5735 -1.0312  0.5615
 8993SOL    HW238616   2.351   3.462   5.744  2.8766 -0.6740  0.5607
 8994SOL     OW38617   1.918   3.417   4.875  0.1519 -0.1760 -0.8387
 8994SOL    HW138618   1.850   3.395   4.939  1.1953 -1.2834 -0.1090
 8994SOL    HW238619   1.903   3.509   4.856 -0.6727 -0.4172 -1.3447
 8995SOL     OW38620   1.928   2.684   5.940  0.1192 -0.0579 -0.2387
 8995SOL    HW138621   1.856   2.746   5.927 -0.0102 -0.1479  0.0593
 8995SOL    HW238622   1.959   2.680   5.849  0.2384  0.8357 -0.2388
 8996SOL     OW38623   1.975   4.649   3.207  0.3450  0.2809  0.1689
 8996SOL    HW138624   1.920   4.628   3.282 -0.7579  0.1680 -0.6823
 8996SOL    HW238625   1.995   4.558   3.184 -0.5346  0.6264 -1.9488
 8997SOL     OW38626   3.918   0.169   9.931 -0.2536 -0.6213  0.1669
 8997SOL    HW138627   3.904   0.075   9.927 -2.7818 -0.3209  1.2193
 8997SOL    HW238628   3.946   0.179  10.022  0.7859 -2.7521  0.0726
 8998SOL     OW38629   0.795   4.628   4.438  0.0450 -0.0714 -0.2252
 8998SOL    HW138630   0.747   4.605   4.517 -0.8328 -1.0678 -1.0402
 8998SOL    HW238631   0.794   4.722   4.455 -1.5658 -0.0077 -0.5973
 8999SOL     OW38632   3.039   4.064  17.404 -0.1428 -0.7338 -0.8871
 8999SOL    HW138633   3.067   3.973  17.400  0.4959 -0.7246  4.1392
 8999SOL    HW238634   2.995   4.086  17.322 -1.5521  0.2506  0.1377
 9000SOL     OW38635   3.383   1.719  14.293 -0.1343  0.0904  0.9507
 9000SOL    HW138636   3.301   1.672  14.276 -0.0068  0.4436 -0.6490
 9000SOL    HW238637   3.427   1.658  14.352  0.5535 -0.6452 -0.3415
 9001SOL     OW38638   1.574   1.595   4.220  0.7191 -0.0533  0.2601
 9001SOL    HW138639   1.607   1.538   4.290  1.2231 -1.7307 -1.3362
 9001SOL    HW238640   1.646   1.586   4.158 -0.4337  3.4907 -1.5921
 9002SOL     OW38641   0.752   4.307  10.981  0.1450  0.0271 -0.0561
 9002SOL    HW138642   0.733   4.214  10.996 -0.5146  0.2869  0.6808
 9002SOL    HW238643   0.679   4.335  10.926 -0.7415  0.1711  1.1962
 9003SOL     OW38644   3.862   4.086   7.796 -0.1930 -0.4432 -0.1767
 9003SOL    HW138645   3.791   4.133   7.752 -0.1287 -0.1715  0.0057
 9003SOL    HW238646   3.827   4.089   7.885  1.2787  0.7535  0.3757
 9004SOL     OW38647   1.078   3.055   2.526  0.2582 -0.4018 -0.0613
 9004SOL    HW138648   1.057   2.969   2.489 -0.6553 -0.1085 -0.2284
 9004SOL    HW238649   1.152   3.034   2.582 -0.3183  1.3732  1.3692
 9005SOL     OW38650   1.558   0.650   7.994 -0.6894  0.1253  0.1655
 9005SOL    HW138651   1.518   0.700   7.923 -0.1687 -0.4205 -0.5082
 9005SOL    HW238652   1.613   0.586   7.949  1.9182  1.6420  1.2030
 9006SOL     OW38653   0.163   0.211   7.538  0.2341 -0.7180  0.2624
 9006SOL    HW138654   0.129   0.134   7.583 -0.4489  1.7564  4.0314
 9006SOL    HW238655   0.119   0.281   7.586 -0.2109 -0.2157 -0.8723
 9007SOL     OW38656   2.573   0.342   1.836 -0.2571  0.1954 -0.0825
 9007SOL    HW138657   2.646   0.295   1.794 -0.3600 -0.5067  0.5208
 9007SOL    HW238658   2.609   0.429   1.852  2.2731 -1.1849  1.8989
 9008SOL     OW38659   4.333   1.077  17.511  0.6082  0.4676  0.7377
 9008SOL    HW138660   4.338   1.156  17.458 -0.3094  1.0104  1.4539
 9008SOL    HW238661   4.295   1.007  17.458  2.5357  0.3463 -0.4761
 9009SOL     OW38662   3.323   2.099  13.194 -0.5094 -0.7925  0.0545
 9009SOL    HW138663   3.256   2.106  13.262 -0.4640 -0.8355  0.1035
 9009SOL    HW238664   3.301   2.022  13.141  1.0399  0.9607 -3.1144
 9010SOL     OW38665   2.858   4.662   8.628 -0.2696  0.8676  0.6482
 9010SOL    HW138666   2.806   4.591   8.665 -0.6155  1.9346  2.2170
 9010SOL    HW238667   2.927   4.615   8.581 -0.3129  0.7542  0.6992
 9011SOL     OW38668   1.073   2.529   8.207 -0.1974 -0.0350  0.2912
 9011SOL    HW138669   1.100   2.437   8.203  0.1139  0.1759 -2.7002
 9011SOL    HW238670   1.097   2.555   8.117  1.9706  0.0487  0.8765
 9012SOL     OW38671   4.202   3.142  14.023 -0.0135 -0.1567  0.2538
 9012SOL    HW138672   4.268   3.208  14.002  0.7568 -1.4508 -1.4086
 9012SOL    HW238673   4.247   3.061  14.046  0.2387  0.3713  1.6192
 9013SOL     OW38674   0.558   1.120   7.486 -0.5251  0.5121 -0.3272
 9013SOL    HW138675   0.584   1.070   7.409  1.0807  0.5105  0.2131
 9013SOL    HW238676   0.637   1.174   7.491  0.4155 -0.7522 -1.6634
 9014SOL     OW38677   1.558   1.710   1.384  0.5314  0.5202  0.8230
 9014SOL    HW138678   1.475   1.757   1.382  1.5381  2.3548  2.4328
 9014SOL    HW238679   1.547   1.649   1.311 -0.1412  0.3013  1.1048
 9015SOL     OW38680   0.407   2.258   5.281  0.4728 -0.0726  0.1603
 9015SOL    HW138681   0.377   2.214   5.361  2.3628  0.2767  1.0758
 9015SOL    HW238682   0.408   2.351   5.304  0.0696  0.2457 -1.1034
 9016SOL     OW38683   4.497   4.095  12.642 -0.3085 -0.0118 -0.6412
 9016SOL    HW138684   4.407   4.126  12.642  0.4415  2.1140  0.0465
 9016SOL    HW238685   4.477   4.002  12.633  3.3490 -0.8931 -0.0306
 9017SOL     OW38686   1.615   2.520   1.876  0.3220  0.0663  0.0818
 9017SOL    HW138687   1.599   2.460   1.803 -1.0500  1.1796 -0.5628
 9017SOL    HW238688   1.556   2.484   1.942 -0.6985 -0.6456 -1.2112
 9018SOL     OW38689   2.845   2.029   1.810 -0.3203  0.2811  0.3854
 9018SOL    HW138690   2.789   2.078   1.870 -0.7784  1.5163 -1.0276
 9018SOL    HW238691   2.927   2.077   1.824  0.6856 -1.1127 -0.7702
 9019SOL     OW38692   0.674   1.517  16.552 -0.1824 -0.3308 -0.0148
 9019SOL    HW138693   0.649   1.579  16.620  0.3179  0.4639 -0.5640
 9019SOL    HW238694   0.602   1.455  16.567 -0.4217  0.3144  1.4779
 9020SOL     OW38695   2.900   3.035   6.458 -0.5061  0.2067 -0.0507
 9020SOL    HW138696   2.854   2.961   6.420 -0.4141  0.8574 -1.4213
 9020SOL    HW238697   2.937   2.995   6.537 -0.9985  1.2515  0.7055
 9021SOL     OW38698   4.707   0.985   6.504  0.1923  0.2254  0.1428
 9021SOL    HW138699   0.011   1.066   6.535  2.0255  0.1859 -2.1798
 9021SOL    HW238700   4.619   1.007   6.533  0.2133  0.3624  0.1033
 9022SOL     OW38701   0.111   0.631   8.511  0.0307  0.4282  0.2550
 9022SOL    HW138702   0.070   0.624   8.597 -1.8609 -1.9488 -0.8343
 9022SOL    HW238703   0.089   0.721   8.488  2.1619  0.6287 -1.0292
 9023SOL     OW38704   3.975   0.066  15.459  0.3837 -0.5965 -0.1723
 9023SOL    HW138705   4.013   4.719  15.433  1.1723  0.2167 -1.6300
 9023SOL    HW238706   4.035   0.132  15.426  1.3890 -2.4930 -2.1665
 9024SOL     OW38707   4.245   0.283  13.275  0.2885  0.5600 -0.3510
 9024SOL    HW138708   4.176   0.242  13.223  1.0427 -1.0103 -0.1358
 9024SOL    HW238709   4.319   0.254  13.221 -0.1145 -0.8832 -0.1300
 9025SOL     OW38710   3.895   4.350   1.648  0.3612  0.2239 -0.5885
 9025SOL    HW138711   3.938   4.274   1.608 -0.5598 -1.8953  2.3851
 9025SOL    HW238712   3.906   4.326   1.740  0.8804 -0.2686 -0.7774
 9026SOL     OW38713   1.632   1.827   9.841 -0.2720 -0.3471  0.4408
 9026SOL    HW138714   1.702   1.844   9.778  0.3344 -0.4575  1.0791
 9026SOL    HW238715   1.685   1.803   9.917  1.2189 -0.3001 -0.5863
 9027SOL     OW38716   3.354   4.362   5.953  0.3789  0.0505  0.6810
 9027SOL    HW138717   3.422   4.427   5.972  0.1377  0.7491 -0.8782
 9027SOL    HW238718   3.288   4.387   6.018  0.4284  0.4296  0.5856
 9028SOL     OW38719   1.087   3.158   6.732  0.5423 -0.1407  0.3768
 9028SOL    HW138720   1.096   3.207   6.651  0.6641 -0.7956 -0.0085
 9028SOL    HW238721   1.135   3.076   6.717  0.8460 -0.3734  2.5944
 9029SOL     OW38722   1.293   4.347   9.062  0.3127  0.3884 -0.2436
 9029SOL    HW138723   1.283   4.372   8.970  1.4743 -1.1129 -0.7941
 9029SOL    HW238724   1.345   4.267   9.060 -0.5731 -0.1402 -1.9880
 9030SOL     OW38725   3.069   2.039  16.052  0.5839 -0.2290  0.6832
 9030SOL    HW138726   3.058   2.132  16.074 -1.2012 -0.5417  1.1519
 9030SOL    HW238727   3.003   2.034  15.982 -0.9539  1.7194  1.9895
 9031SOL     OW38728   0.415   4.098   2.568 -0.5342 -0.2907 -0.6769
 9031SOL    HW138729   0.503   4.131   2.552 -1.4048  1.8890 -0.9918
 9031SOL    HW238730   0.380   4.096   2.479 -0.5711  0.6827 -0.6831
 9032SOL     OW38731   0.271   0.062   7.800  0.2756 -0.7069 -0.5700
 9032SOL    HW138732   0.288   0.007   7.876  0.4835  0.6182  0.3487
 9032SOL    HW238733   0.178   0.045   7.786  0.2133  0.7868 -1.9870
 9033SOL     OW38734   3.880   1.958   4.554  0.3544 -0.0740  0.0793
 9033SOL    HW138735   3.951   2.002   4.508  1.4476 -3.6268 -1.6054
 9033SOL    HW238736   3.855   1.894   4.488  0.0791  0.6550 -0.5206
 9034SOL     OW38737   4.305   3.022  14.896 -0.8855  0.4050  0.5048
 9034SOL    HW138738   4.275   3.015  14.987 -4.0657 -0.5799 -0.5881
 9034SOL    HW238739   4.228   2.978  14.859  0.7138 -2.6971  0.8036
 9035SOL     OW38740   3.672   2.090   8.565 -0.2492  0.0482  0.4907
 9035SOL    HW138741   3.742   2.078   8.501 -0.0582 -1.3430  0.9536
 9035SOL    HW238742   3.719   2.152   8.622  2.3023 -1.5822  0.1264
 9036SOL     OW38743   0.182   2.597   3.948 -0.0445  0.0837 -0.0361
 9036SOL    HW138744   0.106   2.567   3.898 -0.6804  1.7583 -0.1028
 9036SOL    HW238745   0.222   2.665   3.893  1.5727  0.2128  1.2875
 9037SOL     OW38746   2.871   2.665   2.643  0.0550  0.7218  0.1446
 9037SOL    HW138747   2.938   2.674   2.711 -1.6849 -0.9243  2.0499
 9037SOL    HW238748   2.911   2.594   2.593  1.4891  0.5501  1.5306
 9038SOL     OW38749   3.378   0.034   6.566 -0.0839  0.4733  0.2355
 9038SOL    HW138750   3.311   0.009   6.501  0.9093 -0.5832 -0.3699
 9038SOL    HW238751   3.373   0.126   6.540 -0.9362  0.3336 -0.1132
 9039SOL     OW38752   4.681   3.784   5.957  0.2229 -0.1979 -0.4362
 9039SOL    HW138753   4.609   3.723   5.971 -0.7383  1.1056  0.3550
 9039SOL    HW238754   4.641   3.861   5.997  0.4929  0.1860 -0.9024
 9040SOL     OW38755   3.904   3.120   7.408 -0.0941 -0.2203 -0.0466
 9040SOL    HW138756   3.850   3.051   7.369 -0.5132  0.4148 -0.5710
 9040SOL    HW238757   3.862   3.129   7.493 -0.1194 -1.6052  0.0876
 9041SOL     OW38758   1.023   0.416  11.201  0.0499 -0.4370 -0.6173
 9041SOL    HW138759   1.059   0.353  11.263  0.6044  0.3760 -0.1056
 9041SOL    HW238760   1.058   0.389  11.116 -0.5353 -0.9471 -0.6907
 9042SOL     OW38761   1.201   2.383   2.499 -0.3153 -0.1718  0.0549
 9042SOL    HW138762   1.106   2.375   2.510 -0.3204 -1.0873 -0.7581
 9042SOL    HW238763   1.226   2.467   2.539 -1.1063  0.6085 -1.0715
 9043SOL     OW38764   4.610   0.061   4.019  0.0989  0.1632  0.1809
 9043SOL    HW138765   4.650   0.137   4.060 -2.8530  0.2166  3.0070
 9043SOL    HW238766   4.684   0.035   3.964 -0.1123 -1.7118  0.7760
 9044SOL     OW38767   0.002   3.909   7.864 -0.6150 -0.0583 -0.1516
 9044SOL    HW138768   4.697   3.994   7.870  1.2481  0.7833  0.7581
 9044SOL    HW238769   0.092   3.934   7.843 -0.6999  0.5847  0.2629
 9045SOL     OW38770   1.558   3.662  10.379  0.3716  0.1054  0.3289
 9045SOL    HW138771   1.546   3.629  10.467 -0.9062 -0.8037 -0.1899
 9045SOL    HW238772   1.595   3.746  10.405 -1.6162  1.3212 -0.8000
 9046SOL     OW38773   4.238   1.226  14.580  0.0477  0.6093 -0.4183
 9046SOL    HW138774   4.262   1.267  14.497  0.3292  1.8125  0.2528
 9046SOL    HW238775   4.275   1.139  14.567  0.6771  0.7597  0.3692
 9047SOL     OW38776   1.372   3.296  14.792  0.0426 -0.3750 -0.0805
 9047SOL    HW138777   1.423   3.248  14.727 -2.4381 -3.7221  0.4804
 9047SOL    HW238778   1.403   3.387  14.785 -1.0353  0.0574  0.7656
 9048SOL     OW38779   1.904   4.429   9.186 -0.2504  0.4475  0.0076
 9048SOL    HW138780   1.815   4.403   9.210 -0.8526  2.1823 -0.3570
 9048SOL    HW238781   1.920   4.490   9.258  1.9597 -0.1356  0.0180
 9049SOL     OW38782   0.929   3.433   4.995  0.3873  0.7814 -0.4252
 9049SOL    HW138783   0.999   3.490   5.025 -2.7328  3.6773  1.2568
 9049SOL    HW238784   0.975   3.386   4.925  0.9080  1.9347 -0.8507
 9050SOL     OW38785   3.872   2.586   7.893  0.2533  0.2458 -0.0494
 9050SOL    HW138786   3.874   2.496   7.860 -0.5220 -0.2194  1.1766
 9050SOL    HW238787   3.963   2.590   7.923  0.6847 -1.8697 -1.0810
 9051SOL     OW38788   2.363   0.524   4.725  0.6381 -0.3521  0.0261
 9051SOL    HW138789   2.311   0.586   4.777 -0.5754 -2.0580  0.8450
 9051SOL    HW238790   2.309   0.447   4.708  0.6944  0.2861 -3.0905
 9052SOL     OW38791   1.933   3.683   1.924 -0.5632  0.5013 -0.4111
 9052SOL    HW138792   1.925   3.704   1.831  1.0048 -0.3174 -0.7527
 9052SOL    HW238793   1.878   3.747   1.968 -2.3688 -1.4067  0.1538
 9053SOL     OW38794   3.717   3.508   0.512  0.2707  0.7898  0.4212
 9053SOL    HW138795   3.797   3.559   0.497  0.5463 -0.0625 -1.0632
 9053SOL    HW238796   3.716   3.455   0.432  1.2041  0.3031  0.7382
 9054SOL     OW38797   1.044   1.924   2.415 -0.2109  0.4381  0.2157
 9054SOL    HW138798   1.063   2.017   2.404 -0.7330  0.3234 -1.6680
 9054SOL    HW238799   0.967   1.913   2.359 -0.8404  1.6801  0.8369
 9055SOL     OW38800   2.025   2.676   9.058 -0.2426  0.0136  0.4982
 9055SOL    HW138801   2.079   2.747   9.093  3.3290 -1.0009 -2.9576
 9055SOL    HW238802   2.062   2.658   8.972 -0.1986 -0.0764  0.5364
 9056SOL     OW38803   1.375   3.565   6.162  0.3616 -0.0052  1.1496
 9056SOL    HW138804   1.468   3.586   6.154 -0.3265  2.5687 -0.0482
 9056SOL    HW238805   1.328   3.648   6.156 -1.8202 -1.3639 -0.4025
 9057SOL     OW38806   1.749   2.711   9.811  0.4499 -0.6699 -0.2546
 9057SOL    HW138807   1.748   2.728   9.717 -0.4947 -1.5204 -0.3957
 9057SOL    HW238808   1.688   2.771   9.853  0.9182 -0.1549 -0.3013
 9058SOL     OW38809   1.123   1.922   4.915 -0.7180 -0.0323  0.3682
 9058SOL    HW138810   1.173   1.927   4.834 -1.2930  0.1155  0.0191
 9058SOL    HW238811   1.152   1.995   4.970  1.2217 -0.6606  0.1595
 9059SOL     OW38812   4.275   2.562   1.700  0.1813 -0.2206  0.1207
 9059SOL    HW138813   4.238   2.494   1.757  1.0069  1.0068  2.1559
 9059SOL    HW238814   4.367   2.537   1.704  0.4066  0.8399  1.5980
 9060SOL     OW38815   1.582   0.399   3.101  0.5231  0.2799 -0.1345
 9060SOL    HW138816   1.632   0.359   3.172  1.1261  3.0331  0.9506
 9060SOL    HW238817   1.646   0.445   3.047  0.2227 -0.5683 -1.2342
 9061SOL     OW38818   0.948   0.779   7.507  0.5392 -0.0112 -0.2173
 9061SOL    HW138819   0.942   0.686   7.529  1.9809  0.1513  0.8782
 9061SOL    HW238820   0.857   0.791   7.481  0.4346 -2.2785 -0.8193
 9062SOL     OW38821   1.056   4.483   6.993  0.0132 -0.6534  0.2124
 9062SOL    HW138822   1.141   4.526   6.981 -1.6011  2.4382 -0.1519
 9062SOL    HW238823   1.010   4.561   7.026 -0.1402  0.1885 -1.9596
 9063SOL     OW38824   4.589   2.463   4.926  0.0377 -0.5967 -0.0433
 9063SOL    HW138825   4.638   2.436   4.849 -0.5820 -0.0410 -0.6303
 9063SOL    HW238826   4.627   2.547   4.950 -0.5862 -0.3642  0.1192
 9064SOL     OW38827   1.798   1.168   0.101  0.7474 -0.2764 -0.2615
 9064SOL    HW138828   1.831   1.087   0.064 -0.8584 -1.2272  0.3855
 9064SOL    HW238829   1.861   1.238   0.087 -0.7966  1.1129 -0.3047
 9065SOL     OW38830   2.305   1.146   9.752  0.1004 -0.0634  0.1055
 9065SOL    HW138831   2.211   1.126   9.750  0.2743 -1.0719  2.1855
 9065SOL    HW238832   2.348   1.062   9.735 -1.2332 -0.6419 -0.4277
 9066SOL     OW38833   3.505   4.077   0.818  0.6158 -0.6960  1.0197
 9066SOL    HW138834   3.420   4.084   0.775  1.2204  1.1336  0.1281
 9066SOL    HW238835   3.495   4.125   0.901 -1.9320  0.4960  0.0121
 9067SOL     OW38836   4.717   0.781   3.107  0.4344 -0.5254  0.1463
 9067SOL    HW138837   0.047   0.811   3.168  0.5020 -0.1864 -0.0953
 9067SOL    HW238838   0.027   0.799   3.026 -2.1872 -0.4238 -1.3587
 9068SOL     OW38839   2.260   1.173  16.341 -0.3410 -0.3245 -0.2161
 9068SOL    HW138840   2.200   1.239  16.375 -3.4575 -2.7217 -1.0524
 9068SOL    HW238841   2.312   1.231  16.285 -0.0439 -0.1756  0.2112
 9069SOL     OW38842   4.454   2.456   8.089 -0.1553  0.3926 -0.2397
 9069SOL    HW138843   4.535   2.442   8.137 -1.5566  0.8821  2.2827
 9069SOL    HW238844   4.459   2.552   8.085 -1.5149  0.4536 -0.4104
 9070SOL     OW38845   3.531   1.042   8.061  0.1075 -0.2170  0.5491
 9070SOL    HW138846   3.627   1.048   8.067  0.0110  1.3477  0.4792
 9070SOL    HW238847   3.508   1.122   8.108 -3.9245 -0.8284 -0.4474
 9071SOL     OW38848   2.468   1.839  14.871  0.3260  0.2789 -0.5075
 9071SOL    HW138849   2.537   1.878  14.925  0.2038 -1.3450  0.8155
 9071SOL    HW238850   2.502   1.862  14.784  0.8136  1.1546 -0.0836
 9072SOL     OW38851   0.963   4.319   5.554 -0.0892  1.0101 -0.9188
 9072SOL    HW138852   0.926   4.250   5.500 -0.8394  0.8628 -0.2251
 9072SOL    HW238853   1.055   4.294   5.546 -0.7660 -2.1617  1.1529
 9073SOL     OW38854   2.644   3.240   4.433  0.2722  0.2325 -0.9296
 9073SOL    HW138855   2.631   3.233   4.339 -0.8608  0.8218 -0.8196
 9073SOL    HW238856   2.737   3.227   4.447  0.0847 -2.5063 -2.2243
 9074SOL     OW38857   3.411   3.582  17.306 -0.5862 -0.8363 -0.0499
 9074SOL    HW138858   3.404   3.489  17.327  1.7869 -1.0467 -0.1733
 9074SOL    HW238859   3.479   3.629  17.354 -1.1153  0.9049 -1.0044
 9075SOL     OW38860   0.644   0.234   3.460 -0.5661  0.5895  0.2241
 9075SOL    HW138861   0.735   0.208   3.441  0.0691  1.0505  2.7186
 9075SOL    HW238862   0.604   0.179   3.392  1.5240 -2.6674  1.6036
 9076SOL     OW38863   4.004   2.457  12.502  0.1682  0.4535 -0.3562
 9076SOL    HW138864   4.016   2.543  12.543  1.6971  0.3108 -0.4968
 9076SOL    HW238865   4.084   2.440  12.453 -1.0157  0.0878 -2.1585
 9077SOL     OW38866   4.272   2.036   7.292 -0.1870  0.1564  0.1388
 9077SOL    HW138867   4.304   2.029   7.382  0.3543  0.4161 -0.0271
 9077SOL    HW238868   4.224   2.119   7.298 -0.7194 -0.0418 -1.4577
 9078SOL     OW38869   0.937   2.167   9.546 -0.2674 -0.0331 -0.1473
 9078SOL    HW138870   0.967   2.247   9.590  0.4469 -0.9732  1.0763
 9078SOL    HW238871   1.010   2.107   9.562  0.2630  1.6743  3.9673
 9079SOL     OW38872   0.486   0.147  17.391  0.0317  0.0908  0.1598
 9079SOL    HW138873   0.498   0.183  17.303  2.2622 -0.9318  0.0214
 9079SOL    HW238874   0.577   0.133  17.419  0.3332 -0.6620 -1.2132
 9080SOL     OW38875   2.465   4.341  11.843  0.0773  0.1844 -0.1809
 9080SOL    HW138876   2.554   4.312  11.827  0.3027  0.6169  0.2523
 9080SOL    HW238877   2.434   4.377  11.760  0.0598  3.0124  1.0231
 9081SOL     OW38878   4.075   0.260   8.641  0.3878 -0.5724 -0.1201
 9081SOL    HW138879   4.006   0.249   8.706 -0.5929  1.4131 -0.8184
 9081SOL    HW238880   4.069   0.175   8.599 -2.1689 -0.6581  0.4359
 9082SOL     OW38881   0.502   4.003   6.727 -0.4922  0.1227  0.1457
 9082SOL    HW138882   0.586   4.002   6.682 -0.3210  1.1311  0.4498
 9082SOL    HW238883   0.444   3.962   6.663  0.5852  2.7516 -2.4963
 9083SOL     OW38884   2.060   0.599   6.343  0.3553 -0.2630  0.0438
 9083SOL    HW138885   1.974   0.631   6.319  0.1438 -0.8669 -0.0079
 9083SOL    HW238886   2.108   0.666   6.295 -1.1412  0.5591 -0.2947
 9084SOL     OW38887   0.293   2.736   7.201 -0.6170 -0.2588  0.2428
 9084SOL    HW138888   0.235   2.676   7.153  2.2302 -2.8628  0.0095
 9084SOL    HW238889   0.383   2.714   7.176 -0.4112 -1.3250  1.8744
 9085SOL     OW38890   0.520   4.591   2.430 -0.6267  0.2370  0.3753
 9085SOL    HW138891   0.435   4.603   2.387 -0.0959 -0.5522 -0.9006
 9085SOL    HW238892   0.484   4.579   2.517  0.6598 -2.8328  0.4902
 9086SOL     OW38893   3.931   4.481   4.793 -0.5074  0.4095  0.3368
 9086SOL    HW138894   3.894   4.494   4.706  1.7322 -2.2393 -1.0327
 9086SOL    HW238895   3.898   4.559   4.837 -1.7970 -0.6165  1.1875
 9087SOL     OW38896   0.494   0.346  15.786  0.1224  0.2006 -0.0309
 9087SOL    HW138897   0.522   0.435  15.808 -0.2692  0.4066 -0.3618
 9087SOL    HW238898   0.474   0.358  15.693 -2.1206  1.2011  0.5881
 9088SOL     OW38899   0.978   0.690   2.591 -0.0173 -0.2485  0.2413
 9088SOL    HW138900   0.987   0.622   2.524 -2.6701 -1.0618  0.7518
 9088SOL    HW238901   0.900   0.661   2.637  0.1746 -0.6157  0.3393
 9089SOL     OW38902   1.120   2.516   9.184 -0.3623 -0.1403 -0.0671
 9089SOL    HW138903   1.181   2.444   9.168 -0.9839 -0.6806  0.0067
 9089SOL    HW238904   1.054   2.513   9.115 -0.9291 -2.3845  0.5612
 9090SOL     OW38905   2.470   0.501   8.070  0.3724  0.6515  0.1958
 9090SOL    HW138906   2.540   0.553   8.032  0.8067 -1.3817 -1.8199
 9090SOL    HW238907   2.514   0.428   8.113 -1.7264  0.3966  1.9412
 9091SOL     OW38908   3.396   2.379   5.077  0.1050  0.1066 -0.5984
 9091SOL    HW138909   3.404   2.334   5.161 -0.8552 -0.7305 -0.9565
 9091SOL    HW238910   3.309   2.350   5.049 -0.3041  2.5662 -1.8900
 9092SOL     OW38911   0.903   3.096   3.762 -0.4077 -0.1950  0.0893
 9092SOL    HW138912   0.977   3.048   3.725  0.1825 -0.5825  1.7518
 9092SOL    HW238913   0.833   3.098   3.697 -1.7139 -0.8916  1.4693
 9093SOL     OW38914   2.957   4.124  13.744  0.4744 -0.0650 -0.1853
 9093SOL    HW138915   3.034   4.112  13.689 -0.0799 -2.2333 -0.4947
 9093SOL    HW238916   2.983   4.201  13.796 -1.2366  0.9507 -0.8261
 9094SOL     OW38917   0.202   2.860  16.135 -0.5003 -0.2800 -0.5150
 9094SOL    HW138918   0.190   2.827  16.046 -0.4133  0.8663 -0.9399
 9094SOL    HW238919   0.290   2.826  16.152 -0.6358 -0.9065 -1.0470
 9095SOL     OW38920   2.088   1.326   6.134  0.2057 -0.3260 -0.3236
 9095SOL    HW138921   2.058   1.325   6.043 -1.5781  0.6256  0.2587
 9095SOL    HW238922   2.131   1.241   6.129  0.2373 -0.3624  0.5736
 9096SOL     OW38923   1.119   2.501  11.669  0.4731 -0.1137 -0.1360
 9096SOL    HW138924   1.191   2.558  11.695  0.0620  1.0516 -1.5804
 9096SOL    HW238925   1.055   2.514  11.738  1.4768  0.7369  0.6259
 9097SOL     OW38926   0.890   4.304   5.832  0.1134 -0.2919  0.3236
 9097SOL    HW138927   0.801   4.304   5.797 -0.5280 -1.9052  2.0051
 9097SOL    HW238928   0.942   4.341   5.760 -0.0389  0.2350  0.4897
 9098SOL     OW38929   1.333   0.704  17.613 -0.1023  0.1243  0.3401
 9098SOL    HW138930   1.374   0.751  17.686  1.8596 -0.6648 -0.2569
 9098SOL    HW238931   1.245   0.686  17.647 -0.0265  1.0736  1.0530
 9099SOL     OW38932   0.867   4.420   8.482 -0.0745 -0.2061  0.0674
 9099SOL    HW138933   0.871   4.366   8.560 -2.3874 -1.3017 -0.5790
 9099SOL    HW238934   0.811   4.367   8.425  1.4869 -0.8090 -0.8849
 9100SOL     OW38935   1.816   1.647   2.210  0.1067  0.8421 -0.4771
 9100SOL    HW138936   1.729   1.610   2.198 -0.0850  1.1952 -0.1847
 9100SOL    HW238937   1.802   1.703   2.287 -2.1085 -2.7456  1.7604
 9101SOL     OW38938   1.417   2.720   1.746  0.7946 -0.0709  0.2661
 9101SOL    HW138939   1.481   2.672   1.693  1.2928  0.2047  0.6195
 9101SOL    HW238940   1.366   2.646   1.778  1.2321 -1.0576 -1.2923
 9102SOL     OW38941   3.683   1.162  15.757 -0.7032 -0.5729 -0.0005
 9102SOL    HW138942   3.733   1.080  15.753 -0.0478 -0.1150 -1.3972
 9102SOL    HW238943   3.593   1.129  15.752 -0.5138 -1.0072 -0.6403
 9103SOL     OW38944   1.517   1.317   3.989 -0.6416 -0.6954  0.4478
 9103SOL    HW138945   1.554   1.321   3.901 -1.8510  1.0246  0.0217
 9103SOL    HW238946   1.565   1.385   4.037  1.0608 -0.5191 -1.5025
 9104SOL     OW38947   0.866   3.187   1.644  0.0094 -0.4015 -0.2589
 9104SOL    HW138948   0.960   3.200   1.657 -0.8722  1.3638  4.1941
 9104SOL    HW238949   0.845   3.187   1.737  1.2178  0.3517  0.0140
 9105SOL     OW38950   2.726   2.521  12.411 -0.2513 -0.2740  0.3934
 9105SOL    HW138951   2.666   2.530  12.486 -0.2877  1.3528  0.1717
 9105SOL    HW238952   2.801   2.480  12.454 -0.3281  2.4746  3.1901
 9106SOL     OW38953   0.102   2.580   2.114 -0.6442 -0.3399 -0.5729
 9106SOL    HW138954   0.023   2.581   2.060 -1.1733  2.8543  0.2392
 9106SOL    HW238955   0.076   2.501   2.162  2.3277 -0.3120  1.0256
 9107SOL     OW38956   3.420   1.144   5.483  0.5805  0.5002  0.0412
 9107SOL    HW138957   3.474   1.160   5.560  0.5752 -0.8715  0.3274
 9107SOL    HW238958   3.457   1.207   5.421 -0.1793 -0.6289 -1.5511
 9108SOL     OW38959   1.624   0.729   9.323  0.0292 -0.7491 -0.0012
 9108SOL    HW138960   1.611   0.824   9.322 -0.6828 -0.8522 -0.9425
 9108SOL    HW238961   1.706   0.729   9.275 -1.1082 -1.6084 -1.9406
 9109SOL     OW38962   1.378   2.432   9.231 -0.2317  0.2714 -0.2155
 9109SOL    HW138963   1.417   2.411   9.146  2.3475  1.3619  0.6978
 9109SOL    HW238964   1.429   2.510   9.254  0.4987  0.2124 -1.5779
 9110SOL     OW38965   3.461   4.461  11.914 -0.4608 -0.0441  0.3253
 9110SOL    HW138966   3.457   4.547  11.872  0.4675  0.6372  1.6539
 9110SOL    HW238967   3.406   4.466  11.992  0.1427  0.9001  0.6822
 9111SOL     OW38968   2.472   0.804   5.433 -0.1005  0.1825 -0.5236
 9111SOL    HW138969   2.520   0.884   5.414  0.3958 -1.0274 -4.4222
 9111SOL    HW238970   2.541   0.737   5.434  2.0682  2.4480  0.5933
 9112SOL     OW38971   0.181   1.603   8.717  0.0681 -0.0911 -0.4591
 9112SOL    HW138972   0.208   1.636   8.803 -0.4436 -0.9567  0.0303
 9112SOL    HW238973   0.163   1.680   8.663 -0.8336 -0.8962 -1.3142
 9113SOL     OW38974   1.003   0.081   7.779 -0.0907 -0.0642 -0.1865
 9113SOL    HW138975   1.026   0.127   7.860  0.7272 -2.3878  0.8853
 9113SOL    HW238976   0.909   0.093   7.790 -0.2790  0.4228 -2.3314
 9114SOL     OW38977   1.577   3.686   9.754  0.2345 -0.1249  0.1218
 9114SOL    HW138978   1.486   3.706   9.777  0.6676 -0.4281  2.1447
 9114SOL    HW238979   1.601   3.749   9.687 -0.6182  0.7827  0.6786
 9115SOL     OW38980   3.848   3.002   4.361 -0.0565  0.2532  0.0273
 9115SOL    HW138981   3.793   2.925   4.361 -0.9551  0.8925  0.8816
 9115SOL    HW238982   3.792   3.079   4.350 -0.3382  0.0249 -0.1153
 9116SOL     OW38983   3.651   1.941   9.111 -0.0568  0.0664  0.7438
 9116SOL    HW138984   3.583   1.996   9.149 -0.3876 -0.2499  0.6090
 9116SOL    HW238985   3.717   2.009   9.095  1.2768 -1.1306  1.1931
 9117SOL     OW38986   4.251   1.779   0.152 -0.3166  0.4688 -0.6854
 9117SOL    HW138987   4.178   1.718   0.152  0.2719 -0.2347  0.8855
 9117SOL    HW238988   4.250   1.792   0.057  1.5232  2.4076 -0.4428
 9118SOL     OW38989   2.097   2.561   6.944 -0.8570 -0.2550  0.0474
 9118SOL    HW138990   2.067   2.606   7.023  1.0089  0.8796  0.1104
 9118SOL    HW238991   2.154   2.501   6.994  2.1585  0.9458 -1.9396
 9119SOL     OW38992   4.175   0.534  15.950  0.3729 -0.0597 -0.3170
 9119SOL    HW138993   4.146   0.494  15.869  1.4609 -1.7223  0.1242
 9119SOL    HW238994   4.110   0.483  15.998 -0.2054  0.5078 -0.4974
 9120SOL     OW38995   1.275   2.913   2.643 -0.3077  0.4088  0.2476
 9120SOL    HW138996   1.314   2.926   2.729 -0.0645  1.8545 -0.0870
 9120SOL    HW238997   1.348   2.946   2.590  1.0559 -1.5853  0.9167
 9121SOL     OW38998   0.111   1.109   4.291 -0.2898  0.3551 -0.6723
 9121SOL    HW138999   0.121   1.015   4.306 -1.3027 -0.0807 -2.7283
 9121SOL    HW239000   0.105   1.147   4.379 -0.4017  1.6477 -1.2564
 9122SOL     OW39001   1.088   0.889   6.993 -0.2269  0.0082  0.1050
 9122SOL    HW139002   1.150   0.938   6.939 -0.0001 -1.5584 -1.0466
 9122SOL    HW239003   1.008   0.901   6.943 -0.5579 -3.0735 -0.0892
 9123SOL     OW39004   4.313   3.795  14.312  0.0703 -0.3654  0.1857
 9123SOL    HW139005   4.368   3.720  14.289  1.0882  0.0283  1.2795
 9123SOL    HW239006   4.276   3.764  14.394 -1.5600  3.2135  0.8026
 9124SOL     OW39007   0.437   1.755  17.689  0.2768  0.3965  0.6787
 9124SOL    HW139008   0.501   1.825  17.704  1.6963 -1.4524  3.2406
 9124SOL    HW239009   0.444   1.717   0.030  2.3037 -1.2901 -0.2079
 9125SOL     OW39010   4.047   1.164  16.333 -0.3897  0.1645  0.0774
 9125SOL    HW139011   4.126   1.178  16.281 -0.8237 -3.4225 -1.4980
 9125SOL    HW239012   3.976   1.190  16.274 -0.7023 -0.3545  0.2244
 9126SOL     OW39013   4.304   2.993   9.119  0.1843 -0.1518 -0.4736
 9126SOL    HW139014   4.240   3.025   9.055  0.4393 -0.4350 -0.8660
 9126SOL    HW239015   4.335   3.077   9.152  0.9278 -0.3525 -0.6710
 9127SOL     OW39016   1.467   4.497   7.200  0.0983  0.7500 -0.3930
 9127SOL    HW139017   1.542   4.547   7.166  0.6399 -0.5073 -1.0304
 9127SOL    HW239018   1.504   4.466   7.283  2.0185 -1.6042 -2.1236
 9128SOL     OW39019   1.647   3.533   0.854 -0.0412  0.0807 -0.3114
 9128SOL    HW139020   1.728   3.512   0.902  1.3272  0.1934 -2.5675
 9128SOL    HW239021   1.676   3.507   0.767  0.8836  1.0249 -0.2833
 9129SOL     OW39022   3.501   1.508   4.089 -0.1437 -0.5482  0.5402
 9129SOL    HW139023   3.448   1.557   4.152  0.5152 -0.8544  1.3310
 9129SOL    HW239024   3.541   1.440   4.143  0.8305  0.1358  0.6710
 9130SOL     OW39025   2.096   2.018  10.764 -0.4683  0.1739 -0.4060
 9130SOL    HW139026   2.127   1.928  10.756  1.9742  0.6988  3.1906
 9130SOL    HW239027   2.146   2.066  10.697  0.5120 -1.0616 -0.5623
 9131SOL     OW39028   4.057   1.650  12.384 -0.2433  0.3499 -0.3177
 9131SOL    HW139029   3.976   1.616  12.346  0.1351 -0.2997 -0.5490
 9131SOL    HW239030   4.029   1.665  12.474  2.4891  0.9160  0.4088
 9132SOL     OW39031   3.685   1.689   3.504 -0.7797 -0.6426 -1.0063
 9132SOL    HW139032   3.661   1.773   3.545 -0.5866 -0.5697 -1.0436
 9132SOL    HW239033   3.645   1.706   3.419 -0.0419 -1.0213 -1.4253
 9133SOL     OW39034   1.468   2.878   7.548 -0.1932  0.1698  0.5170
 9133SOL    HW139035   1.422   2.808   7.504 -1.6981 -0.4417  3.0661
 9133SOL    HW239036   1.484   2.940   7.477  0.2221  0.9833  1.2982
 9134SOL     OW39037   3.003   1.787   9.441  0.2181  0.6180 -0.1792
 9134SOL    HW139038   2.920   1.786   9.394  0.5527 -1.4461 -0.7194
 9134SOL    HW239039   3.000   1.705   9.489 -1.4384  0.4378 -0.5863
 9135SOL     OW39040   3.048   1.035   3.922  0.2556  0.2230 -0.3664
 9135SOL    HW139041   2.997   1.066   3.996 -0.8702 -0.2170 -0.9587
 9135SOL    HW239042   3.081   0.947   3.938 -1.4212  0.1018  2.3338
 9136SOL     OW39043   4.569   0.308  14.274  0.2681 -0.0136 -0.0862
 9136SOL    HW139044   4.633   0.284  14.208 -0.1073  2.2682 -1.2723
 9136SOL    HW239045   4.493   0.339  14.225  1.1946  2.0680 -0.1985
 9137SOL     OW39046   2.121   3.077   7.339  0.1105  0.1788 -0.1024
 9137SOL    HW139047   2.158   3.027   7.265 -2.3975  0.5061 -1.5753
 9137SOL    HW239048   2.189   3.059   7.404  0.8215 -3.1298 -1.7449
 9138SOL     OW39049   3.599   3.419   3.213  0.1485 -0.3662 -0.3357
 9138SOL    HW139050   3.566   3.425   3.123 -1.1306 -3.6977 -0.0804
 9138SOL    HW239051   3.568   3.498   3.258 -0.2740 -1.2884  0.9789
 9139SOL     OW39052   4.476   3.988  17.110  0.1364 -0.2234 -0.3018
 9139SOL    HW139053   4.447   3.900  17.134  0.2947  0.3474  2.0059
 9139SOL    HW239054   4.390   4.024  17.087 -0.7502 -2.5487 -0.6360
 9140SOL     OW39055   3.131   3.603   7.695  0.5402  0.6804 -0.3718
 9140SOL    HW139056   3.045   3.578   7.661  0.4054 -0.7407  1.0426
 9140SOL    HW239057   3.162   3.669   7.634 -1.8890  1.5265 -0.6905
 9141SOL     OW39058   4.154   3.675  14.526 -0.0545 -0.3034  0.1269
 9141SOL    HW139059   4.160   3.701  14.618 -1.5342 -0.2418  0.2071
 9141SOL    HW239060   4.141   3.580  14.534  0.5597 -0.1541  3.0282
 9142SOL     OW39061   1.851   2.423   6.933 -0.6710  0.4449  0.0625
 9142SOL    HW139062   1.936   2.467   6.923 -0.6632  0.3642 -0.2247
 9142SOL    HW239063   1.852   2.362   7.006 -0.1345 -2.3563 -2.2865
 9143SOL     OW39064   1.291   3.498   5.409 -0.1366  0.6128  0.1118
 9143SOL    HW139065   1.368   3.461   5.452 -0.1447 -2.9642 -2.9898
 9143SOL    HW239066   1.253   3.420   5.370 -1.4477  2.4127 -2.2506
 9144SOL     OW39067   4.351   0.308   8.670 -0.1459 -0.1158 -0.3596
 9144SOL    HW139068   4.263   0.291   8.637 -0.3935 -1.2462  0.8902
 9144SOL    HW239069   4.372   0.216   8.690  1.9540  0.5456  0.4905
 9145SOL     OW39070   3.646   2.092   6.325 -0.8707 -0.2669 -0.0411
 9145SOL    HW139071   3.738   2.116   6.314 -1.2955  0.1916 -2.4750
 9145SOL    HW239072   3.641   1.997   6.340  0.1294 -0.2478  0.3813
 9146SOL     OW39073   1.837   3.153   8.418 -0.6284 -0.2326 -0.5783
 9146SOL    HW139074   1.775   3.218   8.451  1.1099  1.8616 -1.3666
 9146SOL    HW239075   1.877   3.203   8.347 -1.8958  0.5042 -0.7731
 9147SOL     OW39076   0.181   1.503   9.277  0.1933 -0.2515 -0.4080
 9147SOL    HW139077   0.095   1.470   9.251  0.5266  0.6216 -2.6036
 9147SOL    HW239078   0.225   1.431   9.323 -2.7570 -2.3257 -0.8462
 9148SOL     OW39079   3.675   4.312  10.938 -0.3799  0.2809 -0.0249
 9148SOL    HW139080   3.674   4.248  11.010  0.7287 -0.0652 -0.3243
 9148SOL    HW239081   3.583   4.323  10.914 -0.8095 -2.1841  0.5282
 9149SOL     OW39082   1.729   2.444   2.460  0.2606  0.0363  0.1422
 9149SOL    HW139083   1.782   2.448   2.381 -0.0485 -0.9128 -0.1064
 9149SOL    HW239084   1.741   2.533   2.492  1.0268  0.3704 -1.0914
 9150SOL     OW39085   4.254   3.791   0.570 -0.1283  0.6612 -0.1055
 9150SOL    HW139086   4.228   3.722   0.508 -0.3132  1.0908 -0.5054
 9150SOL    HW239087   4.172   3.836   0.593  0.4073  1.9689 -0.7828
 9151SOL     OW39088   1.747   1.924   1.405  0.0793  0.2180  0.7337
 9151SOL    HW139089   1.686   1.851   1.406  3.3323 -2.5304 -0.7196
 9151SOL    HW239090   1.768   1.931   1.312  0.1228 -0.4514  0.6918
 9152SOL     OW39091   3.824   0.098   1.047  0.3725 -0.5394 -0.5483
 9152SOL    HW139092   3.861   0.154   1.116 -2.9552  0.1619  0.6500
 9152SOL    HW239093   3.852   0.013   1.080 -1.4407 -1.3532 -1.1140
 9153SOL     OW39094   2.369   3.161   2.183  0.3252 -0.5280  0.3413
 9153SOL    HW139095   2.293   3.187   2.131 -0.9224 -3.9967  0.3898
 9153SOL    HW239096   2.361   3.066   2.194 -1.5900 -0.6754 -2.2447
 9154SOL     OW39097   2.441   4.646   1.674  0.2925 -0.4976 -0.0921
 9154SOL    HW139098   2.475   4.733   1.653 -0.8435 -0.0482 -0.0682
 9154SOL    HW239099   2.475   4.605   1.595  0.4345  0.4666 -0.5218
 9155SOL     OW39100   0.004   1.585   5.418 -0.0143 -0.0385  0.2573
 9155SOL    HW139101   4.660   1.543   5.388 -0.5701  0.8453  0.5457
 9155SOL    HW239102   0.062   1.549   5.351 -2.4831 -1.0067 -1.3851
 9156SOL     OW39103   4.688   3.452  16.521 -0.5945 -0.0666  0.1802
 9156SOL    HW139104   4.698   3.405  16.438  1.3310  1.4873 -0.4756
 9156SOL    HW239105   0.021   3.515  16.505 -0.1899 -1.3125 -3.0492
 9157SOL     OW39106   1.834   3.478  12.869 -0.0639  0.2703  0.2098
 9157SOL    HW139107   1.806   3.564  12.837  2.1050  0.5421 -1.0027
 9157SOL    HW239108   1.831   3.423  12.791  0.1333  0.7127 -0.1111
 9158SOL     OW39109   2.197   2.103   8.952 -0.3326 -0.0459  0.2560
 9158SOL    HW139110   2.225   2.102   8.861  1.8387  1.9260  0.8922
 9158SOL    HW239111   2.108   2.139   8.949 -0.1433  0.5009  1.1099
 9159SOL     OW39112   2.499   1.997   0.990  0.2428 -0.2637 -1.1428
 9159SOL    HW139113   2.470   1.921   0.940  0.5336 -2.0086  1.3588
 9159SOL    HW239114   2.411   2.032   1.005  1.0963  0.0229  3.0646
 9160SOL     OW39115   0.818   0.830   1.518 -0.1270  0.6953  0.0144
 9160SOL    HW139116   0.798   0.920   1.542  1.9592  1.1459  0.0530
 9160SOL    HW239117   0.839   0.787   1.601  1.2099 -0.1838 -0.7745
 9161SOL     OW39118   4.350   0.843   8.412 -0.2522 -0.2086 -0.1546
 9161SOL    HW139119   4.336   0.764   8.464 -2.2364  0.9497  1.0582
 9161SOL    HW239120   4.321   0.911   8.472 -1.9807 -0.0511 -1.1643
 9162SOL     OW39121   4.341   1.897   3.699  0.8179 -0.7683 -0.4630
 9162SOL    HW139122   4.247   1.912   3.689  0.8507  0.7676  1.3627
 9162SOL    HW239123   4.373   1.978   3.658 -0.4149 -1.6063 -3.0786
 9163SOL     OW39124   1.425   4.500   3.376 -0.7862 -0.3005  0.5493
 9163SOL    HW139125   1.469   4.575   3.415 -1.0360 -0.5156  1.2534
 9163SOL    HW239126   1.375   4.474   3.453  2.7236 -1.3001  2.4680
 9164SOL     OW39127   0.113   0.850   2.105  0.1435  0.7737 -0.9280
 9164SOL    HW139128   0.061   0.791   2.161  1.7998  1.9727  1.8417
 9164SOL    HW239129   0.197   0.810   2.128 -1.3587 -1.7628  0.2351
 9165SOL     OW39130   4.014   0.932   2.715 -0.1967  0.1938  0.3550
 9165SOL    HW139131   4.006   0.985   2.636  0.7953 -1.4682 -0.8494
 9165SOL    HW239132   4.032   0.849   2.672  1.5543  0.9003 -0.2699
 9166SOL     OW39133   0.461   2.392   0.013 -0.4353  0.4010  0.0171
 9166SOL    HW139134   0.523   2.437   0.071  0.1575  1.9321 -1.8034
 9166SOL    HW239135   0.379   2.438   0.035 -0.2532  1.7796 -2.2308
 9167SOL     OW39136   1.989   3.000   5.871  0.3570 -0.4270  0.1671
 9167SOL    HW139137   2.009   3.089   5.901  1.4185 -0.1086 -1.4946
 9167SOL    HW239138   1.914   2.971   5.922 -0.0089 -0.8769 -0.6324
 9168SOL     OW39139   2.183   2.786  16.949  0.3973  0.1467  0.1158
 9168SOL    HW139140   2.090   2.809  16.944  0.3551 -0.6384 -2.9508
 9168SOL    HW239141   2.217   2.875  16.947  2.0199 -0.4068  2.7151
 9169SOL     OW39142   0.087   4.420   3.261 -1.1150 -0.4457  0.1236
 9169SOL    HW139143   0.065   4.499   3.310  0.3496  0.6159 -0.9076
 9169SOL    HW239144   0.042   4.440   3.180  1.4116 -0.2989 -1.2579
 9170SOL     OW39145   2.785   2.884   4.551 -0.2147 -0.1031 -0.8864
 9170SOL    HW139146   2.740   2.934   4.483  0.6115 -0.0449 -1.3921
 9170SOL    HW239147   2.840   2.824   4.501  2.2077  0.0849  1.4866
 9171SOL     OW39148   4.230   2.867   3.791 -0.3234  0.0731 -0.8547
 9171SOL    HW139149   4.315   2.847   3.751 -0.0504 -1.6023  0.5558
 9171SOL    HW239150   4.169   2.880   3.718 -0.8960 -1.0858 -0.5699
 9172SOL     OW39151   3.744   3.964   0.060 -0.0423  0.3517  0.3721
 9172SOL    HW139152   3.746   4.012  17.725  3.6644 -1.0442 -0.3358
 9172SOL    HW239153   3.665   3.911   0.046 -0.9101  1.9160 -0.7178
 9173SOL     OW39154   3.225   2.075   5.971  0.0202  0.2795 -0.0373
 9173SOL    HW139155   3.143   2.058   6.018 -1.1666 -0.0277 -2.2514
 9173SOL    HW239156   3.197   2.159   5.935  1.8180  0.6585 -0.5219
 9174SOL     OW39157   2.862   3.037   1.453 -0.2193 -0.0476 -0.8527
 9174SOL    HW139158   2.940   2.985   1.475 -0.8133 -0.1733  0.9785
 9174SOL    HW239159   2.789   2.976   1.449 -1.8006  1.9051 -1.3407
 9175SOL     OW39160   2.068   2.224  12.202  0.0815  0.5074 -0.0849
 9175SOL    HW139161   2.018   2.153  12.243  0.8394 -0.3806 -0.6680
 9175SOL    HW239162   2.124   2.259  12.272 -0.3515  1.6480 -0.3129
 9176SOL     OW39163   4.488   0.918   1.999  0.1930  0.1335 -0.0304
 9176SOL    HW139164   4.536   0.985   2.047 -3.7352  1.9803  1.2562
 9176SOL    HW239165   4.555   0.862   1.959  0.9231  0.3601  0.8890
 9177SOL     OW39166   4.217   4.122   6.068 -0.5457  0.0897 -0.3767
 9177SOL    HW139167   4.197   4.193   6.129  1.3171 -0.3565  0.7508
 9177SOL    HW239168   4.263   4.063   6.127  0.2470  0.3385 -0.7474
 9178SOL     OW39169   3.302   4.558   8.119 -0.1262 -0.1035 -0.0129
 9178SOL    HW139170   3.248   4.633   8.095  0.6447 -0.1461 -1.8683
 9178SOL    HW239171   3.326   4.587   8.207  1.6512  1.3621 -1.0074
 9179SOL     OW39172   4.442   2.490   3.850 -0.2321 -0.4164 -0.0308
 9179SOL    HW139173   4.366   2.506   3.905  0.9322  0.9738  1.1842
 9179SOL    HW239174   4.411   2.482   3.760  0.0775 -1.0305 -0.0807
 9180SOL     OW39175   1.715   2.407   5.800 -1.1328  0.2919 -0.1566
 9180SOL    HW139176   1.758   2.374   5.880 -1.7774  2.4035  1.0554
 9180SOL    HW239177   1.642   2.450   5.845 -0.5588 -0.4922  1.5510
 9181SOL     OW39178   2.539   1.329  14.506  0.5931 -0.2828 -0.1471
 9181SOL    HW139179   2.466   1.337  14.566 -1.3445 -1.9250 -2.2859
 9181SOL    HW239180   2.528   1.401  14.444  0.5034 -1.1359 -1.1288
 9182SOL     OW39181   0.096   4.591   6.193  0.7781 -0.3486  0.1404
 9182SOL    HW139182   0.153   4.544   6.254  0.7067  1.4403  1.5914
 9182SOL    HW239183   0.022   4.600   6.252  0.4165  0.7044 -0.4737
 9183SOL     OW39184   1.599   1.941  17.580 -0.0186  0.7453  0.1305
 9183SOL    HW139185   1.690   1.921  17.603 -0.6448  0.1599  2.1054
 9183SOL    HW239186   1.622   1.941  17.487  0.9018  1.1856  0.3529
 9184SOL     OW39187   4.426   3.149   8.229  0.1522  0.8067 -0.1309
 9184SOL    HW139188   4.465   3.106   8.153  0.2944 -0.9157  0.8974
 9184SOL    HW239189   4.466   3.100   8.301 -0.8793 -0.8003 -0.6300
 9185SOL     OW39190   2.878   4.215  16.052 -0.2662 -0.1593 -0.0277
 9185SOL    HW139191   2.910   4.270  16.123 -1.8164  0.9369 -0.1668
 9185SOL    HW239192   2.954   4.203  15.995  0.6303  2.0933  0.7206
 9186SOL     OW39193   2.450   2.027   4.740 -0.1526 -0.4033 -0.1580
 9186SOL    HW139194   2.446   1.964   4.669  1.1028 -0.8851  0.1963
 9186SOL    HW239195   2.544   2.018   4.760  0.6345  3.0458 -2.1611
 9187SOL     OW39196   0.592   2.453  11.909 -0.2225  0.3964 -0.1505
 9187SOL    HW139197   0.613   2.442  11.816  0.3232 -0.2525  0.0504
 9187SOL    HW239198   0.613   2.364  11.938 -1.7820  0.2554  0.4926
 9188SOL     OW39199   2.302   3.521   6.321  0.4032 -0.0424  0.5435
 9188SOL    HW139200   2.332   3.600   6.276  0.2242  1.5426  3.1690
 9188SOL    HW239201   2.381   3.468   6.331 -0.1708 -0.8670  0.6804
 9189SOL     OW39202   1.744   0.485   7.199  0.2604  0.2290  0.5254
 9189SOL    HW139203   1.774   0.464   7.111 -0.2227 -0.3843  0.5078
 9189SOL    HW239204   1.820   0.530   7.236  1.3127 -2.0059  1.1130
 9190SOL     OW39205   4.247   3.303   6.099 -0.5857  0.6988 -0.3018
 9190SOL    HW139206   4.152   3.302   6.097 -0.6366 -0.6189  2.4830
 9190SOL    HW239207   4.266   3.214   6.072  0.6221  0.9208 -0.1916
 9191SOL     OW39208   3.882   2.924   8.799  0.7473 -0.4663 -0.0743
 9191SOL    HW139209   3.877   2.832   8.825  0.3443 -0.8448 -1.4831
 9191SOL    HW239210   3.796   2.950   8.832  2.1832  0.6049  2.7952
 9192SOL     OW39211   2.830   2.417   2.834 -0.2523 -0.0110  0.4702
 9192SOL    HW139212   2.826   2.418   2.738 -2.5873 -1.8951  0.5535
 9192SOL    HW239213   2.860   2.327   2.844  1.2632  0.8097  3.3740
 9193SOL     OW39214   3.300   2.782  15.528 -0.0321  0.4140 -0.1039
 9193SOL    HW139215   3.366   2.829  15.477 -0.6131 -0.2763 -1.4800
 9193SOL    HW239216   3.309   2.693  15.495 -2.2052  0.0885  0.1726
 9194SOL     OW39217   1.368   2.594   2.845  0.1804 -0.0140  0.1220
 9194SOL    HW139218   1.348   2.631   2.931  1.8549  0.2378  0.4005
 9194SOL    HW239219   1.392   2.503   2.864 -2.4423 -0.8188 -0.4038
 9195SOL     OW39220   3.248   1.815   3.835  0.3734 -0.2451 -0.2233
 9195SOL    HW139221   3.207   1.897   3.862 -0.0318  0.4834 -3.0495
 9195SOL    HW239222   3.319   1.862   3.792  1.8780 -1.9070  0.4526
 9196SOL     OW39223   3.024   0.988   7.978 -0.6908 -0.3726 -0.2757
 9196SOL    HW139224   2.997   1.076   8.005 -0.0386 -0.8395  1.8806
 9196SOL    HW239225   3.086   1.023   7.914 -0.0500  2.0689  1.6645
 9197SOL     OW39226   1.471   3.677   7.368  0.1478 -0.6930 -0.3227
 9197SOL    HW139227   1.553   3.725   7.380 -1.2872  1.0924  2.4326
 9197SOL    HW239228   1.507   3.594   7.337  0.9294 -0.7940  0.8743
 9198SOL     OW39229   2.008   2.959   4.634 -0.0561  0.5385 -0.2396
 9198SOL    HW139230   1.929   2.964   4.581  0.5662  0.9508 -1.1192
 9198SOL    HW239231   1.989   2.874   4.673  2.6370 -0.4608 -1.0602
 9199SOL     OW39232   3.944   0.624   0.822  0.9916  0.4129 -0.3102
 9199SOL    HW139233   3.947   0.567   0.899 -3.1472 -1.2349 -1.3790
 9199SOL    HW239234   3.983   0.708   0.846 -1.3637  1.5301 -0.3392
 9200SOL     OW39235   3.896   4.003   7.108 -0.3493 -0.2561 -0.3565
 9200SOL    HW139236   3.847   3.979   7.186 -0.9801 -0.7461 -0.8948
 9200SOL    HW239237   3.988   4.011   7.135  0.0247 -0.7092 -1.4844
 9201SOL     OW39238   4.716   1.130   8.591  0.0605  0.6892 -0.1669
 9201SOL    HW139239   0.019   1.106   8.674 -0.3628 -1.5202 -0.5974
 9201SOL    HW239240   0.044   1.177   8.539 -0.6936  1.8699 -0.0466
 9202SOL     OW39241   2.775   2.041   0.430  0.1265  0.3516 -0.3474
 9202SOL    HW139242   2.695   2.001   0.464  0.2976 -0.0423 -0.4096
 9202SOL    HW239243   2.818   1.964   0.394  1.0777  0.0756  1.3914
 9203SOL     OW39244   3.582   4.372   5.575  0.3723 -0.4262 -0.2762
 9203SOL    HW139245   3.498   4.326   5.579  0.3599 -0.4732 -1.0904
 9203SOL    HW239246   3.572   4.426   5.496  0.2857 -0.0225  0.0088
 9204SOL     OW39247   1.144   0.433   6.870  0.5604 -0.1794 -0.3459
 9204SOL    HW139248   1.216   0.460   6.813 -0.9174  0.0971 -2.0834
 9204SOL    HW239249   1.126   0.511   6.923  0.8109  0.2212 -0.8492
 9205SOL     OW39250   2.522   3.196   8.592  0.1180  0.0252  0.8223
 9205SOL    HW139251   2.591   3.162   8.536  0.3822  1.0013  0.5558
 9205SOL    HW239252   2.451   3.133   8.585  1.5289 -1.9155  3.8341
 9206SOL     OW39253   3.360   1.400   9.913 -0.2616 -0.2798 -0.1921
 9206SOL    HW139254   3.362   1.391   9.818 -1.7245 -3.2519  0.0461
 9206SOL    HW239255   3.334   1.492   9.921  1.5157  0.2877 -0.9747
 9207SOL     OW39256   0.144   0.421   5.501 -0.4980 -0.3627  0.4188
 9207SOL    HW139257   0.221   0.473   5.525  0.3246 -1.1957 -0.3923
 9207SOL    HW239258   0.183   0.334   5.492  1.5302  0.6277 -0.2505
 9208SOL     OW39259   3.177   2.500   8.192 -0.0297  0.8181 -0.5470
 9208SOL    HW139260   3.161   2.590   8.164 -0.2030  0.8122 -0.4680
 9208SOL    HW239261   3.267   2.486   8.163  0.2298 -1.3791  1.3267
 9209SOL     OW39262   4.192   4.447   4.909  0.3098  0.6278  0.0930
 9209SOL    HW139263   4.122   4.393   4.945  0.2218  0.4433 -0.3562
 9209SOL    HW239264   4.144   4.507   4.851 -2.7811 -0.7472  1.1952
 9210SOL     OW39265   4.389   2.284   2.855  0.2020  0.3288  0.3579
 9210SOL    HW139266   4.380   2.304   2.761  0.2364  2.1259  0.7419
 9210SOL    HW239267   4.347   2.199   2.867  0.9411  0.3609  3.1081
 9211SOL     OW39268   3.990   1.489   4.442  0.2786 -0.2037 -0.0093
 9211SOL    HW139269   4.038   1.563   4.479  1.6561 -0.9605 -0.2954
 9211SOL    HW239270   4.041   1.466   4.364  0.1289 -0.3491 -0.0629
 9212SOL     OW39271   1.559   3.345  17.379  0.4925  0.1265 -0.0869
 9212SOL    HW139272   1.600   3.407  17.319  0.0559  0.6629  0.1728
 9212SOL    HW239273   1.605   3.266  17.349  0.3116 -1.2075  3.1266
 9213SOL     OW39274   3.527   4.002   9.122 -0.0558  0.4307  0.4142
 9213SOL    HW139275   3.460   4.018   9.055 -1.4030 -0.7841  1.4582
 9213SOL    HW239276   3.543   3.908   9.111  1.4904  0.9155 -1.3307
 9214SOL     OW39277   1.285   3.541   3.547 -0.4859  0.1977 -0.1351
 9214SOL    HW139278   1.359   3.486   3.519  0.8467  0.5596  2.7353
 9214SOL    HW239279   1.220   3.479   3.579  0.3027  0.0839  1.2393
 9215SOL     OW39280   2.794   4.346   7.988  0.7105 -0.5272  0.2615
 9215SOL    HW139281   2.825   4.336   7.898 -1.4628  1.6595 -0.7030
 9215SOL    HW239282   2.805   4.441   7.995 -1.9358 -0.0554 -1.9209
 9216SOL     OW39283   4.194   3.302   9.601 -0.1291  0.0439  0.0555
 9216SOL    HW139284   4.276   3.307   9.552 -0.5808 -2.3353 -0.9602
 9216SOL    HW239285   4.127   3.334   9.540 -0.5749  0.8015  0.9446
 9217SOL     OW39286   2.976   2.692   2.177 -0.7181  0.7104 -0.5656
 9217SOL    HW139287   2.925   2.700   2.096 -2.2424 -2.3825  0.0745
 9217SOL    HW239288   3.039   2.762   2.161  0.4344 -0.2956 -0.3425
 9218SOL     OW39289   1.054   0.949   4.420  0.4229  0.0681 -0.3412
 9218SOL    HW139290   1.138   0.951   4.373 -0.7550  0.6240 -2.4187
 9218SOL    HW239291   1.061   1.027   4.474  0.8658 -1.1005  1.2878
 9219SOL     OW39292   2.520   1.201   8.105  0.0637 -0.1470  0.0376
 9219SOL    HW139293   2.562   1.207   8.190  0.7415  1.4482 -0.4062
 9219SOL    HW239294   2.439   1.246   8.130  0.1569  1.4733 -2.4983
 9220SOL     OW39295   3.091   0.638   3.219 -0.4294 -0.0091 -0.6399
 9220SOL    HW139296   3.182   0.651   3.192  0.3065 -2.9433  0.4525
 9220SOL    HW239297   3.071   0.556   3.174 -0.9770 -1.1803  1.7551
 9221SOL     OW39298   0.118   2.205   6.328 -0.0703  0.0788  0.1366
 9221SOL    HW139299   0.107   2.276   6.392 -0.7132  0.0497  0.0611
 9221SOL    HW239300   0.114   2.127   6.383  1.1278 -0.4051 -0.4772
 9222SOL     OW39301   4.334   3.491   2.381  0.5429  0.3015 -0.0472
 9222SOL    HW139302   4.417   3.501   2.426  0.5306 -2.1016  0.5273
 9222SOL    HW239303   4.268   3.529   2.439 -0.5890 -2.1696  0.3095
 9223SOL     OW39304   4.552   3.014  12.350  0.7070  0.7003  0.0335
 9223SOL    HW139305   4.597   3.099  12.357  1.3398  0.3226  0.5545
 9223SOL    HW239306   4.607   2.956  12.298 -0.0694  0.6919 -0.7615
 9224SOL     OW39307   2.114   2.546   8.596 -0.1761 -0.1242 -0.3361
 9224SOL    HW139308   2.034   2.584   8.559  2.0281  1.4947 -3.4848
 9224SOL    HW239309   2.167   2.573   8.521  1.0036  1.0459  0.9240
 9225SOL     OW39310   3.987   4.718   8.070  0.0644  0.2148 -0.2442
 9225SOL    HW139311   3.993   4.640   8.015 -1.9767 -1.0495  1.3530
 9225SOL    HW239312   3.926   4.680   8.132  0.2321 -1.1736 -0.9365
 9226SOL     OW39313   2.722   0.130   8.673 -0.3064 -0.0548  0.6220
 9226SOL    HW139314   2.663   0.075   8.725 -1.5805  0.2421 -0.5091
 9226SOL    HW239315   2.784   0.070   8.631  1.3184  1.5486  0.7154
 9227SOL     OW39316   1.898   3.871   9.164 -0.2336  0.1075  0.0900
 9227SOL    HW139317   1.905   3.934   9.093  4.1742 -1.9604 -1.3370
 9227SOL    HW239318   1.990   3.849   9.182  0.2474 -0.0710 -2.5906
 9228SOL     OW39319   0.333   1.492   8.219  0.3766 -0.5704  0.1763
 9228SOL    HW139320   0.246   1.466   8.189  0.4301 -0.1162 -0.3708
 9228SOL    HW239321   0.376   1.406   8.216  0.1588 -0.6156 -1.6313
 9229SOL     OW39322   3.626   0.985  16.423  0.1032  0.0467 -0.1312
 9229SOL    HW139323   3.681   1.054  16.460  1.5646 -1.2993  0.1567
 9229SOL    HW239324   3.625   0.916  16.489 -0.2802 -0.1097 -0.2986
 9230SOL     OW39325   1.828   1.421   2.409  0.6106 -0.0782  0.4286
 9230SOL    HW139326   1.801   1.330   2.417 -0.7350  0.3427  0.6999
 9230SOL    HW239327   1.759   1.453   2.351  0.4953 -0.9781  0.0741
 9231SOL     OW39328   2.951   0.318   2.285 -0.2306  0.3212 -0.4700
 9231SOL    HW139329   2.927   0.348   2.374  0.7581 -0.5126  0.0686
 9231SOL    HW239330   3.013   0.248   2.301 -1.2776 -0.6481 -0.6405
 9232SOL     OW39331   3.187   1.911   0.277 -0.4481  0.2767 -0.1232
 9232SOL    HW139332   3.194   1.940   0.368  2.3621 -0.5727 -0.0751
 9232SOL    HW239333   3.244   1.834   0.271  0.4228  1.1082 -2.6129
 9233SOL     OW39334   1.248   2.386  11.456 -0.0635 -0.0832  0.0231
 9233SOL    HW139335   1.215   2.299  11.436 -2.5941  0.6665  0.8909
 9233SOL    HW239336   1.188   2.424  11.521  0.6068 -0.9803  1.1794
 9234SOL     OW39337   0.390   1.221   2.129 -0.4694  0.0902 -0.1181
 9234SOL    HW139338   0.425   1.167   2.200 -0.9178  0.1644  0.1660
 9234SOL    HW239339   0.314   1.248   2.181 -0.4229  1.2076 -0.6430
 9235SOL     OW39340   1.628   2.731   6.218  0.0690  0.2899  0.4734
 9235SOL    HW139341   1.641   2.755   6.310  1.5708  1.5837 -0.0928
 9235SOL    HW239342   1.653   2.639   6.226 -1.5544 -0.1385  0.6806
 9236SOL     OW39343   0.031   3.074   1.910 -0.5330 -0.3870  0.0740
 9236SOL    HW139344   0.118   3.111   1.925 -1.0795  1.3600 -1.0793
 9236SOL    HW239345   4.719   3.155   1.926 -1.5897 -1.3754  1.8294
 9237SOL     OW39346   2.948   4.378   3.706  0.5952 -0.4023 -0.0258
 9237SOL    HW139347   2.996   4.457   3.681 -0.9914  0.0522 -1.6486
 9237SOL    HW239348   2.946   4.329   3.624  3.3352 -1.5539  0.5927
 9238SOL     OW39349   2.750   2.701   6.199  0.1253  0.3875  0.0359
 9238SOL    HW139350   2.732   2.735   6.286  0.5295  0.4625  0.0908
 9238SOL    HW239351   2.718   2.611   6.203 -0.6160  0.6828  0.6566
 9239SOL     OW39352   2.091   4.608  10.977 -0.5362  0.6722 -0.5552
 9239SOL    HW139353   2.057   4.531  11.023 -0.9315  0.6407 -0.9002
 9239SOL    HW239354   2.047   4.679  11.024  0.4895  0.3260  0.9133
 9240SOL     OW39355   3.175   4.371  11.798  0.6738  0.2054  0.3554
 9240SOL    HW139356   3.139   4.385  11.710 -0.6470  1.4289  1.1086
 9240SOL    HW239357   3.262   4.339  11.773  0.9277  2.3373 -1.5450
 9241SOL     OW39358   0.554   4.734   2.096  0.5857 -0.0675  0.1057
 9241SOL    HW139359   0.559   0.075   2.151  1.3752  0.7869 -1.1703
 9241SOL    HW239360   0.638   0.006   2.051  2.0354  0.6173  2.9563
 9242SOL     OW39361   0.835   2.776   8.053  0.3073 -0.4837  0.2338
 9242SOL    HW139362   0.750   2.761   8.011  1.4038  0.7543 -2.5063
 9242SOL    HW239363   0.801   2.798   8.140 -0.6955 -0.1013 -0.2485
 9243SOL     OW39364   4.215   2.641   2.429  0.4970  0.7031 -0.0675
 9243SOL    HW139365   4.294   2.619   2.379  0.7134  0.9159  0.1825
 9243SOL    HW239366   4.206   2.733   2.405  2.5693  0.9040 -0.0767
 9244SOL     OW39367   1.757   3.498  10.868 -0.0858 -0.0496 -0.1637
 9244SOL    HW139368   1.710   3.466  10.945  0.5904  1.6006  0.9375
 9244SOL    HW239369   1.750   3.593  10.882  1.6588  0.0731 -0.1166
 9245SOL     OW39370   3.357   1.925   5.650  0.1031  0.0496 -0.1248
 9245SOL    HW139371   3.314   1.858   5.596  1.3832  1.1755 -2.5207
 9245SOL    HW239372   3.419   1.868   5.696 -0.5940 -1.0683 -0.5782
 9246SOL     OW39373   1.878   2.547   0.625  0.2367  0.5436 -0.8013
 9246SOL    HW139374   1.929   2.537   0.705 -2.5226  1.6016  1.1071
 9246SOL    HW239375   1.878   2.642   0.612  1.9571  0.8903  1.7767
 9247SOL     OW39376   2.551   4.180  14.940 -0.4862 -0.1710  0.1873
 9247SOL    HW139377   2.499   4.242  14.888  0.8879 -0.3688 -1.3856
 9247SOL    HW239378   2.625   4.235  14.966 -2.3559  3.0070 -1.2135
 9248SOL     OW39379   4.138   2.918   6.161 -0.6333  0.3029  0.0338
 9248SOL    HW139380   4.163   2.977   6.090  2.5917 -0.2933  0.6863
 9248SOL    HW239381   4.128   2.833   6.118  2.3247  0.2505 -0.5221
 9249SOL     OW39382   0.914   0.810   0.367 -0.4525  0.4327  0.2407
 9249SOL    HW139383   1.006   0.792   0.347  0.1926  1.8726  1.8944
 9249SOL    HW239384   0.898   0.773   0.454  1.7328 -3.4097 -1.0034
 9250SOL     OW39385   3.150   3.123   7.173 -0.7004 -0.0572  0.0156
 9250SOL    HW139386   3.189   3.195   7.223  1.9105 -0.4686 -1.4540
 9250SOL    HW239387   3.230   3.096   7.128  0.4296  1.9433  0.8458
 9251SOL     OW39388   3.498   0.351   4.772 -0.0334 -0.1672  0.3319
 9251SOL    HW139389   3.534   0.397   4.697  0.4570  0.0130  0.6804
 9251SOL    HW239390   3.468   0.275   4.723  1.1605 -0.2435 -0.2753
 9252SOL     OW39391   1.834   0.359   6.923  0.5405  0.0493 -0.0774
 9252SOL    HW139392   1.872   0.358   6.835  0.4615  0.6777 -0.1135
 9252SOL    HW239393   1.788   0.276   6.914  1.5412 -0.6269  1.0337
 9253SOL     OW39394   1.255   3.760   5.520 -0.0508  0.1035  0.2022
 9253SOL    HW139395   1.245   3.680   5.468  0.9939  2.1682 -3.1601
 9253SOL    HW239396   1.350   3.763   5.524  0.0283 -1.2722 -0.5975
 9254SOL     OW39397   1.950   4.133  11.375 -0.0028  0.6805 -0.0955
 9254SOL    HW139398   2.028   4.094  11.337  1.0511  1.1840  1.5283
 9254SOL    HW239399   1.909   4.144  11.290 -1.6505  2.4707  0.9026
 9255SOL     OW39400   1.130   1.743   9.295  0.3501  0.5705  0.1816
 9255SOL    HW139401   1.202   1.779   9.243 -1.7573  2.5997 -1.2966
 9255SOL    HW239402   1.140   1.651   9.320  1.3761  0.2032 -1.5304
 9256SOL     OW39403   0.224   1.503   3.658 -0.0347 -0.5683  0.1112
 9256SOL    HW139404   0.131   1.509   3.680  0.5472  3.7197  1.3460
 9256SOL    HW239405   0.251   1.589   3.688 -0.4935  0.4898 -2.4319
 9257SOL     OW39406   2.938   0.134  13.660 -0.2503  0.2412  0.1904
 9257SOL    HW139407   2.894   0.052  13.640 -0.3570 -0.1286  1.9883
 9257SOL    HW239408   3.010   0.132  13.596  0.4554  1.2855  0.9421
 9258SOL     OW39409   4.007   2.089   7.926  1.0246  0.2717  0.2882
 9258SOL    HW139410   4.056   2.053   8.000 -1.4201  0.9219  2.2245
 9258SOL    HW239411   4.048   2.041   7.854 -1.0275 -1.5906  0.3686
 9259SOL     OW39412   1.601   3.761  14.750 -0.2071 -0.8009 -0.2970
 9259SOL    HW139413   1.677   3.789  14.801 -1.4188 -0.1368  1.1146
 9259SOL    HW239414   1.635   3.734  14.664  0.6873  1.1071 -0.5323
 9260SOL     OW39415   1.868   3.460  13.563 -0.0035  0.3767  0.8382
 9260SOL    HW139416   1.944   3.517  13.551  1.6451 -1.3634  2.9263
 9260SOL    HW239417   1.872   3.398  13.491  1.2104  0.3458  0.9329
 9261SOL     OW39418   3.036   2.588   1.338  0.0896  0.1804 -0.5982
 9261SOL    HW139419   3.087   2.667   1.359  1.8624 -0.4198 -2.7160
 9261SOL    HW239420   3.032   2.553   1.427  0.8603  0.1289 -0.5874
 9262SOL     OW39421   3.708   4.379  11.768 -0.0749 -0.4044 -0.3941
 9262SOL    HW139422   3.696   4.474  11.767 -1.2714 -0.5465  1.7677
 9262SOL    HW239423   3.750   4.367  11.853 -0.9673 -0.2492  0.0687
 9263SOL     OW39424   3.843   1.160   5.624  0.0433  0.0136  0.1086
 9263SOL    HW139425   3.859   1.254   5.617 -1.6076  0.4881  2.5204
 9263SOL    HW239426   3.930   1.126   5.601 -0.0997 -0.1997 -0.1192
 9264SOL     OW39427   3.305   3.136   5.858 -0.0980 -0.1363  0.1657
 9264SOL    HW139428   3.339   3.225   5.864  2.8750 -1.1917 -1.5311
 9264SOL    HW239429   3.336   3.098   5.940 -1.9210  1.1812  1.4706
 9265SOL     OW39430   4.561   4.195   8.950 -0.2439  0.0065 -0.3468
 9265SOL    HW139431   4.525   4.266   9.003  3.5868  0.6625  1.3958
 9265SOL    HW239432   4.630   4.155   9.002  0.5067  1.0114 -0.5614
 9266SOL     OW39433   0.140   1.939   2.342  0.2184  0.1701 -0.0083
 9266SOL    HW139434   0.185   1.996   2.405  1.0967 -0.4912 -0.0363
 9266SOL    HW239435   0.177   1.959   2.256 -1.3180  2.0195 -0.2469
 9267SOL     OW39436   4.645   1.321   7.698 -0.3023  0.9925  0.1281
 9267SOL    HW139437   4.654   1.292   7.789  0.7219  0.3180 -0.1826
 9267SOL    HW239438   4.689   1.405   7.715  1.3495  0.4620 -1.5254
 9268SOL     OW39439   1.092   2.447  11.245 -0.4644 -0.3363 -0.2156
 9268SOL    HW139440   1.141   2.411  11.318 -0.9964 -0.3203  0.1532
 9268SOL    HW239441   1.163   2.480  11.190  0.8581 -1.8158  0.6376
 9269SOL     OW39442   4.716   0.733   5.053  0.1367 -0.4360 -0.8186
 9269SOL    HW139443   0.009   0.803   5.111 -1.0737 -0.4581 -0.1587
 9269SOL    HW239444   0.039   0.662   5.074  1.3577  0.4289 -1.3908
 9270SOL     OW39445   0.436   0.112  11.543 -0.2690 -0.3766 -0.3281
 9270SOL    HW139446   0.405   0.074  11.625 -0.1805  2.1601  0.8746
 9270SOL    HW239447   0.468   0.028  11.511  1.0668 -0.3388  0.9109
 9271SOL     OW39448   3.627   2.540  16.960 -0.6927  0.3973  0.1755
 9271SOL    HW139449   3.569   2.550  16.885  0.0741 -1.1614 -0.6196
 9271SOL    HW239450   3.621   2.630  16.992 -0.6929  0.7741 -0.8763
 9272SOL     OW39451   2.910   3.813   7.199  0.3092 -0.1081  0.3582
 9272SOL    HW139452   2.918   3.868   7.121 -2.3364  0.6112  0.5764
 9272SOL    HW239453   2.815   3.808   7.207  0.5385  2.1450  4.5685
 9273SOL     OW39454   1.896   0.339   7.430 -0.0153  0.1330  0.5328
 9273SOL    HW139455   1.804   0.354   7.409 -0.2175 -2.4091 -0.4124
 9273SOL    HW239456   1.885   0.269   7.495  1.0629 -0.0825  0.4720
 9274SOL     OW39457   2.869   2.121   0.986 -0.3053 -0.2417 -0.3500
 9274SOL    HW139458   2.944   2.113   1.045 -0.1348  1.4979 -0.3357
 9274SOL    HW239459   2.821   2.195   1.021  1.8142  0.4165  1.1625
 9275SOL     OW39460   4.671   2.983   6.238 -0.0593  0.5000 -0.1298
 9275SOL    HW139461   4.731   2.969   6.165  0.4550 -0.5592  0.5110
 9275SOL    HW239462   4.588   2.960   6.197 -0.5394  1.5168  0.2703
 9276SOL     OW39463   2.714   3.037   9.920 -0.2407 -0.4398 -0.1471
 9276SOL    HW139464   2.773   2.992   9.980  0.5678 -0.0877 -0.6811
 9276SOL    HW239465   2.658   2.961   9.907 -1.1091  0.3809 -1.2712
 9277SOL     OW39466   3.124   3.301   8.685  0.2260 -0.2235 -0.5276
 9277SOL    HW139467   3.029   3.295   8.699  0.7262  0.8336  3.2872
 9277SOL    HW239468   3.158   3.219   8.721  0.7178  0.5374  0.7127
 9278SOL     OW39469   0.888   1.386   1.874 -0.3166 -0.3529  0.0259
 9278SOL    HW139470   0.883   1.290   1.877 -0.3707 -0.3668 -0.5738
 9278SOL    HW239471   0.817   1.409   1.815  0.7792  2.1999 -0.3013
 9279SOL     OW39472   0.445   2.638   7.581 -0.4933 -0.3156  0.2870
 9279SOL    HW139473   0.411   2.717   7.538  1.5825 -0.5153 -1.6937
 9279SOL    HW239474   0.512   2.610   7.519 -0.9250  0.0941 -0.3783
 9280SOL     OW39475   2.089   0.039   2.423 -0.1880 -0.0712 -0.3172
 9280SOL    HW139476   2.069   0.017   2.332  0.9007 -1.3570 -0.2451
 9280SOL    HW239477   2.004   0.018   2.462  0.7616  0.4559  2.0433
 9281SOL     OW39478   2.335   1.960   5.743  0.1424  0.2930  0.0587
 9281SOL    HW139479   2.370   1.902   5.675 -1.1416 -1.9178  1.2703
 9281SOL    HW239480   2.404   2.022   5.766  0.5297  0.4096 -1.4296
 9282SOL     OW39481   3.832   4.272   7.084  0.4257 -0.0314  0.2775
 9282SOL    HW139482   3.807   4.272   6.991 -0.3790  1.2229  0.4945
 9282SOL    HW239483   3.849   4.179   7.098  1.5696  0.2461  0.7290
 9283SOL     OW39484   1.143   3.688   3.877  0.2953  0.4598 -0.6772
 9283SOL    HW139485   1.145   3.602   3.918 -0.2172  1.1569  0.8148
 9283SOL    HW239486   1.058   3.690   3.834 -1.0308 -0.0433  1.8909
 9284SOL     OW39487   1.192   1.589  12.048 -0.4694  0.0592  0.0168
 9284SOL    HW139488   1.255   1.638  12.102  0.0805 -0.9651  0.3127
 9284SOL    HW239489   1.256   1.535  12.001  0.3887  0.5454  0.6242
 9285SOL     OW39490   2.566   4.513   3.670 -0.3368 -0.0667 -0.0727
 9285SOL    HW139491   2.636   4.567   3.705  1.1003 -0.3505 -2.5297
 9285SOL    HW239492   2.497   4.574   3.645 -1.2863 -1.1909 -0.2272
 9286SOL     OW39493   3.860   0.248   5.837 -0.2182  0.1121  0.7895
 9286SOL    HW139494   3.855   0.221   5.929 -1.9685  2.9356  1.5127
 9286SOL    HW239495   3.884   0.171   5.785  1.7292  0.7581  0.7166
 9287SOL     OW39496   3.028   2.648   9.471  0.3730 -0.1219 -0.3125
 9287SOL    HW139497   3.058   2.726   9.517 -1.9268 -0.0397  1.0035
 9287SOL    HW239498   3.059   2.665   9.382  4.7847 -1.4489  0.9939
 9288SOL     OW39499   1.475   4.302   4.483 -0.3434 -0.7423  0.3135
 9288SOL    HW139500   1.569   4.309   4.500  0.0066  1.8736 -2.4569
 9288SOL    HW239501   1.477   4.271   4.392 -0.9021  1.0999 -0.3468
 9289SOL     OW39502   3.686   3.922   0.689  0.0624 -0.3727 -0.2880
 9289SOL    HW139503   3.623   3.856   0.660 -2.0727  2.9108 -3.1254
 9289SOL    HW239504   3.634   3.976   0.749  1.3344  0.2165  0.2750
 9290SOL     OW39505   4.052   1.522   2.533  0.1638  0.1290 -0.4919
 9290SOL    HW139506   3.974   1.575   2.547 -0.0080 -0.2645  0.0497
 9290SOL    HW239507   4.061   1.495   2.624 -1.2014  2.4089  0.3257
 9291SOL     OW39508   2.999   0.198   8.202 -0.9395  0.1049 -0.0598
 9291SOL    HW139509   3.095   0.198   8.199 -0.9310  0.0125  0.1796
 9291SOL    HW239510   2.983   0.111   8.238 -0.6168  0.5843  1.2490
 9292SOL     OW39511   3.737   0.259   6.725  0.2300 -0.4966  0.1441
 9292SOL    HW139512   3.801   0.329   6.736 -0.4399  0.2783 -0.9379
 9292SOL    HW239513   3.778   0.195   6.666 -0.6850 -1.4313  0.5100
 9293SOL     OW39514   1.292   4.227  15.566 -0.4032 -0.2998 -0.0553
 9293SOL    HW139515   1.321   4.257  15.480 -0.3211  0.1307  0.1199
 9293SOL    HW239516   1.199   4.246  15.552 -0.8493 -3.0352 -0.6642
 9294SOL     OW39517   2.968   4.556   4.050  0.4038 -0.2869 -0.1531
 9294SOL    HW139518   3.020   4.624   4.006 -1.6989  2.7224  2.0145
 9294SOL    HW239519   3.030   4.484   4.041 -0.1526 -0.8368  0.4377
 9295SOL     OW39520   3.033   3.464   7.354  0.6149 -0.1020  0.4456
 9295SOL    HW139521   3.122   3.483   7.324 -0.0301  1.5192 -0.4674
 9295SOL    HW239522   3.010   3.399   7.288 -0.4205 -0.0262  0.7290
 9296SOL     OW39523   3.384   3.932   2.505  0.0893  0.3312 -0.0166
 9296SOL    HW139524   3.402   3.885   2.423  0.0812  1.8679 -0.9168
 9296SOL    HW239525   3.290   3.944   2.498  0.0686  1.4693  2.3285
 9297SOL     OW39526   2.897   2.789   8.240 -0.2320  0.1233 -1.0546
 9297SOL    HW139527   2.885   2.695   8.226 -1.1297 -0.2829  2.6032
 9297SOL    HW239528   2.993   2.792   8.231 -0.1047 -0.7893  0.1126
 9298SOL     OW39529   0.015   2.339   9.437  0.2839 -0.0501  0.1437
 9298SOL    HW139530   0.075   2.369   9.504  1.3799 -0.4658 -0.6561
 9298SOL    HW239531   0.000   2.251   9.472 -0.3662  1.0948  2.7690
 9299SOL     OW39532   0.661   2.440  11.659  0.1268  0.7230  0.2774
 9299SOL    HW139533   0.715   2.519  11.665  1.3709 -0.3063  2.4618
 9299SOL    HW239534   0.713   2.388  11.598 -1.9795  0.5819 -1.3807
 9300SOL     OW39535   3.566   2.864   4.509 -0.6427 -0.6957  0.3371
 9300SOL    HW139536   3.618   2.918   4.569  0.3082 -1.0043 -0.2001
 9300SOL    HW239537   3.597   2.774   4.518  0.6311 -0.2855  0.1819
 9301SOL     OW39538   1.958   4.243   7.450 -0.0230 -0.1396  0.0404
 9301SOL    HW139539   1.916   4.324   7.422  0.7879 -0.5850 -2.4370
 9301SOL    HW239540   1.956   4.177   7.380 -0.0293  0.6489 -0.7002
 9302SOL     OW39541   0.498   4.393  11.938 -0.1719 -0.3910 -0.2916
 9302SOL    HW139542   0.532   4.385  11.850  0.3632  0.5004 -0.1581
 9302SOL    HW239543   0.549   4.469  11.965 -2.9564  1.4427 -0.1022
 9303SOL     OW39544   2.005   1.474   5.149 -1.1960  0.7407  0.4623
 9303SOL    HW139545   1.993   1.524   5.068  3.1055  1.1249  0.0747
 9303SOL    HW239546   1.922   1.427   5.157 -0.1530 -1.3339 -1.1718
 9304SOL     OW39547   0.167   0.343   3.013  0.3312  0.4861  0.0546
 9304SOL    HW139548   0.153   0.380   3.100  0.2023 -0.3464  0.3895
 9304SOL    HW239549   0.192   0.255   3.042  1.3915  1.3911  1.8898
 9305SOL     OW39550   2.454   0.364   1.463  0.0679 -0.3526  0.5346
 9305SOL    HW139551   2.533   0.404   1.426 -1.4816  1.5721 -0.6699
 9305SOL    HW239552   2.419   0.437   1.514  0.8212 -0.7364  1.6066
 9306SOL     OW39553   3.933   4.708   5.133  0.1098 -0.6397  0.2542
 9306SOL    HW139554   3.934   4.615   5.154 -0.3694 -0.3470  1.6377
 9306SOL    HW239555   3.844   4.714   5.098 -0.3710  2.1770  1.9230
 9307SOL     OW39556   3.724   1.163  14.212 -0.2348 -0.0159 -0.4013
 9307SOL    HW139557   3.762   1.184  14.126 -3.3374  0.2409 -1.7201
 9307SOL    HW239558   3.641   1.210  14.210 -0.6119 -0.7169 -1.6992
 9308SOL     OW39559   1.427   3.716   2.953  0.2404  0.0219 -0.7882
 9308SOL    HW139560   1.386   3.701   3.039 -0.5964  3.2661 -0.6418
 9308SOL    HW239561   1.412   3.809   2.939 -0.1380  0.2413  1.0327
 9309SOL     OW39562   1.904   0.169   5.024 -0.1409 -0.0231 -0.3386
 9309SOL    HW139563   1.844   0.141   5.092 -1.9069  0.1049 -1.8358
 9309SOL    HW239564   1.894   0.106   4.952 -0.2206  0.9952 -1.2101
 9310SOL     OW39565   2.682   3.675   9.072 -0.6193 -0.4428 -0.1620
 9310SOL    HW139566   2.698   3.582   9.055 -0.5223 -0.1972 -1.4489
 9310SOL    HW239567   2.625   3.691   8.996  0.0498 -0.1179 -0.5970
 9311SOL     OW39568   2.877   4.134   4.620  0.2972 -0.1115  0.5617
 9311SOL    HW139569   2.800   4.112   4.672  0.5277  0.0509  0.9729
 9311SOL    HW239570   2.940   4.148   4.691 -0.5115  0.4113  1.1797
 9312SOL     OW39571   3.499   0.536  16.706 -0.8231 -0.6175 -0.0058
 9312SOL    HW139572   3.488   0.446  16.677  0.1153 -0.5102 -0.7129
 9312SOL    HW239573   3.594   0.543  16.720 -0.8592  0.6503 -0.4273
 9313SOL     OW39574   1.082   0.580   0.645  0.0508  0.1175 -0.2361
 9313SOL    HW139575   0.995   0.618   0.631  1.0882  2.1799 -1.0550
 9313SOL    HW239576   1.138   0.655   0.665 -0.3839  0.6281 -0.9375
 9314SOL     OW39577   2.584   1.970   7.073 -0.4183  0.4053 -0.2871
 9314SOL    HW139578   2.572   2.049   7.126  1.6555  0.6582 -0.1862
 9314SOL    HW239579   2.601   1.909   7.144 -1.2294  0.7811  0.2316
 9315SOL     OW39580   2.493   3.740   5.941 -0.1849 -0.0589  0.1066
 9315SOL    HW139581   2.572   3.690   5.921 -0.4166 -0.0028 -0.9680
 9315SOL    HW239582   2.423   3.688   5.902 -1.0007  0.3261  1.0585
 9316SOL     OW39583   3.363   1.054   9.758 -0.5353  0.0210 -0.2900
 9316SOL    HW139584   3.270   1.073   9.745 -0.4715 -0.1622 -1.0013
 9316SOL    HW239585   3.412   1.108   9.697 -1.6433  0.6991 -0.5794
 9317SOL     OW39586   1.625   3.896   7.703  0.2548  0.3111  0.9114
 9317SOL    HW139587   1.640   3.813   7.748  0.8613  1.7335  3.3594
 9317SOL    HW239588   1.660   3.880   7.615  0.6714  0.8733  0.9748
 9318SOL     OW39589   3.953   3.036   2.611  0.0429 -0.6437 -0.2077
 9318SOL    HW139590   4.046   3.034   2.635 -0.1592 -1.7955  0.4914
 9318SOL    HW239591   3.934   2.945   2.588 -0.0276 -1.4112  2.8271
 9319SOL     OW39592   1.514   4.203   4.229 -0.3252 -0.3844 -0.5977
 9319SOL    HW139593   1.594   4.233   4.185  0.5783  0.2196  1.4562
 9319SOL    HW239594   1.514   4.108   4.217  2.6304 -0.6644  1.4964
 9320SOL     OW39595   0.519   3.473   5.676 -0.6282 -0.2567  0.7961
 9320SOL    HW139596   0.502   3.507   5.764 -0.1950 -2.6685  1.8097
 9320SOL    HW239597   0.565   3.395   5.706  1.8766  0.4995 -1.0713
 9321SOL     OW39598   0.495   1.834   3.674  0.9255  0.5030 -0.3913
 9321SOL    HW139599   0.414   1.794   3.705  0.7923  0.4844 -0.7739
 9321SOL    HW239600   0.532   1.760   3.627  1.1323  1.8996 -2.4281
 9322SOL     OW39601   0.622   1.493   5.637 -0.4035  0.3007 -0.4632
 9322SOL    HW139602   0.673   1.505   5.717 -1.8335  1.7248  0.2235
 9322SOL    HW239603   0.636   1.402   5.611  0.2224 -0.1828  1.5862
 9323SOL     OW39604   3.495   2.145   4.856 -0.2774  0.2144  0.4576
 9323SOL    HW139605   3.454   2.094   4.926 -1.3387 -1.9176 -1.7045
 9323SOL    HW239606   3.447   2.227   4.846  0.3468  0.6266  0.8791
 9324SOL     OW39607   2.760   0.683   8.407  0.2415  0.2744  0.0957
 9324SOL    HW139608   2.838   0.739   8.404  0.6271 -0.1775  2.0776
 9324SOL    HW239609   2.789   0.606   8.359 -0.2264  0.6865 -0.8431
 9325SOL     OW39610   4.615   1.526  16.017  0.2577  0.0325  0.8650
 9325SOL    HW139611   4.698   1.568  16.039  1.2188  0.0966 -2.8708
 9325SOL    HW239612   4.641   1.464  15.949 -0.9940  2.0665 -1.4663
 9326SOL     OW39613   0.404   0.317   1.501  0.1778 -0.1430  0.2041
 9326SOL    HW139614   0.435   0.256   1.569 -2.2354 -0.9549  0.5675
 9326SOL    HW239615   0.329   0.268   1.468  0.3549 -0.8913  0.8840
 9327SOL     OW39616   3.968   4.439   4.057 -0.6189  0.2885  0.1258
 9327SOL    HW139617   4.055   4.468   4.028 -1.2192  1.3628 -0.6308
 9327SOL    HW239618   3.956   4.374   3.988  0.0215  0.5931 -0.2770
 9328SOL     OW39619   2.982   3.448   3.829  0.2703  0.0759  0.2262
 9328SOL    HW139620   3.004   3.472   3.739 -0.1955 -3.6562 -0.8551
 9328SOL    HW239621   3.049   3.485   3.887 -1.6940  1.8117  1.3866
 9329SOL     OW39622   0.579   0.256   4.240 -0.3448 -0.4265  0.6146
 9329SOL    HW139623   0.505   0.226   4.186  0.9021 -0.1499 -1.2338
 9329SOL    HW239624   0.553   0.238   4.330  2.0529  0.2033  1.4099
 9330SOL     OW39625   2.198   2.654   3.409  0.5011 -0.5329 -0.6788
 9330SOL    HW139626   2.253   2.644   3.331  1.8164  2.1123 -0.1057
 9330SOL    HW239627   2.254   2.604   3.467  0.0424 -0.9388 -0.5843
 9331SOL     OW39628   3.488   2.573   2.672 -0.2435  0.1312 -0.5235
 9331SOL    HW139629   3.556   2.528   2.722 -0.5235  2.2588  1.7676
 9331SOL    HW239630   3.459   2.625   2.747 -1.7671  0.2302 -1.1842
 9332SOL     OW39631   3.896   2.495  17.083 -0.3317 -0.8056 -0.1539
 9332SOL    HW139632   3.895   2.537  17.169  0.5818  1.5331 -1.2754
 9332SOL    HW239633   3.816   2.520  17.037  0.8387 -1.1871 -2.4002
 9333SOL     OW39634   0.126   4.422   5.735 -0.6852  0.1028 -0.0038
 9333SOL    HW139635   0.124   4.501   5.790 -0.2430 -0.1197  0.3283
 9333SOL    HW239636   0.097   4.458   5.651 -0.6337  1.4559  0.5468
 9334SOL     OW39637   0.850   1.950   7.714 -0.5460 -0.8416  0.4323
 9334SOL    HW139638   0.850   1.941   7.809 -0.5453 -3.6204  0.1673
 9334SOL    HW239639   0.754   1.947   7.709 -0.3645 -2.7718 -2.5946
 9335SOL     OW39640   2.759   4.681  10.316  0.1120  0.4363  0.4806
 9335SOL    HW139641   2.787   4.648  10.401  0.4714 -0.3930  0.0404
 9335SOL    HW239642   2.775   4.604  10.261 -1.1263 -0.7401  1.7733
 9336SOL     OW39643   3.801   0.953   4.526  0.0747 -0.2385  0.8967
 9336SOL    HW139644   3.891   0.965   4.556 -0.0007 -1.5357  1.6249
 9336SOL    HW239645   3.758   1.013   4.587  0.0574 -0.9764  1.6147
 9337SOL     OW39646   2.221   1.796   4.825 -0.2679  0.2014 -0.5035
 9337SOL    HW139647   2.139   1.747   4.820 -0.9547  1.5931 -2.8960
 9337SOL    HW239648   2.193   1.857   4.893  0.2936  1.8428 -1.7414
 9338SOL     OW39649   0.427   1.202   6.670  0.4725  0.1593 -0.6278
 9338SOL    HW139650   0.354   1.219   6.730 -0.9751  0.4828 -2.4981
 9338SOL    HW239651   0.487   1.152   6.725 -0.0622 -1.9428 -1.9829
 9339SOL     OW39652   0.091   2.555   7.714  0.1197  0.0252  0.2594
 9339SOL    HW139653   0.011   2.608   7.714 -1.3259 -2.1712  0.7637
 9339SOL    HW239654   0.058   2.469   7.687  1.9265 -1.1416  1.7792
 9340SOL     OW39655   2.597   3.559   2.569  0.2315 -0.3051 -0.1774
 9340SOL    HW139656   2.571   3.633   2.514  3.0984 -0.0063 -1.1157
 9340SOL    HW239657   2.666   3.522   2.515 -0.1072 -0.3934 -0.5509
 9341SOL     OW39658   3.159   2.390  16.375  0.1661  1.0624 -0.5090
 9341SOL    HW139659   3.157   2.435  16.291 -0.5110  1.8682 -0.0703
 9341SOL    HW239660   3.067   2.372  16.394  0.5815 -0.3958  0.1684
 9342SOL     OW39661   4.675   1.837   1.886  0.7115  0.4710  0.4878
 9342SOL    HW139662   4.661   1.925   1.850 -1.0604 -1.5204 -3.7614
 9342SOL    HW239663   4.732   1.796   1.821  0.8044  0.7458  0.3964
 9343SOL     OW39664   3.843   4.083  11.544 -0.3953 -0.1376 -0.3164
 9343SOL    HW139665   3.779   4.051  11.608 -0.2475  2.3981  1.0894
 9343SOL    HW239666   3.909   4.015  11.530  1.1422  1.1491  0.6796
 9344SOL     OW39667   3.578   4.356   8.644  0.2480 -0.4608 -0.3115
 9344SOL    HW139668   3.537   4.425   8.697  0.2738 -0.1393 -0.7158
 9344SOL    HW239669   3.620   4.316   8.721  0.5337  0.1539 -0.1454
 9345SOL     OW39670   1.334   4.240   7.302 -0.3905  0.2782  0.3757
 9345SOL    HW139671   1.375   4.260   7.386 -0.0196  0.0437  0.2504
 9345SOL    HW239672   1.273   4.170   7.326 -0.7526 -0.1840 -1.9294
 9346SOL     OW39673   4.636   0.924   7.701  0.4286  0.5502 -0.8824
 9346SOL    HW139674   4.695   0.849   7.691 -0.8934 -0.4705 -1.0596
 9346SOL    HW239675   4.696   0.961   7.766  1.1223 -0.7876 -0.7607
 9347SOL     OW39676   1.971   0.432   3.967  0.4547 -0.1792  0.0631
 9347SOL    HW139677   2.031   0.490   3.920  0.1294 -0.3450 -0.5586
 9347SOL    HW239678   2.027   0.355   3.962 -1.8605 -1.9090  0.8057
 9348SOL     OW39679   3.715   4.169  10.140 -0.2518 -0.3887 -0.4531
 9348SOL    HW139680   3.744   4.231  10.207  1.8333 -0.0711 -1.6485
 9348SOL    HW239681   3.792   4.151  10.087  0.0686 -0.6915  0.1101
 9349SOL     OW39682   4.342   2.928   5.729 -0.3210 -0.0011 -0.2929
 9349SOL    HW139683   4.363   2.865   5.660  1.7295 -2.6526  2.7384
 9349SOL    HW239684   4.247   2.930   5.713 -0.2628  1.1270 -0.4714
 9350SOL     OW39685   0.862   0.554   7.263 -0.0194 -0.1140  0.5270
 9350SOL    HW139686   0.771   0.529   7.255 -0.8559  3.2116 -0.5180
 9350SOL    HW239687   0.905   0.505   7.193 -1.2964 -2.5510  1.4745
 9351SOL     OW39688   4.073   2.244   7.365 -0.3462  0.4657  1.0666
 9351SOL    HW139689   4.007   2.279   7.425 -1.0617  1.6955 -0.4512
 9351SOL    HW239690   4.024   2.166   7.339 -1.6314  2.2272 -1.6822
 9352SOL     OW39691   3.254   0.815   8.157 -0.1058  0.5124  0.6224
 9352SOL    HW139692   3.272   0.888   8.097  1.4966  0.5803  1.1907
 9352SOL    HW239693   3.299   0.838   8.239 -0.0638 -0.0095  0.7466
 9353SOL     OW39694   0.073   1.397  10.770 -0.1724 -0.1835  0.0377
 9353SOL    HW139695   0.003   1.344  10.731 -2.6123  1.6329  1.9222
 9353SOL    HW239696   0.036   1.399  10.858  0.1392  2.6836  0.1029
 9354SOL     OW39697   3.050   3.024  16.217 -0.6133 -0.1272  0.3429
 9354SOL    HW139698   3.144   3.041  16.209 -0.7837  0.7254  0.1911
 9354SOL    HW239699   3.042   3.078  16.295 -0.7592  2.9238 -1.7756
 9355SOL     OW39700   0.218   4.409  12.266 -0.5573 -0.3914  0.5862
 9355SOL    HW139701   0.291   4.351  12.286 -0.8920 -1.0331 -0.0842
 9355SOL    HW239702   0.252   4.498  12.277  1.7719 -1.2361  0.1060
 9356SOL     OW39703   2.619   1.472  16.147 -0.1725  0.4274  0.4943
 9356SOL    HW139704   2.658   1.554  16.177  4.0465 -0.3653 -2.9452
 9356SOL    HW239705   2.690   1.414  16.121 -2.6583 -0.6303 -4.0144
 9357SOL     OW39706   3.307   2.498   8.898  0.3098 -0.6846  0.2366
 9357SOL    HW139707   3.226   2.528   8.939 -0.2148  3.4146 -3.7995
 9357SOL    HW239708   3.367   2.569   8.920  0.6624 -0.8532 -0.1828
 9358SOL     OW39709   0.063   3.876  11.623  0.3503 -0.3990  0.2071
 9358SOL    HW139710   0.153   3.906  11.614  0.3900 -0.3753  0.6795
 9358SOL    HW239711   0.040   3.925  11.702 -0.5610 -0.8120  0.1963
 9359SOL     OW39712   4.695   1.118   3.306  0.1381 -0.1579 -0.0946
 9359SOL    HW139713   4.674   1.139   3.215 -1.8858  2.1656  0.9040
 9359SOL    HW239714   0.007   1.036   3.298  0.4567  0.1180 -0.8929
 9360SOL     OW39715   2.271   3.969   9.060  0.2313  0.0714  0.3997
 9360SOL    HW139716   2.338   3.937   9.119 -0.6151  0.9999  1.8756
 9360SOL    HW239717   2.208   3.947   9.129  0.5482 -2.3085 -0.0602
 9361SOL     OW39718   0.960   1.248   3.676 -0.0431 -0.0965 -0.0228
 9361SOL    HW139719   0.924   1.220   3.760 -1.1103 -1.1139 -0.8172
 9361SOL    HW239720   0.895   1.202   3.623 -0.2895  0.5804 -0.3179
 9362SOL     OW39721   2.038   0.545   7.348 -0.3662 -0.3842  0.2373
 9362SOL    HW139722   2.081   0.507   7.272  0.1840 -1.3039  0.9985
 9362SOL    HW239723   2.021   0.468   7.403  1.2027 -0.3284  0.7883
 9363SOL     OW39724   2.757   2.640  17.092  0.5638  0.2378 -0.6347
 9363SOL    HW139725   2.683   2.580  17.081  0.3688  0.3694 -0.0424
 9363SOL    HW239726   2.775   2.669  17.003  2.7244  0.6349 -0.0634
 9364SOL     OW39727   2.957   1.905   5.244 -0.9761 -0.0537 -0.1612
 9364SOL    HW139728   2.967   1.907   5.339  1.7561 -1.0618 -0.4213
 9364SOL    HW239729   3.038   1.865   5.212 -0.9867 -1.2163  1.3206
 9365SOL     OW39730   0.225   2.829   7.436  0.0974  0.4244  0.7416
 9365SOL    HW139731   0.247   2.801   7.347 -1.8659  1.9465 -0.2380
 9365SOL    HW239732   0.131   2.834   7.422  0.1950 -0.8838 -0.3605
 9366SOL     OW39733   3.547   4.257   6.676  0.0523 -0.1534 -0.1467
 9366SOL    HW139734   3.507   4.200   6.610  0.9377 -0.1258 -0.6965
 9366SOL    HW239735   3.468   4.287   6.721  0.4027  1.0935 -0.3700
 9367SOL     OW39736   3.243   3.427   8.470  0.0167 -0.8146 -0.4212
 9367SOL    HW139737   3.229   3.388   8.556  1.7497 -0.1616  0.1506
 9367SOL    HW239738   3.297   3.366   8.419  2.0246  1.2237 -0.7238
 9368SOL     OW39739   4.697   1.792   7.898  0.3792 -0.5927  0.6435
 9368SOL    HW139740   0.019   1.854   7.940  0.3413 -0.1533  0.0523
 9368SOL    HW239741   4.695   1.822   7.807 -0.3057 -2.9825 -0.1222
 9369SOL     OW39742   4.581   4.483   0.808  0.3142 -0.3519  0.1637
 9369SOL    HW139743   4.527   4.535   0.748 -0.3371  1.9114  2.6812
 9369SOL    HW239744   4.516   4.434   0.859  1.2794 -0.6538  1.0977
 9370SOL     OW39745   1.557   3.458   7.264  0.1171  0.1778 -0.1215
 9370SOL    HW139746   1.538   3.490   7.176  1.0412 -0.8204 -0.6779
 9370SOL    HW239747   1.598   3.374   7.245 -2.4411 -1.0181 -0.3306
 9371SOL     OW39748   0.229   4.706   8.759  0.9172  0.5378  0.2085
 9371SOL    HW139749   0.257   0.051   8.799  0.4112  2.0148 -2.5015
 9371SOL    HW239750   0.242   4.731   8.668  0.8464 -0.0514  0.0359
 9372SOL     OW39751   4.611   1.856   2.915 -0.7686  0.2130  0.3220
 9372SOL    HW139752   4.619   1.760   2.922 -0.1658  0.1333 -1.3900
 9372SOL    HW239753   4.667   1.875   2.840  1.0723 -2.4208  1.0036
 9373SOL     OW39754   0.231   4.149   8.960  0.1164 -0.1677 -0.4982
 9373SOL    HW139755   0.247   4.072   8.905  0.2071  0.8094 -1.8411
 9373SOL    HW239756   0.146   4.131   9.000  0.8912  0.2936  1.3741
 9374SOL     OW39757   2.840   1.634   5.815  0.3252  0.0192  0.0530
 9374SOL    HW139758   2.924   1.608   5.851  0.8776 -0.5890 -1.6805
 9374SOL    HW239759   2.779   1.572   5.854  2.0333 -1.3910  0.4619
 9375SOL     OW39760   0.526   1.590   2.757 -0.0973  0.8118  0.1425
 9375SOL    HW139761   0.574   1.510   2.737 -0.5416  0.4944  0.3414
 9375SOL    HW239762   0.510   1.583   2.852  0.2667 -0.5884  0.0977
 9376SOL     OW39763   3.328   4.172  16.620 -0.2620 -0.8156 -0.0391
 9376SOL    HW139764   3.237   4.192  16.601 -0.0230  0.7427  0.5068
 9376SOL    HW239765   3.330   4.090  16.571  0.9635 -0.3381 -0.8117
 9377SOL     OW39766   0.724   0.524   8.732 -0.1912  0.1892 -0.0538
 9377SOL    HW139767   0.776   0.452   8.698  0.7818  1.8552 -2.0830
 9377SOL    HW239768   0.652   0.471   8.766  0.8046 -0.3632  1.1824
 9378SOL     OW39769   1.355   1.658   4.677  0.2243 -0.0562 -0.5637
 9378SOL    HW139770   1.340   1.695   4.590 -0.8833  0.9127  0.0192
 9378SOL    HW239771   1.321   1.569   4.684  0.7031 -0.2210 -0.3458
 9379SOL     OW39772   3.459   2.279  10.125 -0.8801 -0.3675  0.1328
 9379SOL    HW139773   3.411   2.221  10.066  2.3224 -1.6947 -1.1690
 9379SOL    HW239774   3.404   2.275  10.203  0.0838 -2.2297  0.7328
 9380SOL     OW39775   2.685   1.741   5.027  0.2097  0.6866  0.1920
 9380SOL    HW139776   2.656   1.693   5.104 -0.1213  3.1939  1.6559
 9380SOL    HW239777   2.604   1.733   4.976  0.3693  1.1920 -0.1405
 9381SOL     OW39778   2.498   2.548   1.692 -0.0397 -0.1040  0.0774
 9381SOL    HW139779   2.532   2.522   1.777  2.0599  1.0729 -0.4153
 9381SOL    HW239780   2.408   2.573   1.715  0.1443  0.6062  0.0381
 9382SOL     OW39781   1.419   3.772   3.534 -0.3571 -0.1069  0.4120
 9382SOL    HW139782   1.382   3.684   3.535 -1.5473  0.3992  0.6706
 9382SOL    HW239783   1.432   3.797   3.626  0.0327 -1.4877  0.7292
 9383SOL     OW39784   2.146   3.381  12.770 -0.1648 -0.5684  0.5180
 9383SOL    HW139785   2.201   3.449  12.731  0.4211 -1.7014 -0.6263
 9383SOL    HW239786   2.057   3.412  12.758  0.4045  0.6056 -0.6451
 9384SOL     OW39787   2.530   1.667   1.707 -0.6012 -0.2342  0.4858
 9384SOL    HW139788   2.547   1.725   1.632 -1.9179  0.9524  1.0992
 9384SOL    HW239789   2.598   1.701   1.765 -0.4746 -0.2765  0.3636
 9385SOL     OW39790   0.908   3.311   4.111 -0.6290 -0.0649 -0.2038
 9385SOL    HW139791   0.964   3.316   4.188 -2.5686 -2.4543  1.3512
 9385SOL    HW239792   0.844   3.248   4.143  0.6366 -0.4133  1.6528
 9386SOL     OW39793   2.636   0.600   1.822 -0.0036  0.1793 -0.2140
 9386SOL    HW139794   2.650   0.593   1.727 -1.1653  0.5088 -0.4062
 9386SOL    HW239795   2.711   0.652   1.850 -0.4822  1.2762 -0.9597
 9387SOL     OW39796   2.467   1.536  16.662 -0.1830  0.6553  0.6539
 9387SOL    HW139797   2.472   1.440  16.655 -0.9674  0.6491  0.1657
 9387SOL    HW239798   2.531   1.552  16.731  0.8574  0.6562 -0.3196
 9388SOL     OW39799   3.201   0.837   4.427 -0.1636  0.1848 -0.3270
 9388SOL    HW139800   3.243   0.812   4.510 -0.7083 -2.9990 -0.9858
 9388SOL    HW239801   3.275   0.834   4.367 -0.4324  0.8681 -0.6824
 9389SOL     OW39802   0.973   1.623   7.913 -0.6578 -0.0516  0.5777
 9389SOL    HW139803   0.948   1.710   7.945  0.1244  0.0868  0.8253
 9389SOL    HW239804   1.046   1.652   7.859  0.7511 -1.9559  1.4694
 9390SOL     OW39805   3.458   0.389   5.046 -0.4510  0.2595 -0.0968
 9390SOL    HW139806   3.456   0.481   5.071 -1.4242 -0.2621  1.7611
 9390SOL    HW239807   3.490   0.390   4.956 -0.1100 -1.2554  0.0002
 9391SOL     OW39808   0.456   0.896   7.048 -0.2071  0.3440 -0.3352
 9391SOL    HW139809   0.377   0.861   7.088 -0.5715  1.0087 -0.4732
 9391SOL    HW239810   0.476   0.965   7.111  1.1807  0.2007 -0.6122
 9392SOL     OW39811   3.149   0.950   1.999 -0.3258 -0.1686  0.2431
 9392SOL    HW139812   3.088   0.979   2.067  2.1541  0.7136  2.1015
 9392SOL    HW239813   3.217   0.912   2.056  1.1134  1.4918 -0.3787
 9393SOL     OW39814   3.442   4.651   0.361  0.0658 -0.1859  0.0155
 9393SOL    HW139815   3.452   4.658   0.266 -0.6268 -2.9929 -0.2968
 9393SOL    HW239816   3.530   4.633   0.393  0.4333  1.6873 -0.0057
 9394SOL     OW39817   2.944   0.141   4.166  0.4208 -0.0087  0.4005
 9394SOL    HW139818   3.023   0.100   4.131  0.7113  1.9446 -1.1987
 9394SOL    HW239819   2.988   0.204   4.223 -0.0102  1.4292 -0.8642
 9395SOL     OW39820   0.815   1.174   5.249  0.6564  0.0159 -0.5881
 9395SOL    HW139821   0.884   1.176   5.182  0.2887 -2.5368 -1.0448
 9395SOL    HW239822   0.838   1.253   5.298 -1.0813 -0.6464  1.2599
 9396SOL     OW39823   2.945   3.176  11.544 -0.1674  0.4211  0.2750
 9396SOL    HW139824   2.862   3.225  11.537 -1.2533 -1.5493 -0.5009
 9396SOL    HW239825   2.954   3.190  11.638 -1.1590 -1.6196  0.6579
 9397SOL     OW39826   1.795   0.901   8.827 -0.0838 -0.3469  0.1598
 9397SOL    HW139827   1.737   0.855   8.768 -0.9110  1.0831 -0.1364
 9397SOL    HW239828   1.790   0.993   8.801 -0.4993  0.0773  1.7133
 9398SOL     OW39829   4.506   2.177  15.593 -0.1135  0.0605 -0.7228
 9398SOL    HW139830   4.529   2.094  15.552  0.4737 -0.1367  0.0078
 9398SOL    HW239831   4.519   2.239  15.521 -0.5274  1.7487  0.6530
 9399SOL     OW39832   1.409   4.466  10.558 -0.2946 -0.7912  0.0823
 9399SOL    HW139833   1.456   4.388  10.589  2.4809  0.1726 -1.7308
 9399SOL    HW239834   1.407   4.513  10.641  2.4247  0.3477 -0.4920
 9400SOL     OW39835   3.178   0.175   2.338 -0.0939  0.0328  0.0032
 9400SOL    HW139836   3.273   0.160   2.346 -0.1171 -1.0432 -1.9471
 9400SOL    HW239837   3.154   0.100   2.284  0.1604  1.2024 -1.7243
 9401SOL     OW39838   3.464   1.757   1.780  0.2794  0.1546  0.5589
 9401SOL    HW139839   3.379   1.788   1.809 -0.0397 -0.1907 -0.0087
 9401SOL    HW239840   3.441   1.666   1.760  0.9393 -0.0956  0.9361
 9402SOL     OW39841   2.327   1.088   5.591 -0.4961 -0.8565  0.0384
 9402SOL    HW139842   2.396   1.080   5.525 -0.9214 -2.2624 -0.2296
 9402SOL    HW239843   2.256   1.047   5.542 -1.3177 -0.1998  0.6920
 9403SOL     OW39844   3.660   2.010   6.811 -0.4572  0.4901 -0.0868
 9403SOL    HW139845   3.747   2.011   6.771  0.5203 -1.6855  2.0220
 9403SOL    HW239846   3.675   1.931   6.863  2.4912  0.3185 -1.2078
 9404SOL     OW39847   2.235   2.111  16.903  0.4939 -0.4889 -0.1188
 9404SOL    HW139848   2.188   2.193  16.888 -1.1025 -1.2918  0.5157
 9404SOL    HW239849   2.252   2.117  16.997  0.3006  0.4140 -0.1433
 9405SOL     OW39850   0.756   4.470   8.933  0.0734 -0.6963 -0.2818
 9405SOL    HW139851   0.804   4.531   8.988 -0.3061  0.0341 -0.7645
 9405SOL    HW239852   0.692   4.537   8.910 -1.4629 -1.8060  0.7715
 9406SOL     OW39853   1.094   2.086   8.574  0.2457  0.3239 -0.2689
 9406SOL    HW139854   1.099   2.042   8.490  2.4985 -0.3165  0.1924
 9406SOL    HW239855   1.074   2.177   8.552  1.4376  1.3032  2.5716
 9407SOL     OW39856   3.753   0.466   0.067 -0.0044 -0.0015  0.5796
 9407SOL    HW139857   3.693   0.522   0.115 -0.5696 -1.1584  1.2262
 9407SOL    HW239858   3.706   0.450  17.732 -0.8279  1.4624  0.7914
 9408SOL     OW39859   2.936   4.515   9.892 -0.4340  0.2076 -0.2819
 9408SOL    HW139860   2.921   4.552   9.805  1.7393  1.3647 -0.1688
 9408SOL    HW239861   3.005   4.454   9.864 -0.9681 -0.5017 -0.0733
 9409SOL     OW39862   1.074   0.692   3.200 -0.0356  0.2440 -0.2838
 9409SOL    HW139863   1.068   0.763   3.135 -0.5897  0.0271 -0.4708
 9409SOL    HW239864   0.982   0.680   3.221 -0.1784 -0.3016 -1.2579
 9410SOL     OW39865   0.078   4.737   3.845 -0.5425 -0.1975 -0.0412
 9410SOL    HW139866   0.157   4.691   3.876 -0.5601  0.6759  1.2989
 9410SOL    HW239867   0.077   4.687   3.763 -1.2878  0.0910 -0.2049
 9411SOL     OW39868   0.849   0.902  15.920 -0.9167  0.4565  0.1842
 9411SOL    HW139869   0.805   0.939  15.844  0.7651  1.7674 -0.1558
 9411SOL    HW239870   0.882   0.981  15.962 -0.3133 -0.4307  1.4083
 9412SOL     OW39871   3.279   2.400   7.586  0.1444 -0.0426 -0.0836
 9412SOL    HW139872   3.333   2.411   7.664  0.8583  2.6788 -0.9316
 9412SOL    HW239873   3.337   2.428   7.515 -0.3517  0.4412 -0.2997
 9413SOL     OW39874   1.921   2.352   5.111 -0.1867  0.1162  0.3411
 9413SOL    HW139875   1.892   2.275   5.063  0.8629 -0.4759  0.6561
 9413SOL    HW239876   1.983   2.399   5.055  2.7258 -2.2287  1.6008
 9414SOL     OW39877   0.470   0.898   3.838 -0.0495 -0.4442  0.2474
 9414SOL    HW139878   0.548   0.860   3.879  0.5030 -0.2656 -0.6176
 9414SOL    HW239879   0.507   0.979   3.802 -1.8233  1.5917  3.0255
 9415SOL     OW39880   0.041   0.180   4.233 -0.4682 -0.1783  0.5736
 9415SOL    HW139881   0.066   0.238   4.305  0.0840  0.6553 -0.2861
 9415SOL    HW239882   0.033   0.101   4.286 -1.1046 -0.5997 -0.1531
 9416SOL     OW39883   1.835   3.673   7.115 -0.0717 -0.1910  0.3961
 9416SOL    HW139884   1.842   3.706   7.026 -2.1815 -2.1867 -0.5163
 9416SOL    HW239885   1.742   3.684   7.138  0.2372  0.6849  1.2424
 9417SOL     OW39886   3.822   1.650  16.535 -0.3059  0.5997  0.0264
 9417SOL    HW139887   3.803   1.575  16.591  1.2048 -1.2770 -1.9780
 9417SOL    HW239888   3.915   1.629  16.532 -0.3753  0.4949 -1.4998
 9418SOL     OW39889   2.110   0.319  11.964  0.3133  0.1623  0.0059
 9418SOL    HW139890   2.043   0.316  12.033 -0.5383 -0.3379 -0.8510
 9418SOL    HW239891   2.146   0.232  11.952 -0.4552 -0.1440 -0.0953
 9419SOL     OW39892   1.374   2.689   5.448 -0.1774  0.2933  0.4225
 9419SOL    HW139893   1.372   2.621   5.381  0.3197  1.9940 -1.3423
 9419SOL    HW239894   1.317   2.636   5.503 -1.1190  0.9583  0.0821
 9420SOL     OW39895   2.977   3.351  11.879  0.3938 -0.6069  0.6871
 9420SOL    HW139896   2.962   3.260  11.852 -2.9882  0.9789 -2.7470
 9420SOL    HW239897   3.027   3.340  11.960  1.5986 -0.0639  0.0240
 9421SOL     OW39898   1.238   4.220   1.102 -0.4088 -0.4150  0.5153
 9421SOL    HW139899   1.289   4.291   1.143 -1.7523  1.2517 -0.6797
 9421SOL    HW239900   1.149   4.245   1.128 -0.1795  0.0765  0.8415
 9422SOL     OW39901   2.274   0.867   5.234  0.7852 -0.4673 -0.0933
 9422SOL    HW139902   2.353   0.842   5.281 -0.8961 -0.7864  2.5351
 9422SOL    HW239903   2.272   0.794   5.172  1.0897 -0.0091 -0.6419
 9423SOL     OW39904   3.618   0.941   3.245  0.0100 -0.3355  0.4556
 9423SOL    HW139905   3.689   1.001   3.220  0.5746 -0.3638  1.9790
 9423SOL    HW239906   3.646   0.888   3.320  1.7714  0.5842  0.4359
 9424SOL     OW39907   1.783   2.266   2.210 -0.0348 -0.5063 -0.1040
 9424SOL    HW139908   1.783   2.359   2.187 -0.4809 -1.2004 -2.9441
 9424SOL    HW239909   1.708   2.266   2.269  1.0139  0.5235  1.2133
 9425SOL     OW39910   3.933   2.789  14.649  0.0212 -0.1583  0.4511
 9425SOL    HW139911   3.842   2.767  14.667  0.5707 -2.4284  0.4089
 9425SOL    HW239912   3.929   2.812  14.556  0.0616 -4.0981 -0.5123
 9426SOL     OW39913   2.736   1.345   2.736  0.3111  0.2678 -0.1559
 9426SOL    HW139914   2.830   1.332   2.730  0.2537 -0.2167  0.0129
 9426SOL    HW239915   2.709   1.350   2.644 -1.4547 -0.8142  0.3093
 9427SOL     OW39916   0.441   4.660   7.639  0.9508 -0.2338  0.2106
 9427SOL    HW139917   0.372   4.709   7.682 -0.5371 -1.4179 -0.8258
 9427SOL    HW239918   0.392   4.588   7.599  1.5873 -0.8402  0.5105
 9428SOL     OW39919   2.982   3.423  13.563 -0.2751  0.6142 -0.0041
 9428SOL    HW139920   3.028   3.414  13.479  1.5194  0.0461  1.0381
 9428SOL    HW239921   3.056   3.413  13.623 -1.4421 -2.4294  0.9248
 9429SOL     OW39922   1.702   0.448  10.312  0.3803 -0.1337  0.0581
 9429SOL    HW139923   1.791   0.480  10.295  0.1128  0.4570 -0.2167
 9429SOL    HW239924   1.657   0.447  10.227  0.0930 -1.6668  0.2289
 9430SOL     OW39925   2.528   1.484  10.985 -0.6300  0.1523 -0.6286
 9430SOL    HW139926   2.537   1.557  11.046  0.7152 -1.0218  0.5862
 9430SOL    HW239927   2.494   1.411  11.035  3.5160  0.3361  2.4363
 9431SOL     OW39928   3.018   1.626  17.040  0.0736 -0.0243  0.2171
 9431SOL    HW139929   3.010   1.715  17.076  1.1794 -0.4584  1.5239
 9431SOL    HW239930   3.113   1.619  17.037 -0.2121 -3.7655  0.1751
 9432SOL     OW39931   1.311   3.879   4.372  0.0780  0.2052 -0.2576
 9432SOL    HW139932   1.272   3.947   4.316  2.0585  2.4755  1.1068
 9432SOL    HW239933   1.405   3.890   4.362  0.1051  0.8075  0.6408
 9433SOL     OW39934   0.778   1.613   9.743  0.2303  0.0214 -0.1361
 9433SOL    HW139935   0.688   1.639   9.764  0.1816  1.0759 -1.7107
 9433SOL    HW239936   0.812   1.606   9.833  0.5434  2.2455 -0.0874
 9434SOL     OW39937   1.026   0.688   9.237 -0.0276  0.5669  0.1639
 9434SOL    HW139938   1.015   0.676   9.143  1.5887  0.3638 -0.0072
 9434SOL    HW239939   0.971   0.763   9.260  0.7296  0.4758  2.3237
 9435SOL     OW39940   2.651   2.094   2.247  0.0311 -0.1421 -0.0018
 9435SOL    HW139941   2.566   2.051   2.254  0.4653 -1.1072 -0.6764
 9435SOL    HW239942   2.666   2.127   2.335  0.2542  0.1066 -0.1346
 9436SOL     OW39943   2.932   2.070   3.664 -0.1827  1.2176  0.0365
 9436SOL    HW139944   2.872   2.127   3.615 -2.5182 -0.8821  0.4215
 9436SOL    HW239945   2.985   2.038   3.591 -2.2234 -3.2340  0.4690
 9437SOL     OW39946   1.330   1.121  15.013  0.4248  0.1896  0.5701
 9437SOL    HW139947   1.397   1.169  14.964  0.2764  0.9472  1.1140
 9437SOL    HW239948   1.250   1.133  14.963  0.8334  1.4115  0.2285
 9438SOL     OW39949   1.677   4.414  17.576 -0.0323  0.1932 -0.1647
 9438SOL    HW139950   1.689   4.435  17.669 -0.5297 -1.0789  0.1950
 9438SOL    HW239951   1.641   4.494  17.537  0.6427  1.1874  1.2757
 9439SOL     OW39952   0.265   4.202   1.334 -0.3305  0.0100  0.1706
 9439SOL    HW139953   0.263   4.107   1.323  0.1103 -0.0285  0.4169
 9439SOL    HW239954   0.266   4.207   1.429 -0.2969  1.4212  0.0986
 9440SOL     OW39955   4.487   1.338   4.010  0.5314  0.6520 -0.7238
 9440SOL    HW139956   4.541   1.259   4.020 -0.3054  0.4329  2.0048
 9440SOL    HW239957   4.550   1.390   4.061 -0.0623  1.0217 -0.3753
 9441SOL     OW39958   1.026   4.263  15.562 -0.3509  0.0452 -0.2065
 9441SOL    HW139959   0.968   4.251  15.486 -2.5995 -2.5179  1.9389
 9441SOL    HW239960   0.977   4.239  15.640 -2.3597  1.2587 -1.0833
 9442SOL     OW39961   3.861   0.209   6.126  0.3925 -0.3517  0.1434
 9442SOL    HW139962   3.868   0.116   6.147 -0.0298 -0.4507 -0.1444
 9442SOL    HW239963   3.949   0.244   6.138  0.8393 -0.9154 -1.4309
 9443SOL     OW39964   2.679   1.441   5.976  0.1794 -0.0642 -0.3023
 9443SOL    HW139965   2.586   1.419   5.970  0.0965 -0.2798  1.6168
 9443SOL    HW239966   2.721   1.358   5.953  1.4932  0.8096 -1.0770
 9444SOL     OW39967   0.308   2.988   6.633 -0.1229 -0.1925 -0.0107
 9444SOL    HW139968   0.369   2.923   6.599  2.4034  1.1749  1.8764
 9444SOL    HW239969   0.226   2.968   6.587 -0.6681 -0.0152  0.8879
 9445SOL     OW39970   1.345   2.749   8.490 -0.0718  0.0498 -0.4787
 9445SOL    HW139971   1.350   2.708   8.404  0.3519 -0.0388 -0.4155
 9445SOL    HW239972   1.260   2.719   8.521 -0.1090 -0.0290 -0.6611
 9446SOL     OW39973   2.441   0.458  13.897 -0.0948  0.5000  0.1146
 9446SOL    HW139974   2.520   0.486  13.852  1.3102 -1.5935  1.3179
 9446SOL    HW239975   2.398   0.404  13.830 -1.2095  0.5802  0.7608
 9447SOL     OW39976   0.839   0.605   3.964  0.4225  0.6364  0.3612
 9447SOL    HW139977   0.757   0.586   3.918  1.5348  0.0253 -1.3466
 9447SOL    HW239978   0.899   0.556   3.908  1.2271  1.5445  0.4370
 9448SOL     OW39979   1.601   0.570   7.462 -0.4329  0.0049  0.6287
 9448SOL    HW139980   1.638   0.554   7.375  0.2083  3.2113  0.3214
 9448SOL    HW239981   1.646   0.652   7.479 -0.2238  0.0755 -0.2668
 9449SOL     OW39982   0.676   4.207   3.011 -0.3416 -0.2321  0.5461
 9449SOL    HW139983   0.596   4.257   2.992  0.0502  1.2609  2.9113
 9449SOL    HW239984   0.730   4.270   3.056  0.2799 -1.4029  1.4306
 9450SOL     OW39985   3.005   0.827   4.689 -0.5279  0.3971  0.3298
 9450SOL    HW139986   2.943   0.844   4.760  1.0961 -1.1952  2.1262
 9450SOL    HW239987   2.979   0.746   4.647  1.2374 -1.7362  3.3279
 9451SOL     OW39988   0.189   2.660   3.531 -0.3026 -0.0128  0.4266
 9451SOL    HW139989   0.185   2.721   3.457 -1.8395  0.8728  1.2447
 9451SOL    HW239990   0.123   2.598   3.500 -2.5042  2.1775  0.7025
 9452SOL     OW39991   3.944   0.677   7.116  0.4293  0.1421 -0.1916
 9452SOL    HW139992   3.928   0.700   7.208 -2.0570  0.7098 -0.7678
 9452SOL    HW239993   3.983   0.759   7.087 -1.8526  1.6649  1.0703
 9453SOL     OW39994   3.769   0.357  10.213 -0.1013  0.1056  0.2374
 9453SOL    HW139995   3.675   0.366  10.231 -0.3738 -3.2467  0.4743
 9453SOL    HW239996   3.800   0.447  10.225  1.7549 -0.6017  0.6579
 9454SOL     OW39997   1.892   0.299   1.960  0.0961 -0.1882  0.6306
 9454SOL    HW139998   1.965   0.249   1.926  1.2915  1.2174  1.1408
 9454SOL    HW239999   1.830   0.299   1.887  0.8974  1.7165 -0.0453
 9455SOL     OW40000   1.989   0.031   9.003 -0.1227 -0.0610 -0.3677
 9455SOL    HW140001   1.930   0.082   8.947 -1.2584 -0.5093  0.4316
 9455SOL    HW240002   1.928   4.726   9.064 -0.5749  1.6570  0.3609
 9456SOL     OW40003   4.332   3.336   5.658  0.3402 -0.2273 -0.0546
 9456SOL    HW140004   4.367   3.412   5.612  1.5761 -0.9619 -0.3200
 9456SOL    HW240005   4.315   3.371   5.745 -3.1648  0.0840 -0.8379
 9457SOL     OW40006   4.384   2.102   3.439 -0.2783 -0.7323 -0.1553
 9457SOL    HW140007   4.306   2.156   3.443  0.9672  1.1564 -1.5147
 9457SOL    HW240008   4.360   2.021   3.395 -0.7904 -0.0060 -1.2016
 9458SOL     OW40009   4.360   3.942   7.627 -0.3654 -0.0677  0.2550
 9458SOL    HW140010   4.433   3.999   7.603  2.4112 -2.0073  4.0794
 9458SOL    HW240011   4.288   3.973   7.572 -0.1907  0.0262  0.0810
 9459SOL     OW40012   4.501   3.347  10.428 -0.7697  0.1474 -0.0294
 9459SOL    HW140013   4.521   3.312  10.341 -0.0833 -0.9633  0.5683
 9459SOL    HW240014   4.437   3.283  10.458 -0.0679  0.1366  1.4970
 9460SOL     OW40015   2.901   0.280   2.854  0.3223  0.0217 -0.5375
 9460SOL    HW140016   2.852   0.358   2.826 -0.0674 -0.5109 -1.3306
 9460SOL    HW240017   2.870   0.210   2.797  0.2753  1.1760 -1.9183
 9461SOL     OW40018   1.333   4.125  14.207 -0.2066  0.2453 -0.3053
 9461SOL    HW140019   1.277   4.085  14.273  0.5838 -0.4372 -0.0447
 9461SOL    HW240020   1.370   4.193  14.262  1.1964  0.0440 -0.9834
 9462SOL     OW40021   0.798   1.747  12.371 -0.2506  0.4465 -0.0140
 9462SOL    HW140022   0.805   1.693  12.450  0.0570  0.3781 -0.0877
 9462SOL    HW240023   0.875   1.710  12.329 -1.4276 -1.1640 -0.7308
 9463SOL     OW40024   3.500   3.464   7.141 -0.1839  0.3706  0.2048
 9463SOL    HW140025   3.557   3.492   7.213 -0.3771  2.3600 -0.4152
 9463SOL    HW240026   3.503   3.541   7.085  1.6309 -1.4358 -2.1546
 9464SOL     OW40027   3.847   3.768   1.064 -0.1300  0.3025  0.5866
 9464SOL    HW140028   3.816   3.773   1.154  1.1730  0.7278  1.0122
 9464SOL    HW240029   3.785   3.703   1.030  1.2007 -0.9104  0.4291
 9465SOL     OW40030   1.444   2.663   3.563 -0.2237 -0.8396  0.1904
 9465SOL    HW140031   1.512   2.650   3.496 -0.7863  1.5198 -0.8198
 9465SOL    HW240032   1.443   2.754   3.590 -2.6784 -1.0406  0.7297
 9466SOL     OW40033   0.121   0.941  15.976  0.0584 -0.3908 -0.3322
 9466SOL    HW140034   0.061   0.943  16.051 -0.1233 -0.2547 -0.4836
 9466SOL    HW240035   0.143   1.034  15.969 -0.2695 -0.2781  0.1241
 9467SOL     OW40036   0.819   4.546   5.490  0.2499 -0.6058 -0.0605
 9467SOL    HW140037   0.860   4.487   5.553  0.1855  0.8374  1.3377
 9467SOL    HW240038   0.841   4.498   5.411 -1.0171  0.8868 -1.3249
 9468SOL     OW40039   0.110   2.606   8.003 -0.2091 -0.1079 -0.1559
 9468SOL    HW140040   0.086   2.553   7.927 -1.2976  1.7299 -1.1018
 9468SOL    HW240041   0.175   2.546   8.040  0.6978  0.2421 -1.1717
 9469SOL     OW40042   1.948   1.547   9.216  0.3796  0.3156 -0.0949
 9469SOL    HW140043   1.897   1.609   9.268  1.0779  0.5944  0.2536
 9469SOL    HW240044   1.948   1.471   9.275 -4.5882 -0.1186 -0.6563
 9470SOL     OW40045   2.609   0.859  15.885  0.0526  0.2806  0.1988
 9470SOL    HW140046   2.632   0.948  15.909 -0.4225  0.6140 -0.5890
 9470SOL    HW240047   2.520   0.842  15.919  0.2156 -2.3414 -0.6619
 9471SOL     OW40048   2.701   3.204  12.006  0.2760 -0.3248  0.2471
 9471SOL    HW140049   2.789   3.174  11.982  0.4893  0.6635 -0.2109
 9471SOL    HW240050   2.728   3.238  12.091 -1.0531 -0.0495  0.5523
 9472SOL     OW40051   3.393   0.189   5.529  0.0347  0.2486  0.2235
 9472SOL    HW140052   3.430   0.117   5.581  1.3194  0.1778 -0.7714
 9472SOL    HW240053   3.321   0.138   5.491 -0.5305  0.7444  0.6457
 9473SOL     OW40054   4.056   4.587   4.448  0.1094  0.2864  0.5085
 9473SOL    HW140055   4.048   4.497   4.416  0.2575  0.9179 -1.2867
 9473SOL    HW240056   4.081   4.573   4.540  0.0834  1.4337  0.6880
 9474SOL     OW40057   1.587   2.569   3.059 -0.3643  0.1243  0.7346
 9474SOL    HW140058   1.559   2.572   2.967  3.1272 -2.8167 -0.4362
 9474SOL    HW240059   1.649   2.642   3.065 -0.3598  0.0399  1.6989
 9475SOL     OW40060   0.569   2.313   7.513  0.4666  0.0782  0.3827
 9475SOL    HW140061   0.480   2.314   7.477  0.0948 -2.1915  1.2173
 9475SOL    HW240062   0.594   2.399   7.481 -1.8696  0.5577 -0.1871
 9476SOL     OW40063   0.578   0.528   7.203  0.2415  0.3982 -0.1907
 9476SOL    HW140064   0.513   0.461   7.183  1.4614 -1.1439  1.0157
 9476SOL    HW240065   0.549   0.554   7.290 -2.9501 -1.0718 -0.8308
 9477SOL     OW40066   4.041   3.914  11.511 -0.2687  0.0123 -0.2327
 9477SOL    HW140067   4.114   3.863  11.476 -1.2873 -1.9094  0.4586
 9477SOL    HW240068   3.984   3.839  11.531 -2.0482  1.3821 -0.1142
 9478SOL     OW40069   2.710   0.529   2.257  0.1761 -0.4392 -0.0258
 9478SOL    HW140070   2.702   0.452   2.201  1.6971  0.3587 -1.3280
 9478SOL    HW240071   2.644   0.583   2.214  1.2850  0.6671 -0.3219
 9479SOL     OW40072   0.645   1.759   1.792 -0.1060  0.5770 -0.3330
 9479SOL    HW140073   0.736   1.737   1.772  0.0105 -0.6268  1.5570
 9479SOL    HW240074   0.601   1.684   1.831  2.4498 -1.9905 -2.3916
 9480SOL     OW40075   1.199   0.068   7.150 -0.0889  0.9118 -0.1055
 9480SOL    HW140076   1.281   0.100   7.186 -0.8349  2.9974 -0.2278
 9480SOL    HW240077   1.180   4.737   7.215 -1.0972  1.2903  0.0030
 9481SOL     OW40078   4.277   0.529   4.544 -0.6197 -0.4394  0.3338
 9481SOL    HW140079   4.343   0.583   4.500 -1.5739  0.8977  0.5636
 9481SOL    HW240080   4.302   0.528   4.636  0.9018 -0.7072 -0.0782
 9482SOL     OW40081   0.617   0.464   6.716 -0.7377  0.1158 -0.3332
 9482SOL    HW140082   0.539   0.488   6.765 -1.6801 -0.7397 -1.4158
 9482SOL    HW240083   0.671   0.538   6.743  0.4039 -0.7606 -0.2203
 9483SOL     OW40084   0.830   1.833   2.236  0.0341  0.0211  0.0345
 9483SOL    HW140085   0.828   1.740   2.215 -1.0393  0.0668 -0.0638
 9483SOL    HW240086   0.794   1.867   2.154  0.7614 -2.1575 -1.1814
 9484SOL     OW40087   0.052   1.549   7.730  0.0153 -0.0864 -0.5333
 9484SOL    HW140088   0.085   1.616   7.791 -2.6953 -1.5325  2.4807
 9484SOL    HW240089   0.083   1.576   7.643 -1.5374  0.7762 -0.8180
 9485SOL     OW40090   3.698   3.270  11.139  0.3947 -0.1472  0.8656
 9485SOL    HW140091   3.661   3.182  11.142 -1.0235  0.3748 -0.8050
 9485SOL    HW240092   3.623   3.327  11.157 -1.5232 -2.6010  0.7123
 9486SOL     OW40093   1.135   3.637   4.254  0.1769 -0.4367  0.3884
 9486SOL    HW140094   1.214   3.683   4.281  0.0617  1.1194 -1.9881
 9486SOL    HW240095   1.163   3.545   4.251 -1.5496 -0.8547 -2.2227
 9487SOL     OW40096   3.898   2.351   8.333 -0.3037  0.1402  0.3369
 9487SOL    HW140097   3.955   2.426   8.349 -0.6487  0.2100  1.2598
 9487SOL    HW240098   3.903   2.319   8.424 -3.2186 -1.4863 -0.1046
 9488SOL     OW40099   1.012   1.491   5.101 -0.4499  0.5248  0.0944
 9488SOL    HW140100   0.975   1.575   5.075 -3.0234 -1.1282 -1.6983
 9488SOL    HW240101   1.036   1.507   5.192  2.4347 -1.3223 -0.3438
 9489SOL     OW40102   1.133   3.763   3.435 -0.1644  0.0125 -0.0339
 9489SOL    HW140103   1.176   3.682   3.463 -1.9114 -1.0555 -0.3984
 9489SOL    HW240104   1.136   3.821   3.511 -1.4807  0.0124  0.0298
 9490SOL     OW40105   4.055   4.735   2.289  0.4243 -0.1435  0.3768
 9490SOL    HW140106   4.113   4.660   2.303 -0.9068 -1.0918  0.8224
 9490SOL    HW240107   4.110   0.072   2.312 -0.4319  0.5305  0.2401
 9491SOL     OW40108   1.534   3.966   6.086  0.1994 -0.3382  0.1435
 9491SOL    HW140109   1.531   3.943   6.178 -2.7617  2.4447  0.7339
 9491SOL    HW240110   1.478   3.904   6.038 -1.2610  0.7938  0.3958
 9492SOL     OW40111   3.956   0.534  15.395 -0.1096 -0.0025 -0.4293
 9492SOL    HW140112   3.882   0.558  15.450  0.1515 -0.2550  0.0301
 9492SOL    HW240113   3.943   0.439  15.386  4.8819 -0.5390 -2.1717
 9493SOL     OW40114   4.248   0.062  11.956  0.6098 -0.1671 -0.2587
 9493SOL    HW140115   4.233   4.705  11.945 -0.2043 -0.0809  0.1558
 9493SOL    HW240116   4.316   0.066  12.023 -0.4023 -1.6007  0.8429
 9494SOL     OW40117   0.835   0.217  17.637  0.0793  0.0498  0.2545
 9494SOL    HW140118   0.807   0.171  17.558  1.6175 -1.8106  0.7950
 9494SOL    HW240119   0.890   0.290  17.610  1.8177 -1.9091 -1.5301
 9495SOL     OW40120   3.638   3.276   6.124 -0.0900  1.0547  0.5332
 9495SOL    HW140121   3.562   3.217   6.121 -1.5276  2.9495 -0.3366
 9495SOL    HW240122   3.645   3.309   6.214  0.6686  2.3611 -0.0088
 9496SOL     OW40123   3.553   4.014  15.313 -0.0521  0.3792 -0.0722
 9496SOL    HW140124   3.478   3.981  15.362 -0.5700 -0.8458 -1.6682
 9496SOL    HW240125   3.581   3.934  15.267 -0.1641  1.0456 -1.3158
 9497SOL     OW40126   0.399   3.150  12.002 -0.1530 -0.7107 -0.3123
 9497SOL    HW140127   0.347   3.168  12.080 -1.8063  2.4991 -2.1396
 9497SOL    HW240128   0.443   3.077  12.045 -0.7800 -0.7533  0.2493
 9498SOL     OW40129   3.821   1.745   1.527  0.0946  0.0187  0.3581
 9498SOL    HW140130   3.813   1.699   1.611  0.0335 -3.0660 -1.3434
 9498SOL    HW240131   3.836   1.673   1.466  0.1194  1.2786 -1.1078
 9499SOL     OW40132   2.417   1.222   1.449 -0.0951  0.0289  0.7097
 9499SOL    HW140133   2.326   1.226   1.477 -0.8310 -0.4848 -1.5734
 9499SOL    HW240134   2.423   1.309   1.411  0.6537 -0.9182 -1.3790
 9500SOL     OW40135   0.187   3.359  10.947  0.4253  0.1805 -0.2800
 9500SOL    HW140136   0.197   3.394  10.858  0.3439  1.8917  0.3814
 9500SOL    HW240137   0.194   3.439  10.999  0.1618 -1.5786  2.4610
 9501SOL     OW40138   3.613   2.916   2.690  0.2056  0.1190 -0.0456
 9501SOL    HW140139   3.661   2.851   2.637 -3.3330 -0.9360 -1.9451
 9501SOL    HW240140   3.688   2.967   2.721 -0.0941  0.7148 -0.3129
 9502SOL     OW40141   2.233   2.420  13.705 -0.3095  0.1000 -0.0100
 9502SOL    HW140142   2.178   2.344  13.723 -0.4720 -0.1314 -1.5714
 9502SOL    HW240143   2.251   2.411  13.612 -0.4708 -2.1385  0.1587
 9503SOL     OW40144   2.798   1.635  13.387 -0.0048  0.0205  0.2770
 9503SOL    HW140145   2.757   1.640  13.300  4.6229  0.8353 -1.8361
 9503SOL    HW240146   2.877   1.583  13.379  0.9157  1.6223 -1.2369
 9504SOL     OW40147   1.944   4.626   2.807 -0.1628  0.2747  0.3874
 9504SOL    HW140148   2.031   4.665   2.815 -0.3727  0.8750 -0.2352
 9504SOL    HW240149   1.975   4.540   2.837  1.6992  1.3517  1.5595
 9505SOL     OW40150   3.246   2.077   8.392  0.0813 -0.5598 -0.0349
 9505SOL    HW140151   3.237   2.167   8.424  0.7520 -0.5060  0.0016
 9505SOL    HW240152   3.246   2.019   8.468  2.4509 -1.6650 -0.8622
 9506SOL     OW40153   3.624   0.555   7.672 -0.2776 -0.1265 -0.2456
 9506SOL    HW140154   3.602   0.480   7.728  3.3098 -1.6844 -0.9766
 9506SOL    HW240155   3.621   0.627   7.735 -1.6539 -0.5094  0.1268
 9507SOL     OW40156   0.179   2.302   5.559  0.1277 -0.3928  0.6014
 9507SOL    HW140157   0.240   2.231   5.580  0.0779 -0.0287  1.9926
 9507SOL    HW240158   0.160   2.286   5.467 -2.6792 -2.3040  1.5524
 9508SOL     OW40159   0.902   1.604   2.791  0.0591 -0.2562  0.1503
 9508SOL    HW140160   0.976   1.662   2.806 -0.2230 -0.8822  3.9235
 9508SOL    HW240161   0.848   1.663   2.738  0.6038  0.3975  0.3267
 9509SOL     OW40162   3.677   0.096   9.564  0.4603  0.2993 -0.3526
 9509SOL    HW140163   3.733   0.154   9.615  0.9545  1.3650 -2.1008
 9509SOL    HW240164   3.667   0.024   9.626  1.7603  0.2328 -0.2223
 9510SOL     OW40165   3.290   3.286  15.246  0.3080  0.2254 -0.2340
 9510SOL    HW140166   3.302   3.290  15.151 -1.0193 -0.3305 -0.4179
 9510SOL    HW240167   3.201   3.251  15.248 -0.8734  3.1633 -1.5495
 9511SOL     OW40168   1.986   4.270   0.065  0.0482  0.0131  0.0699
 9511SOL    HW140169   2.029   4.329   0.002 -0.0474  0.8641  0.8067
 9511SOL    HW240170   1.911   4.324   0.091  0.4498  0.5635  0.1060
 9512SOL     OW40171   2.294   4.358  15.741  0.1414 -0.2026  0.3021
 9512SOL    HW140172   2.373   4.306  15.727 -0.1969 -0.7197  0.3177
 9512SOL    HW240173   2.301   4.406  15.658  2.0541 -0.5178  0.2673
 9513SOL     OW40174   2.378   4.530   8.191  0.7141 -0.6677  0.2584
 9513SOL    HW140175   2.448   4.595   8.200  0.2125  0.0555 -0.9867
 9513SOL    HW240176   2.389   4.503   8.099 -0.2780 -2.3046  0.6376
 9514SOL     OW40177   4.618   1.212  10.163  0.0903  0.4263  0.2720
 9514SOL    HW140178   4.539   1.158  10.157  1.4701 -1.7015  1.1351
 9514SOL    HW240179   4.582   1.299  10.179  0.6648  0.5391  0.9401
 9515SOL     OW40180   2.342   0.617   0.527  0.1938 -0.1825  0.5061
 9515SOL    HW140181   2.434   0.597   0.508 -0.3905 -1.0650 -1.3862
 9515SOL    HW240182   2.298   0.604   0.443  0.1450  1.6092  0.2558
 9516SOL     OW40183   3.922   3.064   9.714 -0.3980 -0.2299 -0.7170
 9516SOL    HW140184   3.916   2.970   9.729 -1.3362  0.5616  3.7004
 9516SOL    HW240185   3.921   3.074   9.619 -2.2257 -1.0502 -0.7837
 9517SOL     OW40186   3.083   1.585   6.018  0.6736 -0.3386 -0.0200
 9517SOL    HW140187   3.031   1.643   6.074 -0.7414 -3.6879  2.1415
 9517SOL    HW240188   3.161   1.637   5.999 -0.5368  0.6020 -2.4471
 9518SOL     OW40189   0.108   0.462  11.408 -0.0079  0.2009  0.0606
 9518SOL    HW140190   0.032   0.433  11.459  0.0363 -3.2617 -1.7735
 9518SOL    HW240191   0.160   0.382  11.394 -1.1691 -0.8973  2.0012
 9519SOL     OW40192   0.951   3.153  16.348 -0.4939 -0.1607  0.0598
 9519SOL    HW140193   0.891   3.079  16.338 -1.6696  0.9516 -1.0591
 9519SOL    HW240194   0.995   3.129  16.430  0.8373 -1.0028 -0.8871
 9520SOL     OW40195   4.162   0.905  10.490 -0.1891 -0.3082 -0.6325
 9520SOL    HW140196   4.170   0.810  10.483  1.2324 -0.4430  2.4520
 9520SOL    HW240197   4.198   0.927  10.576 -0.0608 -1.4459 -0.3924
 9521SOL     OW40198   4.633   3.725   7.382  0.6258  0.2409 -0.3947
 9521SOL    HW140199   4.639   3.703   7.475  1.0353 -1.5552 -0.8533
 9521SOL    HW240200   4.722   3.712   7.347  0.0693  1.2581 -2.2210
 9522SOL     OW40201   3.077   1.995  12.351  0.7089 -0.2591  0.1729
 9522SOL    HW140202   3.157   2.033  12.386  0.7673  1.8388 -2.2554
 9522SOL    HW240203   3.012   2.065  12.362  2.7946  1.7037 -0.0184
 9523SOL     OW40204   1.950   4.174  14.534 -0.2123  0.0348  0.4257
 9523SOL    HW140205   1.994   4.194  14.451 -0.8163 -0.8968 -0.1193
 9523SOL    HW240206   1.858   4.163  14.509  0.3682 -0.5111 -1.4152
 9524SOL     OW40207   2.863   1.318   3.786 -0.5229 -0.1145 -0.1436
 9524SOL    HW140208   2.878   1.267   3.865 -2.0148  1.4407  1.1425
 9524SOL    HW240209   2.949   1.357   3.776 -0.4603 -0.2498 -0.1353
 9525SOL     OW40210   1.607   2.490   0.619 -0.4686  0.2315  0.3064
 9525SOL    HW140211   1.682   2.547   0.601 -2.2286  1.6522 -2.5417
 9525SOL    HW240212   1.632   2.443   0.698  1.8677 -1.3584 -1.4036
 9526SOL     OW40213   4.011   0.338   5.047 -0.0951 -0.4098  0.4565
 9526SOL    HW140214   3.950   0.370   5.114 -0.1597  2.1383 -0.8332
 9526SOL    HW240215   4.047   0.257   5.083  1.2384  0.3405  0.8043
 9527SOL     OW40216   2.341   0.153   2.283 -0.2353 -0.3156  0.3244
 9527SOL    HW140217   2.267   0.101   2.316 -1.4352  0.2963 -1.4000
 9527SOL    HW240218   2.304   0.223   2.230 -0.4765 -2.3614 -2.2013
 9528SOL     OW40219   3.786   2.451  14.271 -0.0080 -1.1798  0.1192
 9528SOL    HW140220   3.712   2.399  14.240 -1.6213  0.2366  1.6049
 9528SOL    HW240221   3.808   2.387  14.339  0.8757 -0.8262  0.1673
 9529SOL     OW40222   0.076   2.045  15.485 -0.3409 -0.0693 -0.1494
 9529SOL    HW140223   0.104   2.071  15.397 -0.1935 -0.9262 -0.3592
 9529SOL    HW240224   0.118   1.959  15.487 -0.6574 -0.2607 -1.5340
 9530SOL     OW40225   4.004   3.248   1.596  0.2913  0.6820  0.3299
 9530SOL    HW140226   3.985   3.160   1.628 -0.3425 -0.1902 -2.4562
 9530SOL    HW240227   4.021   3.286   1.682  0.3998 -0.4222  0.7953
 9531SOL     OW40228   1.048   3.990   9.451  0.1867 -0.3114  0.1711
 9531SOL    HW140229   0.972   4.028   9.495  0.5684  0.0288  0.5369
 9531SOL    HW240230   1.011   3.941   9.377 -1.0996 -1.1658  1.3980
 9532SOL     OW40231   3.536   0.292   2.795 -0.1901 -0.1637  0.2267
 9532SOL    HW140232   3.589   0.272   2.872 -0.5690  0.0984  0.5544
 9532SOL    HW240233   3.502   0.206   2.774 -1.6102  1.1806 -2.8994
 9533SOL     OW40234   0.077   1.324   2.005  0.3581 -0.2987 -0.0665
 9533SOL    HW140235   0.083   1.404   2.058 -0.4173 -1.5691  1.9272
 9533SOL    HW240236   0.049   1.367   1.925  0.2386  2.3276  1.3576
 9534SOL     OW40237   0.661   1.406   1.386  0.6622 -0.1203  0.4543
 9534SOL    HW140238   0.570   1.411   1.358  0.9860 -0.2687 -0.6461
 9534SOL    HW240239   0.694   1.482   1.339 -1.1835  0.4308  0.0681
 9535SOL     OW40240   2.900   1.761   8.555 -0.2520  0.0725 -0.4042
 9535SOL    HW140241   2.935   1.806   8.477 -0.9513  1.5622  0.1430
 9535SOL    HW240242   2.872   1.836   8.607 -2.2209  0.1012 -1.5085
 9536SOL     OW40243   3.100   0.357   3.040 -0.3645 -0.2040 -0.1704
 9536SOL    HW140244   3.075   0.274   3.080  0.2555 -1.4498 -2.3747
 9536SOL    HW240245   3.033   0.348   2.972  1.5588 -1.6946 -1.8334
 9537SOL     OW40246   3.890   2.825   2.440  0.2087 -0.1736  0.3261
 9537SOL    HW140247   3.875   2.747   2.386  1.8616  0.8181 -1.5551
 9537SOL    HW240248   3.973   2.849   2.399 -0.4252 -0.3997 -1.0944
 9538SOL     OW40249   2.366   4.371   2.165 -0.7578 -0.4771 -0.0449
 9538SOL    HW140250   2.410   4.388   2.082 -0.7055  0.8674  0.2572
 9538SOL    HW240251   2.440   4.384   2.224 -2.5615  0.2456  2.0396
 9539SOL     OW40252   1.035   4.565   6.129  0.6457 -0.1671  0.2718
 9539SOL    HW140253   0.990   4.647   6.150 -1.5946 -1.3204  0.0283
 9539SOL    HW240254   1.118   4.581   6.174  1.6716 -3.1721 -0.5919
 9540SOL     OW40255   0.987   0.189   6.410  0.2633  0.2389 -0.6122
 9540SOL    HW140256   0.980   0.270   6.459 -2.4067  0.8652 -2.0462
 9540SOL    HW240257   0.904   0.155   6.443  0.1780 -0.6421 -1.7296
 9541SOL     OW40258   1.131   3.357  15.735  0.2084  0.0286  0.2530
 9541SOL    HW140259   1.220   3.363  15.700  0.3535 -1.2038  0.4032
 9541SOL    HW240260   1.139   3.401  15.819 -0.2903 -0.6722  0.6641
 9542SOL     OW40261   3.354   1.769   1.374 -0.1362 -0.2967 -0.7126
 9542SOL    HW140262   3.298   1.806   1.443  1.9224 -1.3327  1.5243
 9542SOL    HW240263   3.378   1.683   1.410 -0.3169  0.4724  1.2820
 9543SOL     OW40264   0.781   2.247   3.710 -0.0193 -0.1363 -0.7545
 9543SOL    HW140265   0.764   2.285   3.796  2.8701  0.5016 -0.4590
 9543SOL    HW240266   0.787   2.324   3.654 -0.4403  0.5089  0.0924
 9544SOL     OW40267   4.685   0.600   3.335 -0.0469  0.1210 -0.2965
 9544SOL    HW140268   0.031   0.553   3.343 -0.4853 -1.0603 -2.7515
 9544SOL    HW240269   4.709   0.654   3.260  1.8151  0.0503  0.2363
 9545SOL     OW40270   0.838   2.901   4.348  0.4173  0.0418 -0.1172
 9545SOL    HW140271   0.887   2.957   4.289 -0.3127 -0.8256 -1.5383
 9545SOL    HW240272   0.747   2.922   4.327  0.5559 -0.4239 -1.1761
 9546SOL     OW40273   3.328   1.283   6.815  0.3279 -0.4478  0.0174
 9546SOL    HW140274   3.309   1.189   6.808  1.7994 -0.6643 -1.0981
 9546SOL    HW240275   3.272   1.326   6.750  1.5097  1.7029  0.4640
 9547SOL     OW40276   1.697   0.902   3.740  0.2654 -0.0026 -0.3996
 9547SOL    HW140277   1.757   0.827   3.733 -1.6400 -1.7460  1.8294
 9547SOL    HW240278   1.723   0.940   3.824 -1.4056  0.3557 -0.0591
 9548SOL     OW40279   4.304   2.413   6.188 -0.2756 -0.1091 -0.6343
 9548SOL    HW140280   4.399   2.430   6.183  0.0665 -1.4784  1.4071
 9548SOL    HW240281   4.279   2.473   6.258 -2.4516 -0.5028 -1.0977
 9549SOL     OW40282   2.136   4.045   5.523  0.3686  0.0861 -0.1347
 9549SOL    HW140283   2.210   4.062   5.582 -1.7583 -0.2218  2.5933
 9549SOL    HW240284   2.167   3.963   5.484 -0.8938 -0.2026 -0.5097
 9550SOL     OW40285   2.105   0.029   9.724  0.1937  0.3679  0.4940
 9550SOL    HW140286   2.178   0.010   9.664  0.0596  0.5540  0.2732
 9550SOL    HW240287   2.069   4.678   9.732  1.0507 -0.2621 -2.5277
 9551SOL     OW40288   3.722   2.237  14.498  0.5049  0.0756  0.7361
 9551SOL    HW140289   3.674   2.252  14.417 -0.6527 -2.6164  0.9448
 9551SOL    HW240290   3.697   2.318  14.544  0.3227  0.0522  0.6754
 9552SOL     OW40291   4.378   3.631   3.578 -0.0001 -0.0456  0.0708
 9552SOL    HW140292   4.383   3.665   3.488 -1.6664  0.5670  0.2074
 9552SOL    HW240293   4.343   3.705   3.628  1.1174  0.1801  0.5107
 9553SOL     OW40294   2.392   2.406   2.441 -0.3121 -0.1651  0.5034
 9553SOL    HW140295   2.473   2.373   2.480 -0.6152 -2.2086 -0.6595
 9553SOL    HW240296   2.382   2.368   2.354  0.8883 -1.5345  0.9756
 9554SOL     OW40297   0.753   2.680  11.855 -0.1134  0.5704 -0.2917
 9554SOL    HW140298   0.697   2.611  11.893 -0.6773  0.5082 -1.2305
 9554SOL    HW240299   0.834   2.630  11.861 -1.4681 -1.6124  0.2845
 9555SOL     OW40300   2.716   1.265   7.788  0.1823  0.2588 -0.0026
 9555SOL    HW140301   2.768   1.320   7.729 -0.4156  0.0321 -0.7342
 9555SOL    HW240302   2.707   1.187   7.733  2.5009 -0.7370  1.0579
 9556SOL     OW40303   4.066   2.138   4.459  0.0088 -0.3055 -0.0947
 9556SOL    HW140304   4.088   2.194   4.533  0.8045  0.3920 -0.8616
 9556SOL    HW240305   4.053   2.193   4.382  0.2694 -0.7615 -0.4654
 9557SOL     OW40306   1.794   1.645   1.768 -0.4227  0.4210  0.5280
 9557SOL    HW140307   1.849   1.685   1.700 -1.0488  0.5852  0.1196
 9557SOL    HW240308   1.860   1.628   1.836  0.6429  0.4628 -0.4829
 9558SOL     OW40309   1.791   4.449   5.579 -0.1365  0.2695  0.2434
 9558SOL    HW140310   1.865   4.470   5.637 -1.7782 -1.3769  2.9360
 9558SOL    HW240311   1.742   4.383   5.628 -0.3402  0.5820  0.4621
 9559SOL     OW40312   4.554   3.548  13.954 -0.3731  0.4169  0.0643
 9559SOL    HW140313   4.640   3.572  13.920  1.0211 -0.8937  2.6441
 9559SOL    HW240314   4.493   3.559  13.881  1.0940  0.8041 -1.0962
 9560SOL     OW40315   1.808   4.005   7.961  0.4050  0.9458  0.4087
 9560SOL    HW140316   1.860   4.007   8.042  0.7061 -2.0338  0.2639
 9560SOL    HW240317   1.768   3.922   7.986  2.0618  0.5216  1.6644
 9561SOL     OW40318   1.879   0.928   5.191 -0.2423 -0.1853 -0.0543
 9561SOL    HW140319   1.881   0.834   5.212  0.2176 -0.3249 -0.7370
 9561SOL    HW240320   1.785   0.944   5.194  0.3358  3.2244 -0.0975
 9562SOL     OW40321   1.349   0.987  10.200 -0.4217 -0.9059 -0.0557
 9562SOL    HW140322   1.395   0.904  10.202 -0.1997 -0.8063 -1.7070
 9562SOL    HW240323   1.336   0.999  10.295 -2.0711  0.4433 -0.4389
 9563SOL     OW40324   3.973   3.799  11.821  0.5803 -0.2552  0.1906
 9563SOL    HW140325   3.892   3.850  11.826 -0.1271 -1.2327 -1.1051
 9563SOL    HW240326   3.963   3.754  11.736 -2.9674  0.5019  0.2170
 9564SOL     OW40327   0.907   2.139   6.560  0.0211 -0.2267  0.7600
 9564SOL    HW140328   0.967   2.212   6.548  0.8897 -0.9000  0.9868
 9564SOL    HW240329   0.886   2.148   6.653 -1.0213  0.8889  0.4049
 9565SOL     OW40330   1.069   2.515   3.512  0.1352 -0.2025  0.0077
 9565SOL    HW140331   1.122   2.526   3.433 -1.3858  0.3706 -0.9324
 9565SOL    HW240332   1.112   2.445   3.561 -0.8798  0.1127  1.3747
 9566SOL     OW40333   0.066   3.992  10.920 -0.4786  0.1989 -0.5158
 9566SOL    HW140334   0.049   3.979  11.013  0.2291  2.2583 -0.1191
 9566SOL    HW240335   4.715   4.020  10.895 -1.4256 -2.1843  0.1118
 9567SOL     OW40336   1.722   2.364   7.978 -0.4643  0.0505  0.1499
 9567SOL    HW140337   1.760   2.287   7.935 -2.6674 -1.0261  0.1293
 9567SOL    HW240338   1.758   2.344   8.065 -1.6950 -1.2546  0.3573
 9568SOL     OW40339   4.733   2.054   9.498 -0.3615 -0.1534 -0.2581
 9568SOL    HW140340   4.660   2.013   9.452 -1.1090 -0.5745  1.2890
 9568SOL    HW240341   4.710   2.043   9.591  0.9883 -0.9402 -0.0131
 9569SOL     OW40342   4.360   0.548   1.917 -0.1931 -0.2233  0.5177
 9569SOL    HW140343   4.276   0.590   1.937  0.1862  1.0298 -0.6025
 9569SOL    HW240344   4.425   0.591   1.972  0.0261  0.3805 -0.2190
   4.73717   4.73717  17.74699
