Membrane in water
40344
    1TMC1    C1    1   3.394   0.856  11.642 -0.1217 -0.1172 -0.7133
    1TMC1    C2    2   3.509   0.779  11.665 -0.6273 -0.0023  0.3152
    1TMC1    C3    3   3.580   0.807  11.779  0.0668  0.0281 -0.0478
    1TMC1    C4    4   3.344   0.938  11.742 -0.3596 -0.7709  0.4108
    1TMC1    C5    5   3.423   0.950  11.852 -0.5339 -0.9935  0.7117
    1TMC1    C6    6   3.547   0.903  11.869  0.1420 -0.2648 -1.1714
    1TMC1     C    7   3.305   0.821  11.535  0.2948 -0.3019 -0.2184
    1TMC1     O    8   3.187   0.856  11.544 -0.2827 -0.1460  0.3259
    1TMC1     H    9   3.536   0.693  11.606 -1.0804  0.3038 -0.3443
    1TMC1    H1   10   3.263   1.006  11.721  1.0369  0.3396 -1.3903
    1TMC1    H2   11   3.605   0.906  11.961 -2.1294 -0.0904  0.2740
    1TMC1    C7   12   3.371   1.051  11.943 -0.5375  0.1484 -0.1239
    1TMC1    C8   13   3.717   0.756  11.782  0.2365  0.1151 -0.1581
    1TMC1    O1   14   3.272   1.116  11.930 -0.2473 -0.0286  0.1626
    1TMC1    O2   15   3.770   0.763  11.890  0.0099  0.0445 -0.2107
    1TMC1    O3   16   3.444   1.029  12.060 -0.7190 -0.4208  0.3316
    1TMC1    H3   17   3.514   0.960  12.063  4.0709  4.4506  0.6174
    1TMC1    O5   18   3.767   0.799  11.663 -0.1056  0.3415  0.3871
    1TMC1    H5   19   3.709   0.784  11.585  0.4122 -1.1014  0.2827
    2MPD2     C   20   3.200   0.430  11.214 -0.4021  0.3179  0.4205
    2MPD2    C1   21   3.116   0.513  11.289 -0.0274  0.6139 -0.5937
    2MPD2    C2   22   3.170   0.623  11.359  0.2788  0.3587  0.2341
    2MPD2    C3   23   3.308   0.642  11.352  0.7143  0.4559 -0.1361
    2MPD2    C4   24   3.392   0.561  11.284 -0.6632  0.4319 -0.4054
    2MPD2    C5   25   3.334   0.457  11.205 -0.1655  1.2357 -0.2829
    2MPD2     H   26   3.104   0.683  11.420 -1.2583  0.6267 -1.6765
    2MPD2    H1   27   3.498   0.586  11.285 -0.8565  1.2221 -0.1359
    2MPD2    H2   28   3.151   0.355  11.153 -0.9890  0.2225  1.0071
    2MPD2    H3   29   3.396   0.402  11.135 -0.3961  1.1101 -0.3881
    2MPD2     N   30   3.368   0.738  11.441  0.3116 -0.0356 -0.2515
    2MPD2    H5   31   3.469   0.735  11.435  0.4393  0.9986  1.4350
    2MPD2    N1   32   2.973   0.498  11.292 -0.5090  0.5779 -0.5592
    2MPD2    H7   33   2.919   0.571  11.336 -2.2940 -0.3199 -1.2609
    3TMC1    C1   34   1.587   1.507  12.166 -1.1093  0.4689 -0.1780
    3TMC1    C2   35   1.467   1.574  12.176 -0.4442  0.1090 -0.6446
    3TMC1    C3   36   1.406   1.580  12.297 -0.2714 -0.2174  0.0395
    3TMC1    C4   37   1.635   1.443  12.275 -0.2564 -0.1579  0.6466
    3TMC1    C5   38   1.563   1.451  12.388 -0.4337 -0.0306  0.1958
    3TMC1    C6   39   1.440   1.512  12.409  0.8611 -1.0229  0.6501
    3TMC1     C   40   1.677   1.526  12.056  0.4369  0.6368  0.2674
    3TMC1     O   41   1.783   1.465  12.052 -0.2419 -0.5170 -0.0362
    3TMC1     H   42   1.426   1.623  12.088 -2.1375  0.0068  0.0922
    3TMC1    H1   43   1.734   1.398  12.267 -0.7877 -1.5824  2.0715
    3TMC1    H2   44   1.403   1.539  12.507  1.7768 -1.2136  1.0524
    3TMC1    C7   45   1.627   1.387  12.503 -0.0197  0.0065 -0.0682
    3TMC1    C8   46   1.264   1.611  12.290 -0.0151  0.0429 -0.0049
    3TMC1    O1   47   1.741   1.411  12.530 -0.4338  0.1548 -0.5552
    3TMC1    O2   48   1.217   1.677  12.195  0.2505 -0.2425 -0.0986
    3TMC1    O3   49   1.525   1.354  12.585 -0.1778  0.6067 -0.1409
    3TMC1    H3   50   1.440   1.340  12.538 -1.2538  1.1275  1.6605
    3TMC1    O5   51   1.207   1.495  12.332  0.4047  0.4909  0.3789
    3TMC1    H5   52   1.262   1.428  12.380 -0.7173 -0.6636  0.0449
    4MPD2     C   53   1.834   1.722  11.602  0.1783 -0.5475  0.0482
    4MPD2    C1   54   1.748   1.813  11.662 -0.1876 -0.3088  0.5609
    4MPD2    C2   55   1.697   1.787  11.786  0.5893  0.4737  0.0464
    4MPD2    C3   56   1.717   1.666  11.855 -0.8528  0.7854  0.7491
    4MPD2    C4   57   1.799   1.571  11.796 -0.2369  0.2745  0.3380
    4MPD2    C5   58   1.860   1.608  11.678 -0.0090  0.7152  0.5119
    4MPD2     H   59   1.633   1.860  11.834  0.2823  0.5832 -0.5205
    4MPD2    H1   60   1.816   1.470  11.831 -0.2754  0.2672  0.3355
    4MPD2    H2   61   1.879   1.739  11.505 -1.8429 -0.1705 -0.8063
    4MPD2    H3   62   1.921   1.526  11.640 -0.9032 -0.1642  0.9993
    4MPD2     N   63   1.646   1.636  11.979  0.2057 -0.2265 -0.4385
    4MPD2    H5   64   1.580   1.704  12.014 -0.9824 -0.7171 -1.7123
    4MPD2    N1   65   1.744   1.943  11.613 -0.3816 -0.6286 -0.4662
    4MPD2    H7   66   1.685   2.009  11.663  2.3976  1.8649 -0.4990
    5TCq1    O1   67   3.147   3.165  11.907  0.7743 -0.0810 -0.0415
    5TCq1    C1   68   3.208   3.205  11.797 -0.4271  0.3377 -0.2898
    5TCq1    O2   69   3.290   3.140  11.738  0.1509 -0.0121  0.0378
    5TCq1    C2   70   3.109   3.282  11.725 -0.1213  0.2205  0.6174
    5TCq1    C3   71   3.055   3.394  11.780  0.5549  0.1623  0.1589
    5TCq1    C4   72   2.991   3.478  11.697  0.5110 -0.0217 -0.1892
    5TCq1    C5   73   2.991   3.463  11.560  0.2121  0.4031  0.0700
    5TCq1    C6   74   3.065   3.366  11.509 -0.5154  0.3959 -0.5659
    5TCq1    C7   75   3.117   3.268  11.588 -0.6872  0.3206 -0.2464
    5TCq1    C8   76   3.031   3.317  11.374  0.4922 -0.0546 -0.5873
    5TCq1    O4   77   3.063   3.200  11.351  0.5540 -0.4590 -0.2373
    5TCq1    C9   78   2.922   3.597  11.753 -0.2241 -0.1750  0.2632
    5TCq1    O5   79   2.843   3.668  11.682 -0.0646 -0.2500  0.2320
    5TCq1    O6   80   2.938   3.625  11.874 -0.2535  0.4757  0.0251
    5TCq1    H1   81   3.077   3.224  11.940  0.2184 -0.4429 -0.5778
    5TCq1    H2   82   3.055   3.411  11.887 -1.8768 -2.8452  0.6300
    5TCq1    H3   83   2.941   3.539  11.500  0.5933  0.2378 -0.4598
    5TCq1    H4   84   3.175   3.188  11.542 -0.4250  1.2175 -1.4850
    6MPD2     C   85   2.846   3.489  11.114 -0.7797 -0.0785 -0.0618
    6MPD2    C1   86   2.900   3.377  11.181  0.5720  0.7810  0.3314
    6MPD2    C2   87   2.901   3.258  11.110  0.3570  0.4280  0.1964
    6MPD2    C3   88   2.834   3.235  10.992  0.1495 -0.2839  0.4761
    6MPD2    C4   89   2.778   3.350  10.930 -0.1151  0.0815  0.3033
    6MPD2    C5   90   2.792   3.473  10.990  0.2961  0.1558  0.9446
    6MPD2     H   91   2.939   3.174  11.166  0.0572 -0.3880 -0.8142
    6MPD2    H1   92   2.740   3.348  10.829 -0.1632  1.3509  0.2948
    6MPD2    H2   93   2.833   3.590  11.151 -1.4559  0.4879 -1.8232
    6MPD2    H3   94   2.749   3.558  10.939  0.9297  0.4156  0.8474
    6MPD2     N   95   2.817   3.107  10.939  0.0516  0.2380 -0.1681
    6MPD2    H5   96   2.846   3.030  10.999  1.9081  0.6129 -0.5952
    6MPD2    N1   97   2.959   3.405  11.303  0.8680  0.3363  0.8212
    6MPD2    H7   98   2.934   3.495  11.341 -1.9144 -0.2509  0.3386
    7TCq1    O1   99   4.404   2.531  12.302 -0.4906  0.2650 -0.0764
    7TCq1    C1  100   4.413   2.468  12.419 -0.4282 -0.0158  0.1746
    7TCq1    O2  101   4.325   2.445  12.498 -0.7102 -0.6059  0.5969
    7TCq1    C2  102   4.537   2.395  12.414  0.0504  0.2134 -0.5223
    7TCq1    C3  103   4.633   2.407  12.320 -0.2110 -0.1164 -0.5501
    7TCq1    C4  104   0.031   2.371  12.347 -0.1252 -0.2265  0.3210
    7TCq1    C5  105   0.063   2.315  12.470  0.6119  0.1190 -0.3915
    7TCq1    C6  106   4.684   2.293  12.557  0.1571  0.3547 -0.1201
    7TCq1    C7  107   4.565   2.353  12.537  0.3651  0.2875 -0.0705
    7TCq1    C8  108   4.716   2.217  12.681 -0.0341 -0.0433  0.7344
    7TCq1    O4  109   0.074   2.132  12.679  0.3038  0.1475 -0.6366
    7TCq1    C9  110   0.128   2.380  12.250 -0.3672 -0.1786 -0.3723
    7TCq1    O5  111   0.081   2.373  12.133  0.1388  0.1162  0.3330
    7TCq1    O6  112   0.246   2.403  12.275 -0.0539 -0.3232 -0.6552
    7TCq1    H1  113   4.490   2.561  12.264  0.6658  0.0559  2.3518
    7TCq1    H2  114   4.609   2.450  12.223  0.3196  0.3853 -0.4603
    7TCq1    H3  115   0.163   2.275  12.481  0.5171  0.3424  1.1628
    7TCq1    H4  116   4.487   2.351  12.612  0.0641  0.3178 -0.3823
    8MPD2     C  117   0.018   2.191  13.180 -0.1286  0.0829 -0.0957
    8MPD2    C1  118   0.038   2.087  13.092 -0.7031 -0.1980 -0.1813
    8MPD2    C2  119   4.720   2.110  12.961  0.2932 -0.3516 -0.5938
    8MPD2    C3  120   4.666   2.235  12.919 -0.2149  0.8348 -0.4568
    8MPD2    C4  121   4.638   2.330  13.016  0.0347  0.5781  0.4191
    8MPD2    C5  122   4.674   2.305  13.145  0.1041 -0.0732 -0.0751
    8MPD2     H  123   0.015   2.041  12.882 -2.8486 -0.5245 -1.4069
    8MPD2    H1  124   4.604   2.429  12.987 -0.6701  0.1461 -0.2367
    8MPD2    H2  125   0.045   2.173  13.284 -0.4596 -0.9810 -0.1997
    8MPD2    H3  126   4.659   2.383  13.219  2.3630  0.5278 -0.2460
    8MPD2     N  127   4.653   2.278  12.790 -0.1758  0.5374 -0.0083
    8MPD2    H5  128   4.606   2.366  12.773  0.6289  1.1706  0.9936
    8MPD2    N1  129   0.099   1.964  13.137 -0.4783 -0.3941  0.4519
    8MPD2    H7  130   0.152   1.958  13.223  0.5169 -1.2089 -0.2274
    9TMC1    C1  131   3.097   1.692  11.036  0.2940  0.5082  0.0080
    9TMC1    C2  132   3.098   1.560  10.998 -0.8435  0.3344  0.1694
    9TMC1    C3  133   3.215   1.502  10.939  1.1553  0.0811 -0.0695
    9TMC1    C4  134   3.207   1.773  11.013 -0.2949  0.4983 -0.0316
    9TMC1    C5  135   3.318   1.709  10.965 -1.3883 -0.0812  0.3391
    9TMC1    C6  136   3.330   1.579  10.923  0.3495  0.3037 -0.2357
    9TMC1     C  137   2.975   1.748  11.070 -0.8105  0.2216  0.7235
    9TMC1     O  138   2.951   1.852  11.015  0.0870  0.3821 -0.3721
    9TMC1     H  139   3.016   1.492  11.020  0.3364 -1.0917  0.1834
    9TMC1    H1  140   3.205   1.876  11.048 -2.5072  0.8441 -1.2053
    9TMC1    H2  141   3.426   1.545  10.887 -1.1945 -1.6284 -2.5492
    9TMC1    C7  142   3.442   1.786  10.971 -0.0632  0.5104  0.2525
    9TMC1    C8  143   3.209   1.363  10.905 -0.0656 -0.2487  0.0653
    9TMC1    O1  144   3.551   1.734  10.979  0.6772  0.1166  0.8195
    9TMC1    O2  145   3.107   1.298  10.873  0.2452  0.0894  0.7047
    9TMC1    O3  146   3.421   1.914  10.953 -0.2682  0.9611 -0.2650
    9TMC1    H3  147   3.326   1.935  10.939 -0.4503  0.9811  0.9483
    9TMC1    O5  148   3.331   1.313  10.946 -0.5274  0.4858 -0.2906
    9TMC1    H5  149   3.398   1.365  10.995  0.4628  1.4153 -2.6269
   10MPD2     C  150   2.741   1.841  11.219  0.2770  0.0386  0.8380
   10MPD2    C1  151   2.784   1.707  11.226 -0.8398  0.7483 -0.1857
   10MPD2    C2  152   2.737   1.618  11.322 -0.6256 -0.1414 -0.8808
   10MPD2    C3  153   2.647   1.670  11.415  0.2722 -0.0234  0.1122
   10MPD2    C4  154   2.612   1.798  11.411 -0.6509 -0.1571  0.3716
   10MPD2    C5  155   2.654   1.888  11.313  0.0653 -0.0510 -0.4599
   10MPD2     H  156   2.784   1.522  11.334  0.2373  0.5416  1.2357
   10MPD2    H1  157   2.551   1.829  11.495 -2.4369 -0.2803 -0.8682
   10MPD2    H2  158   2.780   1.916  11.151 -1.7341  2.2786  2.1665
   10MPD2    H3  159   2.626   1.993  11.320 -1.3416 -0.5082  0.8068
   10MPD2     N  160   2.594   1.589  11.514  0.7981  0.0211  0.4661
   10MPD2    H5  161   2.556   1.635  11.596 -1.0230 -0.4708 -0.1176
   10MPD2    N1  162   2.901   1.668  11.161  0.0140  0.4424 -0.2947
   10MPD2    H7  163   2.941   1.577  11.181  0.1890  0.8116  1.0142
   11TCq1    O1  164   3.523   1.527  14.842 -0.4092  0.0169  0.3349
   11TCq1    C1  165   3.460   1.581  14.943  0.1993  0.2152  0.1375
   11TCq1    O2  166   3.456   1.535  15.056  0.1966  0.2973 -0.2019
   11TCq1    C2  167   3.377   1.686  14.895 -0.2661  0.4493  0.3353
   11TCq1    C3  168   3.336   1.777  14.984  0.2803 -0.0247 -0.2443
   11TCq1    C4  169   3.253   1.882  14.949  0.3920  0.4474 -0.2404
   11TCq1    C5  170   3.218   1.882  14.818  0.9861 -0.2719  0.5543
   11TCq1    C6  171   3.252   1.784  14.732  0.5307 -0.8071  0.8958
   11TCq1    C7  172   3.335   1.683  14.762  0.4985  0.0357 -0.3012
   11TCq1    C8  173   3.187   1.790  14.599 -0.1698 -0.4869  0.0678
   11TCq1    O4  174   3.139   1.900  14.566  0.2948 -0.0560 -0.5789
   11TCq1    C9  175   3.208   1.977  15.053 -0.6194  0.0370 -0.3903
   11TCq1    O5  176   3.139   2.074  15.017  0.2235  0.2981  0.3466
   11TCq1    O6  177   3.248   1.958  15.176  0.3649  0.4927  0.0825
   11TCq1    H1  178   3.544   1.582  14.763 -0.6112 -0.6622 -0.1960
   11TCq1    H2  179   3.379   1.789  15.083  0.2367 -0.5092 -0.1677
   11TCq1    H3  180   3.146   1.960  14.796 -0.9473 -1.8713  1.2526
   11TCq1    H4  181   3.367   1.611  14.687  1.2449 -0.0005  0.0471
   12MPD2     C  182   3.060   1.754  14.335  0.2649  0.2686 -0.8127
   12MPD2    C1  183   3.101   1.652  14.412  0.5824 -0.3961  0.4875
   12MPD2    C2  184   3.072   1.525  14.371 -0.3964 -0.4746 -0.6202
   12MPD2    C3  185   2.991   1.505  14.256 -0.0717  0.0248 -0.5277
   12MPD2    C4  186   2.945   1.614  14.191 -0.9085  0.2857  0.0751
   12MPD2    C5  187   2.972   1.740  14.235 -0.2199  0.0762  0.2300
   12MPD2     H  188   3.100   1.444  14.437 -2.2188 -0.0365  0.7071
   12MPD2    H1  189   2.875   1.605  14.108 -0.7881  0.8896 -0.0957
   12MPD2    H2  190   3.078   1.859  14.351  0.2813  0.0963  0.3171
   12MPD2    H3  191   2.939   1.829  14.183  1.4870 -0.5164 -1.8574
   12MPD2     N  192   2.948   1.378  14.202 -0.1970 -0.1995  0.3405
   12MPD2    H5  193   2.879   1.381  14.127  1.2422  0.9228 -0.9524
   12MPD2    N1  194   3.174   1.669  14.534 -0.4063 -0.0917 -0.7501
   12MPD2    H7  195   3.207   1.588  14.585 -0.8886 -0.2326 -0.6673
   13TCq1    O1  196   2.179   1.458  10.471 -0.2873  0.0115 -0.2085
   13TCq1    C1  197   2.060   1.442  10.532  0.2270 -0.5728  0.2800
   13TCq1    O2  198   1.993   1.537  10.566  0.3770  0.2571 -0.5712
   13TCq1    C2  199   2.049   1.307  10.588 -0.6920  0.2561 -0.4043
   13TCq1    C3  200   2.098   1.202  10.510  0.5581  0.3651 -0.0478
   13TCq1    C4  201   2.074   1.077  10.563 -0.1362  0.8262  0.4566
   13TCq1    C5  202   2.034   1.052  10.692  0.1792 -0.2534  0.2624
   13TCq1    C6  203   1.992   1.162  10.766  0.3454 -0.3056  0.4652
   13TCq1    C7  204   1.989   1.288  10.712  0.1720  0.3054  0.4180
   13TCq1    C8  205   1.981   1.159  10.913 -0.5704  0.0030 -0.5399
   13TCq1    O4  206   1.942   1.259  10.966  0.1868  0.1467 -0.8127
   13TCq1    C9  207   2.108   0.964  10.481 -0.5147 -0.0686  0.2486
   13TCq1    O5  208   2.159   0.864  10.540 -0.4106 -0.3687  0.1048
   13TCq1    O6  209   2.104   0.990  10.358  0.0791  0.2972 -0.1882
   13TCq1    H1  210   2.234   1.378  10.483  0.3672  0.4163 -0.4787
   13TCq1    H2  211   2.136   1.212  10.409 -1.1921  1.5514 -0.5843
   13TCq1    H3  212   2.032   0.950  10.728  1.8816  0.0304  1.1772
   13TCq1    H4  213   1.943   1.369  10.768  2.4249  0.2772  2.2528
   14MPD2     C  214   2.155   0.909  11.119  0.6067 -0.0178  0.3836
   14MPD2    C1  215   2.073   1.018  11.093  0.6378  0.6175 -0.1759
   14MPD2    C2  216   1.991   1.076  11.193 -1.1188  0.8546  0.0476
   14MPD2    C3  217   2.001   1.022  11.320  0.5077  0.6491 -0.2175
   14MPD2    C4  218   2.092   0.919  11.349 -0.7983 -0.4029  0.8279
   14MPD2    C5  219   2.168   0.870  11.248  0.0252 -0.2974  0.4997
   14MPD2     H  220   1.926   1.161  11.175 -0.8972  1.4428  2.0264
   14MPD2    H1  221   2.116   0.883  11.448 -0.1878  1.1472  1.2524
   14MPD2    H2  222   2.213   0.861  11.041 -0.6935  1.0345 -1.2377
   14MPD2    H3  223   2.236   0.789  11.272  0.3680 -0.0025  0.5174
   14MPD2     N  224   1.941   1.088  11.433  0.2612 -0.6979  0.6870
   14MPD2    H5  225   1.909   1.183  11.420  0.5287 -0.8575 -1.1794
   14MPD2    N1  226   2.052   1.049  10.957 -0.4570 -0.0849 -0.1977
   14MPD2    H7  227   2.103   1.003  10.882  2.0370 -0.0344  1.4580
   15TCq1    O1  228   3.924   0.301   1.454 -0.3570 -0.3498  0.2944
   15TCq1    C1  229   3.889   0.187   1.513 -0.0960 -0.6800  0.7564
   15TCq1    O2  230   3.791   0.176   1.580  0.2479 -0.0416 -0.3621
   15TCq1    C2  231   4.027   0.148   1.537 -0.2922  0.4979 -0.2306
   15TCq1    C3  232   4.069   0.160   1.663  0.0523 -0.3730 -1.4120
   15TCq1    C4  233   4.203   0.147   1.696 -0.0756 -0.1564 -0.2314
   15TCq1    C5  234   4.287   0.106   1.596  0.8264  0.0315  0.2600
   15TCq1    C6  235   4.237   0.096   1.469  0.3034 -0.3832  0.4615
   15TCq1    C7  236   4.106   0.126   1.434  0.0731 -0.0570 -0.3545
   15TCq1    C8  237   4.319   0.015   1.375 -0.4653  0.3438 -0.7253
   15TCq1    O4  238   4.399   4.666   1.424 -0.2521 -0.0104 -0.0619
   15TCq1    C9  239   4.242   0.162   1.831  0.6577  0.3212 -0.1302
   15TCq1    O5  240   4.352   0.105   1.866  0.4012  0.0746 -0.3118
   15TCq1    O6  241   4.167   0.214   1.917 -0.4125 -0.2191 -0.1713
   15TCq1    H1  242   4.018   0.306   1.427  0.0317  2.2078  2.0425
   15TCq1    H2  243   3.994   0.191   1.735  1.5690  1.3800 -0.5535
   15TCq1    H3  244   4.393   0.097   1.615  0.8790 -1.0954 -0.6387
   15TCq1    H4  245   4.057   0.110   1.338  1.0992  1.6312 -1.1671
   16MPD2     C  246   4.246   4.724   1.012 -0.7535  0.2497  0.9965
   16MPD2    C1  247   4.303   4.691   1.132 -0.0509  0.3536  0.2149
   16MPD2    C2  248   4.388   4.585   1.144 -0.4656  0.6451 -0.0741
   16MPD2    C3  249   4.428   4.513   1.035  0.5972  0.3228  0.0495
   16MPD2    C4  250   4.382   4.551   0.913  0.4115  0.0873 -0.3832
   16MPD2    C5  251   4.286   4.650   0.903 -0.2584 -0.0495 -0.0592
   16MPD2     H  252   4.401   4.542   1.243 -1.8884 -1.0869 -0.6524
   16MPD2    H1  253   4.406   4.503   0.818  0.1137 -2.2865  0.7406
   16MPD2    H2  254   4.172   0.074   0.998 -0.2013  0.3970 -1.1465
   16MPD2    H3  255   4.250   4.665   0.802  1.0467  0.2629 -0.4839
   16MPD2     N  256   4.527   4.410   1.053  0.2431 -0.0240  0.6813
   16MPD2    H5  257   4.558   4.397   1.149 -2.1997  1.8480  1.7118
   16MPD2    N1  258   4.276   0.041   1.248 -0.2814 -0.8166 -0.2514
   16MPD2    H7  259   4.205   0.114   1.243 -0.7007 -1.1203  1.3621
   17TMC1    C1  260   2.734   0.422  10.894  0.0570 -0.4232  0.0746
   17TMC1    C2  261   2.807   0.314  10.925  0.7717 -0.2725  0.1210
   17TMC1    C3  262   2.751   0.188  10.927  0.0724 -0.6405 -0.1476
   17TMC1    C4  263   2.602   0.406  10.891  0.3410 -0.2375  1.1082
   17TMC1    C5  264   2.550   0.280  10.893 -0.8946  0.6834  0.8564
   17TMC1    C6  265   2.620   0.170  10.915 -0.0377  0.1386  0.3257
   17TMC1     C  266   2.788   0.547  10.918  0.4025  0.0095 -0.4565
   17TMC1     O  267   2.711   0.636  10.951 -0.2503  0.3328  0.1302
   17TMC1     H  268   2.912   0.323  10.950  0.2467  0.1760  2.1786
   17TMC1    H1  269   2.539   0.489  10.861  1.7017  0.3542 -0.1522
   17TMC1    H2  270   2.565   0.077  10.907 -1.4563  1.0468 -0.5620
   17TMC1    C7  271   2.403   0.276  10.887  0.2766 -0.6393  1.1054
   17TMC1    C8  272   2.839   0.069  10.923  0.3435  1.0370  0.7828
   17TMC1    O1  273   2.346   0.353  10.808 -0.1572  0.8119 -0.4712
   17TMC1    O2  274   2.786   4.690  10.898  0.1936 -0.2466 -0.3266
   17TMC1    O3  275   2.354   0.209  10.991  0.1777  0.1754  0.8245
   17TMC1    H3  276   2.419   0.185  11.060  1.9061  0.2453 -0.7626
   17TMC1    O5  277   2.938   0.085  11.018 -0.8111  0.3960 -0.2058
   17TMC1    H5  278   2.930   0.165  11.073 -0.9348 -1.4987  2.5614
   18MPD2     C  279   2.980   0.782  10.956  0.7278 -0.0409 -0.6730
   18MPD2    C1  280   3.011   0.653  10.913  0.0957  0.7549  0.3345
   18MPD2    C2  281   3.145   0.635  10.879 -0.1528  0.1498 -0.0241
   18MPD2    C3  282   3.236   0.742  10.890 -0.5660  0.5096 -0.0473
   18MPD2    C4  283   3.199   0.867  10.918 -0.7815  0.6102 -0.2406
   18MPD2    C5  284   3.070   0.888  10.950  0.0987  0.0015 -0.1016
   18MPD2     H  285   3.171   0.532  10.859 -1.6302 -0.3676  0.7223
   18MPD2    H1  286   3.271   0.947  10.929 -0.2723  0.2069 -0.6674
   18MPD2    H2  287   2.878   0.814  10.973  0.9700  2.1436 -3.2569
   18MPD2    H3  288   3.039   0.989  10.974  0.3753 -0.5440  2.5057
   18MPD2     N  289   3.380   0.727  10.862 -0.0539 -0.0551  0.2626
   18MPD2    H5  290   3.441   0.808  10.861  0.5548 -0.5218 -0.2423
   18MPD2    N1  291   2.923   0.553  10.892  0.1139 -0.0580 -0.3059
   18MPD2    H7  292   2.958   0.474  10.839 -1.5571 -0.7685 -0.3395
   19TMC2    C1  293   4.473   1.126  13.868 -0.0056  0.3917 -0.3728
   19TMC2    C2  294   4.462   1.264  13.878  0.4895 -0.0399 -0.0825
   19TMC2    C3  295   4.378   1.317  13.972  0.3077 -0.1552 -0.4222
   19TMC2    C4  296   4.393   1.040  13.936  0.9385 -0.4651  0.2704
   19TMC2    C5  297   4.295   1.104  14.014  0.1682  0.6028 -0.4003
   19TMC2    C6  298   4.293   1.239  14.043 -0.0624  0.5833  0.3265
   19TMC2     C  299   4.588   1.078  13.792  0.9402 -0.6371  0.4477
   19TMC2     O  300   4.621   1.153  13.703 -0.1971 -0.0224  0.1233
   19TMC2     H  301   4.524   1.335  13.824 -0.7975  2.3362  1.5528
   19TMC2    H1  302   4.399   0.933  13.920  1.6714 -0.4322  0.2840
   19TMC2    H2  303   4.217   1.286  14.106 -0.4006 -2.3392  2.1087
   19TMC2    C7  304   4.176   1.024  14.038  0.5183  0.0324  0.5000
   19TMC2    C8  305   4.394   1.454  14.013  0.3052  0.4861 -0.4173
   19TMC2    O1  306   4.187   0.905  14.017  0.7048  0.2632  0.2900
   19TMC2    O2  307   4.496   1.521  14.010  0.3640 -0.1174 -0.4347
   19TMC2    O5  308   4.275   1.501  14.054  0.2963  0.3261  0.2164
   19TMC2    H5  309   4.195   1.450  14.031  2.4170 -2.0638 -1.9267
   20MPD2     C  310   0.019   0.898  13.644 -0.4662 -0.1175  0.5181
   20MPD2    C1  311   4.726   0.879  13.782 -0.5786  0.2412  0.4273
   20MPD2    C2  312   0.054   0.773  13.856  0.2588 -0.1666 -0.7550
   20MPD2    C3  313   0.142   0.687  13.788  0.7638  0.5184  0.3392
   20MPD2    C4  314   0.166   0.714  13.659 -0.0536 -0.1060  0.3433
   20MPD2    C5  315   0.112   0.813  13.589 -0.5438  0.0837 -0.4888
   20MPD2     H  316   0.034   0.772  13.962 -2.9740  0.5325 -1.3671
   20MPD2    H1  317   0.226   0.642  13.606  0.1065  1.0684 -1.0857
   20MPD2    H2  318   4.714   0.988  13.594 -1.2010 -1.3642 -1.2447
   20MPD2    H3  319   0.144   0.827  13.486  1.6189  3.7422  0.6797
   20MPD2     N  320   0.207   0.579  13.848  0.3330 -0.3679  0.1335
   20MPD2    H5  321   0.291   0.539  13.807  1.8909  0.5056  2.4718
   20MPD2    N1  322   4.634   0.960  13.846  0.0052 -0.6514 -0.2953
   20MPD2    H7  323   4.608   0.933  13.941 -0.8247  2.3894  0.3425
   21TMC2    C1  324   1.887   1.102  14.223  0.5869 -0.2127 -0.3925
   21TMC2    C2  325   1.888   0.976  14.276  0.2960 -0.2012  0.1865
   21TMC2    C3  326   1.795   0.933  14.369 -0.0609  0.1903 -0.0809
   21TMC2    C4  327   1.805   1.189  14.277 -0.2321 -0.6556  0.0065
   21TMC2    C5  328   1.731   1.157  14.387  0.4106  0.3439 -0.4424
   21TMC2    C6  329   1.718   1.027  14.434 -0.3039 -0.8024  0.4343
   21TMC2     C  330   2.016   1.154  14.168 -0.3079  0.5250  0.2777
   21TMC2     O  331   2.118   1.092  14.202 -0.0505  0.2674 -0.1581
   21TMC2     H  332   1.974   0.915  14.251  1.9053  1.2313  2.2067
   21TMC2    H1  333   1.837   1.289  14.248 -1.0742 -0.5828 -0.6669
   21TMC2    H2  334   1.665   1.003  14.526 -0.3421 -0.1576  0.5780
   21TMC2    C7  335   1.699   1.255  14.487 -0.2876 -0.2002  0.3174
   21TMC2    C8  336   1.763   0.789  14.390 -0.1311 -0.2935  0.1989
   21TMC2    O1  337   1.685   1.212  14.598 -0.1252  0.4536  0.0521
   21TMC2    O2  338   1.650   0.758  14.427 -0.0320 -0.5399  0.4678
   21TMC2    O5  339   1.854   0.705  14.336  0.3685  0.0033  0.0483
   21TMC2    H5  340   1.941   0.750  14.345 -0.7406  2.1330  0.0508
   22MPD2     C  341   2.288   1.570  14.037  0.2751 -0.4846  0.2488
   22MPD2    C1  342   2.316   1.458  14.115  0.3627 -0.2949  0.5595
   22MPD2    C2  343   2.224   1.362  14.122  0.3948 -0.3843 -0.1443
   22MPD2    C3  344   2.103   1.367  14.060  0.1013 -0.0328 -0.3507
   22MPD2    C4  345   2.078   1.479  13.983  0.0266  0.7541  0.0896
   22MPD2    C5  346   2.168   1.580  13.981 -0.8852 -0.5772 -0.1405
   22MPD2     H  347   2.249   1.272  14.177  2.6796  0.7352  0.6630
   22MPD2    H1  348   1.984   1.491  13.932 -0.8567 -1.5538  1.1913
   22MPD2    H2  349   2.355   1.654  14.020 -0.2916 -0.0102  0.3767
   22MPD2    H3  350   2.145   1.667  13.920  1.4224 -0.0282 -0.2029
   22MPD2     N  351   1.999   1.269  14.085  0.7894 -0.1474 -0.0139
   22MPD2    H5  352   1.910   1.296  14.047  1.0845 -0.1930 -0.7400
   22MPD2    N1  353   2.428   1.439  14.193  0.6245  0.5037 -0.7930
   22MPD2    H7  354   2.440   1.350  14.241  0.3986 -0.0608 -1.7854
   23TMC2    C1  355   2.685   2.886  14.520 -0.2896 -0.9157  0.0843
   23TMC2    C2  356   2.580   2.918  14.597  0.6170 -0.0362  0.1854
   23TMC2    C3  357   2.458   2.875  14.555 -0.7385 -0.5955  0.1409
   23TMC2    C4  358   2.676   2.814  14.411  0.0928  0.1046 -0.1358
   23TMC2    C5  359   2.560   2.764  14.377  0.2341 -0.0716  0.1884
   23TMC2    C6  360   2.447   2.800  14.444  0.9322 -0.3775  0.0022
   23TMC2     C  361   2.814   2.929  14.558  0.0202 -0.4220  0.2287
   23TMC2     O  362   2.830   2.972  14.668 -0.1568 -0.0419 -0.1622
   23TMC2     H  363   2.597   2.974  14.688  1.8757  1.6051 -1.0520
   23TMC2    H1  364   2.756   2.769  14.354 -1.5260 -2.2616 -0.5760
   23TMC2    H2  365   2.356   2.753  14.410  2.3300 -2.5535 -0.7342
   23TMC2    C7  366   2.554   2.664  14.271  0.1111 -0.2928  0.3195
   23TMC2    C8  367   2.345   2.952  14.609  0.9961  0.6130 -0.6482
   23TMC2    O1  368   2.648   2.594  14.244  0.0782 -0.4090  0.1114
   23TMC2    O2  369   2.355   3.033  14.699  0.2288 -0.5833 -0.0157
   23TMC2    O5  370   2.267   2.969  14.501  0.2411  0.1944  0.4690
   23TMC2    H5  371   2.306   2.910  14.434 -2.7645 -0.6507 -0.5565
   24MPD2     C  372   3.310   2.849  14.498 -0.0693 -0.5008  0.0076
   24MPD2    C1  373   3.233   2.839  14.617  0.0889  0.5982 -0.9629
   24MPD2    C2  374   3.096   2.870  14.596 -0.2574 -0.1911 -0.0605
   24MPD2    C3  375   3.043   2.905  14.472 -0.8373 -0.1462 -0.0339
   24MPD2    C4  376   3.122   2.894  14.363  0.0811  0.1770  0.0740
   24MPD2    C5  377   3.258   2.860  14.372 -0.1475  0.7256  0.1994
   24MPD2     H  378   3.040   2.853  14.688  1.6532  0.2750  1.1804
   24MPD2    H1  379   3.085   2.900  14.262  1.7495  0.4074 -0.5279
   24MPD2    H2  380   3.416   2.828  14.503 -0.2662 -1.3941  0.4021
   24MPD2    H3  381   3.313   2.849  14.279 -0.9463  0.5949 -0.2591
   24MPD2     N  382   2.901   2.917  14.456 -0.4527  0.2235 -0.4782
   24MPD2    H5  383   2.867   2.936  14.363  1.6818  1.7988 -0.9356
   24MPD2    N1  384   3.276   2.814  14.747 -0.8605 -0.0222  0.0770
   24MPD2    H7  385   3.212   2.835  14.823 -1.3637  1.1498 -0.6613
   25TMC2    C1  386   1.409   0.010  11.353 -0.2294 -0.7855 -0.1206
   25TMC2    C2  387   1.381   0.011  11.220 -0.2059 -0.0466  0.0601
   25TMC2    C3  388   1.427   0.111  11.139  0.9534 -0.6926  0.3884
   25TMC2    C4  389   1.504   0.092  11.409 -0.6020  0.0333 -0.2123
   25TMC2    C5  390   1.565   0.172  11.320  0.6451  0.0894 -0.5599
   25TMC2    C6  391   1.530   0.188  11.188  0.0304 -0.1222 -0.0665
   25TMC2     C  392   1.365   4.621  11.427  0.0075  0.2824 -1.2393
   25TMC2     O  393   1.364   4.648  11.549 -0.3292  0.3691  0.4485
   25TMC2     H  394   1.304   4.678  11.176 -0.6392 -1.4102  2.7618
   25TMC2    H1  395   1.544   0.088  11.510  3.4756 -0.3394 -1.8020
   25TMC2    H2  396   1.577   0.266  11.130 -1.2757 -0.1399 -1.1712
   25TMC2    C7  397   1.667   0.263  11.377  0.1822  0.0090 -0.5934
   25TMC2    C8  398   1.380   0.123  11.002 -0.0634 -0.3465 -0.4077
   25TMC2    O1  399   1.723   0.324  11.286  0.1286  0.6327 -0.5191
   25TMC2    O2  400   1.338   0.029  10.936  0.0207  0.1952  0.8406
   25TMC2    O5  401   1.412   0.242  10.951  0.2160  0.8854 -0.1236
   25TMC2    H5  402   1.398   0.316  11.013 -2.5716  1.9687 -2.0520
   26MPD2     C  403   1.408   4.124  11.486 -0.1514 -0.1136 -0.3894
   26MPD2    C1  404   1.393   4.144  11.352 -0.8821  0.6302  0.1684
   26MPD2    C2  405   1.376   4.280  11.309  0.1063  0.0911 -0.1468
   26MPD2    C3  406   1.368   4.380  11.400  0.3501  0.5107 -0.0387
   26MPD2    C4  407   1.383   4.353  11.535  0.3223 -0.3497  0.5570
   26MPD2    C5  408   1.402   4.222  11.575 -0.3103  0.0708  0.5250
   26MPD2     H  409   1.359   4.288  11.202 -0.6821  0.8321  0.0281
   26MPD2    H1  410   1.394   4.436  11.604  3.9779 -0.3135 -0.0656
   26MPD2    H2  411   1.429   4.027  11.531 -3.4053 -1.3076 -1.3915
   26MPD2    H3  412   1.412   4.185  11.677  2.0277 -0.2749  0.1886
   26MPD2     N  413   1.362   4.508  11.351  0.7368 -0.5483  0.7235
   26MPD2    H5  414   1.360   4.520  11.250  1.3478  0.6493  0.8528
   26MPD2    N1  415   1.393   4.029  11.272 -0.1323 -0.8505 -0.6208
   26MPD2    H7  416   1.405   3.939  11.317  1.5356  0.5255  1.6640
   27TMC2    C1  417   1.095   1.888  11.713  0.2501  0.7171 -0.3314
   27TMC2    C2  418   1.174   1.855  11.607  0.4749 -0.2184  0.2000
   27TMC2    C3  419   1.299   1.904  11.602  0.1786 -0.1482 -0.1457
   27TMC2    C4  420   1.134   1.983  11.807  0.4907  0.1792 -0.2529
   27TMC2    C5  421   1.256   2.041  11.783  0.4465  0.0034 -0.5591
   27TMC2    C6  422   1.340   1.998  11.690  0.0056  0.4474 -0.0729
   27TMC2     C  423   0.972   1.812  11.730 -0.8038  0.2327  0.6003
   27TMC2     O  424   0.916   1.775  11.626 -0.1745  0.0029  0.2874
   27TMC2     H  425   1.141   1.772  11.545 -2.4040  1.5536 -0.6537
   27TMC2    H1  426   1.052   2.025  11.863 -0.3317  1.0911 -2.1409
   27TMC2    H2  427   1.443   2.034  11.688 -0.2169  1.1003 -0.0409
   27TMC2    C7  428   1.309   2.135  11.877 -0.7149 -0.0859  0.0379
   27TMC2    C8  429   1.397   1.845  11.513 -0.4750 -0.0820 -0.5281
   27TMC2    O1  430   1.404   2.204  11.836 -0.3388  0.0885  0.1385
   27TMC2    O2  431   1.472   1.916  11.446  0.0805  0.2134  0.2516
   27TMC2    O5  432   1.430   1.724  11.566 -0.4951 -0.4800  0.1779
   27TMC2    H5  433   1.373   1.702  11.643  0.2836  0.5488  1.0489
   28MPD2     C  434   0.589   1.587  11.972  0.5569 -0.0152  0.1329
   28MPD2    C1  435   0.634   1.694  12.046 -0.1551  0.0165  0.3095
   28MPD2    C2  436   0.741   1.776  12.013 -0.0275 -0.0157 -0.7487
   28MPD2    C3  437   0.790   1.757  11.884 -0.1367  0.3249 -0.2134
   28MPD2    C4  438   0.745   1.652  11.811 -0.1009 -1.0340 -0.5497
   28MPD2    C5  439   0.646   1.566  11.853 -0.0206 -0.6316 -0.0426
   28MPD2     H  440   0.783   1.861  12.066 -2.2163  0.5548  0.0857
   28MPD2    H1  441   0.781   1.632  11.711  0.8447  1.0107 -0.6214
   28MPD2    H2  442   0.516   1.519  12.014  1.2288 -0.9026 -0.1365
   28MPD2    H3  443   0.617   1.482  11.791 -1.4038  0.2130 -0.5316
   28MPD2     N  444   0.907   1.829  11.854  0.0123  0.5818  0.2416
   28MPD2    H5  445   0.951   1.893  11.920 -0.0117  0.8564 -0.0104
   28MPD2    N1  446   0.561   1.710  12.170 -0.3338 -0.1728 -0.4841
   28MPD2    H7  447   0.484   1.645  12.181 -1.5858  1.7589  2.4943
   29TMC2    C1  448   0.674   4.519  14.257 -0.0785  0.0978  0.6714
   29TMC2    C2  449   0.593   4.528  14.371  0.1882 -0.2267 -0.2310
   29TMC2    C3  450   0.581   4.647  14.439 -0.5501  0.9334 -0.5825
   29TMC2    C4  451   0.745   4.637  14.224  0.5641 -0.9231  0.6417
   29TMC2    C5  452   0.726   0.022  14.300 -0.3032 -0.0212  0.3102
   29TMC2    C6  453   0.640   0.034  14.404 -1.0938 -0.6096  0.7527
   29TMC2     C  454   0.614   4.457  14.141 -0.0113 -0.1872  0.0589
   29TMC2     O  455   0.621   4.523  14.035  0.4921 -0.3847  0.0670
   29TMC2     H  456   0.538   4.441  14.405 -3.5611  1.7643 -1.2351
   29TMC2    H1  457   0.822   4.629  14.148  3.3524  0.9549  3.2696
   29TMC2    H2  458   0.634   0.128  14.458  0.8670  0.1377 -0.3038
   29TMC2    C7  459   0.754   0.151  14.236  0.5422 -0.4832 -0.1798
   29TMC2    C8  460   0.493   4.644  14.553  0.4254  0.0087 -0.0953
   29TMC2    O1  461   0.728   0.159  14.119 -0.4096  0.0529 -0.4009
   29TMC2    O2  462   0.453   4.550  14.622 -0.5186  0.2486  0.0300
   29TMC2    O5  463   0.442   0.040  14.576 -0.1111  0.1976  0.0659
   29TMC2    H5  464   0.442   0.093  14.494  1.3734  3.2553  2.0575
   30MPD2     C  465   0.446   4.061  13.867  0.0458  0.6132 -0.5751
   30MPD2    C1  466   0.502   4.008  13.989  0.5249  0.1007  0.3199
   30MPD2    C2  467   0.549   4.100  14.090 -0.5518 -0.0309  0.1799
   30MPD2    C3  468   0.555   4.235  14.059  0.2395 -0.3321 -0.6158
   30MPD2    C4  469   0.499   4.283  13.946  0.6739 -0.1400  0.3696
   30MPD2    C5  470   0.450   4.198  13.853  0.4072  0.2773 -0.3299
   30MPD2     H  471   0.582   4.068  14.187  3.3208  2.7987 -0.1951
   30MPD2    H1  472   0.467   4.386  13.938  0.3164 -0.4675 -2.3849
   30MPD2    H2  473   0.405   3.998  13.789 -0.8481 -2.0692  2.0401
   30MPD2    H3  474   0.411   4.241  13.761  1.3036  3.4791  0.7877
   30MPD2     N  475   0.602   4.326  14.163  0.2361 -0.0475 -0.8759
   30MPD2    H5  476   0.623   4.282  14.252 -1.4203  3.3510  1.1683
   30MPD2    N1  477   0.498   3.871  14.018 -0.1652 -0.3283  0.0831
   30MPD2    H7  478   0.543   3.840  14.103 -1.1124  1.0563  1.0942
   31TMC2    C1  479   2.996   3.194  15.227  0.6818  1.1102 -0.5521
   31TMC2    C2  480   2.861   3.205  15.229  0.2727 -0.7099  0.0997
   31TMC2    C3  481   2.793   3.164  15.339  0.0717 -0.0948  0.6806
   31TMC2    C4  482   3.059   3.156  15.344  0.1324  0.2071  0.6922
   31TMC2    C5  483   2.985   3.111  15.446  0.6214  0.8461  0.6212
   31TMC2    C6  484   2.847   3.110  15.450  0.3616  0.6298  0.0919
   31TMC2     C  485   3.068   3.216  15.100 -0.3186  0.3205 -1.1898
   31TMC2     O  486   3.008   3.282  15.018  0.0935 -0.1830  0.2165
   31TMC2     H  487   2.811   3.239  15.139  1.0910  1.4667  0.4838
   31TMC2    H1  488   3.167   3.168  15.346  0.1176  0.1632  1.7044
   31TMC2    H2  489   2.788   3.088  15.538  0.1982 -0.0455 -0.1839
   31TMC2    C7  490   3.030   3.127  15.582  0.0209  0.1446  0.5166
   31TMC2    C8  491   2.651   3.203  15.358 -0.2080  0.2668  0.1980
   31TMC2    O1  492   2.986   3.058  15.670  0.1589 -0.6624 -0.7381
   31TMC2    O2  493   2.582   3.128  15.435  0.0746  0.3747  0.1514
   31TMC2    O5  494   2.602   3.287  15.268  0.5800 -0.1792  0.0552
   31TMC2    H5  495   2.666   3.347  15.223  0.0098  1.9629  2.0653
   32MPD2     C  496   3.482   3.342  14.835  0.1500 -0.2278 -0.7096
   32MPD2    C1  497   3.355   3.389  14.826  0.1956  0.3315 -0.6096
   32MPD2    C2  498   3.258   3.353  14.920 -0.6054 -0.1549  0.1178
   32MPD2    C3  499   3.286   3.245  15.001 -0.1753 -0.2023 -0.2790
   32MPD2    C4  500   3.421   3.208  15.019  0.6477  0.5510  0.1968
   32MPD2    C5  501   3.522   3.264  14.938 -0.2601  0.2386  0.2583
   32MPD2     H  502   3.165   3.408  14.923 -0.2535  0.4005  1.1565
   32MPD2    H1  503   3.453   3.137  15.094  0.5902  0.0756 -0.2327
   32MPD2    H2  504   3.559   3.366  14.763  0.1107 -1.9738 -1.3224
   32MPD2    H3  505   3.626   3.245  14.961 -0.2317  0.8154  0.6278
   32MPD2     N  506   3.200   3.199  15.105  0.3100  0.6363 -0.0942
   32MPD2    H5  507   3.234   3.132  15.173  0.5997  1.0361  0.1517
   32MPD2    N1  508   3.322   3.477  14.716  0.4472 -0.6290 -0.0005
   32MPD2    H7  509   3.403   3.519  14.671 -1.2150  1.9446 -0.5382
   33TMC2    C1  510   3.142   1.106  10.074 -0.5114  0.2538 -0.2380
   33TMC2    C2  511   3.040   1.020  10.061 -0.3885 -0.5498  0.1320
   33TMC2    C3  512   2.924   1.080  10.011  0.6749 -0.1280 -0.3339
   33TMC2    C4  513   3.129   1.243  10.069  0.8010 -0.0171 -0.7951
   33TMC2    C5  514   3.008   1.298  10.028  0.6201 -0.0219  0.0353
   33TMC2    C6  515   2.906   1.215  10.003  0.2958  0.0988 -0.3421
   33TMC2     C  516   3.256   1.050  10.156 -0.4846 -0.1717 -0.0467
   33TMC2     O  517   3.220   0.971  10.246  0.2447  0.2046 -0.3847
   33TMC2     H  518   3.067   0.915  10.061  0.5185 -0.3196  0.7589
   33TMC2    H1  519   3.212   1.306  10.100 -0.8872  1.6481  0.3319
   33TMC2    H2  520   2.809   1.247   9.967  0.8532  1.4345 -0.6878
   33TMC2    C7  521   3.009   1.433  10.007 -0.2389 -0.1749 -0.2494
   33TMC2    C8  522   2.848   1.020   9.905 -0.6523  0.0967 -0.0525
   33TMC2    O1  523   3.119   1.486   9.994  0.7053  0.8858  0.2803
   33TMC2    O2  524   2.813   1.092   9.812  0.1180 -0.0597 -0.0441
   33TMC2    O5  525   2.804   0.897   9.936 -0.0484  0.0070 -0.5190
   33TMC2    H5  526   2.814   0.872  10.031  0.3555  0.8214 -0.3471
   34MPD2     C  527   3.727   1.084  10.368  0.0363  0.5363  0.8781
   34MPD2    C1  528   3.627   0.990  10.385  0.3418 -0.1185  0.1007
   34MPD2    C2  529   3.508   1.004  10.313  0.3846 -0.5309 -0.5019
   34MPD2    C3  530   3.495   1.099  10.213 -0.0021  0.7086 -0.1130
   34MPD2    C4  531   3.605   1.179  10.187 -0.1698  0.5035  0.3931
   34MPD2    C5  532   3.721   1.171  10.259  0.3996 -0.3204 -0.0067
   34MPD2     H  533   3.428   0.941  10.350 -0.7406 -0.3030 -2.5560
   34MPD2    H1  534   3.596   1.241  10.098 -1.3447  0.0047  0.1630
   34MPD2    H2  535   3.818   1.095  10.425  0.3105  2.0408  0.1640
   34MPD2    H3  536   3.800   1.242  10.241  0.8926 -0.5782  1.1676
   34MPD2     N  537   3.376   1.119  10.137  0.3554  0.4249  0.6615
   34MPD2    H5  538   3.385   1.191  10.066 -1.1722 -0.0541 -0.0183
   34MPD2    N1  539   3.635   0.887  10.482  0.1378 -0.5134  0.0586
   34MPD2    H7  540   3.563   0.815  10.475 -0.8476  0.3156  1.7100
   35TMC2    C1  541   4.306   2.308  11.325 -0.0792  0.0356  0.1359
   35TMC2    C2  542   4.216   2.387  11.256 -0.7139 -0.1115 -0.1394
   35TMC2    C3  543   4.108   2.326  11.203 -0.1748  0.1391 -0.4107
   35TMC2    C4  544   4.300   2.169  11.326 -0.0521  0.1066  0.6841
   35TMC2    C5  545   4.184   2.118  11.279  0.0627 -0.3608 -0.3371
   35TMC2    C6  546   4.090   2.196  11.218  0.1816 -0.8032 -0.7581
   35TMC2     C  547   4.397   2.384  11.414 -0.2161  0.4679 -0.5246
   35TMC2     O  548   4.390   2.508  11.403 -0.2890  0.0447  0.3412
   35TMC2     H  549   4.220   2.496  11.255 -0.1667 -0.1328  0.0461
   35TMC2    H1  550   4.360   2.105  11.390  0.3533 -1.1588 -0.9562
   35TMC2    H2  551   3.997   2.155  11.179  0.0720 -1.0465 -0.2368
   35TMC2    C7  552   4.150   1.977  11.305 -0.1761 -0.1323  0.5299
   35TMC2    C8  553   4.015   2.397  11.120  0.3699 -0.0602  0.5981
   35TMC2    O1  554   4.048   1.928  11.262 -0.3729  0.4328 -0.4812
   35TMC2    O2  555   3.900   2.362  11.126 -0.0426  1.2548 -0.2792
   35TMC2    O5  556   4.086   2.412  11.005  0.1837 -0.0124 -0.5004
   35TMC2    H5  557   4.179   2.431  11.027 -0.5499  1.2164  1.5734
   36MPD2     C  558   4.685   2.430  11.837  0.1533  0.0475 -0.7605
   36MPD2    C1  559   4.670   2.293  11.811 -0.5470  0.1045 -0.4092
   36MPD2    C2  560   4.602   2.256  11.693  0.0374  0.0456 -0.0119
   36MPD2    C3  561   4.545   2.351  11.607  0.4169  0.0712  0.3848
   36MPD2    C4  562   4.559   2.483  11.640 -0.1555  0.1465 -0.0299
   36MPD2    C5  563   4.627   2.519  11.753  0.9773 -0.0171 -0.3214
   36MPD2     H  564   4.601   2.150  11.674 -1.3676 -0.0980  0.8787
   36MPD2    H1  565   4.514   2.566  11.587 -0.0840 -0.6445 -1.3396
   36MPD2    H2  566   0.010   2.460  11.927  1.7634 -3.2426 -0.6463
   36MPD2    H3  567   4.631   2.622  11.785  2.1493 -0.9665  2.5499
   36MPD2     N  568   4.475   2.304  11.496  0.5130 -0.0916  0.0735
   36MPD2    H5  569   4.465   2.204  11.488  2.6509 -0.5674  3.2870
   36MPD2    N1  570   4.728   2.210  11.908 -0.1984 -0.5000  0.0552
   36MPD2    H7  571   0.041   2.253  11.989  2.0817  0.4040 -1.5959
   37TMC2    C1  572   2.207   2.565  11.604  0.1992  0.1796 -0.9278
   37TMC2    C2  573   2.183   2.610  11.476  0.3905  0.0054 -0.2457
   37TMC2    C3  574   2.283   2.586  11.382  0.9817  0.6881  0.0603
   37TMC2    C4  575   2.322   2.502  11.633  0.4579  0.3703  0.1549
   37TMC2    C5  576   2.414   2.467  11.539  0.0692  0.9571 -0.3239
   37TMC2    C6  577   2.393   2.513  11.412  0.4963  0.0061 -0.1738
   37TMC2     C  578   2.137   2.638  11.717  0.3048  0.9297  0.2547
   37TMC2     O  579   2.044   2.712  11.686  0.4910  0.0106 -0.2020
   37TMC2     H  580   2.106   2.686  11.469  1.1273  0.8423  0.7364
   37TMC2    H1  581   2.339   2.451  11.727 -1.7647  0.0142  0.3454
   37TMC2    H2  582   2.472   2.507  11.338  1.5706 -0.6317  1.0365
   37TMC2    C7  583   2.541   2.420  11.586  0.4072  0.8585  0.0916
   37TMC2    C8  584   2.270   2.641  11.250 -0.1877 -0.9061 -0.5161
   37TMC2    O1  585   2.554   2.454  11.706 -0.2629 -0.5194 -0.3703
   37TMC2    O2  586   2.363   2.679  11.185 -0.1766 -0.3857 -0.0879
   37TMC2    O5  587   2.155   2.709  11.266 -0.4579 -0.1947 -0.3620
   37TMC2    H5  588   2.088   2.642  11.290 -0.0498  0.0224  1.3787
   38MPD2     C  589   2.081   2.712  12.230  0.4511  0.3211  0.1729
   38MPD2    C1  590   2.200   2.652  12.207  0.5837  0.3973  0.0074
   38MPD2    C2  591   2.229   2.624  12.076 -0.5213  0.4186  0.0865
   38MPD2    C3  592   2.151   2.655  11.971 -0.1113  0.2578  0.2864
   38MPD2    C4  593   2.024   2.710  11.994  0.1931 -0.2158 -0.6302
   38MPD2    C5  594   1.997   2.741  12.128 -0.1897 -0.1932  0.2079
   38MPD2     H  595   2.325   2.580  12.051 -0.2259  1.0938  0.0306
   38MPD2    H1  596   1.951   2.729  11.916 -0.0991 -3.3123 -1.1080
   38MPD2    H2  597   2.055   2.740  12.331  0.2061  3.0554 -0.6544
   38MPD2    H3  598   1.904   2.791  12.153 -0.1757  0.8934 -1.8971
   38MPD2     N  599   2.196   2.619  11.842  0.0012 -0.3705  0.1941
   38MPD2    H5  600   2.278   2.559  11.844 -0.1355 -0.5847 -0.6835
   38MPD2    N1  601   2.300   2.629  12.301 -0.1439  0.4927  0.6143
   38MPD2    H7  602   2.384   2.579  12.273 -0.0854 -0.8373  3.1077
   39TMC2    C1  603   0.310   4.078   1.706  0.8480  0.0250 -0.1382
   39TMC2    C2  604   0.207   4.127   1.786  0.0407  0.2585 -0.8943
   39TMC2    C3  605   0.241   4.180   1.907 -0.0581 -0.2069  0.6001
   39TMC2    C4  606   0.439   4.094   1.749 -0.3919  0.0630  0.2254
   39TMC2    C5  607   0.466   4.175   1.856  0.6371  0.7574  0.1759
   39TMC2    C6  608   0.368   4.220   1.942  0.9235  0.5641 -0.3301
   39TMC2     C  609   0.274   4.054   1.569 -0.7004 -0.2314  0.5379
   39TMC2     O  610   0.152   4.063   1.537 -0.0132 -0.3465 -0.0195
   39TMC2     H  611   0.105   4.127   1.751 -0.3447  0.7964  0.2190
   39TMC2    H1  612   0.516   4.033   1.704  0.2249  1.1363 -0.1766
   39TMC2    H2  613   0.409   4.261   2.034 -0.9765  0.1730  0.6821
   39TMC2    C7  614   0.590   4.253   1.843 -0.3811 -0.2225  0.7112
   39TMC2    C8  615   0.139   4.214   2.001 -1.0062  0.1234 -0.1264
   39TMC2    O1  616   0.674   4.206   1.765  0.5855 -0.0072  0.5015
   39TMC2    O2  617   0.033   4.156   1.981  0.1452 -0.5535 -0.2078
   39TMC2    O5  618   0.166   4.311   2.089  0.0403  0.1075  0.3000
   39TMC2    H5  619   0.251   4.352   2.064 -0.5699  2.1419  1.5519
   40MPD2     C  620   0.470   3.895   1.313  0.0791 -0.5005  0.3018
   40MPD2    C1  621   0.362   3.955   1.356 -0.2875 -0.0970  0.3066
   40MPD2    C2  622   0.245   3.936   1.288 -0.0751 -0.9994  0.3444
   40MPD2    C3  623   0.243   3.861   1.172 -0.1143 -0.0764  0.4882
   40MPD2    C4  624   0.354   3.790   1.141  0.0489  0.0399  0.3902
   40MPD2    C5  625   0.470   3.808   1.212 -0.1262  0.8487  0.1214
   40MPD2     H  626   0.154   3.984   1.323  0.1191 -0.2007 -0.2307
   40MPD2    H1  627   0.357   3.714   1.064 -0.4132  2.0308 -1.5920
   40MPD2    H2  628   0.560   3.906   1.372 -0.5997  1.3185  1.0261
   40MPD2    H3  629   0.560   3.749   1.204  0.6379  1.9191  0.7944
   40MPD2     N  630   0.124   3.834   1.096  1.0316  0.4432  0.4743
   40MPD2    H5  631   0.137   3.769   1.019  0.5624 -0.0196  0.7916
   40MPD2    N1  632   0.376   4.018   1.481 -0.1422 -0.1744 -0.2442
   40MPD2    H7  633   0.472   4.040   1.507  0.1695 -1.3153 -0.4119
   41TMC2    C1  634   4.380   2.088  13.505 -0.3147  0.3909  0.5182
   41TMC2    C2  635   4.467   1.986  13.505 -0.0505  0.1236  0.5621
   41TMC2    C3  636   4.514   1.950  13.387  0.2660  0.3896 -0.3288
   41TMC2    C4  637   4.353   2.168  13.393  0.4316 -0.1301 -0.0571
   41TMC2    C5  638   4.400   2.120  13.277  0.9068  0.5132 -0.3112
   41TMC2    C6  639   4.485   2.010  13.276  1.0454  0.8903  0.6804
   41TMC2     C  640   4.340   2.132  13.637  0.1299 -0.0304 -0.3482
   41TMC2     O  641   4.395   2.080  13.733 -0.1560  0.1729  0.3212
   41TMC2     H  642   4.497   1.930  13.592  1.6490  0.7960  0.4025
   41TMC2    H1  643   4.282   2.249  13.396  2.5368  1.6750  0.8413
   41TMC2    H2  644   4.541   1.985  13.187  0.2167  0.6693  0.2184
   41TMC2    C7  645   4.340   2.171  13.153  0.3143 -0.2721 -0.8180
   41TMC2    C8  646   4.618   1.854  13.384  0.2242  0.6151 -0.0387
   41TMC2    O1  647   4.281   2.280  13.150  0.1078  0.3381 -0.7782
   41TMC2    O2  648   4.635   1.774  13.292  0.3775  0.2676 -0.3054
   41TMC2    O5  649   4.714   1.899  13.462  0.4774  0.4073  0.4707
   41TMC2    H5  650   4.692   1.988  13.497 -0.7382 -1.3701  4.1470
   42MPD2     C  651   4.249   2.254  13.893  0.6916 -0.2305 -0.0747
   42MPD2    C1  652   4.204   2.289  13.762 -0.5243  0.0260  0.9158
   42MPD2    C2  653   4.114   2.395  13.749 -0.2478  0.6465 -0.0000
   42MPD2    C3  654   4.060   2.452  13.864  0.2732  0.0220 -0.5090
   42MPD2    C4  655   4.098   2.412  13.985  0.1331  0.2657  0.2300
   42MPD2    C5  656   4.199   2.318  14.001 -0.0726  0.0137 -0.3305
   42MPD2     H  657   4.075   2.416  13.650  1.0204 -1.8458 -1.0284
   42MPD2    H1  658   4.047   2.464  14.066 -1.6108  0.7770 -1.2170
   42MPD2    H2  659   4.331   2.187  13.918  0.2623 -0.1053  1.7094
   42MPD2    H3  660   4.239   2.298  14.100 -0.4530  0.8949  0.0088
   42MPD2     N  661   3.969   2.563  13.849  0.0498  0.0532  0.2878
   42MPD2    H5  662   3.921   2.590  13.934 -0.1580 -1.8665  0.7868
   42MPD2    N1  663   4.257   2.238  13.639  0.1270  0.6140  0.1307
   42MPD2    H7  664   4.239   2.283  13.550 -0.3050  2.1485  0.9809
   43TMC2    C1  665   0.437   0.563   0.919 -1.1106  0.0975  0.1930
   43TMC2    C2  666   0.303   0.572   0.924 -0.8506  0.2893 -0.5715
   43TMC2    C3  667   0.248   0.586   1.051 -0.4559 -0.2696  0.1339
   43TMC2    C4  668   0.515   0.557   1.033  0.3027 -0.3791  0.1192
   43TMC2    C5  669   0.455   0.579   1.152 -0.1166 -0.0811  0.1200
   43TMC2    C6  670   0.322   0.596   1.166  0.6332  0.4226  0.2043
   43TMC2     C  671   0.502   0.543   0.792 -0.2356  0.1803 -0.0144
   43TMC2     O  672   0.620   0.520   0.797 -0.1231 -0.4760  0.4879
   43TMC2     H  673   0.234   0.564   0.841 -1.1513  0.5661 -0.3494
   43TMC2    H1  674   0.621   0.537   1.033  0.4279  0.3381 -2.0944
   43TMC2    H2  675   0.273   0.601   1.263  0.8749 -2.0031  0.4448
   43TMC2    C7  676   0.539   0.580   1.270  0.0698  0.1757 -0.4963
   43TMC2    C8  677   0.105   0.570   1.067  0.0793  0.4205  0.2664
   43TMC2    O1  678   0.650   0.521   1.262  0.0736 -0.0150 -0.5610
   43TMC2    O2  679   0.024   0.624   0.997 -0.3215  0.1046  0.1851
   43TMC2    O5  680   0.086   0.506   1.186  0.5678  0.1199  0.3985
   43TMC2    H5  681   0.153   0.440   1.215  0.8863  0.8898  1.4333
   44MPD2     C  682   0.492   0.431   0.296 -0.4775 -0.4044  0.0059
   44MPD2    C1  683   0.595   0.415   0.393 -0.2102  0.4576  0.4866
   44MPD2    C2  684   0.573   0.459   0.518 -0.0284  0.2208 -0.1986
   44MPD2    C3  685   0.458   0.526   0.553 -0.5868 -0.0331  0.2843
   44MPD2    C4  686   0.362   0.545   0.455 -0.4412 -0.2475  0.1582
   44MPD2    C5  687   0.373   0.494   0.332  0.2624  0.4909  0.2305
   44MPD2     H  688   0.655   0.450   0.589  0.2108  1.8177 -0.2725
   44MPD2    H1  689   0.267   0.591   0.482  0.5490  0.0602  3.1363
   44MPD2    H2  690   0.498   0.407   0.191  1.3666 -0.4470  0.1201
   44MPD2    H3  691   0.293   0.507   0.260 -1.5375 -1.2744  1.9215
   44MPD2     N  692   0.427   0.566   0.682 -0.2689 -0.0926 -0.3422
   44MPD2    H5  693   0.332   0.601   0.695  0.1700  1.0365 -0.1357
   44MPD2    N1  694   0.719   0.345   0.360 -0.0502 -0.6131  0.0270
   44MPD2    H7  695   0.782   0.326   0.437  0.3339 -1.5702 -0.5159
   45TMC2    C1  696   0.261   2.580   9.254  0.1038 -0.0218 -0.2914
   45TMC2    C2  697   0.308   2.460   9.268  0.0001  0.3933  0.4262
   45TMC2    C3  698   0.400   2.441   9.361  0.6871  0.1223 -0.4030
   45TMC2    C4  699   0.310   2.689   9.321 -0.3557 -0.5895  0.0176
   45TMC2    C5  700   0.405   2.664   9.417  0.4479 -0.1798  0.4554
   45TMC2    C6  701   0.442   2.538   9.453  0.8152 -0.0371 -0.0711
   45TMC2     C  702   0.127   2.597   9.201 -0.2922  0.1024  0.8999
   45TMC2     O  703   0.096   2.705   9.155  0.4521  0.6083  0.0891
   45TMC2     H  704   0.266   2.378   9.210  1.5740  0.8279 -1.3161
   45TMC2    H1  705   0.259   2.782   9.302 -1.3630 -1.4459 -1.4948
   45TMC2    H2  706   0.518   2.518   9.527  0.6816  1.3227  0.4164
   45TMC2    C7  707   0.436   2.774   9.504 -0.4864 -0.0439  0.1050
   45TMC2    C8  708   0.443   2.303   9.386  0.4070  0.0139  0.1767
   45TMC2    O1  709   0.483   2.732   9.611 -0.3431  0.4426 -0.5993
   45TMC2    O2  710   0.467   2.268   9.500 -0.2809 -0.2568  0.4938
   45TMC2    O5  711   0.462   2.232   9.273  0.3878  0.6274 -0.3211
   45TMC2    H5  712   0.430   2.286   9.198  0.2968  0.9256 -0.0711
   46MPD2     C  713   4.587   2.546   9.098  0.3986 -0.3584 -1.0552
   46MPD2    C1  714   4.637   2.495   9.218  0.7286  0.4723  0.0037
   46MPD2    C2  715   4.548   2.440   9.304 -0.0822  0.6788  0.5324
   46MPD2    C3  716   4.411   2.439   9.279  0.0645  1.1305  0.4489
   46MPD2    C4  717   4.361   2.482   9.156 -0.2863 -0.5600 -0.0217
   46MPD2    C5  718   4.452   2.530   9.062 -0.4552  0.4069  0.8336
   46MPD2     H  719   4.600   2.388   9.384  0.5228 -0.1078 -0.3821
   46MPD2    H1  720   4.256   2.489   9.130 -0.5615  0.4129  1.3715
   46MPD2    H2  721   4.643   2.588   9.015  0.7874 -0.2334 -0.7290
   46MPD2    H3  722   4.414   2.561   8.965 -0.3126  0.6935  0.8675
   46MPD2     N  723   4.334   2.388   9.380 -0.3913  0.7924  0.3073
   46MPD2    H5  724   4.379   2.367   9.468  0.8848 -1.5652 -0.8933
   46MPD2    N1  725   0.046   2.498   9.244 -0.4033  0.0486  0.6093
   46MPD2    H7  726   0.083   2.435   9.314  0.6066 -0.3202 -0.2437
   47TMC2    C1  727   2.958   3.765   9.170  0.8356 -0.6361 -0.1246
   47TMC2    C2  728   2.941   3.651   9.091  0.2420 -0.4786  0.6665
   47TMC2    C3  729   2.816   3.635   9.031  0.3118  0.2780 -0.0272
   47TMC2    C4  730   2.862   3.861   9.180  0.0732  0.2218  0.2993
   47TMC2    C5  731   2.738   3.834   9.125 -0.0001  0.3424  0.6087
   47TMC2    C6  732   2.710   3.720   9.051  0.4349 -0.2039 -0.0315
   47TMC2     C  733   3.087   3.801   9.218 -0.0565 -0.3318  0.3148
   47TMC2     O  734   3.106   3.914   9.261 -0.7006 -0.1400 -0.1433
   47TMC2     H  735   3.018   3.580   9.067  2.1685  1.7024  0.4363
   47TMC2    H1  736   2.883   3.947   9.243 -0.9928 -0.6650  1.8754
   47TMC2    H2  737   2.616   3.688   9.007 -0.4159  2.6484 -0.3116
   47TMC2    C7  738   2.621   3.902   9.179  0.4733  0.0072 -0.4761
   47TMC2    C8  739   2.810   3.527   8.927 -0.5148 -0.4073 -0.2123
   47TMC2    O1  740   2.520   3.889   9.111  0.2672 -0.2976 -0.0094
   47TMC2    O2  741   2.904   3.487   8.861 -0.0416  0.5804  0.4120
   47TMC2    O5  742   2.688   3.457   8.937 -0.1629  0.6459 -0.0397
   47TMC2    H5  743   2.642   3.493   9.016  1.3609 -0.4053  1.3290
   48MPD2     C  744   3.366   3.819   9.305 -0.1341  0.3548 -0.4126
   48MPD2    C1  745   3.288   3.701   9.290 -0.4272  0.4332  0.5776
   48MPD2    C2  746   3.338   3.577   9.335 -0.5885  0.2742 -0.7229
   48MPD2    C3  747   3.465   3.571   9.393 -0.1474  0.2377  0.1328
   48MPD2    C4  748   3.541   3.686   9.390 -0.6119  0.2247 -0.1140
   48MPD2    C5  749   3.494   3.807   9.351 -0.1409 -0.2844  0.2884
   48MPD2     H  750   3.273   3.491   9.334  0.1676 -0.3214  2.0900
   48MPD2    H1  751   3.644   3.687   9.424  0.1632  4.6256 -2.6133
   48MPD2    H2  752   3.328   3.918   9.282  1.3372  1.1811  0.7280
   48MPD2    H3  753   3.561   3.892   9.348 -0.4164 -0.0361  1.2483
   48MPD2     N  754   3.507   3.455   9.463 -0.9490 -0.5928 -0.1039
   48MPD2    H5  755   3.448   3.376   9.440 -1.8903 -0.1044  0.6196
   48MPD2    N1  756   3.166   3.689   9.233  0.3963  0.5438  0.7007
   48MPD2    H7  757   3.128   3.600   9.201  0.4515  0.7633  0.0213
   49TMC2    C1  758   1.723   4.402  10.628  0.3862  0.3548 -0.1825
   49TMC2    C2  759   1.642   4.295  10.611 -0.2848 -0.3454 -0.0123
   49TMC2    C3  760   1.688   4.175  10.650 -0.6867 -0.4729 -0.3056
   49TMC2    C4  761   1.853   4.394  10.684 -0.0111 -0.3783  0.6619
   49TMC2    C5  762   1.892   4.271  10.718 -0.5874  0.6316 -0.3045
   49TMC2    C6  763   1.817   4.160  10.687 -0.0253 -0.2037  0.9975
   49TMC2     C  764   1.661   4.526  10.583  0.2540 -0.1386 -0.3461
   49TMC2     O  765   1.561   4.521  10.517  0.0917 -0.2528 -0.1849
   49TMC2     H  766   1.541   4.309  10.575 -1.0786 -1.1433  1.9244
   49TMC2    H1  767   1.921   4.478  10.677 -0.0132 -0.2720  1.8709
   49TMC2    H2  768   1.855   4.067  10.727 -1.1690 -0.1375  2.2344
   49TMC2    C7  769   2.023   4.249  10.774 -0.4294  0.1766  0.0643
   49TMC2    C8  770   1.617   4.061  10.597  0.0603 -0.0851  0.2436
   49TMC2    O1  771   2.078   4.141  10.768  0.0551 -0.0279  0.3115
   49TMC2    O2  772   1.589   4.058  10.480  0.1607  0.0792 -0.6285
   49TMC2    O5  773   1.606   3.966  10.692 -0.0235  0.0441 -0.0964
   49TMC2    H5  774   1.637   4.003  10.777  0.4431 -0.1237 -0.1952
   50MPD2     C  775   1.559   0.080  10.569 -0.3355 -0.8443  0.6931
   50MPD2    C1  776   1.669   0.041  10.641 -0.7627  0.1509 -0.1935
   50MPD2    C2  777   1.746   0.140  10.703  0.0608 -0.3385  0.6195
   50MPD2    C3  778   1.715   0.276  10.702  0.4289 -0.1084  0.6689
   50MPD2    C4  779   1.609   0.311  10.626 -0.3812  0.5442 -0.5568
   50MPD2    C5  780   1.534   0.213  10.559  0.5605 -0.5835  0.0047
   50MPD2     H  781   1.838   0.116  10.755  0.8336 -0.2218 -0.7110
   50MPD2    H1  782   1.579   0.413  10.603  0.1197  0.2782 -2.3862
   50MPD2    H2  783   1.493   0.010  10.520  1.9823 -2.3165 -0.3496
   50MPD2    H3  784   1.451   0.240  10.495 -1.9976 -0.2996  3.4411
   50MPD2     N  785   1.784   0.376  10.779 -0.4768  0.2499 -0.6635
   50MPD2    H5  786   1.752   0.469  10.755  1.0370  0.5351 -1.6098
   50MPD2    N1  787   1.715   4.633  10.647  0.4062  0.2388 -0.6818
   50MPD2    H7  788   1.794   4.622  10.709  0.7734 -0.8281 -1.3451
   51TMC2    C1  789   2.495   4.548   1.220 -0.3120  0.1818 -0.7872
   51TMC2    C2  790   2.428   4.636   1.144  0.0243  0.3473 -0.2007
   51TMC2    C3  791   2.496   0.011   1.082  0.0863  0.0253  0.2867
   51TMC2    C4  792   2.623   4.565   1.243 -0.3333  0.1423  0.9067
   51TMC2    C5  793   2.684   4.673   1.196 -0.2363  0.2159  0.3692
   51TMC2    C6  794   2.627   0.032   1.107 -0.3158 -0.5940 -0.1823
   51TMC2     C  795   2.438   4.415   1.243  0.0373  0.2714  0.6652
   51TMC2     O  796   2.504   4.314   1.262  0.2762  0.3618  0.2722
   51TMC2     H  797   2.320   4.631   1.137  0.0642 -1.0103  0.2506
   51TMC2    H1  798   2.677   4.494   1.305 -0.5685 -1.8479 -1.1333
   51TMC2    H2  799   2.683   0.097   1.041  1.0824 -0.0954  1.4937
   51TMC2    C7  800   2.819   4.695   1.247  0.1309  0.3602  0.5992
   51TMC2    C8  801   2.411   0.094   1.003  0.0761 -0.1707  1.3097
   51TMC2    O1  802   2.872   4.605   1.314 -0.0266  0.1548 -0.1460
   51TMC2    O2  803   2.305   0.058   0.951  0.4047  0.5400 -0.4483
   51TMC2    O5  804   2.450   0.223   1.004  0.0873 -0.5381  0.0849
   51TMC2    H5  805   2.535   0.236   1.052 -0.3759  2.6821  0.0547
   52MPD2     C  806   2.019   4.116   1.331 -0.3105  0.0400 -0.2721
   52MPD2    C1  807   2.155   4.084   1.322 -0.1145  0.1793 -1.0223
   52MPD2    C2  808   2.249   4.180   1.293  0.1846  0.2408 -0.7531
   52MPD2    C3  809   2.218   4.310   1.267 -0.0204  0.4514 -0.4097
   52MPD2    C4  810   2.087   4.349   1.275 -0.0580  0.3506 -0.5546
   52MPD2    C5  811   1.993   4.250   1.299  1.1173  0.0486  0.4533
   52MPD2     H  812   2.351   4.145   1.281  0.4554  1.0880 -0.9368
   52MPD2    H1  813   2.055   4.453   1.269 -2.7587 -0.3106  2.2417
   52MPD2    H2  814   1.938   4.047   1.350  0.8855 -0.5667  2.6798
   52MPD2    H3  815   1.890   4.282   1.302  1.6130  1.6506  0.3554
   52MPD2     N  816   2.304   4.423   1.248 -0.0538  0.3968  0.5600
   52MPD2    H5  817   2.260   4.514   1.239  0.5471  0.5052 -1.3169
   52MPD2    N1  818   2.207   3.953   1.350 -0.1509  0.1626  0.0815
   52MPD2    H7  819   2.306   3.944   1.327  0.0376  1.0532  0.5353
   53TMC2    C1  820   3.127   2.423  11.979  0.2645 -0.1451  0.6302
   53TMC2    C2  821   3.229   2.387  12.063  0.8884  0.2807 -0.1424
   53TMC2    C3  822   3.242   2.452  12.185  0.5367 -0.4102 -0.1703
   53TMC2    C4  823   3.032   2.512  12.016  0.6085 -0.3687 -0.6263
   53TMC2    C5  824   3.038   2.570  12.139 -0.3891 -0.2070 -0.6198
   53TMC2    C6  825   3.144   2.540  12.223  0.9202  0.1608 -0.1452
   53TMC2     C  826   3.127   2.364  11.847 -0.2292 -0.3574  0.5034
   53TMC2     O  827   3.228   2.314  11.800  0.2385 -0.4184  0.2030
   53TMC2     H  828   3.300   2.316  12.022 -0.2511  0.3722 -2.2570
   53TMC2    H1  829   2.950   2.542  11.952  0.7156 -2.3380 -1.6809
   53TMC2    H2  830   3.150   2.583  12.323  2.7123  0.7032 -0.4787
   53TMC2    C7  831   2.914   2.635  12.186  0.5789  0.0177 -1.2453
   53TMC2    C8  832   3.356   2.423  12.263 -0.1530  0.8132  0.1157
   53TMC2    O1  833   2.820   2.637  12.107  0.1113  0.0126 -0.0480
   53TMC2    O2  834   3.425   2.324  12.249  0.2130  0.2993 -0.4822
   53TMC2    O5  835   3.389   2.529  12.336  0.0189  0.1143  0.0586
   53TMC2    H5  836   3.331   2.607  12.321 -2.3338 -1.4644  0.8904
   54MPD2     C  837   3.024   2.242  11.582 -0.2730 -0.5158 -0.4444
   54MPD2    C1  838   2.949   2.310  11.676 -0.0810 -0.2943 -0.1178
   54MPD2    C2  839   2.818   2.339  11.646  0.2283  0.1591  0.7003
   54MPD2    C3  840   2.757   2.313  11.529 -0.0083 -0.0327 -0.4287
   54MPD2    C4  841   2.831   2.243  11.435  0.8708  0.9852  0.1324
   54MPD2    C5  842   2.967   2.207  11.461  0.2423 -0.5243  0.3080
   54MPD2     H  843   2.757   2.398  11.714  0.1076  0.3867  0.3961
   54MPD2    H1  844   2.793   2.224  11.336 -1.9551  0.2077  1.3731
   54MPD2    H2  845   3.127   2.218  11.605 -0.9312 -0.7854  2.3313
   54MPD2    H3  846   3.029   2.160  11.386 -2.4610  0.8820 -2.7864
   54MPD2     N  847   2.620   2.344  11.503  0.5271 -0.3519 -0.1825
   54MPD2    H5  848   2.571   2.309  11.421 -1.4176  0.1708  0.7592
   54MPD2    N1  849   3.002   2.366  11.798 -0.2524  0.3746  0.3758
   54MPD2    H7  850   2.932   2.407  11.859 -0.6963 -0.4082  0.3871
   55TMC2    C1  851   3.588   0.296  17.689 -0.0013 -0.9771  0.0398
   55TMC2    C2  852   3.574   0.232  17.573 -0.3784  0.0146 -0.8285
   55TMC2    C3  853   3.565   0.094  17.570  0.7988  0.1273  0.4910
   55TMC2    C4  854   3.596   0.221   0.088  0.1889 -0.5640  0.1028
   55TMC2    C5  855   3.594   0.079   0.085 -0.2760  0.0717 -0.6889
   55TMC2    C6  856   3.585   0.016  17.681  0.0372 -0.6692 -0.4638
   55TMC2     C  857   3.545   0.439  17.699  0.0439  0.3563  0.4079
   55TMC2     O  858   3.504   0.477   0.089 -0.0033  0.1139 -0.6150
   55TMC2     H  859   3.575   0.279  17.476  0.0973  0.0382 -0.8116
   55TMC2    H1  860   3.605   0.274   0.182 -2.0568 -0.3850  0.2072
   55TMC2    H2  861   3.569   4.638  17.677 -2.2383 -0.3018 -1.1871
   55TMC2    C7  862   3.623   4.723   0.205  0.0258  0.0960 -0.1613
   55TMC2    C8  863   3.505   0.024  17.449 -0.2609 -0.0333  0.3237
   55TMC2    O1  864   3.651   4.603   0.190  0.2790  0.1328 -0.0919
   55TMC2    O2  865   3.561   4.645  17.426  0.2062  0.0561 -0.5158
   55TMC2    O5  866   3.471   0.108  17.357  0.1240  0.2141 -0.1771
   55TMC2    H5  867   3.414   0.180  17.392 -0.1928  0.0035 -0.2522
   56MPD2     C  868   3.515   0.693  17.420  0.7336 -0.0464  0.2617
   56MPD2    C1  869   3.503   0.640  17.546 -0.7963  0.1385  0.4125
   56MPD2    C2  870   3.423   0.713  17.639  0.7373  0.8750  0.4596
   56MPD2    C3  871   3.366   0.840  17.603 -0.6296 -0.1829  0.5078
   56MPD2    C4  872   3.399   0.888  17.474  0.1503  0.3536  0.6216
   56MPD2    C5  873   3.473   0.813  17.382  0.6594 -0.0279  1.1955
   56MPD2     H  874   3.411   0.676   0.024  1.4577  1.2774  0.6964
   56MPD2    H1  875   3.382   0.990  17.442  0.8482  0.9445  2.1255
   56MPD2    H2  876   3.574   0.635  17.351  1.5755  0.6913  0.3683
   56MPD2    H3  877   3.485   0.843  17.279  0.6452  1.9154  1.7606
   56MPD2     N  878   3.298   0.913  17.701 -0.1228  0.8869 -0.1686
   56MPD2    H5  879   3.283   0.880   0.079 -1.1221  1.4758 -0.1143
   56MPD2    N1  880   3.564   0.517  17.580 -0.0622  0.3108  0.2124
   56MPD2    H7  881   3.606   0.465  17.504 -3.1036 -0.2504 -1.0983
   57TMC2    C1  882   3.181   1.284  13.863  0.3789  0.4923  0.0355
   57TMC2    C2  883   3.227   1.365  13.965 -0.9555 -0.2348 -0.1011
   57TMC2    C3  884   3.361   1.391  13.957 -0.4749 -0.1029 -0.1797
   57TMC2    C4  885   3.263   1.230  13.769  0.0138 -0.0543  0.1781
   57TMC2    C5  886   3.396   1.260  13.772 -1.1127  0.2946 -0.0778
   57TMC2    C6  887   3.453   1.345  13.863  0.3882  0.2361  0.5555
   57TMC2     C  888   3.037   1.269  13.847 -0.4580 -0.9195 -0.4041
   57TMC2     O  889   2.961   1.339  13.911  0.1197  0.7517  0.1705
   57TMC2     H  890   3.157   1.419  14.028  0.2169 -0.0961  1.0920
   57TMC2    H1  891   3.233   1.159  13.692 -1.0965 -0.6666  1.1880
   57TMC2    H2  892   3.558   1.371  13.872  0.3292  0.6090  0.1780
   57TMC2    C7  893   3.484   1.204  13.676  0.9050  0.2767  0.1146
   57TMC2    C8  894   3.418   1.491  14.043  0.0316  0.2452 -0.5867
   57TMC2    O1  895   3.598   1.183  13.715  0.4502 -0.0071 -0.0626
   57TMC2    O2  896   3.495   1.581  14.006 -0.5236  0.0423  0.1016
   57TMC2    O5  897   3.351   1.473  14.160  0.0635  0.2079 -0.4039
   57TMC2    H5  898   3.315   1.382  14.166  0.0778  0.1158 -1.8179
   58MPD2     C  899   2.646   1.059  13.587 -0.3923 -0.9898  0.5005
   58MPD2    C1  900   2.655   1.162  13.674  0.2306  0.1024 -0.0404
   58MPD2    C2  901   2.766   1.192  13.741 -0.0198  0.0213 -0.5986
   58MPD2    C3  902   2.884   1.131  13.706  0.7505 -0.1166  0.0218
   58MPD2    C4  903   2.876   1.028  13.609  0.1555 -0.1254  0.5001
   58MPD2    C5  904   2.756   0.990  13.556  0.4153  0.4643 -0.0820
   58MPD2     H  905   2.780   1.277  13.806 -2.7650  0.4779 -0.6331
   58MPD2    H1  906   2.965   0.976  13.575 -1.5080 -3.1823  0.8748
   58MPD2    H2  907   2.551   1.027  13.545 -0.1592 -0.6607 -0.2839
   58MPD2    H3  908   2.748   0.912  13.481 -1.7832  0.6527 -0.0244
   58MPD2     N  909   3.009   1.169  13.758 -0.4078 -0.3689 -0.0192
   58MPD2    H5  910   3.079   1.101  13.730 -0.0470 -0.0211  0.0358
   58MPD2    N1  911   2.550   1.254  13.689  0.1610  0.0879  0.3777
   58MPD2    H7  912   2.585   1.342  13.726 -1.4308  0.5143  0.9056
   59TMC2    C1  913   0.403   1.210  12.751  0.2215  0.1685 -0.2528
   59TMC2    C2  914   0.399   1.078  12.799  0.3564  0.0043 -0.5462
   59TMC2    C3  915   0.369   0.977  12.712 -0.2619 -0.1299  0.0776
   59TMC2    C4  916   0.394   1.239  12.620  0.5984  0.1063  0.2334
   59TMC2    C5  917   0.376   1.131  12.536 -0.2804 -0.3052  0.2604
   59TMC2    C6  918   0.355   1.000  12.575 -0.7480 -0.1573 -0.8458
   59TMC2     C  919   0.488   1.306  12.816 -0.0572 -0.1968 -0.4461
   59TMC2     O  920   0.599   1.269  12.853 -0.3408 -0.7638  0.0417
   59TMC2     H  921   0.429   1.050  12.900  2.6719  0.3503 -1.1409
   59TMC2    H1  922   0.433   1.335  12.588 -1.2004  0.8858  0.3698
   59TMC2    H2  923   0.337   0.921  12.503 -1.0732 -0.3600 -0.5372
   59TMC2    C7  924   0.377   1.156  12.392 -0.3853  0.4912 -0.4680
   59TMC2    C8  925   0.366   0.837  12.767  0.0742 -0.1956  0.4676
   59TMC2    O1  926   0.384   1.061  12.313 -0.2120  0.2292 -0.0268
   59TMC2    O2  927   0.407   0.803  12.877 -0.0428  0.3966 -0.2046
   59TMC2    O5  928   0.262   0.786  12.705 -0.0194 -0.2385  0.0060
   59TMC2    H5  929   0.231   0.856  12.644 -0.6070 -0.1430  0.4172
   60MPD2     C  930   0.419   1.661  12.887 -0.3288  0.9036  0.4732
   60MPD2    C1  931   0.486   1.546  12.892  0.2444 -0.4021  0.8817
   60MPD2    C2  932   0.606   1.554  12.966  0.4934 -0.1929 -0.5273
   60MPD2    C3  933   0.652   1.669  13.026 -0.0777  0.3610 -0.4085
   60MPD2    C4  934   0.571   1.785  13.026  0.0618  1.0990  0.1721
   60MPD2    C5  935   0.460   1.778  12.948 -0.5274  0.0866  0.6921
   60MPD2     H  936   0.679   1.473  12.963  0.4654 -0.2736  1.1561
   60MPD2    H1  937   0.598   1.880  13.071  1.6073 -1.0345  3.7506
   60MPD2    H2  938   0.316   1.666  12.855  0.0270  0.8029 -0.6748
   60MPD2    H3  939   0.392   1.862  12.934  0.4393  0.6895 -0.4485
   60MPD2     N  940   0.779   1.678  13.092 -0.6973 -0.2636 -0.3187
   60MPD2    H5  941   0.802   1.769  13.131 -0.6576 -0.0234 -0.9094
   60MPD2    N1  942   0.428   1.433  12.831  0.2275  0.2078 -0.1299
   60MPD2    H7  943   0.332   1.435  12.797  0.7437 -0.7782 -1.6363
   61TMC2    C1  944   4.092   3.011  15.355 -0.0965  0.7107 -0.9934
   61TMC2    C2  945   4.058   2.959  15.473  0.1528 -0.4351 -0.5449
   61TMC2    C3  946   4.092   3.028  15.587 -0.2619 -0.1676  0.3537
   61TMC2    C4  947   4.170   3.127  15.345 -0.4854  0.3465  0.1177
   61TMC2    C5  948   4.193   3.194  15.463  0.5971  0.0562  0.3708
   61TMC2    C6  949   4.156   3.148  15.583  0.1882  0.7830 -0.0558
   61TMC2     C  950   4.068   2.922  15.243 -0.5662  0.4864 -0.5534
   61TMC2     O  951   4.030   2.808  15.263 -0.1630  0.1341  0.1265
   61TMC2     H  952   3.997   2.870  15.487  0.6232 -0.6139  0.3523
   61TMC2    H1  953   4.218   3.162  15.255 -1.6759 -0.7245 -0.9467
   61TMC2    H2  954   4.182   3.196  15.677 -0.0645  1.3543 -0.2780
   61TMC2    C7  955   4.230   3.333  15.446 -0.0645  0.5246 -0.5771
   61TMC2    C8  956   4.065   2.963  15.718  0.4243 -0.0107  0.2419
   61TMC2    O1  957   4.234   3.381  15.336  0.0447 -0.2701  0.6088
   61TMC2    O2  958   4.074   2.842  15.735 -0.2486  0.4983  0.2984
   61TMC2    O5  959   4.037   3.050  15.810 -0.9346  0.1675  0.0794
   61TMC2    H5  960   4.041   3.141  15.772  1.0282  0.2606  0.5088
   62MPD2     C  961   4.107   2.783  14.980  0.2892  1.5045  0.6714
   62MPD2    C1  962   4.156   2.908  15.014  0.2830 -0.5525  0.4568
   62MPD2    C2  963   4.227   2.985  14.924  0.5476  0.1203  0.0979
   62MPD2    C3  964   4.256   2.928  14.804 -0.3782 -0.5413 -0.0401
   62MPD2    C4  965   4.210   2.805  14.765 -0.0383 -0.0200 -1.0406
   62MPD2    C5  966   4.140   2.730  14.855 -0.0211  0.2798  0.5485
   62MPD2     H  967   4.277   3.078  14.945  1.5030 -0.7377  1.5920
   62MPD2    H1  968   4.224   2.768  14.664  2.7393 -0.6047 -0.4378
   62MPD2    H2  969   4.043   2.728  15.048 -0.4004  1.6984  0.1846
   62MPD2    H3  970   4.111   2.628  14.833 -0.6068  0.8563 -1.3251
   62MPD2     N  971   4.334   3.004  14.707  0.3299 -0.0015  0.5484
   62MPD2    H5  972   4.329   2.978  14.609  0.9706 -2.8231  1.2739
   62MPD2    N1  973   4.124   2.973  15.130  0.6771  0.4188 -0.2774
   62MPD2    H7  974   4.158   3.069  15.130  2.0754 -0.0676 -1.2665
   63TMC2    C1  975   3.699   3.023  10.489 -0.6710 -0.4691 -0.3937
   63TMC2    C2  976   3.818   3.031  10.544 -0.5215 -0.2001 -0.0457
   63TMC2    C3  977   3.879   3.155  10.541 -0.4551 -0.3252 -0.0646
   63TMC2    C4  978   3.638   3.130  10.431  0.3332 -0.2931  0.1936
   63TMC2    C5  979   3.697   3.256  10.434  0.2790 -0.0249  0.6554
   63TMC2    C6  980   3.818   3.269  10.495  0.0864 -0.8252  0.0276
   63TMC2     C  981   3.625   2.898  10.499  0.5485  0.7250 -0.3388
   63TMC2     O  982   3.695   2.798  10.488  0.2570  0.1087  0.1702
   63TMC2     H  983   3.875   2.947  10.580  1.5916  0.1456 -2.5249
   63TMC2    H1  984   3.545   3.125  10.375  0.1587  0.7664  0.3845
   63TMC2    H2  985   3.880   3.358  10.506  0.4425 -0.9844 -0.7062
   63TMC2    C7  986   3.634   3.353  10.349  0.4602 -0.6561 -0.1902
   63TMC2    C8  987   4.015   3.164  10.589 -0.0990  0.3908  0.2280
   63TMC2    O1  988   3.541   3.319  10.282  0.1329  0.2193 -0.0120
   63TMC2    O2  989   4.060   3.096  10.679  0.4010 -0.2633  0.0972
   63TMC2    O5  990   4.090   3.240  10.512  0.7642 -0.0585 -0.0505
   63TMC2    H5  991   4.045   3.290  10.440 -0.9978  0.7961  1.6734
   64MPD2     C  992   3.203   2.617  10.574 -0.1676 -0.3881  0.1784
   64MPD2    C1  993   3.334   2.587  10.552 -0.2127  0.0008  0.5445
   64MPD2    C2  994   3.427   2.682  10.519  0.1501  0.8241  0.0376
   64MPD2    C3  995   3.400   2.812  10.537  0.3384  0.0757  0.0886
   64MPD2    C4  996   3.270   2.848  10.577 -0.4675  0.0980 -0.4772
   64MPD2    C5  997   3.175   2.746  10.580  0.4178 -0.4633  0.0857
   64MPD2     H  998   3.529   2.657  10.493 -0.6797  0.1464 -2.6061
   64MPD2    H1  999   3.245   2.953  10.588  1.4982  0.5125  0.0288
   64MPD2    H2 1000   3.127   2.540  10.577 -0.0698 -0.4590  0.9712
   64MPD2    H3 1001   3.071   2.769  10.600  0.9054  0.1546  1.9316
   64MPD2     N 1002   3.493   2.918  10.523  0.6638  0.0003 -0.0074
   64MPD2    H5 1003   3.456   3.012  10.523 -0.8944 -0.6074  1.3994
   64MPD2    N1 1004   3.388   2.454  10.564 -0.2587 -0.3183 -0.5702
   64MPD2    H7 1005   3.487   2.440  10.551  0.5698  1.6332  3.6256
   65TMC2    C1 1006   0.177   2.573  15.533 -0.2677  0.3634  0.3456
   65TMC2    C2 1007   0.140   2.506  15.418  0.2231 -0.1987 -0.1601
   65TMC2    C3 1008   0.117   2.584  15.303 -0.0856 -0.0582  0.7099
   65TMC2    C4 1009   0.178   2.708  15.537 -0.6706 -0.5889 -0.0660
   65TMC2    C5 1010   0.138   2.776  15.421  0.7388  0.5282  0.6491
   65TMC2    C6 1011   0.107   2.719  15.303 -0.4293 -0.2458  0.2345
   65TMC2     C 1012   0.187   2.502  15.663 -0.1265  0.3127  0.4611
   65TMC2     O 1013   0.163   2.573  15.760 -0.1836  0.0129 -0.6316
   65TMC2     H 1014   0.125   2.399  15.409  0.6615 -0.2316 -0.4489
   65TMC2    H1 1015   0.185   2.763  15.630  0.9829  0.7489 -0.9845
   65TMC2    H2 1016   0.072   2.773  15.216  1.0564  0.6231  0.1732
   65TMC2    C7 1017   0.162   2.912  15.416 -0.9528 -0.2011  0.7629
   65TMC2    C8 1018   0.021   2.515  15.219  0.0359 -0.1999  0.2194
   65TMC2    O1 1019   0.223   2.952  15.318  0.4708 -0.1911  0.3498
   65TMC2    O2 1020   4.670   2.428  15.259 -0.3576 -0.2608  0.2169
   65TMC2    O5 1021   0.068   2.519  15.094  0.1889  0.1453 -0.3972
   65TMC2    H5 1022   0.135   2.589  15.080 -1.1674  1.8768  1.7154
   66MPD2     C 1023   0.211   2.320  15.899 -0.6874  0.1000  0.8784
   66MPD2    C1 1024   0.218   2.279  15.764  0.4806 -0.0417  0.1034
   66MPD2    C2 1025   0.248   2.143  15.741  0.4398  0.0296  0.2732
   66MPD2    C3 1026   0.252   2.052  15.847  0.1477 -0.0886 -0.8232
   66MPD2    C4 1027   0.243   2.101  15.978 -0.2133 -0.0617  0.3266
   66MPD2    C5 1028   0.235   2.237  16.003  0.1576 -0.2298  0.4942
   66MPD2     H 1029   0.257   2.104  15.640 -0.7919 -1.9545  0.9252
   66MPD2    H1 1030   0.247   2.032  16.061  2.3359  0.0788  0.3261
   66MPD2    H2 1031   0.188   2.423  15.922 -1.3518  0.7136 -2.4145
   66MPD2    H3 1032   0.219   2.268  16.106 -1.4315  1.3441 -0.2430
   66MPD2     N 1033   0.268   1.913  15.837  0.0436 -0.3779  0.9598
   66MPD2    H5 1034   0.259   1.859  15.923  1.9527  0.6561  1.8145
   66MPD2    N1 1035   0.218   2.371  15.658  0.5882  0.4558  0.1078
   66MPD2    H7 1036   0.242   2.331  15.568 -0.4948 -0.6161  0.2835
   67TMC2    C1 1037   0.658   1.873  14.323 -0.0306 -0.7821  0.7181
   67TMC2    C2 1038   0.567   1.965  14.370 -0.5573 -0.5472  0.1139
   67TMC2    C3 1039   0.544   1.972  14.503  0.3692  0.5000  0.2005
   67TMC2    C4 1040   0.744   1.808  14.400 -0.1008  0.3791 -0.1907
   67TMC2    C5 1041   0.720   1.816  14.533 -0.0462 -0.2916 -0.5821
   67TMC2    C6 1042   0.619   1.895  14.583 -0.3458  0.4867  0.6862
   67TMC2     C 1043   0.686   1.884  14.178 -0.2374 -0.3581  0.0561
   67TMC2     O 1044   0.690   1.997  14.127  0.1318  0.0249  0.5061
   67TMC2     H 1045   0.514   2.022  14.294  0.3782 -0.1422 -0.2371
   67TMC2    H1 1046   0.825   1.754  14.352  0.7754  0.8028  0.7983
   67TMC2    H2 1047   0.606   1.906  14.690  1.4750 -1.4099  1.1191
   67TMC2    C7 1048   0.796   1.724  14.622 -0.3745 -0.1004 -0.3240
   67TMC2    C8 1049   0.488   2.085  14.561  0.6017  0.1071  0.4413
   67TMC2    O1 1050   0.854   1.632  14.559  0.7209 -0.2418  0.5778
   67TMC2    O2 1051   0.521   2.111  14.674 -0.6214 -0.0225 -0.7973
   67TMC2    O5 1052   0.378   2.130  14.496 -0.0636 -0.0889 -0.4343
   67TMC2    H5 1053   0.361   2.068  14.422 -2.2864  1.6040 -1.3501
   68MPD2     C 1054   0.794   1.806  13.916  0.7061 -0.3534 -0.0456
   68MPD2    C1 1055   0.718   1.725  13.992  0.5556  0.0236 -0.1190
   68MPD2    C2 1056   0.705   1.592  13.956 -0.0102 -0.1225  0.7133
   68MPD2    C3 1057   0.722   1.557  13.820 -0.6305 -0.3639 -0.6106
   68MPD2    C4 1058   0.778   1.645  13.729 -0.1098 -0.0747 -0.0718
   68MPD2    C5 1059   0.823   1.762  13.786  0.3424  0.1442  1.1575
   68MPD2     H 1060   0.658   1.524  14.025  1.0438 -1.0517  0.5092
   68MPD2    H1 1061   0.788   1.624  13.623  1.0515 -0.2190  0.0702
   68MPD2    H2 1062   0.820   1.906  13.949  1.2282 -0.0207 -1.4653
   68MPD2    H3 1063   0.864   1.841  13.725 -0.7878  0.5059  0.8525
   68MPD2     N 1064   0.666   1.441  13.768 -1.2390 -0.0925 -0.1875
   68MPD2    H5 1065   0.688   1.424  13.671  0.8350 -1.7472  0.5716
   68MPD2    N1 1066   0.679   1.754  14.123  0.1523 -0.4763 -0.0728
   68MPD2    H7 1067   0.659   1.682  14.192 -4.0376 -0.1790 -0.9615
   69TMC2    C1 1068   2.248   3.357  12.451 -0.1193  0.6062  0.0111
   69TMC2    C2 1069   2.135   3.410  12.396  0.4843 -0.0696  0.1147
   69TMC2    C3 1070   2.137   3.444  12.267  0.3236  0.2802  0.1707
   69TMC2    C4 1071   2.356   3.338  12.375 -0.0535 -0.2024 -0.0508
   69TMC2    C5 1072   2.349   3.351  12.248 -0.1209  0.2218 -0.7042
   69TMC2    C6 1073   2.244   3.408  12.189 -0.3012 -0.1381  0.5146
   69TMC2     C 1074   2.246   3.317  12.592 -0.3811 -0.8325 -0.5522
   69TMC2     O 1075   2.136   3.280  12.633 -0.5731 -0.0267  0.2214
   69TMC2     H 1076   2.049   3.440  12.454 -1.0260 -0.6374 -1.8374
   69TMC2    H1 1077   2.444   3.287  12.412 -0.0617  0.1782  0.4943
   69TMC2    H2 1078   2.229   3.415  12.081  0.8065  1.1212  0.4283
   69TMC2    C7 1079   2.461   3.302  12.170  0.3587 -0.3299 -0.3833
   69TMC2    C8 1080   2.016   3.484  12.207 -0.3881 -0.0057  0.4116
   69TMC2    O1 1081   2.526   3.212  12.217 -0.0529  0.1048  0.0709
   69TMC2    O2 1082   1.972   3.436  12.103 -0.4936 -0.0502 -0.4964
   69TMC2    O5 1083   1.985   3.603  12.266 -0.8584  0.5358 -0.2540
   69TMC2    H5 1084   2.052   3.626  12.335  1.9326 -0.9417 -2.4615
   70MPD2     C 1085   2.511   3.333  12.845 -0.0106  0.3120 -0.6069
   70MPD2    C1 1086   2.395   3.282  12.792 -0.3901  0.0310 -0.1882
   70MPD2    C2 1087   2.317   3.186  12.866  1.0430 -0.1700 -0.1326
   70MPD2    C3 1088   2.361   3.139  12.992  1.0169 -0.2748 -0.1280
   70MPD2    C4 1089   2.474   3.209  13.046  1.1544 -0.0240  0.2043
   70MPD2    C5 1090   2.544   3.295  12.972  0.3706 -0.0655  0.0798
   70MPD2     H 1091   2.229   3.146  12.816  0.5518  1.6991 -0.7646
   70MPD2    H1 1092   2.507   3.197  13.149 -1.5095 -1.6023  0.8814
   70MPD2    H2 1093   2.570   3.401  12.784 -1.0297  0.9867 -0.8560
   70MPD2    H3 1094   2.621   3.349  13.025 -0.8893 -0.0899  1.9375
   70MPD2     N 1095   2.311   3.029  13.062  0.8252 -0.4515  0.0657
   70MPD2    H5 1096   2.345   3.021  13.157 -0.3446 -0.9541  0.4354
   70MPD2    N1 1097   2.368   3.325  12.657  0.5542 -0.5807  0.2833
   70MPD2    H7 1098   2.444   3.366  12.605  0.6855 -0.6860  0.3919
   71TMC2    C1 1099   0.848   3.668   1.503  0.0460 -0.3162 -0.3122
   71TMC2    C2 1100   0.969   3.656   1.575 -0.3454  0.1648  0.1744
   71TMC2    C3 1101   0.969   3.691   1.706  0.4009 -0.2004  0.6301
   71TMC2    C4 1102   0.731   3.701   1.566 -0.2318  0.2707  0.6987
   71TMC2    C5 1103   0.732   3.718   1.696  0.5121 -0.0998 -0.1499
   71TMC2    C6 1104   0.848   3.720   1.770 -0.1335 -0.4454  0.5860
   71TMC2     C 1105   0.846   3.658   1.358  0.2329 -0.2760  0.1754
   71TMC2     O 1106   0.748   3.622   1.298 -0.5803  0.4549  0.7020
   71TMC2     H 1107   1.057   3.622   1.523 -0.4152 -0.4379  0.4521
   71TMC2    H1 1108   0.641   3.692   1.505 -0.0010  0.7851  0.2790
   71TMC2    H2 1109   0.835   3.737   1.876 -0.0739 -2.6015  0.9358
   71TMC2    C7 1110   0.604   3.729   1.772  0.7491  0.3310  0.4412
   71TMC2    C8 1111   1.079   3.663   1.793  0.3521 -0.3960 -0.1786
   71TMC2    O1 1112   0.618   3.742   1.893  0.2248  0.0420 -0.1165
   71TMC2    O2 1113   1.174   3.588   1.771 -0.5498  0.0505  0.4243
   71TMC2    O5 1114   1.081   3.763   1.882 -0.1597  0.3443  0.4072
   71TMC2    H5 1115   1.001   3.819   1.892  0.3289  1.0189  0.4810
   72MPD2     C 1116   1.100   3.653   0.919 -0.0772 -0.4456  0.4494
   72MPD2    C1 1117   0.976   3.598   0.953 -0.2284 -0.5569 -0.7416
   72MPD2    C2 1118   0.939   3.597   1.091 -0.3155  0.5262 -0.1566
   72MPD2    C3 1119   1.011   3.662   1.182  0.4172  0.7252 -0.2748
   72MPD2    C4 1120   1.128   3.711   1.144  0.4993  0.0459  0.4798
   72MPD2    C5 1121   1.176   3.697   1.016 -0.4145  1.1013  0.5077
   72MPD2     H 1122   0.841   3.559   1.117 -1.3383  2.2970 -1.4074
   72MPD2    H1 1123   1.189   3.768   1.212  0.6220 -0.3216  0.6735
   72MPD2    H2 1124   1.143   3.643   0.820  0.6519 -2.8694  0.9982
   72MPD2    H3 1125   1.270   3.742   0.986 -0.8372  1.8192  0.2557
   72MPD2     N 1126   0.974   3.682   1.313  0.2945  0.4578 -0.5518
   72MPD2    H5 1127   1.033   3.731   1.379  1.1813  0.3767 -1.2819
   72MPD2    N1 1128   0.888   3.532   0.860 -0.6907 -0.1898  0.2780
   72MPD2    H7 1129   0.806   3.490   0.901 -0.6350  0.7757  1.3740
   73TMC2    C1 1130   4.279   0.190  13.555 -0.5229 -0.2611  0.0625
   73TMC2    C2 1131   4.243   0.177  13.686 -0.2648  0.8416 -0.3443
   73TMC2    C3 1132   4.122   0.119  13.712  0.1103  0.2688 -0.6924
   73TMC2    C4 1133   4.194   0.134  13.458 -0.4965 -1.0764 -0.0766
   73TMC2    C5 1134   4.081   0.067  13.487 -0.0569 -0.2537  0.0601
   73TMC2    C6 1135   4.038   0.061  13.616  0.6384 -0.5864 -0.1804
   73TMC2     C 1136   4.417   0.152  13.525 -0.3882 -0.1073 -0.6036
   73TMC2     O 1137   4.424   0.088  13.420  0.0808 -0.0026 -0.1693
   73TMC2     H 1138   4.299   0.229  13.763 -1.7492  2.7038 -0.5174
   73TMC2    H1 1139   4.216   0.140  13.352 -0.3975 -0.1567 -0.0093
   73TMC2    H2 1140   3.943   0.012  13.637  0.3311 -0.3215 -0.9240
   73TMC2    C7 1141   4.060   4.680  13.402 -0.0890  0.7548  0.9226
   73TMC2    C8 1142   4.110   0.074  13.852  0.0731 -0.2591  0.7418
   73TMC2    O1 1143   3.949   4.646  13.364 -0.1625  0.5549  0.2655
   73TMC2    O2 1144   4.207   0.031  13.917 -0.3752 -0.0639 -0.4365
   73TMC2    O5 1145   3.991   0.097  13.892  0.3480  0.1645 -0.1113
   73TMC2    H5 1146   3.950   0.145  13.816  0.1882 -0.4783 -0.4289
   74MPD2     C 1147   0.184   0.126  13.530 -0.5006  0.1181  0.6956
   74MPD2    C1 1148   0.090   0.049  13.460  0.2100 -0.1487  0.8334
   74MPD2    C2 1149   4.691   0.061  13.503  0.1210  0.2716 -0.4515
   74MPD2    C3 1150   4.645   0.145  13.604 -0.1345  0.6083  0.0947
   74MPD2    C4 1151   0.013   0.202  13.678 -0.4750 -0.0558  0.0674
   74MPD2    C5 1152   0.146   0.192  13.648 -0.4083 -0.0879 -0.0233
   74MPD2     H 1153   4.618   4.723  13.459  0.3619  0.6603 -1.4431
   74MPD2    H1 1154   4.717   0.266  13.762 -1.1721 -0.2269 -0.0075
   74MPD2    H2 1155   0.285   0.124  13.491  0.2217 -3.3438  2.7146
   74MPD2    H3 1156   0.216   0.222  13.725 -2.6152  2.2714  1.0613
   74MPD2     N 1157   4.511   0.175  13.620 -0.1321  0.5090  0.0087
   74MPD2    H5 1158   4.485   0.233  13.699 -1.9671  1.1397 -1.0659
   74MPD2    N1 1159   0.132   4.693  13.353 -0.5205  0.0136  0.3791
   74MPD2    H7 1160   0.231   4.682  13.333 -0.5770  0.0359  0.0877
   75TMC2    C1 1161   0.496   1.285  13.748 -0.9579  0.2619 -0.1692
   75TMC2    C2 1162   0.562   1.201  13.670  0.3772 -0.0652  0.3192
   75TMC2    C3 1163   0.485   1.120  13.591 -0.0116 -0.0389  0.5585
   75TMC2    C4 1164   0.361   1.297  13.750 -0.1848 -0.0055 -0.4897
   75TMC2    C5 1165   0.282   1.222  13.660  0.0230  0.1142  1.5092
   75TMC2    C6 1166   0.350   1.138  13.575 -0.2104 -0.5876  0.8240
   75TMC2     C 1167   0.569   1.374  13.835 -0.6836 -0.0533 -0.4307
   75TMC2     O 1168   0.502   1.402  13.935  0.0417  0.3887 -0.6305
   75TMC2     H 1169   0.670   1.200  13.678  0.3565 -1.6793  0.4600
   75TMC2    H1 1170   0.319   1.370  13.819 -0.3046 -0.0030 -0.5653
   75TMC2    H2 1171   0.297   1.083  13.498  1.6560  1.4833 -1.9850
   75TMC2    C7 1172   0.167   1.288  13.600  0.1234 -0.3176 -0.9324
   75TMC2    C8 1173   0.528   0.995  13.556 -0.5312 -0.0897  0.0915
   75TMC2    O1 1174   0.146   1.257  13.485  0.3321 -0.1752 -0.2553
   75TMC2    O2 1175   0.454   0.918  13.505  0.5137 -0.1648  0.1195
   75TMC2    O5 1176   0.621   0.959  13.642  0.6978 -0.2666 -0.4535
   75TMC2    H5 1177   0.655   1.022  13.709 -1.3117 -0.8627  1.1184
   76TMC2    C1 1178   3.820   2.205  11.766 -0.1353 -0.0515 -0.4766
   76TMC2    C2 1179   3.947   2.243  11.752 -0.7169  0.2040 -0.1835
   76TMC2    C3 1180   4.030   2.152  11.696 -0.1183 -0.4241 -1.4542
   76TMC2    C4 1181   3.769   2.081  11.726 -0.6983  0.9284 -1.0420
   76TMC2    C5 1182   3.859   2.000  11.661  0.4906 -0.1002  0.0873
   76TMC2    C6 1183   3.983   2.042  11.641  0.1240 -0.0455 -0.1329
   76TMC2     C 1184   3.710   2.288  11.809  0.6136  0.3348 -0.3378
   76TMC2     O 1185   3.599   2.257  11.780  0.4826 -0.3350 -0.4144
   76TMC2     H 1186   3.994   2.327  11.802 -1.0743  0.7479 -0.7646
   76TMC2    H1 1187   3.671   2.040  11.751  1.1247 -1.9963  1.3900
   76TMC2    H2 1188   4.052   1.966  11.607 -1.1024 -0.9713 -0.5289
   76TMC2    C7 1189   3.837   1.861  11.687 -0.6985  0.3194  0.7209
   76TMC2    C8 1190   4.170   2.178  11.678  0.2524 -0.2422 -1.1464
   76TMC2    O1 1191   3.795   1.788  11.597  0.5698  0.0471  0.5754
   76TMC2    O2 1192   4.249   2.083  11.667  0.0304  0.0412 -0.0617
   76TMC2    O5 1193   4.179   2.287  11.605  0.3869  0.1382 -0.6066
   76TMC2    H5 1194   4.096   2.333  11.583  0.6924  1.6255  1.4021
   77MPD2     C 1195   3.541   2.725  12.029  0.0303 -0.3544  0.3141
   77MPD2    C1 1196   3.488   2.646  11.926 -0.5727  0.3373 -0.7725
   77MPD2    C2 1197   3.558   2.534  11.875  0.1015  0.1966  0.4085
   77MPD2    C3 1198   3.686   2.504  11.917  0.1392  0.3191 -0.2147
   77MPD2    C4 1199   3.740   2.583  12.017  0.1603 -0.0304 -0.5656
   77MPD2    C5 1200   3.668   2.695  12.065 -0.6442  0.1286  0.0989
   77MPD2     H 1201   3.511   2.471  11.800  1.3345 -0.1683 -0.0643
   77MPD2    H1 1202   3.839   2.558  12.054 -0.5848 -2.0871  0.0761
   77MPD2    H2 1203   3.500   2.811  12.080  2.5287  0.3738  1.1107
   77MPD2    H3 1204   3.705   2.756  12.146 -0.3113 -1.8906  1.4761
   77MPD2     N 1205   3.757   2.400  11.875 -0.7564  0.4781  0.3353
   77MPD2    H5 1206   3.852   2.386  11.909 -0.4115  0.8975 -0.4723
   77MPD2    N1 1207   3.364   2.680  11.869  0.3293 -0.7980  0.2849
   77MPD2    H7 1208   3.327   2.626  11.792  0.5866 -0.3507 -0.1499
   78TMC2    C1 1209   0.168   3.407   1.872 -0.5384 -0.2094 -0.4206
   78TMC2    C2 1210   0.167   3.451   2.001 -0.0613 -0.3951 -0.1538
   78TMC2    C3 1211   0.280   3.475   2.067 -0.7119  0.3920 -0.0226
   78TMC2    C4 1212   0.288   3.372   1.811 -0.7501  0.4334 -0.0557
   78TMC2    C5 1213   0.404   3.413   1.882 -0.3004  0.1375  0.0368
   78TMC2    C6 1214   0.403   3.463   2.010  0.6075 -0.5414 -0.0673
   78TMC2     C 1215   0.038   3.411   1.799  0.4487  0.1343  0.0676
   78TMC2     O 1216   4.669   3.463   1.858 -0.6723  0.3590 -0.0019
   78TMC2     H 1217   0.076   3.471   2.058 -0.9723 -0.7916 -1.4601
   78TMC2    H1 1218   0.291   3.341   1.707 -1.9213  0.9986 -0.2687
   78TMC2    H2 1219   0.489   3.524   2.034  0.2491  0.0457 -0.2682
   78TMC2    C7 1220   0.528   3.373   1.823 -0.4780  0.0516  0.8920
   78TMC2    C8 1221   0.271   3.514   2.204  0.2279 -0.3857  0.3263
   78TMC2    O1 1222   0.523   3.338   1.709  0.3251  0.0058  0.6706
   78TMC2    O2 1223   0.165   3.545   2.262 -0.2731 -0.2632  0.3411
   78TMC2    O5 1224   0.386   3.504   2.267  0.8484 -0.2307  0.4469
   78TMC2    H5 1225   0.448   3.439   2.226 -2.3173 -2.6725 -0.4676
   79MPD1     C 1226   4.442   3.282   1.420 -0.0373  0.0525 -0.2040
   79MPD1    C1 1227   4.419   3.349   1.536  0.1970 -0.3367 -0.4871
   79MPD1    C2 1228   4.525   3.370   1.623  0.0176 -0.3098 -0.8953
   79MPD1    C3 1229   4.654   3.313   1.600 -0.1068  0.1458  0.3368
   79MPD1    C4 1230   4.676   3.244   1.485  1.0595  0.3919 -0.2074
   79MPD1    C5 1231   4.570   3.224   1.397 -0.4399 -0.0250  0.2469
   79MPD1     H 1232   4.510   3.429   1.713 -1.5828  0.1733 -1.4725
   79MPD1    H1 1233   0.044   3.197   1.467 -0.4231 -3.3457  1.5724
   79MPD1    H2 1234   4.362   3.254   1.353 -1.2480  0.2584  1.1823
   79MPD1    H3 1235   4.589   3.169   1.306  0.6759  2.0813 -0.8082
   79MPD1     N 1236   0.030   3.323   1.699  0.1045 -0.7472  0.3318
   79MPD1    H5 1237   0.111   3.265   1.684 -0.4131 -1.1980 -0.7478
   79MPD1    N1 1238   4.288   3.383   1.579 -0.1158  0.0165  0.1931
   79MPD1    H6 1239   4.278   3.461   1.644  1.6660  1.4844 -1.3125
   79MPD1    H7 1240   4.225   3.403   1.502 -1.5845  0.5915  1.5560
   80TMC2    C1 1241   3.029   2.006  11.911  0.0919 -0.8756  0.1820
   80TMC2    C2 1242   3.099   1.929  11.824  0.0469 -0.2187 -0.2103
   80TMC2    C3 1243   3.040   1.880  11.714 -0.2706  0.1731 -0.0014
   80TMC2    C4 1244   2.899   2.036  11.880 -0.3221 -0.5055  0.6664
   80TMC2    C5 1245   2.839   1.993  11.761  0.9301  0.3338 -0.6702
   80TMC2    C6 1246   2.909   1.904  11.681  1.1971  0.4365  0.2604
   80TMC2     C 1247   3.093   2.045  12.038 -0.0578  0.5771  0.2167
   80TMC2     O 1248   3.201   1.990  12.067 -0.1551 -0.9750  0.4400
   80TMC2     H 1249   3.198   1.900  11.855 -0.3253 -2.2890 -0.9136
   80TMC2    H1 1250   2.859   2.123  11.931 -1.5886 -0.8014  0.1661
   80TMC2    H2 1251   2.863   1.872  11.589  0.0742  0.8288  0.6766
   80TMC2    C7 1252   2.699   1.961  11.765  0.2359  0.0604 -0.5889
   80TMC2    C8 1253   3.130   1.832  11.615 -0.2536  0.4663  0.4206
   80TMC2    O1 1254   2.629   2.003  11.675 -0.3753  0.5172  0.0107
   80TMC2    O2 1255   3.086   1.784  11.513 -0.3721 -0.3441 -0.2657
   80TMC2    O5 1256   3.227   1.919  11.619  0.2016  0.3133 -0.1650
   80TMC2    H5 1257   3.251   1.953  11.707 -2.1399  1.0264  0.1909
   81MPD2     C 1258   3.131   2.134  12.328 -0.8496 -0.5960  0.0752
   81MPD2    C1 1259   3.024   2.162  12.247 -0.0087  0.5118 -0.1084
   81MPD2    C2 1260   2.914   2.226  12.298  0.2040 -0.2049  0.4390
   81MPD2    C3 1261   2.909   2.264  12.436 -0.0548  0.7186 -0.9239
   81MPD2    C4 1262   3.008   2.215  12.515  0.1101  0.2114 -0.0698
   81MPD2    C5 1263   3.119   2.159  12.463  0.3552 -0.3268 -1.3517
   81MPD2     H 1264   2.829   2.246  12.234  0.8678 -0.3535 -0.4927
   81MPD2    H1 1265   3.008   2.230  12.623 -0.9043 -3.1314  0.3690
   81MPD2    H2 1266   3.222   2.089  12.293  0.3572  0.2010  2.1652
   81MPD2    H3 1267   3.207   2.138  12.523 -0.3453  1.1276  0.1704
   81MPD2     N 1268   2.815   2.353  12.492  0.1299  0.3727 -0.1560
   81MPD2    H5 1269   2.813   2.363  12.593 -0.9091 -1.2385 -0.0033
   81MPD2    N1 1270   3.011   2.133  12.105 -0.3397  0.8351  0.8694
   81MPD2    H7 1271   2.934   2.174  12.052 -1.6076 -1.1474  1.2021
   82TMC2    C1 1272   0.205   1.223  11.252 -0.3181 -0.2638  1.0508
   82TMC2    C2 1273   0.159   1.288  11.366 -0.6164  0.3590  0.2967
   82TMC2    C3 1274   0.210   1.255  11.487  0.1602  0.1417  0.2217
   82TMC2    C4 1275   0.294   1.118  11.269  0.8905  0.3688 -0.6830
   82TMC2    C5 1276   0.338   1.075  11.388 -0.5180 -0.3855 -0.3288
   82TMC2    C6 1277   0.295   1.141  11.502  0.3260  0.3981 -0.1313
   82TMC2     C 1278   0.204   1.292  11.128 -0.2434 -0.0898  0.4913
   82TMC2     O 1279   0.117   1.371  11.102 -0.5624  0.2399  0.2363
   82TMC2     H 1280   0.093   1.373  11.361 -0.0806  0.7800  0.4168
   82TMC2    H1 1281   0.320   1.060  11.181  1.0556 -1.2076  0.4092
   82TMC2    H2 1282   0.319   1.104  11.601  0.0176 -1.3707 -0.7222
   82TMC2    C7 1283   0.371   0.933  11.413  0.2126 -0.2625 -0.9300
   82TMC2    C8 1284   0.152   1.332  11.593 -0.2214 -0.5542 -0.4501
   82TMC2    O1 1285   0.376   0.891  11.531  0.4012 -0.4726  0.0823
   82TMC2    O2 1286   0.103   1.445  11.578 -0.1232  0.4700 -0.3448
   82TMC2    O5 1287   0.215   1.293  11.703 -0.4175 -0.0204 -0.3208
   82TMC2    H5 1288   0.228   1.196  11.695  2.0199  0.3353 -0.6633
   83MPD2     C 1289   0.414   1.401  10.671  0.0025 -0.0475 -0.2153
   83MPD2    C1 1290   0.284   1.394  10.704  0.2855  0.2695  0.3794
   83MPD2    C2 1291   0.252   1.357  10.834  0.3617  0.3458 -0.2819
   83MPD2    C3 1292   0.347   1.329  10.932  0.9451  0.6716  0.3662
   83MPD2    C4 1293   0.478   1.326  10.891  0.6312  0.6833  0.3261
   83MPD2    C5 1294   0.512   1.370  10.765 -0.5934  0.3792  0.4757
   83MPD2     H 1295   0.148   1.352  10.865  0.5714 -1.8929  0.0475
   83MPD2    H1 1296   0.559   1.302  10.957  0.4841 -0.4559  0.0952
   83MPD2    H2 1297   0.442   1.420  10.568 -0.4026  1.4329 -0.0595
   83MPD2    H3 1298   0.616   1.391  10.740 -1.1127  2.3139 -0.0785
   83MPD2     N 1299   0.324   1.279  11.060  0.2766  0.0133  0.6297
   83MPD2    H5 1300   0.402   1.241  11.112  1.1916  1.6121  0.4242
   83MPD2    N1 1301   0.196   1.428  10.605 -0.8657 -0.1996 -0.8283
   83MPD2    H7 1302   0.255   1.461  10.529 -2.2217  2.9024 -0.4937
   84TMC2    C1 1303   1.836   0.682  11.004  0.1933 -0.2848  0.4895
   84TMC2    C2 1304   1.890   0.664  11.127  0.0854  0.2635  0.2837
   84TMC2    C3 1305   1.955   0.544  11.155  0.0319  0.3298  0.3194
   84TMC2    C4 1306   1.847   0.587  10.905  0.1114 -0.0145 -0.3961
   84TMC2    C5 1307   1.912   0.473  10.941 -0.3169 -0.4587  0.3656
   84TMC2    C6 1308   1.965   0.440  11.069  0.3683  0.4031  0.1520
   84TMC2     C 1309   1.787   0.809  10.957  0.6905  0.1036 -0.6252
   84TMC2     O 1310   1.773   0.816  10.834  0.2911 -0.2408 -0.0713
   84TMC2     H 1311   1.890   0.742  11.202  3.0427  1.1240 -0.6071
   84TMC2    H1 1312   1.842   0.613  10.800 -0.7292 -0.1678 -0.3939
   84TMC2    H2 1313   1.986   0.339  11.101 -2.4055 -0.0594  0.4907
   84TMC2    C7 1314   1.887   0.356  10.863 -0.2126  0.0222  0.5603
   84TMC2    C8 1315   2.037   0.542  11.271  0.1748  0.5983  0.3807
   84TMC2    O1 1316   1.953   0.255  10.892 -0.1248  0.2044 -0.5961
   84TMC2    O2 1317   2.011   0.585  11.381  0.4497 -0.3898 -0.1055
   84TMC2    O5 1318   2.156   0.542  11.207 -0.3253 -0.6305 -0.5657
   84TMC2    H5 1319   2.147   0.537  11.110  1.8863  2.8701 -0.9346
   85TMC2    C1 1320   2.324   3.349  15.462  0.3958 -0.1107  0.2460
   85TMC2    C2 1321   2.262   3.273  15.373 -0.6352  0.2146 -0.0588
   85TMC2    C3 1322   2.244   3.321  15.247  0.0830 -0.0476 -0.7447
   85TMC2    C4 1323   2.368   3.475  15.436  0.1828 -0.1446 -0.1322
   85TMC2    C5 1324   2.332   3.524  15.314 -0.2965  0.1013 -0.1857
   85TMC2    C6 1325   2.269   3.451  15.214 -0.7894 -0.1121  0.5692
   85TMC2     C 1326   2.340   3.309  15.596  0.4594  0.2556 -0.0703
   85TMC2     O 1327   2.439   3.346  15.656  0.1217  0.4064  0.2994
   85TMC2     H 1328   2.255   3.165  15.383  2.0748 -0.0710 -1.4054
   85TMC2    H1 1329   2.415   3.541  15.508 -0.2563  1.2970 -1.1633
   85TMC2    H2 1330   2.263   3.479  15.110  1.3633 -1.0625  0.1729
   85TMC2    C7 1331   2.408   3.644  15.272 -0.1075 -0.0209 -1.1676
   85TMC2    C8 1332   2.193   3.243  15.146  0.0247  0.4211  0.4134
   85TMC2    O1 1333   2.499   3.679  15.345  0.2000  0.0273  0.2574
   85TMC2    O2 1334   2.241   3.236  15.037  0.4088  0.2571 -0.5527
   85TMC2    O5 1335   2.084   3.180  15.189  0.5681 -0.3580 -0.1766
   85TMC2    H5 1336   2.066   3.202  15.283  1.9131  0.4786 -0.1104
   86MPD2     C 1337   2.159   3.108  16.022  0.1663 -0.1807 -0.2531
   86MPD2    C1 1338   2.062   3.085  15.928 -0.0879  0.0652  0.0680
   86MPD2    C2 1339   2.088   3.128  15.795 -0.0003 -1.2789 -0.0435
   86MPD2    C3 1340   2.216   3.182  15.767  0.6964  0.3944  1.8759
   86MPD2    C4 1341   2.314   3.192  15.860  0.3214 -0.4689  0.6585
   86MPD2    C5 1342   2.284   3.154  15.986 -0.3331 -0.0792  0.2809
   86MPD2     H 1343   2.000   3.129  15.732 -1.0337 -0.9566  1.3788
   86MPD2    H1 1344   2.418   3.210  15.835  1.5406 -2.8934  3.9903
   86MPD2    H2 1345   2.147   3.080  16.126 -0.5738 -2.6029 -0.9889
   86MPD2    H3 1346   2.360   3.158  16.063  0.8933  2.5637 -1.0596
   86MPD2     N 1347   2.230   3.228  15.634 -0.5559  0.1057  0.4345
   86MPD2    H5 1348   2.152   3.220  15.569  1.2889  1.0718 -1.8909
   86MPD2    N1 1349   1.943   3.013  15.953 -0.1594  0.6989  0.1088
   86MPD2    H7 1350   1.891   2.993  15.868 -0.5665  0.1587  0.4865
   87TMC2    C1 1351   0.401   1.447   1.218 -1.0458 -0.1802 -0.4032
   87TMC2    C2 1352   0.464   1.377   1.318 -0.0177 -0.4644  0.3598
   87TMC2    C3 1353   0.455   1.432   1.441 -0.2689  0.4205 -0.8331
   87TMC2    C4 1354   0.338   1.566   1.239  0.4998  0.3365  0.5877
   87TMC2    C5 1355   0.319   1.617   1.365 -0.3744 -0.1874  0.9554
   87TMC2    C6 1356   0.385   1.546   1.469  0.0859 -0.5361  0.4012
   87TMC2     C 1357   0.416   1.390   1.087  0.4166  0.0324  0.0600
   87TMC2     O 1358   0.496   1.300   1.065  0.3408  0.5012 -0.1276
   87TMC2     H 1359   0.520   1.286   1.300 -0.3438 -0.7483  0.7920
   87TMC2    H1 1360   0.306   1.625   1.154  3.0842  0.3768 -0.3799
   87TMC2    H2 1361   0.366   1.583   1.569  0.9829 -1.1451  0.7950
   87TMC2    C7 1362   0.291   1.758   1.373 -0.4307 -0.2498 -0.1128
   87TMC2    C8 1363   0.508   1.350   1.546  0.4004 -0.0050  0.5232
   87TMC2    O1 1364   0.229   1.809   1.278 -0.2118 -0.5923 -0.0722
   87TMC2    O2 1365   0.557   1.396   1.642 -0.2259  0.0381  0.0186
   87TMC2    O5 1366   0.442   1.229   1.546 -0.2380 -0.0030 -0.5834
   87TMC2    H5 1367   0.384   1.202   1.471 -1.3842  0.7588  0.0341
   88MPD2     C 1368   0.475   1.999   1.554  0.2892  0.5227  0.3426
   88MPD2    C1 1369   0.363   1.951   1.489  0.1586 -0.6841 -0.5714
   88MPD2    C2 1370   0.274   2.041   1.432 -0.3150  0.6970 -0.4731
   88MPD2    C3 1371   0.290   2.179   1.426  0.2148  0.0240  0.0081
   88MPD2    C4 1372   0.409   2.217   1.480  0.2314  0.5626 -0.1832
   88MPD2    C5 1373   0.495   2.133   1.547 -0.2591  0.0197  0.0396
   88MPD2     H 1374   0.188   1.993   1.386  2.0666 -2.8285 -1.2313
   88MPD2    H1 1375   0.435   2.322   1.475  1.0054  0.3994  0.4757
   88MPD2    H2 1376   0.559   1.951   1.604  0.6814 -2.8365 -3.5276
   88MPD2    H3 1377   0.584   2.178   1.590 -0.2757 -0.2462  0.3566
   88MPD2     N 1378   0.200   2.279   1.376  0.1588 -0.0828 -0.4888
   88MPD2    H5 1379   0.229   2.377   1.374 -1.3501  0.3032 -3.0021
   88MPD2    N1 1380   0.357   1.814   1.473  0.4293 -0.9796 -0.0736
   88MPD2    H7 1381   0.423   1.757   1.525  2.9042  0.3404 -1.7585
   89TMC2    C1 1382   1.154   4.610   1.508 -0.2775 -0.2167 -0.7181
   89TMC2    C2 1383   1.210   4.497   1.561 -0.0869  0.2122 -0.2507
   89TMC2    C3 1384   1.289   4.427   1.475  0.0168  0.2096 -0.9252
   89TMC2    C4 1385   1.177   4.652   1.379  0.3651  0.7797 -0.0010
   89TMC2    C5 1386   1.255   4.573   1.301 -0.0246  0.1084 -0.5841
   89TMC2    C6 1387   1.325   4.464   1.352  0.9606  0.1827  0.5690
   89TMC2     C 1388   1.037   4.658   1.579  0.6080 -0.3509 -0.0615
   89TMC2     O 1389   1.002   0.041   1.554  0.2820  0.1825  0.2054
   89TMC2     H 1390   1.181   4.455   1.657 -2.6613 -1.6378 -1.8319
   89TMC2    H1 1391   1.102   4.717   1.334 -0.2111  0.5602  0.6449
   89TMC2    H2 1392   1.379   4.398   1.286  0.3775  1.0855 -0.7967
   89TMC2    C7 1393   1.241   4.585   1.157 -0.0664  0.8936 -0.7158
   89TMC2    C8 1394   1.330   4.287   1.504 -0.6065 -0.7159 -0.1966
   89TMC2    O1 1395   1.279   4.493   1.091 -0.3762  0.5942  0.1446
   89TMC2    O2 1396   1.352   4.203   1.418 -0.7720 -0.2995  0.6424
   89TMC2    O5 1397   1.363   4.277   1.631  0.6798 -0.1668  0.2518
   89TMC2    H5 1398   1.389   4.364   1.669 -0.0767  1.4229 -2.8146
   90MPD2     C 1399   0.662   4.597   1.932  0.2928  0.0320 -0.3163
   90MPD2    C1 1400   0.680   4.482   1.876  0.6786 -0.0073  0.0526
   90MPD2    C2 1401   0.787   4.477   1.784  0.1274 -0.2563  0.1347
   90MPD2    C3 1402   0.872   4.580   1.746 -0.3765  0.5151  0.2254
   90MPD2    C4 1403   0.848   4.699   1.805 -1.2499  0.1871  0.4931
   90MPD2    C5 1404   0.743   4.708   1.897  0.0879  0.0792 -0.3690
   90MPD2     H 1405   0.810   4.381   1.739  0.6100  0.1909 -0.5878
   90MPD2    H1 1406   0.902   0.062   1.791 -0.7660 -0.3599 -1.1283
   90MPD2    H2 1407   0.574   4.615   1.993  0.6424  0.1785  0.1487
   90MPD2    H3 1408   0.706   0.070   1.943 -1.9466 -1.8954  1.8963
   90MPD2     N 1409   0.969   4.557   1.648 -0.0933  0.0268  0.2444
   90MPD2    H5 1410   0.990   4.459   1.634  1.0677  0.1567  1.1009
   90MPD2    N1 1411   0.587   4.377   1.899 -0.5889 -0.7381 -0.1151
   90MPD2    H7 1412   0.508   4.405   1.956 -0.9359 -0.2874 -0.8189
   91TMC2    C1 1413   2.232   0.107  16.874  0.0856  0.3422  0.1392
   91TMC2    C2 1414   2.196   0.237  16.860  0.6643 -0.0595 -0.9865
   91TMC2    C3 1415   2.106   0.258  16.757  1.3401 -0.5790  0.5143
   91TMC2    C4 1416   2.211   0.002  16.784 -0.5517  0.1417 -0.2847
   91TMC2    C5 1417   2.128   0.028  16.684 -0.3251 -0.3135 -0.7751
   91TMC2    C6 1418   2.082   0.156  16.667  0.3531  0.3390  0.4851
   91TMC2     C 1419   2.318   0.081  16.984  0.2552 -0.1965 -1.5123
   91TMC2     O 1420   2.272   0.123  17.087 -0.3414 -0.0463 -0.4360
   91TMC2     H 1421   2.213   0.312  16.936 -1.1907  1.2162 -1.8230
   91TMC2    H1 1422   2.241   4.629  16.802 -0.8246  0.0251 -0.4978
   91TMC2    H2 1423   2.017   0.182  16.584  0.2958 -1.7073 -0.1142
   91TMC2    C7 1424   2.061   4.647  16.619 -1.2890 -0.6685 -0.5728
   91TMC2    C8 1425   2.037   0.383  16.734  0.0961 -0.2649  0.4315
   91TMC2    O1 1426   2.055   4.547  16.685 -0.6522 -0.8242 -0.1554
   91TMC2    O2 1427   2.066   0.450  16.637 -0.7571  0.1934 -0.2616
   91TMC2    O5 1428   2.018   0.429  16.860 -0.7900  0.4728  0.1232
   91TMC2    H5 1429   2.009   0.361  16.929 -1.9084  0.5997  0.0995
   92MPD2     C 1430   2.527   0.014  17.178 -0.8283  0.7839  0.1937
   92MPD2    C1 1431   2.531   4.704  17.048 -0.5269  0.3237 -0.1088
   92MPD2    C2 1432   2.634   4.616  17.005 -0.2751 -0.0429 -0.1405
   92MPD2    C3 1433   2.746   4.599  17.084 -0.0266 -0.0500  0.3044
   92MPD2    C4 1434   2.745   4.648  17.208 -0.0050  0.1076 -0.6926
   92MPD2    C5 1435   2.632   4.708  17.258 -0.4073  0.2010  0.9410
   92MPD2     H 1436   2.630   4.578  16.903  0.1149 -4.3193  1.4630
   92MPD2    H1 1437   2.827   4.643  17.277  0.1380  0.1552 -0.8597
   92MPD2    H2 1438   2.443   0.071  17.217  0.1657  0.5427  2.6643
   92MPD2    H3 1439   2.628   0.025  17.356 -3.5949  1.4177  0.2353
   92MPD2     N 1440   2.850   4.522  17.031  0.1611 -0.3252 -0.0440
   92MPD2    H5 1441   2.843   4.480  16.939  3.4952 -0.4138 -0.2471
   92MPD2    N1 1442   2.430   0.004  16.952  0.3415  0.2327  0.1088
   92MPD2    H7 1443   2.445   4.704  16.856  0.3957  0.6908 -0.0250
   93TMC2    C1 1444   4.559   4.598  13.775 -0.8818  0.1998  0.0862
   93TMC2    C2 1445   4.520   4.650  13.895  0.4736 -0.2226 -0.5546
   93TMC2    C3 1446   4.627   4.684  13.982 -0.4398 -0.1959 -0.3234
   93TMC2    C4 1447   4.685   4.579  13.740  1.0871 -0.5545 -0.1052
   93TMC2    C5 1448   0.053   4.607  13.833  0.3114 -0.8129 -0.0210
   93TMC2    C6 1449   0.032   4.669  13.954  0.5133 -0.6598 -0.7790
   93TMC2     C 1450   4.465   4.517  13.698 -0.3178 -0.0599 -0.0294
   93TMC2     O 1451   4.504   4.469  13.596  0.9391 -0.2726 -0.1300
   93TMC2     H 1452   4.417   4.681  13.911  0.3761 -1.1710  0.6069
   93TMC2    H1 1453   4.704   4.533  13.644 -0.5032  1.1082 -1.2108
   93TMC2    H2 1454   0.103   4.685  14.035  0.0022  1.1609 -0.7019
   93TMC2    C7 1455   0.193   4.584  13.814 -0.5083 -0.1237  0.1057
   93TMC2    C8 1456   4.603   0.056  14.067  0.0792 -0.8192  0.2155
   93TMC2    O1 1457   0.264   4.599  13.911  0.1353 -0.3988  0.5713
   93TMC2    O2 1458   4.672   0.158  14.075 -0.7870 -0.1053  0.1233
   93TMC2    O5 1459   4.483   0.045  14.122 -0.2868  0.5085  0.1891
   93TMC2    H5 1460   4.436   4.688  14.123 -0.9741  0.9067  2.2835
   94MPD2     C 1461   4.231   4.374  13.591 -0.1308  0.2653 -0.0309
   94MPD2    C1 1462   4.227   4.452  13.711 -0.2691  0.1821  0.2988
   94MPD2    C2 1463   4.105   4.458  13.782 -0.1450 -0.0795 -0.1227
   94MPD2    C3 1464   3.993   4.393  13.737 -0.0082 -0.3216  0.1533
   94MPD2    C4 1465   4.001   4.317  13.629  0.0623 -0.1180 -0.0136
   94MPD2    C5 1466   4.115   4.312  13.555  0.8182 -0.3602  0.8303
   94MPD2     H 1467   4.106   4.513  13.875 -0.2439 -2.0683  1.0683
   94MPD2    H1 1468   3.920   4.260  13.585 -0.4272  0.0710  0.6508
   94MPD2    H2 1469   4.309   4.375  13.516 -2.2884  1.3633 -2.2665
   94MPD2    H3 1470   4.117   4.265  13.457  3.0629  0.5249  0.4580
   94MPD2     N 1471   3.874   4.393  13.810  0.6341 -0.3339  0.7650
   94MPD2    H5 1472   3.790   4.358  13.764  1.2215 -0.4596 -0.2002
   94MPD2    N1 1473   4.343   4.520  13.759 -0.2620 -0.9324  0.4451
   94MPD2    H7 1474   4.331   4.581  13.839  1.0242  1.0573 -0.8726
   95TMC2    C1 1475   4.692   1.375  16.571  0.9459 -0.5348 -0.1999
   95TMC2    C2 1476   4.656   1.263  16.648  0.0784 -0.0393  0.1569
   95TMC2    C3 1477   4.610   1.287  16.773 -0.3053 -0.5184 -0.2121
   95TMC2    C4 1478   4.691   1.502  16.624 -0.7018 -0.3962  0.0405
   95TMC2    C5 1479   4.649   1.516  16.747 -0.0108 -0.0696  0.0688
   95TMC2    C6 1480   4.602   1.415  16.826  0.3328 -0.7144  0.2993
   95TMC2     C 1481   4.720   1.369  16.433 -0.2404 -0.3896 -0.8008
   95TMC2     O 1482   0.038   1.469  16.379  0.2248 -0.7958 -0.2991
   95TMC2     H 1483   4.658   1.163  16.607  0.8937  0.1848 -0.3430
   95TMC2    H1 1484   4.728   1.586  16.567 -0.8896 -0.6346 -0.4377
   95TMC2    H2 1485   4.557   1.435  16.923  1.2111  1.1537  0.3429
   95TMC2    C7 1486   4.671   1.660  16.793 -0.3011 -0.4628  0.5347
   95TMC2    C8 1487   4.559   1.179  16.851  0.1094  0.7963  0.1503
   95TMC2    O1 1488   4.675   1.744  16.701  0.2948 -0.0553  0.1000
   95TMC2    O2 1489   4.553   1.182  16.972 -0.3919  0.3992 -0.4561
   95TMC2    O5 1490   4.482   1.112  16.767 -0.1841  0.1224 -0.0570
   95TMC2    H5 1491   4.495   1.151  16.678  1.5601 -2.3927 -0.9101
   96MPD2     C 1492   0.056   1.150  15.984  0.0109  0.0368 -0.2894
   96MPD2    C1 1493   0.112   1.265  16.035 -0.1505  0.6778  0.1354
   96MPD2    C2 1494   0.094   1.293  16.170 -0.3192  0.0400  0.0293
   96MPD2    C3 1495   0.003   1.212  16.246 -0.0262 -0.5549  0.1286
   96MPD2    C4 1496   4.678   1.101  16.189 -0.4910 -0.5224  1.3763
   96MPD2    C5 1497   4.711   1.067  16.059 -0.3215  0.6168  0.0322
   96MPD2     H 1498   0.155   1.372  16.213 -1.4512 -0.6507  2.9331
   96MPD2    H1 1499   4.608   1.043  16.249 -1.9921  0.2496  0.3654
   96MPD2    H2 1500   0.071   1.130  15.879  0.5604  1.5787 -0.5160
   96MPD2    H3 1501   4.672   0.974  16.019  2.5552  0.2047 -1.7973
   96MPD2     N 1502   4.691   1.247  16.379  0.6030  0.1737 -0.3757
   96MPD2    H5 1503   4.629   1.185  16.430 -0.6302  0.3107 -1.7109
   96MPD2    N1 1504   0.194   1.331  15.944 -0.0397 -0.4009 -0.0388
   96MPD2    H7 1505   0.174   1.313  15.846  2.5964 -1.4570 -0.3646
   97TMC2    C1 1506   2.103   3.875   0.134 -0.3125 -0.8493 -0.8459
   97TMC2    C2 1507   2.043   3.831   0.014 -1.0376 -0.3860 -0.3867
   97TMC2    C3 1508   2.011   3.931  17.638  0.0180 -0.2306  0.2216
   97TMC2    C4 1509   2.117   4.008   0.153 -0.8180 -0.1762  0.4249
   97TMC2    C5 1510   2.095   4.099   0.055 -0.1762 -0.2799  0.0342
   97TMC2    C6 1511   2.038   4.067  17.653  1.2611  0.2361  0.7535
   97TMC2     C 1512   2.097   3.779   0.249  0.3820  0.2736 -0.4548
   97TMC2     O 1513   2.076   3.822   0.361 -0.2144 -0.7411 -0.8202
   97TMC2     H 1514   2.035   3.725  17.709  1.8083 -0.7832  0.5279
   97TMC2    H1 1515   2.137   4.043   0.253  3.2315  0.0446 -0.4644
   97TMC2    H2 1516   2.026   4.139  17.573  1.2455 -1.4710 -0.7938
   97TMC2    C7 1517   2.127   4.231   0.092 -0.5834  0.0651  0.5533
   97TMC2    C8 1518   2.008   3.870  17.506  0.2694 -0.0169 -0.3373
   97TMC2    O1 1519   2.226   4.255   0.160  0.7511 -0.0582  0.9358
   97TMC2    O2 1520   2.052   3.762  17.477 -0.1536 -0.0513  0.2129
   97TMC2    O5 1521   1.930   3.945  17.421 -0.1917 -0.6557  0.2054
   97TMC2    H5 1522   1.894   4.028  17.458  0.5132 -0.6768  0.9282
   98MPD2     C 1523   2.233   3.324   0.437  0.3753 -0.6255 -0.1735
   98MPD2    C1 1524   2.156   3.424   0.492  0.6831 -0.3944 -0.6112
   98MPD2    C2 1525   2.119   3.536   0.416 -0.0705 -0.2788 -0.1559
   98MPD2    C3 1526   2.172   3.549   0.290 -0.2819  0.4227  0.0941
   98MPD2    C4 1527   2.245   3.446   0.232  0.2440  0.0869  0.3568
   98MPD2    C5 1528   2.265   3.335   0.306 -0.6705  0.4822 -0.3586
   98MPD2     H 1529   2.041   3.601   0.453  0.5333 -0.4234  1.3873
   98MPD2    H1 1530   2.277   3.457   0.129  0.7344  3.1777  0.8449
   98MPD2    H2 1531   2.257   3.240   0.501  1.8608  1.5003  2.0608
   98MPD2    H3 1532   2.314   3.253   0.254  1.2819  0.8129  0.9662
   98MPD2     N 1533   2.140   3.658   0.204  1.1479  0.2525  0.5813
   98MPD2    H5 1534   2.169   3.665   0.107  1.2890 -1.0874  0.5337
   98MPD2    N1 1535   2.096   3.406   0.621  0.6133  0.5888  0.0146
   98MPD2    H7 1536   2.114   3.315   0.664 -1.8705  0.1195  0.0607
   99TMC2    C1 1537   0.524   1.083   1.966 -0.8980  0.6087 -0.0682
   99TMC2    C2 1538   0.536   1.095   2.103 -0.1193 -0.1918  0.2909
   99TMC2    C3 1539   0.475   1.196   2.171 -0.3421  0.0825  1.2146
   99TMC2    C4 1540   0.439   1.168   1.897  0.3696 -0.2169 -0.3695
   99TMC2    C5 1541   0.380   1.269   1.976 -0.1691  0.2990  0.0456
   99TMC2    C6 1542   0.394   1.284   2.110  0.3157 -0.3979 -0.1026
   99TMC2     C 1543   0.566   0.956   1.905  0.2391  0.3120 -0.1473
   99TMC2     O 1544   0.653   0.897   1.970  0.2797 -0.0189  0.7215
   99TMC2     H 1545   0.610   1.032   2.153  2.0448  1.8173 -0.3674
   99TMC2    H1 1546   0.446   1.176   1.789  0.6353 -0.9908 -0.4041
   99TMC2    H2 1547   0.335   1.361   2.157  1.9256 -0.0404  1.3116
   99TMC2    C7 1548   0.304   1.379   1.915 -0.0522  0.1859 -0.3753
   99TMC2    C8 1549   0.513   1.195   2.311 -0.7075 -0.3322  0.5920
   99TMC2    O1 1550   0.321   1.489   1.964 -0.1907  0.5238 -0.2452
   99TMC2    O2 1551   0.541   1.086   2.359 -0.3918  0.1952 -0.4645
   99TMC2    O5 1552   0.467   1.305   2.371 -0.8302  0.0692 -0.2635
   99TMC2    H5 1553   0.482   1.393   2.328  1.4089 -0.0140  0.3565
  100MPD2     C 1554   0.651   0.727   1.749 -0.1083  0.7375 -0.0169
  100MPD2    C1 1555   0.550   0.809   1.703  0.4871 -0.1740  0.0155
  100MPD2    C2 1556   0.494   0.782   1.576 -0.2544  0.3432  1.1634
  100MPD2    C3 1557   0.551   0.685   1.489  0.1273 -0.1338 -0.6832
  100MPD2    C4 1558   0.646   0.605   1.540 -0.2643  0.6737 -0.2338
  100MPD2    C5 1559   0.697   0.629   1.663 -0.0260 -0.2683  0.2171
  100MPD2     H 1560   0.416   0.844   1.535  0.3150 -0.2698 -0.8475
  100MPD2    H1 1561   0.677   0.517   1.484 -1.4386 -0.2657  0.6039
  100MPD2    H2 1562   0.702   0.734   1.844  0.4147 -0.1791 -0.2331
  100MPD2    H3 1563   0.765   0.555   1.705 -1.5248 -0.6161  2.0368
  100MPD2     N 1564   0.495   0.668   1.362  0.3922 -0.0517 -0.1014
  100MPD2    H5 1565   0.422   0.735   1.340  0.3354  0.1466  0.6837
  100MPD2    N1 1566   0.512   0.925   1.779 -0.4287  0.0735  0.3348
  100MPD2    H7 1567   0.436   0.978   1.738  0.7294  0.8815 -0.7483
  101TMC2    C1 1568   1.726   2.399  13.042  0.1943 -0.1221  0.0099
  101TMC2    C2 1569   1.746   2.434  13.174 -0.4427  0.0679 -0.0123
  101TMC2    C3 1570   1.786   2.564  13.189  0.1235 -0.2419 -0.2554
  101TMC2    C4 1571   1.733   2.483  12.934 -0.3372  0.4399  0.3527
  101TMC2    C5 1572   1.777   2.616  12.958 -0.6094  0.2437 -0.1235
  101TMC2    C6 1573   1.810   2.654  13.088 -0.7728  0.9177 -0.0794
  101TMC2     C 1574   1.686   2.261  13.022 -1.0072 -0.0038 -0.1028
  101TMC2     O 1575   1.701   2.180  13.110  0.0020  0.3353  0.2720
  101TMC2     H 1576   1.726   2.361  13.252  1.7573  0.2346  0.7393
  101TMC2    H1 1577   1.729   2.453  12.830 -2.1261 -2.1947  1.1744
  101TMC2    H2 1578   1.843   2.754  13.110  1.0265  0.6169 -1.4732
  101TMC2    C7 1579   1.791   2.711  12.853 -0.4708  0.3138 -0.5254
  101TMC2    C8 1580   1.848   2.608  13.317 -0.2975  0.5369 -0.5716
  101TMC2    O1 1581   1.885   2.789  12.860  0.1422  0.2026  0.8295
  101TMC2    O2 1582   1.887   2.719  13.340  0.1635  0.1100  0.2618
  101TMC2    O5 1583   1.901   2.496  13.361  0.0318 -0.1918  0.3408
  101TMC2    H5 1584   1.952   2.498  13.445 -1.5538 -0.7777  1.3171
  102MPD2     C 1585   1.548   2.097  12.728 -0.4322 -0.6059  0.2185
  102MPD2    C1 1586   1.554   2.125  12.862  0.2676 -0.3495 -0.9936
  102MPD2    C2 1587   1.494   2.042  12.949 -0.4680  0.1550  0.0425
  102MPD2    C3 1588   1.448   1.918  12.904 -0.0782  0.5552 -0.0560
  102MPD2    C4 1589   1.454   1.883  12.775  0.1412  0.1446 -0.5299
  102MPD2    C5 1590   1.501   1.977  12.688 -0.0937 -1.2328 -0.1544
  102MPD2     H 1591   1.496   2.056  13.057  0.8882 -2.6617  0.3550
  102MPD2    H1 1592   1.417   1.787  12.739 -0.3427 -0.3537  1.2864
  102MPD2    H2 1593   1.586   2.165  12.653 -1.5620 -0.3335 -0.1115
  102MPD2    H3 1594   1.506   1.953  12.583  0.0878 -0.2423 -0.3730
  102MPD2     N 1595   1.383   1.840  13.003 -0.2902 -0.8902 -0.2005
  102MPD2    H5 1596   1.406   1.863  13.099 -0.7511 -2.3345  0.2648
  102MPD2    N1 1597   1.625   2.240  12.903 -0.0818 -0.4094 -0.4975
  102MPD2    H7 1598   1.655   2.301  12.827 -1.7250  0.6057 -0.3329
  103TMC2    C1 1599   4.242   1.626  12.323 -0.0868 -0.5374  0.1881
  103TMC2    C2 1600   4.316   1.508  12.315 -0.3629  0.0587  0.9667
  103TMC2    C3 1601   4.420   1.492  12.400  0.4462 -0.4640  0.1651
  103TMC2    C4 1602   4.268   1.718  12.417 -0.0074  0.0130  0.4739
  103TMC2    C5 1603   4.372   1.693  12.512 -0.7734  0.0278 -0.4931
  103TMC2    C6 1604   4.457   1.586  12.497 -0.7701  0.3697 -0.3488
  103TMC2     C 1605   4.156   1.653  12.215  0.4576 -0.2587 -0.3245
  103TMC2     O 1606   4.135   1.773  12.198 -0.4558  0.4192  0.2454
  103TMC2     H 1607   4.310   1.447  12.226  4.4212  0.6289  0.2185
  103TMC2    H1 1608   4.215   1.812  12.418 -2.1853 -1.1445 -3.6505
  103TMC2    H2 1609   4.538   1.563  12.565 -0.6449 -1.0015 -0.9692
  103TMC2    C7 1610   4.399   1.792  12.619 -0.6115  0.1459 -0.1614
  103TMC2    C8 1611   4.477   1.363  12.421  0.4864  0.6177 -1.1131
  103TMC2    O1 1612   4.479   1.756  12.704 -0.3288  0.1939 -0.0707
  103TMC2    O2 1613   4.432   1.255  12.457 -0.0947 -0.3233  0.3843
  103TMC2    O5 1614   4.606   1.396  12.394 -0.2164  0.1069 -0.2487
  103TMC2    H5 1615   4.615   1.486  12.357  2.6940  0.4680  1.3644
  104MPD2     C 1616   4.033   1.452  11.928  0.3194  0.0703 -0.2222
  104MPD2    C1 1617   4.061   1.563  12.002 -0.5980 -0.2034  0.0321
  104MPD2    C2 1618   4.021   1.686  11.952  0.2814  0.5407 -0.0838
  104MPD2    C3 1619   3.948   1.694  11.836 -0.5053  0.2954  0.0244
  104MPD2    C4 1620   3.930   1.579  11.758  0.4178 -0.5950  0.7577
  104MPD2    C5 1621   3.981   1.463  11.798 -0.2195  0.0873 -0.0603
  104MPD2     H 1622   4.036   1.780  12.004 -2.6841 -0.1111  1.9760
  104MPD2    H1 1623   3.866   1.583  11.671  3.6385  1.4941 -1.5204
  104MPD2    H2 1624   4.045   1.351  11.967  3.8695  1.5907  2.6104
  104MPD2    H3 1625   3.969   1.373  11.739  1.5453 -0.4196  0.3584
  104MPD2     N 1626   3.911   1.825  11.798 -0.2348 -0.1646  0.2697
  104MPD2    H5 1627   3.948   1.895  11.860  0.5454 -1.1189  0.8827
  104MPD2    N1 1628   4.138   1.548  12.125 -0.2536  0.4727 -0.4443
  104MPD2    H7 1629   4.189   1.462  12.148 -0.8262  0.1020 -0.5633
  105TMC2    C1 1630   0.678   0.905   0.284  0.1967 -0.3404 -0.0891
  105TMC2    C2 1631   0.716   0.825   0.380  0.2056 -0.0907  0.5331
  105TMC2    C3 1632   0.702   0.862   0.510 -0.1594  0.2580 -0.1665
  105TMC2    C4 1633   0.621   1.024   0.320  0.0567  0.2206 -0.4157
  105TMC2    C5 1634   0.600   1.059   0.452 -0.3078 -0.0634 -0.1022
  105TMC2    C6 1635   0.647   0.979   0.550  0.2194  0.0338 -0.3083
  105TMC2     C 1636   0.726   0.878   0.151  0.3507  0.2640 -0.0479
  105TMC2     O 1637   0.772   0.769   0.136 -0.1320 -0.3471 -0.2081
  105TMC2     H 1638   0.768   0.733   0.353 -0.3328 -0.6993  1.5532
  105TMC2    H1 1639   0.586   1.093   0.244  2.3218  1.2963 -0.4757
  105TMC2    H2 1640   0.606   0.983   0.650 -1.8266 -2.1086 -1.0370
  105TMC2    C7 1641   0.494   1.159   0.478  0.4627 -0.0227 -0.4213
  105TMC2    C8 1642   0.780   0.775   0.599  0.1689 -0.1711  0.6732
  105TMC2    O1 1643   0.409   1.176   0.389 -0.0690  0.1884  0.0725
  105TMC2    O2 1644   0.876   0.713   0.558 -0.1621  0.2527  0.2473
  105TMC2    O5 1645   0.746   0.802   0.722 -0.4684 -0.0820 -0.0469
  105TMC2    H5 1646   0.655   0.838   0.728 -0.0683  0.8802  0.1131
  106MPD2     C 1647   0.920   0.979  17.413 -0.4372  0.0574 -0.2539
  106MPD2    C1 1648   0.883   1.101  17.467  0.5213 -0.1004  0.3818
  106MPD2    C2 1649   0.809   1.103  17.583 -0.3811 -0.6764 -0.3736
  106MPD2    C3 1650   0.786   0.986  17.654  0.1843 -0.3993  0.5598
  106MPD2    C4 1651   0.814   0.870  17.586  0.8458  0.9647 -0.1191
  106MPD2    C5 1652   0.888   0.861  17.473 -0.3207 -0.0347 -0.3401
  106MPD2     H 1653   0.774   1.196  17.627 -1.5438 -0.5708 -1.5332
  106MPD2    H1 1654   0.777   0.780  17.634  2.5598 -0.4766 -1.4973
  106MPD2    H2 1655   0.960   0.967  17.313  1.0034 -0.3542  0.3710
  106MPD2    H3 1656   0.891   0.766  17.422  0.6993  0.3466 -1.0024
  106MPD2     N 1657   0.722   0.987   0.064  0.7258  0.6331 -0.0107
  106MPD2    H5 1658   0.665   1.069   0.082 -1.3336 -0.6664 -0.6336
  106MPD2    N1 1659   0.910   1.222  17.405  0.3333 -0.0284  0.7682
  106MPD2    H7 1660   0.867   1.308  17.436  2.7736  1.5114 -0.0960
  107TMC2    C1 1661   1.054   1.023  11.507  0.1297 -0.0346 -0.1401
  107TMC2    C2 1662   0.924   1.019  11.464 -0.5059  0.0952 -0.1205
  107TMC2    C3 1663   0.900   1.069  11.342 -0.2605 -0.2243 -0.3868
  107TMC2    C4 1664   1.162   1.083  11.442  0.0692  0.5616 -0.5359
  107TMC2    C5 1665   1.129   1.120  11.311  0.1798 -0.1907  0.1438
  107TMC2    C6 1666   1.004   1.111  11.260 -0.4643  0.0435 -0.7314
  107TMC2     C 1667   1.085   0.975  11.640  0.4966  0.5164 -0.7049
  107TMC2     O 1668   0.989   0.948  11.716  0.8158 -0.4169 -0.2506
  107TMC2     H 1669   0.847   0.967  11.520 -0.5917 -1.3343 -1.5747
  107TMC2    H1 1670   1.261   1.105  11.481 -0.0094 -1.2515  0.7008
  107TMC2    H2 1671   0.989   1.135  11.155 -2.9522  0.5177 -0.2831
  107TMC2    C7 1672   1.230   1.165  11.215  0.1112  0.2869 -0.8875
  107TMC2    C8 1673   0.782   1.032  11.266  0.1944  0.0676 -0.6975
  107TMC2    O1 1674   1.188   1.244  11.135  0.1641 -0.0463 -0.0706
  107TMC2    O2 1675   0.762   1.022  11.146  0.2760  0.5506 -0.2516
  107TMC2    O5 1676   0.684   1.041  11.358  0.2593 -0.1475 -0.1673
  107TMC2    H5 1677   0.728   1.051  11.446  1.3397  0.3540 -0.7647
  108MPD2     C 1678   1.415   0.922  11.803  0.0924 -0.0872 -0.2942
  108MPD2    C1 1679   1.275   0.932  11.797  0.2037 -0.2027  0.9926
  108MPD2    C2 1680   1.203   0.901  11.913 -0.7331  0.6331  0.9894
  108MPD2    C3 1681   1.259   0.871  12.038 -0.1947  1.0116  0.1694
  108MPD2    C4 1682   1.396   0.868  12.037 -0.6656 -0.0523  0.3833
  108MPD2    C5 1683   1.469   0.888  11.925  0.6575  0.1106  0.0008
  108MPD2     H 1684   1.095   0.896  11.909 -0.7082  0.3104  0.6992
  108MPD2    H1 1685   1.442   0.851  12.134  1.5445 -0.2856 -0.7070
  108MPD2    H2 1686   1.477   0.944  11.717 -0.1891  0.8039 -0.2780
  108MPD2    H3 1687   1.576   0.874  11.924  0.4273 -1.2865 -3.6218
  108MPD2     N 1688   1.196   0.842  12.160 -0.6987  0.2338  0.5358
  108MPD2    H5 1689   1.256   0.820  12.240 -0.6777 -0.3237  0.3681
  108MPD2    N1 1690   1.219   0.968  11.672  0.2949 -0.5899 -0.8330
  108MPD2    H7 1691   1.276   1.004  11.596 -0.6806  0.6054 -1.0042
  109TMC2    C1 1692   0.913   2.985   0.299 -0.4329 -0.1302  0.1140
  109TMC2    C2 1693   0.884   3.020   0.172 -0.0570 -0.1464  0.0907
  109TMC2    C3 1694   0.984   3.046   0.082 -0.1798  0.2700 -0.1300
  109TMC2    C4 1695   1.037   2.957   0.338 -0.0158 -0.0282  0.2615
  109TMC2    C5 1696   1.128   2.987   0.238  0.4068 -0.0799  1.0248
  109TMC2    C6 1697   1.113   3.029   0.116  0.0374 -0.3220  0.2756
  109TMC2     C 1698   0.804   2.972   0.400 -0.2886 -0.1033 -0.5513
  109TMC2     O 1699   0.699   2.912   0.375 -0.2686 -0.4636  0.1501
  109TMC2     H 1700   0.780   3.034   0.144 -0.7798 -1.9954  1.8579
  109TMC2    H1 1701   1.069   2.935   0.439 -1.0732 -1.5730  0.2629
  109TMC2    H2 1702   1.192   3.066   0.052 -0.4422 -0.4954 -0.4119
  109TMC2    C7 1703   1.251   3.019   0.309 -0.8225 -0.2881 -0.6562
  109TMC2    C8 1704   0.952   3.159  17.715  0.7546  0.7713  0.6509
  109TMC2    O1 1705   1.244   3.064   0.422  0.1069 -0.1626  0.1481
  109TMC2    O2 1706   0.867   3.240   0.025  0.0200 -0.5764 -0.3161
  109TMC2    O5 1707   1.028   3.169  17.606 -0.2714 -0.4001 -0.1337
  109TMC2    H5 1708   1.065   3.081  17.584 -1.5090 -0.4355 -2.0884
  110MPD2     C 1709   0.709   2.956   0.913  0.0943 -0.2953  0.5154
  110MPD2    C1 1710   0.825   3.028   0.886 -0.1695  0.5022  0.4776
  110MPD2    C2 1711   0.876   3.032   0.758  0.3586  0.1034  0.2503
  110MPD2    C3 1712   0.801   2.987   0.652  0.2005  0.6005 -0.0887
  110MPD2    C4 1713   0.680   2.924   0.673  0.1509 -0.3927 -0.1154
  110MPD2    C5 1714   0.644   2.908   0.805 -0.8906 -0.0741  0.3434
  110MPD2     H 1715   0.957   3.095   0.724 -0.3513  0.7766 -0.2056
  110MPD2    H1 1716   0.613   2.897   0.592 -0.6928  0.8634  0.1553
  110MPD2    H2 1717   0.663   2.952   1.011 -2.1983 -2.2315 -0.6289
  110MPD2    H3 1718   0.548   2.860   0.822 -0.9843  0.4670  1.3486
  110MPD2     N 1719   0.850   3.015   0.524  0.8555 -0.1766 -0.2733
  110MPD2    H5 1720   0.938   3.065   0.521  0.5256  0.4861  1.2704
  110MPD2    N1 1721   0.879   3.104   0.992 -0.2328 -0.4341 -0.8106
  110MPD2    H7 1722   0.829   3.107   1.080 -0.6068  0.5601 -1.0587
  111TMC2    C1 1723   1.957   3.059  11.106 -0.5917 -0.0008  0.0419
  111TMC2    C2 1724   1.945   3.185  11.049 -0.1859  0.5705  0.0020
  111TMC2    C3 1725   2.010   3.289  11.112  0.5979 -0.2469 -0.4958
  111TMC2    C4 1726   2.043   3.034  11.215  0.4335 -0.3232 -0.8599
  111TMC2    C5 1727   2.102   3.145  11.272  0.5397 -0.2336  0.1123
  111TMC2    C6 1728   2.095   3.274  11.221  0.1658  0.0581 -0.0430
  111TMC2     C 1729   1.869   2.953  11.054 -0.1153  0.7203  0.4205
  111TMC2     O 1730   1.775   2.992  10.983  0.1305 -0.1477 -0.5321
  111TMC2     H 1731   1.879   3.210  10.967  0.3679  1.6937 -0.0938
  111TMC2    H1 1732   2.049   2.937  11.263  0.0811 -0.8598 -1.9104
  111TMC2    H2 1733   2.155   3.349  11.272 -0.2396 -1.3492  2.4688
  111TMC2    C7 1734   2.156   3.122  11.407 -0.4643  0.3684  1.2132
  111TMC2    C8 1735   2.012   3.413  11.040  0.1889 -0.0620 -0.8495
  111TMC2    O1 1736   2.122   3.196  11.500  0.2879  0.1346  0.0797
  111TMC2    O2 1737   2.114   3.484  11.039  0.1965 -0.8119  0.1917
  111TMC2    O5 1738   1.884   3.450  11.020  0.5860  0.3774  0.4033
  111TMC2    H5 1739   1.820   3.386  11.058  1.1415 -0.6586 -0.4349
  112MPD2     C 1740   1.721   2.470  10.961 -0.9046  0.9792 -0.1528
  112MPD2    C1 1741   1.658   2.595  10.949  0.1261  0.2352  0.7263
  112MPD2    C2 1742   1.715   2.708  10.994  0.4500 -0.2101 -0.5631
  112MPD2    C3 1743   1.851   2.707  11.023  0.3819  0.8817 -0.1392
  112MPD2    C4 1744   1.917   2.586  11.029 -0.1734  0.1163  0.7609
  112MPD2    C5 1745   1.847   2.474  11.003  0.6509 -0.0342 -0.4152
  112MPD2     H 1746   1.654   2.798  10.996 -0.8075 -1.0561 -1.5563
  112MPD2    H1 1747   2.024   2.576  11.042 -0.0750 -0.8945 -0.8801
  112MPD2    H2 1748   1.669   2.376  10.944  1.0188 -0.3393  1.2759
  112MPD2    H3 1749   1.899   2.381  11.025 -0.1126  0.2441  2.5644
  112MPD2     N 1750   1.921   2.823  11.067 -0.4801  0.5080 -0.3471
  112MPD2    H5 1751   2.016   2.815  11.100 -0.7512 -0.8455  0.1201
  112MPD2    N1 1752   1.524   2.606  10.899  0.0201 -0.3304 -0.6546
  112MPD2    H7 1753   1.465   2.687  10.913 -1.3741 -1.0407 -2.4664
  113TMC2    C1 1754   4.070   1.094   0.536 -0.3722  0.1757 -0.1150
  113TMC2    C2 1755   4.015   1.103   0.663 -0.3143 -0.1982  0.4190
  113TMC2    C3 1756   3.932   1.004   0.710  0.3860 -0.0587  0.1735
  113TMC2    C4 1757   4.011   1.014   0.441 -0.1512 -0.0122 -0.3417
  113TMC2    C5 1758   3.933   0.916   0.491  0.0105  0.7073 -0.6132
  113TMC2    C6 1759   3.892   0.902   0.626 -0.3193  0.0928  0.1808
  113TMC2     C 1760   4.212   1.094   0.540  0.0463  0.1613 -0.4969
  113TMC2     O 1761   4.268   1.125   0.645  0.0198 -0.4959 -0.4721
  113TMC2     H 1762   4.039   1.188   0.727  1.7719 -0.7138  0.3272
  113TMC2    H1 1763   4.045   1.010   0.338  0.9716  0.5512  0.0042
  113TMC2    H2 1764   3.813   0.831   0.649 -1.4587  0.8311 -1.4411
  113TMC2    C7 1765   3.883   0.814   0.405 -0.1585  0.1900  0.3937
  113TMC2    C8 1766   3.891   1.008   0.846  0.5250 -0.5474  0.2869
  113TMC2    O1 1767   3.864   0.842   0.284  0.1518 -0.1298  0.1636
  113TMC2    O2 1768   3.874   1.116   0.903 -0.6144 -0.4879  0.5033
  113TMC2    O5 1769   3.886   0.883   0.891  0.2301 -0.0484  0.4591
  113TMC2    H5 1770   3.911   0.812   0.828  2.2801 -1.6110  3.0589
  114MPD2     C 1771   4.678   0.986   0.360  0.6009  0.9805  0.0368
  114MPD2    C1 1772   4.631   1.007   0.491 -0.0433  0.2123  0.2213
  114MPD2    C2 1773   4.500   1.039   0.513 -0.4859 -0.5616 -0.0114
  114MPD2    C3 1774   4.409   1.035   0.409 -0.8044 -0.6944  0.3610
  114MPD2    C4 1775   4.452   0.997   0.284 -0.2190  0.0119 -0.2741
  114MPD2    C5 1776   4.587   0.988   0.259 -0.2883  0.1177  0.8454
  114MPD2     H 1777   4.481   1.072   0.615 -1.5039  0.9714 -0.7112
  114MPD2    H1 1778   4.389   1.007   0.196 -0.2864  1.0425 -0.1062
  114MPD2    H2 1779   0.053   0.984   0.332  0.0307  0.0685 -2.0295
  114MPD2    H3 1780   4.620   0.972   0.157 -0.3229 -0.4311  0.9185
  114MPD2     N 1781   4.274   1.067   0.417 -0.2038 -0.4382  0.6063
  114MPD2    H5 1782   4.218   1.047   0.334  0.3717 -0.8285  0.3084
  114MPD2    N1 1783   4.714   1.007   0.604  0.6238  0.3297  0.3755
  114MPD2    H7 1784   4.667   1.023   0.693 -0.5668  0.2856 -0.2443
  115TMC2    C1 1785   0.509   3.459  17.631  0.7312 -0.4438  0.2444
  115TMC2    C2 1786   0.651   3.461  17.626  0.2706  1.0667  0.2545
  115TMC2    C3 1787   0.713   3.581  17.590 -0.4964  0.3559  0.0057
  115TMC2    C4 1788   0.438   3.577  17.622 -0.4271 -0.1737 -0.6925
  115TMC2    C5 1789   0.504   3.694  17.588 -0.3981  0.2830  0.0609
  115TMC2    C6 1790   0.642   3.698  17.570  0.5569 -0.8729  0.0338
  115TMC2     C 1791   0.449   3.330  17.641  0.2328 -0.0840  0.2538
  115TMC2     O 1792   0.515   3.238  17.592  0.6854 -0.1877 -0.5562
  115TMC2     H 1793   0.703   3.367  17.638  2.0586  2.0943  0.5165
  115TMC2    H1 1794   0.333   3.572  17.644 -0.5310  1.4694 -0.8144
  115TMC2    H2 1795   0.680   3.783  17.516  1.2517 -0.7237  0.7572
  115TMC2    C7 1796   0.431   3.820  17.603  0.5448 -0.0906  0.1285
  115TMC2    C8 1797   0.853   3.592  17.568  0.1641 -0.1401 -0.5726
  115TMC2    O1 1798   0.311   3.798  17.596  0.3732  0.3436  0.6295
  115TMC2    O2 1799   0.894   3.707  17.541  0.0236  0.2950  0.5272
  115TMC2    O5 1800   0.920   3.494  17.626  0.0647  0.1545 -0.2115
  115TMC2    H5 1801   0.872   3.417  17.664  1.1238  0.5141  1.8382
  116MPD2     C 1802   0.049   3.032   0.003  0.2229  0.0606 -0.4529
  116MPD2    C1 1803   0.160   3.006  17.644  0.6616  0.1477 -0.0050
  116MPD2    C2 1804   0.252   3.111  17.623 -0.2218  0.2530  0.2419
  116MPD2    C3 1805   0.230   3.232  17.685 -0.0358 -0.9404  0.3026
  116MPD2    C4 1806   0.116   3.259   0.033 -0.4733 -0.7014  0.2091
  116MPD2    C5 1807   0.027   3.160   0.054 -0.2692  0.0668 -0.5158
  116MPD2     H 1808   0.345   3.090  17.572 -1.4439  2.0668 -2.7686
  116MPD2    H1 1809   0.096   3.361   0.064 -1.3397 -0.4373 -1.2144
  116MPD2    H2 1810   4.714   2.951   0.035  0.9493 -0.3101  0.0691
  116MPD2    H3 1811   4.662   3.188   0.100 -0.0003  1.2648 -0.7045
  116MPD2     N 1812   0.321   3.339  17.689 -0.0815  0.1626  0.0516
  116MPD2    H5 1813   0.290   3.426   0.013 -2.3739 -0.1716 -0.9504
  116MPD2    N1 1814   0.186   2.871  17.623 -0.3393  0.5055 -0.0509
  116MPD2    H7 1815   0.133   2.798  17.669 -1.4015  0.6531 -1.0309
  117TMC2    C1 1816   3.607   0.309  14.119 -0.4802 -0.8274  0.4010
  117TMC2    C2 1817   3.658   0.229  14.215  0.1920 -0.8885  0.2459
  117TMC2    C3 1818   3.747   0.286  14.304 -0.5561 -0.0595 -0.4455
  117TMC2    C4 1819   3.656   0.433  14.098 -0.8395  0.1746 -0.5337
  117TMC2    C5 1820   3.753   0.485  14.174  0.5385 -0.4727  0.2873
  117TMC2    C6 1821   3.789   0.414  14.283  0.1350  0.2004  0.5383
  117TMC2     C 1822   3.476   0.282  14.063 -0.3645 -0.2046 -0.6939
  117TMC2     O 1823   3.441   0.166  14.041 -0.6871 -0.2076 -0.1809
  117TMC2     H 1824   3.611   0.132  14.227  0.2497 -0.8882  0.4669
  117TMC2    H1 1825   3.652   0.469  13.995 -3.2317  0.2313 -0.4321
  117TMC2    H2 1826   3.862   0.449  14.354 -0.6387 -0.2179  1.5372
  117TMC2    C7 1827   3.819   0.617  14.148 -0.6233  0.2173 -0.0313
  117TMC2    C8 1828   3.779   0.238  14.437  0.4293  0.2817  0.5367
  117TMC2    O1 1829   3.940   0.613  14.177 -0.1885  0.1485  0.4769
  117TMC2    O2 1830   3.796   0.317  14.529  0.5322  0.0045  0.2634
  117TMC2    O5 1831   3.821   0.111  14.439 -0.4767 -0.3886 -0.7316
  117TMC2    H5 1832   3.814   0.067  14.352  2.9880 -1.5801 -0.4112
  118MPD2     C 1833   3.666   0.949  14.082  0.3161 -0.1969  0.3260
  118MPD2    C1 1834   3.771   0.852  14.085  0.2656 -0.4157 -0.1881
  118MPD2    C2 1835   3.900   0.899  14.078 -0.0691  0.1108 -0.3582
  118MPD2    C3 1836   3.926   1.035  14.077 -0.0985  0.4171  0.8547
  118MPD2    C4 1837   3.825   1.126  14.084 -0.8585  0.1500  0.0764
  118MPD2    C5 1838   3.697   1.078  14.078  0.1451  0.3551 -0.0690
  118MPD2     H 1839   3.982   0.829  14.080  0.6944  1.0313  0.3604
  118MPD2    H1 1840   3.848   1.230  14.064 -3.1855  1.0420  2.0069
  118MPD2    H2 1841   3.561   0.922  14.087  0.5331 -0.8930  1.0273
  118MPD2    H3 1842   3.621   1.152  14.054  1.7769  1.1057 -2.9341
  118MPD2     N 1843   4.059   1.093  14.070 -0.9532 -0.1508  0.3421
  118MPD2    H5 1844   4.062   1.194  14.075  1.7815 -0.1719 -0.8295
  118MPD2    N1 1845   3.735   0.717  14.106  0.1363  0.0263  0.0312
  118MPD2    H7 1846   3.642   0.688  14.078 -0.2360  2.0436 -0.8209
  119TMC2    C1 1847   2.621   1.252  13.291 -0.2708 -0.3359  0.4938
  119TMC2    C2 1848   2.731   1.178  13.270  1.0303 -0.1660  0.1942
  119TMC2    C3 1849   2.714   1.055  13.215  0.8639 -0.4243 -0.0381
  119TMC2    C4 1850   2.491   1.202  13.266  0.2477 -0.3820  0.1148
  119TMC2    C5 1851   2.478   1.077  13.220  0.5656  0.6457 -0.6115
  119TMC2    C6 1852   2.589   1.006  13.184  0.1776  0.2333 -0.1235
  119TMC2     C 1853   2.623   1.382  13.347 -0.4446 -0.0089  0.6621
  119TMC2     O 1854   2.517   1.445  13.355 -0.5569 -0.2938 -0.1815
  119TMC2     H 1855   2.831   1.209  13.299  1.7118 -0.6311 -1.5852
  119TMC2    H1 1856   2.402   1.246  13.307 -0.8354 -1.6055 -0.9345
  119TMC2    H2 1857   2.564   0.903  13.162  1.4532 -0.4546  1.6663
  119TMC2    C7 1858   2.342   1.013  13.214 -0.4674  0.4936 -0.3725
  119TMC2    C8 1859   2.829   0.967  13.187 -0.0978  0.8808 -0.4548
  119TMC2    O1 1860   2.317   0.944  13.117 -0.0210  0.4738 -0.3347
  119TMC2    O2 1861   2.846   0.857  13.237  0.2941 -0.4818 -0.1203
  119TMC2    O5 1862   2.918   1.059  13.157  0.3924  0.1787  0.2002
  119TMC2    H5 1863   2.862   1.126  13.113 -3.5836 -1.9183  2.0913
  120MPD2     C 1864   2.830   1.625  13.741 -0.0166 -0.9403 -0.2188
  120MPD2    C1 1865   2.698   1.626  13.695 -0.6949 -0.4936 -0.2449
  120MPD2    C2 1866   2.680   1.573  13.572 -0.5848  0.1788  0.0821
  120MPD2    C3 1867   2.769   1.497  13.513 -0.2543  0.0782  0.0279
  120MPD2    C4 1868   2.898   1.486  13.563 -0.4285  0.3970 -0.3470
  120MPD2    C5 1869   2.929   1.556  13.671  0.5321  0.7193 -0.2404
  120MPD2     H 1870   2.578   1.576  13.536 -0.1331  0.0757 -1.2357
  120MPD2    H1 1871   2.971   1.413  13.530 -1.0387  0.3278 -1.5457
  120MPD2    H2 1872   2.863   1.673  13.832 -1.7163  2.4177 -1.3585
  120MPD2    H3 1873   3.028   1.545  13.713  0.5118  0.1504 -0.3438
  120MPD2     N 1874   2.746   1.409  13.406 -0.0896  0.2060  0.2006
  120MPD2    H5 1875   2.829   1.356  13.381 -1.3168 -1.5185 -0.2537
  120MPD2    N1 1876   2.606   1.699  13.777 -0.6560 -0.4110 -0.7444
  120MPD2    H7 1877   2.652   1.750  13.851  0.7065  2.0746 -3.3259
  121TMC2    C1 1878   3.087   3.460  14.251  0.2306  0.1633 -1.0000
  121TMC2    C2 1879   3.178   3.359  14.279  0.4170 -0.7231  0.3131
  121TMC2    C3 1880   3.154   3.273  14.386  0.4640 -0.0286  0.0625
  121TMC2    C4 1881   2.970   3.468  14.325  0.5579  0.2136 -0.1236
  121TMC2    C5 1882   2.950   3.383  14.427  0.1766  0.0409 -1.1945
  121TMC2    C6 1883   3.037   3.279  14.461 -0.1430  0.4636  0.2502
  121TMC2     C 1884   3.127   3.573  14.163  0.2810  0.1317 -0.2229
  121TMC2     O 1885   3.074   3.680  14.180 -0.3168  0.2695 -0.1803
  121TMC2     H 1886   3.277   3.359  14.234  0.1766 -0.1292 -0.2223
  121TMC2    H1 1887   2.907   3.553  14.302 -0.8980 -1.3182 -1.7462
  121TMC2    H2 1888   3.014   3.196  14.526 -1.0763  0.8467  0.4020
  121TMC2    C7 1889   2.829   3.381  14.506 -0.1212 -0.4809 -0.3351
  121TMC2    C8 1890   3.256   3.188  14.443  0.0918  0.5957 -0.5844
  121TMC2    O1 1891   2.818   3.300  14.599  0.0600 -0.2631  0.5071
  121TMC2    O2 1892   3.370   3.193  14.402  0.6208 -0.3002 -0.1311
  121TMC2    O5 1893   3.238   3.190  14.580 -0.5796  0.7049  0.0851
  121TMC2    H5 1894   3.143   3.198  14.603 -1.1257  0.3424 -2.0366
  122MPD2     C 1895   3.331   3.756  14.045 -0.0236 -0.6924 -0.0248
  122MPD2    C1 1896   3.303   3.631  13.996  0.3618 -0.6048  0.3107
  122MPD2    C2 1897   3.358   3.594  13.871  0.0898  0.4868  0.7486
  122MPD2    C3 1898   3.441   3.677  13.803  0.3352  0.1559  0.0705
  122MPD2    C4 1899   3.490   3.785  13.868 -0.8092 -0.2434 -0.6881
  122MPD2    C5 1900   3.431   3.837  13.983  0.1380 -0.1532  0.5775
  122MPD2     H 1901   3.323   3.501  13.828  0.9057 -0.3576  1.9354
  122MPD2    H1 1902   3.550   3.852  13.806 -0.3356  0.0054  0.0368
  122MPD2    H2 1903   3.288   3.788  14.139  0.7575 -4.4345  1.6013
  122MPD2    H3 1904   3.451   3.935  14.024 -0.3575 -0.3765  1.3686
  122MPD2     N 1905   3.494   3.642  13.678 -0.4037 -0.3067  0.4296
  122MPD2    H5 1906   3.557   3.700  13.624 -1.5890  0.4504 -0.1400
  122MPD2    N1 1907   3.224   3.538  14.070 -0.1234 -0.4496 -0.0800
  122MPD2    H7 1908   3.248   3.440  14.058 -2.2909 -1.4003  3.3138
  123TMC2    C1 1909   1.715   1.569  10.500  0.1892  0.5061 -0.4692
  123TMC2    C2 1910   1.728   1.670  10.592  0.8391  0.5062 -0.0056
  123TMC2    C3 1911   1.743   1.798  10.545 -0.0018  0.6989 -0.0062
  123TMC2    C4 1912   1.706   1.601  10.366 -0.0872  0.0563 -0.0625
  123TMC2    C5 1913   1.705   1.728  10.322 -0.1864 -1.1012 -0.1127
  123TMC2    C6 1914   1.720   1.830  10.412  0.3846 -0.6584  0.2485
  123TMC2     C 1915   1.659   1.443  10.540  0.7107 -0.0590 -0.8465
  123TMC2     O 1916   1.668   1.411  10.656  0.2649 -0.6013 -0.0167
  123TMC2     H 1917   1.745   1.640  10.694 -2.1339 -0.0079  0.3415
  123TMC2    H1 1918   1.683   1.521  10.297 -1.1392  0.8314 -0.6083
  123TMC2    H2 1919   1.721   1.935  10.387  1.5323 -1.0478 -1.3346
  123TMC2    C7 1920   1.645   1.747  10.189 -0.3038 -0.0272  0.2647
  123TMC2    C8 1921   1.749   1.908  10.634 -0.1666 -0.0363  0.0183
  123TMC2    O1 1922   1.637   1.642  10.120 -0.6241  0.4042 -0.5037
  123TMC2    O2 1923   1.702   2.018  10.601  0.1981  0.3450  0.2349
  123TMC2    O5 1924   1.760   1.866  10.758  0.1439  0.5696 -0.0820
  123TMC2    H5 1925   1.838   1.807  10.762 -0.8100 -0.5588  1.7502
  124MPD2     C 1926   1.434   0.988  10.481 -0.4202 -0.4877 -0.8000
  124MPD2    C1 1927   1.415   1.061  10.364  0.0422  0.4210  0.4765
  124MPD2    C2 1928   1.475   1.184  10.350  0.3077  0.2885 -0.2466
  124MPD2    C3 1929   1.560   1.238  10.444 -0.0458 -0.0677  0.1310
  124MPD2    C4 1930   1.593   1.152  10.550  0.5028 -0.9073 -0.0883
  124MPD2    C5 1931   1.529   1.033  10.565  0.2444 -0.3719 -0.8770
  124MPD2     H 1932   1.448   1.247  10.265  1.5119  1.4952  0.2667
  124MPD2    H1 1933   1.669   1.179  10.622  0.3392 -1.3867  0.2653
  124MPD2    H2 1934   1.387   0.890  10.489 -1.8556  0.2561 -0.0068
  124MPD2    H3 1935   1.549   0.981  10.659 -0.7740 -0.0060 -0.4566
  124MPD2     N 1936   1.599   1.372  10.433 -0.1527  0.1045 -0.3976
  124MPD2    H5 1937   1.569   1.420  10.349  1.8983  1.4744 -0.3396
  124MPD2    N1 1938   1.322   1.012  10.269  0.6157 -0.2607  0.3962
  124MPD2    H7 1939   1.285   0.921  10.295 -0.4403 -0.1387 -0.6658
  125TMC2    C1 1940   1.717   4.186   9.399  0.1611  0.3857 -0.5348
  125TMC2    C2 1941   1.757   4.298   9.328  0.1531 -0.4980  0.3928
  125TMC2    C3 1942   1.890   4.334   9.327 -0.5225  0.2143  0.2075
  125TMC2    C4 1943   1.812   4.099   9.456  0.6626  0.2020  0.5239
  125TMC2    C5 1944   1.945   4.134   9.434 -0.0146 -0.1335 -0.1551
  125TMC2    C6 1945   1.989   4.252   9.381 -0.0914 -0.2008 -0.1929
  125TMC2     C 1946   1.573   4.180   9.416  0.8234 -0.3474  0.1753
  125TMC2     O 1947   1.508   4.271   9.367 -0.7011 -0.3031  0.1872
  125TMC2     H 1948   1.691   4.362   9.269  0.8528  1.8756  2.1563
  125TMC2    H1 1949   1.772   4.013   9.510  0.7321 -0.0332  0.2001
  125TMC2    H2 1950   2.089   4.292   9.393 -1.0320  2.6063 -1.7411
  125TMC2    C7 1951   2.052   4.043   9.492  0.4018  0.1439 -0.7040
  125TMC2    C8 1952   1.922   4.438   9.227  0.0705  0.4314 -0.4456
  125TMC2    O1 1953   2.014   3.956   9.573  0.4772 -0.3510  0.5821
  125TMC2    O2 1954   1.846   4.527   9.193 -0.0460  0.4904  0.3642
  125TMC2    O5 1955   2.056   4.448   9.239  0.1154  0.1560  1.1388
  125TMC2    H5 1956   2.089   4.356   9.233 -0.8161  0.0815 -2.7882
  126MPD1     C 1957   1.149   3.908   9.536 -0.5777  0.5007  0.3203
  126MPD1    C1 1958   1.259   3.831   9.570  0.2247  0.6161  0.1303
  126MPD1    C2 1959   1.376   3.894   9.537 -0.1121  0.2030  0.2236
  126MPD1    C3 1960   1.391   4.025   9.493  0.6735 -0.7467 -0.0150
  126MPD1    C4 1961   1.280   4.102   9.459  0.1573  0.0673 -0.0830
  126MPD1    C5 1962   1.161   4.037   9.479 -0.0635 -0.4905 -0.1047
  126MPD1     H 1963   1.469   3.839   9.551 -1.1525 -1.6674 -0.2839
  126MPD1    H1 1964   1.287   4.206   9.429 -0.5706  0.7547  2.1620
  126MPD1    H2 1965   1.050   3.867   9.555  0.0653 -0.5818  1.2668
  126MPD1    H3 1966   1.072   4.097   9.459 -0.1154 -0.1435  1.1272
  126MPD1     N 1967   1.529   4.057   9.461  0.0281 -0.9479 -0.4515
  126MPD1    H5 1968   1.590   3.976   9.473 -0.1610 -1.1641 -0.9498
  126MPD1    N1 1969   1.250   3.696   9.589  0.0444 -0.3753 -0.2720
  126MPD1    H6 1970   1.166   3.666   9.638 -0.3944  1.2005 -0.0593
  126MPD1    H7 1971   1.318   3.665   9.658  0.4583  0.4487 -0.3129
  127TMC2    C1 1972   3.294   2.303   9.853 -0.6522 -0.7467 -1.3822
  127TMC2    C2 1973   3.405   2.228   9.853 -0.3758 -0.5976  0.6279
  127TMC2    C3 1974   3.394   2.093   9.867 -0.4997  0.4114 -0.1101
  127TMC2    C4 1975   3.171   2.249   9.850 -0.1227 -0.3890  0.5241
  127TMC2    C5 1976   3.164   2.113   9.853 -0.5282  0.6297 -0.0501
  127TMC2    C6 1977   3.272   2.033   9.864  0.2958 -0.2367  0.1442
  127TMC2     C 1978   3.321   2.446   9.846 -0.8097 -0.1270  0.2702
  127TMC2     O 1979   3.432   2.477   9.807 -0.4637 -0.2600 -0.0991
  127TMC2     H 1980   3.503   2.271   9.836  0.5398 -3.8021 -2.2588
  127TMC2    H1 1981   3.083   2.311   9.865  0.6094  0.4911  1.2118
  127TMC2    H2 1982   3.258   1.926   9.861  0.4316 -0.2446 -0.2388
  127TMC2    C7 1983   3.036   2.062   9.882  0.0677 -0.1681 -0.2787
  127TMC2    C8 1984   3.516   2.027   9.822 -0.0820  0.0242  0.1198
  127TMC2    O1 1985   2.935   2.131   9.878 -0.2714 -0.4707 -0.0176
  127TMC2    O2 1986   3.621   2.054   9.874  0.2796  0.2852  0.0300
  127TMC2    O5 1987   3.499   2.047   9.693 -0.4497 -0.1655 -0.2850
  127TMC2    H5 1988   3.417   2.080   9.651  0.2089 -1.1878 -2.4337
  128MPD2     C 1989   3.071   2.711   9.899  0.3988 -0.6013  0.5698
  128MPD2    C1 1990   3.195   2.662   9.861 -0.0941 -0.8173  0.0281
  128MPD2    C2 1991   3.289   2.748   9.822  0.4304  0.6403 -0.0790
  128MPD2    C3 1992   3.280   2.880   9.819  0.5297  0.4717  0.4236
  128MPD2    C4 1993   3.149   2.927   9.841 -1.0227  0.3797 -0.1109
  128MPD2    C5 1994   3.047   2.846   9.877  0.4691 -0.1038  0.1432
  128MPD2     H 1995   3.391   2.712   9.811 -0.3243 -1.4153 -0.3056
  128MPD2    H1 1996   3.128   3.033   9.830  0.1123  0.9073  2.9829
  128MPD2    H2 1997   2.987   2.650   9.928  0.9061 -1.8445 -0.5644
  128MPD2    H3 1998   2.955   2.896   9.901  1.1726  0.9202  0.7020
  128MPD2     N 1999   3.394   2.953   9.780  0.3599  0.4470  0.1889
  128MPD2    H5 2000   3.484   2.906   9.772 -0.2052 -0.3422 -1.6710
  128MPD2    N1 2001   3.212   2.524   9.875 -0.1380 -0.3470  0.1257
  128MPD2    H7 2002   3.133   2.468   9.908 -0.2329  0.2332  0.8991
  129TMC2    C1 2003   2.466   2.595   1.269 -0.0317 -0.4132 -0.2631
  129TMC2    C2 2004   2.592   2.629   1.322  0.0916  0.9534  0.0843
  129TMC2    C3 2005   2.685   2.533   1.330  0.2512 -0.0520 -0.4623
  129TMC2    C4 2006   2.431   2.471   1.241 -0.1762 -0.7137  0.2162
  129TMC2    C5 2007   2.520   2.368   1.260 -0.7238 -0.3041  0.2724
  129TMC2    C6 2008   2.648   2.399   1.311  0.2087 -0.2058  0.2356
  129TMC2     C 2009   2.348   2.666   1.301  0.1163  0.5451 -0.6791
  129TMC2     O 2010   2.247   2.602   1.309  0.4206  0.6713 -0.3744
  129TMC2     H 2011   2.624   2.732   1.334 -0.0795  0.8746  1.2163
  129TMC2    H1 2012   2.341   2.442   1.188 -0.0712  0.2669 -0.4781
  129TMC2    H2 2013   2.722   2.320   1.323  0.6423  0.5391  2.5928
  129TMC2    C7 2014   2.474   2.240   1.239  0.4638  1.2001  0.0302
  129TMC2    C8 2015   2.825   2.568   1.318 -0.0602 -0.0572 -0.9078
  129TMC2    O1 2016   2.363   2.231   1.185 -0.6993 -0.1147 -0.0458
  129TMC2    O2 2017   2.899   2.499   1.254  0.6301 -0.4300  0.2808
  129TMC2    O5 2018   2.854   2.657   1.409 -0.0877  0.8255  0.1539
  129TMC2    H5 2019   2.780   2.698   1.459 -2.3744 -0.4176 -2.2404
  130MPD2     C 2020   2.136   2.858   1.349 -0.6187 -0.0450  0.7243
  130MPD2    C1 2021   2.271   2.897   1.348  0.3642 -0.0851  0.8086
  130MPD2    C2 2022   2.301   3.031   1.374 -0.5800 -0.0970  0.0314
  130MPD2    C3 2023   2.200   3.123   1.397  0.3369 -0.3700 -0.1668
  130MPD2    C4 2024   2.070   3.089   1.392  0.3344  0.1067 -0.3248
  130MPD2    C5 2025   2.044   2.959   1.368 -0.9780 -0.0295 -0.2204
  130MPD2     H 2026   2.404   3.062   1.371 -0.4141 -0.7364 -1.0319
  130MPD2    H1 2027   1.991   3.162   1.408  0.6048  0.2551  0.3238
  130MPD2    H2 2028   2.099   2.762   1.316  0.3931 -0.5527  1.0441
  130MPD2    H3 2029   1.943   2.947   1.330 -0.5120 -0.6971 -1.2698
  130MPD2     N 2030   2.233   3.262   1.401 -0.2457 -0.0487  0.8093
  130MPD2    H5 2031   2.331   3.280   1.382 -0.6008 -0.5751 -1.4343
  130MPD2    N1 2032   2.370   2.802   1.323 -0.0392 -0.0665  0.1658
  130MPD2    H7 2033   2.461   2.842   1.307  0.4605 -1.6259 -0.8022
  131TMC2    C1 2034   0.896   1.891   9.870  0.4477 -0.3612  0.4653
  131TMC2    C2 2035   0.966   1.957   9.968 -0.2645  0.3812 -0.4741
  131TMC2    C3 2036   0.962   2.097   9.961 -1.1694  0.2439 -0.2335
  131TMC2    C4 2037   0.846   1.963   9.760 -0.4038  0.2566 -0.9729
  131TMC2    C5 2038   0.845   2.101   9.756  0.3251 -0.0660 -0.2377
  131TMC2    C6 2039   0.906   2.172   9.857 -0.2572  0.1171 -0.7687
  131TMC2     C 2040   0.901   1.745   9.858 -0.3854 -0.0348  0.4834
  131TMC2     O 2041   0.974   1.688   9.937 -0.4024 -0.0173 -0.2563
  131TMC2     H 2042   1.009   1.902  10.051  0.0860 -0.6658 -1.3391
  131TMC2    H1 2043   0.809   1.917   9.669 -0.0696 -1.3523 -0.2863
  131TMC2    H2 2044   0.900   2.280   9.859 -2.2336 -0.0776  4.2023
  131TMC2    C7 2045   0.788   2.171   9.637 -0.6388  0.9494  0.1809
  131TMC2    C8 2046   1.025   2.187  10.060 -0.0021 -1.0829  1.0001
  131TMC2    O1 2047   0.743   2.099   9.545  0.0934  1.0478  0.5719
  131TMC2    O2 2048   1.092   2.284  10.029 -0.4493  0.8954 -0.1800
  131TMC2    O5 2049   1.022   2.133  10.181  0.1234  0.2145 -0.4250
  131TMC2    H5 2050   0.959   2.062  10.204 -0.7995 -0.1782 -4.2261
  132MPD2     C 2051   0.723   1.520   9.626  0.7868  0.2053 -0.1546
  132MPD2    C1 2052   0.791   1.552   9.743  0.4392  0.4841  0.1059
  132MPD2    C2 2053   0.840   1.446   9.823 -0.1359  0.6445 -0.5332
  132MPD2    C3 2054   0.832   1.316   9.783  0.5813 -0.6592 -0.5082
  132MPD2    C4 2055   0.743   1.287   9.676  0.1106 -0.3423 -0.2473
  132MPD2    C5 2056   0.694   1.394   9.597 -0.2428  0.6005  1.0079
  132MPD2     H 2057   0.895   1.465   9.914  0.5002  1.9716 -1.1941
  132MPD2    H1 2058   0.725   1.186   9.642  0.7926  0.7399 -3.8217
  132MPD2    H2 2059   0.688   1.587   9.549  0.5365  1.4981  1.0800
  132MPD2    H3 2060   0.643   1.371   9.504  3.6923  2.6025 -1.6227
  132MPD2     N 2061   0.892   1.220   9.867  0.9790 -0.6653  0.2954
  132MPD2    H5 2062   0.945   1.250   9.948 -1.6241 -0.9887  2.1418
  132MPD2    N1 2063   0.816   1.692   9.760  0.1292 -0.4937 -0.6373
  132MPD2    H7 2064   0.770   1.751   9.691  0.3628 -0.7452 -1.0079
  133TMC2    C1 2065   4.263   3.315   9.274  0.6627  0.4732 -1.1043
  133TMC2    C2 2066   4.386   3.328   9.203 -0.5448  0.1751 -0.3171
  133TMC2    C3 2067   4.379   3.367   9.066  0.3167 -0.1166 -0.0120
  133TMC2    C4 2068   4.157   3.330   9.194 -0.0078  0.3977  0.1695
  133TMC2    C5 2069   4.153   3.376   9.064 -0.7672  0.1567  0.9980
  133TMC2    C6 2070   4.267   3.393   8.993  0.6279  0.6883 -0.1215
  133TMC2     C 2071   4.257   3.216   9.379  0.1122 -0.1944 -0.2304
  133TMC2     O 2072   4.159   3.146   9.374 -0.8176  0.4374  0.0446
  133TMC2     H 2073   4.477   3.292   9.249 -1.8721 -1.2899  1.1487
  133TMC2    H1 2074   4.063   3.311   9.245 -1.4700 -0.3233 -2.8162
  133TMC2    H2 2075   4.273   3.409   8.886 -0.4930 -0.7046 -0.3953
  133TMC2    C7 2076   4.029   3.423   9.012  0.4580 -0.1130  0.2591
  133TMC2    C8 2077   4.497   3.354   8.984 -0.4338 -0.4279 -0.0523
  133TMC2    O1 2078   3.928   3.376   9.062  0.1868 -0.3701  0.0780
  133TMC2    O2 2079   4.493   3.325   8.867  0.2598 -0.2546 -0.1139
  133TMC2    O5 2080   4.593   3.418   9.056  0.3150 -0.3946 -0.1433
  133TMC2    H5 2081   4.556   3.467   9.133  2.6908 -0.1595  0.8726
  134MPD2     C 2082   4.455   3.170   9.681  0.0273 -0.0540  0.0855
  134MPD2    C1 2083   4.370   3.132   9.576  0.2040 -0.4333  0.3584
  134MPD2    C2 2084   4.315   3.008   9.574  1.2254 -0.0820 -0.1319
  134MPD2    C3 2085   4.342   2.921   9.681 -0.2263 -0.1982  0.1954
  134MPD2    C4 2086   4.422   2.958   9.785 -0.4927 -0.0179  0.9763
  134MPD2    C5 2087   4.483   3.088   9.783 -0.3451  1.0838 -0.2810
  134MPD2     H 2088   4.246   2.965   9.502 -1.2132  0.6133  1.7803
  134MPD2    H1 2089   4.428   2.890   9.869 -0.4265 -0.2986  0.7467
  134MPD2    H2 2090   4.495   3.270   9.679  0.3329 -0.1848 -0.4585
  134MPD2    H3 2091   4.542   3.123   9.867  0.2508  1.1509 -0.7293
  134MPD2     N 2092   4.307   2.784   9.680  0.1253  0.5078  0.0654
  134MPD2    H5 2093   4.348   2.728   9.755  1.5021 -1.6776 -2.3174
  134MPD2    N1 2094   4.354   3.226   9.472 -1.1350 -0.1962  0.1905
  134MPD2    H7 2095   4.409   3.311   9.470  2.6710 -2.6208  1.4202
  135TMC2    C1 2096   2.058   4.626   9.538 -0.8505 -0.1829 -0.2124
  135TMC2    C2 2097   2.110   0.022   9.507  0.4354 -0.1044 -0.1899
  135TMC2    C3 2098   2.024   0.125   9.503 -0.0809  0.2772 -0.4558
  135TMC2    C4 2099   1.925   4.616   9.582  0.0626 -0.0030  0.7055
  135TMC2    C5 2100   1.841   4.716   9.549  0.1633  1.2022  0.5734
  135TMC2    C6 2101   1.891   0.107   9.512 -0.1694  1.1387  0.1376
  135TMC2     C 2102   2.150   4.511   9.562 -0.2444  0.0354  0.1196
  135TMC2     O 2103   2.114   4.429   9.646 -0.2545 -0.1746 -0.4082
  135TMC2     H 2104   2.214   0.039   9.486  0.5271 -0.5127 -0.0794
  135TMC2    H1 2105   1.888   4.514   9.592  1.0230 -0.2412  1.9222
  135TMC2    H2 2106   1.815   0.183   9.500  0.8086  1.9513 -0.9646
  135TMC2    C7 2107   1.696   4.699   9.535 -0.7178  1.1700  1.0936
  135TMC2    C8 2108   2.080   0.249   9.444 -0.1178  0.5310  0.2996
  135TMC2    O1 2109   1.635   0.057   9.474 -0.3842  0.0381  0.0610
  135TMC2    O2 2110   2.176   0.254   9.368  0.4542  0.4021  0.0745
  135TMC2    O5 2111   2.010   0.348   9.499 -0.2467 -0.3542 -0.0338
  135TMC2    H5 2112   1.957   0.316   9.575 -0.8375 -1.4081 -0.8958
  136MPD2     C 2113   2.368   4.299   9.549  0.4025  0.0911 -0.1279
  136MPD2    C1 2114   2.361   4.415   9.470  0.3200 -0.0737  0.4728
  136MPD2    C2 2115   2.456   4.431   9.376 -0.0763  0.4880  0.0238
  136MPD2    C3 2116   2.573   4.359   9.377  0.1635  0.3898 -0.5071
  136MPD2    C4 2117   2.583   4.250   9.463 -1.0265  0.3959 -0.6353
  136MPD2    C5 2118   2.481   4.220   9.551  0.0506 -0.9365 -0.0446
  136MPD2     H 2119   2.453   4.509   9.302  0.7968  1.9554  1.5186
  136MPD2    H1 2120   2.675   4.192   9.455 -2.4324 -2.0092  0.8019
  136MPD2    H2 2121   2.291   4.263   9.617  0.7300 -2.0843 -0.9033
  136MPD2    H3 2122   2.493   4.138   9.621  0.8557 -0.0158  0.8950
  136MPD2     N 2123   2.688   4.390   9.300 -0.3195 -0.0162 -0.1733
  136MPD2    H5 2124   2.764   4.324   9.313  1.0984  1.2560 -2.1028
  136MPD2    N1 2125   2.257   4.509   9.476 -0.4224 -0.5464 -0.1476
  136MPD2    H7 2126   2.254   4.573   9.397 -0.3984  0.2724  0.5299
  137TMC2    C1 2127   1.335   3.998   9.145 -0.2158  0.4050  0.6123
  137TMC2    C2 2128   1.300   4.134   9.148  0.3912 -0.0333  0.6351
  137TMC2    C3 2129   1.178   4.174   9.098  0.6337 -0.3159 -0.5483
  137TMC2    C4 2130   1.247   3.907   9.095 -0.5146 -0.7686 -0.0972
  137TMC2    C5 2131   1.125   3.951   9.050  1.1116  0.8781  0.2873
  137TMC2    C6 2132   1.085   4.085   9.054  0.0137 -0.4882 -0.2843
  137TMC2     C 2133   1.470   3.957   9.139 -0.5274 -0.4789  0.6424
  137TMC2     O 2134   1.488   3.839   9.132 -0.2183  0.0241  0.1991
  137TMC2     H 2135   1.370   4.208   9.185 -2.7953  2.2713  2.0372
  137TMC2    H1 2136   1.286   3.814   9.054  4.0430 -0.4937  3.5877
  137TMC2    H2 2137   0.986   4.120   9.030  0.0268 -0.5763 -0.4674
  137TMC2    C7 2138   1.035   3.845   9.009  0.1367  0.2373 -0.5057
  137TMC2    C8 2139   1.137   4.297   9.152 -0.2534  0.3697  0.4405
  137TMC2    O1 2140   0.933   3.882   8.946  0.5442  0.9493 -0.0742
  137TMC2    O2 2141   1.216   4.390   9.162 -0.2490 -0.6977  0.1023
  137TMC2    O5 2142   1.030   4.276   9.221  0.1665  0.2495  0.4470
  137TMC2    H5 2143   0.992   4.186   9.218  0.5381  0.0969  0.3534
  138MPD2     C 2144   1.745   4.153   8.984 -0.1168 -0.1005 -0.3363
  138MPD2    C1 2145   1.689   4.064   9.072 -0.1281  0.2442 -0.3264
  138MPD2    C2 2146   1.771   3.959   9.126 -0.5442 -0.0559 -0.3917
  138MPD2    C3 2147   1.898   3.946   9.092  0.0964 -0.5956  0.4872
  138MPD2    C4 2148   1.954   4.032   9.003  0.2061  0.7745 -0.0997
  138MPD2    C5 2149   1.877   4.140   8.961  0.1899 -0.5600 -0.2805
  138MPD2     H 2150   1.726   3.880   9.184 -0.0105 -0.7678 -0.9604
  138MPD2    H1 2151   2.057   4.024   8.969 -0.0222 -0.3802 -0.4989
  138MPD2    H2 2152   1.690   4.228   8.928 -1.3091  1.2971  2.7033
  138MPD2    H3 2153   1.930   4.203   8.891  1.2697 -1.6517 -0.4729
  138MPD2     N 2154   1.962   3.834   9.148  0.3373 -0.1771 -0.5758
  138MPD2    H5 2155   1.909   3.781   9.216 -0.5333  1.7399  0.2492
  138MPD2    N1 2156   1.549   4.068   9.090 -0.3810  0.6298  1.0010
  138MPD2    H7 2157   1.500   4.154   9.069 -1.2744  0.2073  1.3319
  139TMC2    C1 2158   3.709   1.289  12.944 -0.4488 -0.4618 -0.1573
  139TMC2    C2 2159   3.696   1.346  12.821 -0.1575 -0.2392  0.2082
  139TMC2    C3 2160   3.648   1.475  12.818  0.0729  0.1037  0.1866
  139TMC2    C4 2161   3.670   1.352  13.063 -0.4117 -0.4120 -0.2477
  139TMC2    C5 2162   3.615   1.483  13.053 -0.0412 -0.2862  0.6170
  139TMC2    C6 2163   3.602   1.543  12.928 -0.1479  0.0518  0.2928
  139TMC2     C 2164   3.809   1.190  12.958  0.2522 -0.3162 -0.4783
  139TMC2     O 2165   3.795   1.087  12.893 -0.7483  0.3517 -0.1634
  139TMC2     H 2166   3.752   1.308  12.736 -2.4375  0.9713 -1.8460
  139TMC2    H1 2167   3.672   1.301  13.159  0.2193 -1.6662 -0.9166
  139TMC2    H2 2168   3.554   1.639  12.920  3.2131  1.7624  0.5207
  139TMC2    C7 2169   3.502   1.538  13.139  0.4273  0.2150  0.4807
  139TMC2    C8 2170   3.641   1.551  12.696 -0.0691  0.1016  0.5148
  139TMC2    O1 2171   3.410   1.598  13.084  0.1433 -0.0441 -0.2939
  139TMC2    O2 2172   3.603   1.669  12.692  0.2234 -0.0849  0.0625
  139TMC2    O5 2173   3.586   1.457  12.613  0.1708  0.3116  0.0453
  139TMC2    H5 2174   3.607   1.362  12.620 -3.2867 -0.5224 -0.6066
  140MPD2     C 2175   4.028   1.147  13.260 -0.2919 -0.8455 -0.9433
  140MPD2    C1 2176   3.953   1.112  13.146  0.6077  0.0189 -0.3371
  140MPD2    C2 2177   3.927   0.978  13.123  0.0604 -0.1144  0.4351
  140MPD2    C3 2178   3.971   0.882  13.204  0.2158  0.4693 -0.0757
  140MPD2    C4 2179   4.047   0.913  13.315 -0.3698 -0.2058 -0.0967
  140MPD2    C5 2180   4.081   1.047  13.334 -0.4588 -0.1536 -0.0302
  140MPD2     H 2181   3.870   0.954  13.034  2.8930 -0.5760 -1.2592
  140MPD2    H1 2182   4.084   0.832  13.378 -2.0219 -1.3640 -0.6251
  140MPD2    H2 2183   4.053   1.248  13.292 -0.4522 -1.3160  0.6417
  140MPD2    H3 2184   4.142   1.073  13.419 -0.3629 -0.2808 -0.0596
  140MPD2     N 2185   3.917   0.750  13.176 -0.1133  0.4348  0.5390
  140MPD2    H5 2186   3.863   0.744  13.090 -2.0985  0.2122  1.7904
  140MPD2    N1 2187   3.893   1.216  13.069 -0.8195  0.0331 -0.4555
  140MPD2    H7 2188   3.912   1.313  13.091  0.5339 -0.0816 -1.1570
  141TMC2    C1 2189   3.825   2.714  13.756 -0.8300  0.4543 -0.4881
  141TMC2    C2 2190   3.716   2.704  13.672  0.1714 -0.6248  0.3798
  141TMC2    C3 2191   3.633   2.809  13.654  0.3229  0.1283  0.2865
  141TMC2    C4 2192   3.838   2.825  13.835  0.3683  0.3587 -0.5049
  141TMC2    C5 2193   3.738   2.919  13.839  0.4152 -0.9279  0.1217
  141TMC2    C6 2194   3.642   2.914  13.742 -0.0821 -0.0609 -0.2933
  141TMC2     C 2195   3.938   2.630  13.732 -0.2648  0.1807  0.5687
  141TMC2     O 2196   3.987   2.621  13.619 -0.0342  0.6838 -0.4417
  141TMC2     H 2197   3.706   2.614  13.612 -1.9275  1.7078 -2.7542
  141TMC2    H1 2198   3.925   2.835  13.899 -0.4929 -0.0284  0.7133
  141TMC2    H2 2199   3.560   2.985  13.738  1.6950  1.9735 -0.7592
  141TMC2    C7 2200   3.746   3.042  13.920  0.5114  0.1285  0.7668
  141TMC2    C8 2201   3.517   2.802  13.559 -0.7368 -0.2313  0.3849
  141TMC2    O1 2202   3.662   3.129  13.898 -0.4230 -0.3239  0.1994
  141TMC2    O2 2203   3.471   2.896  13.498 -0.1885  0.3136 -0.2754
  141TMC2    O5 2204   3.462   2.678  13.579  0.0651  0.3716 -0.1632
  141TMC2    H5 2205   3.495   2.640  13.664  0.4462 -0.0070 -0.4840
  142TMC2    C1 2206   1.256   1.244   9.671 -0.3856  0.6003 -0.0720
  142TMC2    C2 2207   1.187   1.283   9.561  0.4859  0.1047 -0.0881
  142TMC2    C3 2208   1.152   1.415   9.551 -0.4046 -0.6352 -0.1413
  142TMC2    C4 2209   1.274   1.327   9.780  0.0492  0.1122 -0.3207
  142TMC2    C5 2210   1.221   1.453   9.776 -0.7128 -0.3260  0.2145
  142TMC2    C6 2211   1.158   1.496   9.663  0.3433  0.0476 -0.2114
  142TMC2     C 2212   1.286   1.102   9.685 -0.5573 -0.3259 -0.6275
  142TMC2     O 2213   1.218   1.016   9.626 -0.3792 -0.5267  0.2513
  142TMC2     H 2214   1.174   1.219   9.475 -0.0911  0.6089 -0.3771
  142TMC2    H1 2215   1.337   1.299   9.863  0.1989  2.1789  0.2607
  142TMC2    H2 2216   1.105   1.591   9.664  1.3276  0.6078 -1.0934
  142TMC2    C7 2217   1.289   1.542   9.868  0.2570 -0.0831 -0.2750
  142TMC2    C8 2218   1.079   1.432   9.428 -0.3241 -0.1773 -0.2232
  142TMC2    O1 2219   1.360   1.490   9.952 -0.1348 -0.0924  0.0279
  142TMC2    O2 2220   1.031   1.340   9.363 -0.0171 -0.0266 -0.3835
  142TMC2    O5 2221   1.069   1.564   9.409 -0.4281  0.0759  0.4760
  142TMC2    H5 2222   1.111   1.620   9.478  0.6752  1.8484 -1.6478
  143MPD2     C 2223   1.459   0.719   9.969 -0.0027  1.4048  0.2967
  143MPD2    C1 2224   1.349   0.717   9.885  0.1493  0.5816 -0.9443
  143MPD2    C2 2225   1.327   0.839   9.817 -0.2221 -0.4238  0.2493
  143MPD2    C3 2226   1.403   0.954   9.837  0.0970 -1.1651 -0.3054
  143MPD2    C4 2227   1.508   0.952   9.926 -0.1098  0.8009  0.3368
  143MPD2    C5 2228   1.537   0.835   9.989  0.6914  0.1876 -0.2937
  143MPD2     H 2229   1.245   0.837   9.748  0.8830  1.0791 -1.0968
  143MPD2    H1 2230   1.559   1.046   9.948  1.5719  0.3078 -1.3704
  143MPD2    H2 2231   1.485   0.624  10.015  0.2220  1.9468  1.2842
  143MPD2    H3 2232   1.618   0.823  10.060 -0.4077  1.3258  1.1478
  143MPD2     N 2233   1.377   1.081   9.781 -0.0827 -0.2382  0.3631
  143MPD2    H5 2234   1.432   1.160   9.813 -0.9716  0.6501 -0.3139
  143MPD2    N1 2235   1.270   0.598   9.871  0.0794  0.1246 -0.4657
  143MPD2    H7 2236   1.314   0.511   9.899 -0.8386  0.2059  1.1936
  144TMC2    C1 2237   4.654   0.090   0.849 -0.3491 -0.6650  0.3366
  144TMC2    C2 2238   0.036   0.009   0.843  0.0759  0.0659 -0.1694
  144TMC2    C3 2239   0.107   4.726   0.960 -0.2058 -0.0370  1.5333
  144TMC2    C4 2240   4.610   0.140   0.965  0.0698  0.3045  0.1201
  144TMC2    C5 2241   4.688   0.126   1.077  0.3605 -0.1748 -0.0588
  144TMC2    C6 2242   0.075   0.056   1.077  0.2756  0.0276  0.0306
  144TMC2     C 2243   4.560   0.076   0.743 -1.0390  0.3904 -0.2751
  144TMC2     O 2244   4.582   4.712   0.670  0.0250  0.1674  0.2671
  144TMC2     H 2245   0.072   4.692   0.752  1.9100  2.6079 -0.7518
  144TMC2    H1 2246   4.513   0.188   0.976  0.0862 -0.3682  3.2086
  144TMC2    H2 2247   0.132   0.024   1.164 -0.1541 -0.3617  0.1700
  144TMC2    C7 2248   4.638   0.178   1.212  0.0562  0.1275  0.0650
  144TMC2    C8 2249   0.219   4.627   0.947  0.0316  0.3556 -0.4110
  144TMC2    O1 2250   4.687   0.130   1.315  0.0073  0.0246 -0.0963
  144TMC2    O2 2251   0.259   4.586   0.838  0.3250  0.5015 -0.0299
  144TMC2    O5 2252   0.212   4.554   1.058  0.6958 -0.4528 -0.4206
  144TMC2    H5 2253   0.176   4.592   1.141  0.7013 -0.0979 -0.5790
  145MPD2     C 2254   4.166   0.196   0.432 -0.1962 -0.5652 -0.2056
  145MPD2    C1 2255   4.234   0.079   0.443 -1.3027  0.5689 -0.1420
  145MPD2    C2 2256   4.337   0.076   0.537  0.5006 -0.6790  0.1523
  145MPD2    C3 2257   4.363   0.174   0.629 -0.1728 -0.2092 -0.2261
  145MPD2    C4 2258   4.277   0.288   0.620 -0.3907 -0.6321  0.1245
  145MPD2    C5 2259   4.191   0.299   0.516  0.0393 -0.2691 -0.4893
  145MPD2     H 2260   4.395   4.714   0.550  1.0595 -0.0043  2.4572
  145MPD2    H1 2261   4.300   0.369   0.688 -2.3710 -0.3506  0.4674
  145MPD2    H2 2262   4.086   0.227   0.366  0.0149  0.6984  0.1383
  145MPD2    H3 2263   4.135   0.392   0.513  0.3223 -0.0965 -0.4311
  145MPD2     N 2264   4.467   0.173   0.726 -0.2131  0.1676 -0.2243
  145MPD2    H5 2265   4.476   0.255   0.786  0.0459 -0.4008  0.5148
  145MPD2    N1 2266   4.207   4.694   0.369 -0.3536 -0.3119 -0.5253
  145MPD2    H7 2267   4.270   4.618   0.390 -0.6429 -0.5410 -0.4782
  146TMC2    C1 2268   1.245   3.466  12.460 -0.1276  0.0341 -0.6766
  146TMC2    C2 2269   1.305   3.513  12.346  0.0116 -0.4091  0.1572
  146TMC2    C3 2270   1.332   3.422  12.250 -0.2490 -0.0599  0.2394
  146TMC2    C4 2271   1.222   3.336  12.481  0.4918  0.2387  0.7901
  146TMC2    C5 2272   1.247   3.251  12.378 -0.2294  1.0211  0.5200
  146TMC2    C6 2273   1.296   3.286  12.265 -0.5047  0.3461 -0.0472
  146TMC2     C 2274   1.235   3.574  12.562 -0.5038  0.1399  0.0327
  146TMC2     O 2275   1.225   3.693  12.525  0.3417 -0.4093  0.3174
  146TMC2     H 2276   1.327   3.619  12.341 -1.9002 -0.0589 -0.7379
  146TMC2    H1 2277   1.165   3.313  12.570  0.6670  1.4749  1.2278
  146TMC2    H2 2278   1.320   3.221  12.182  2.6100  3.4602 -1.5771
  146TMC2    C7 2279   1.216   3.111  12.402 -0.4361  0.0038 -0.3677
  146TMC2    C8 2280   1.391   3.473  12.129 -0.5510 -0.4680 -0.1045
  146TMC2    O1 2281   1.184   3.033  12.310 -0.4399  0.1908  0.1209
  146TMC2    O2 2282   1.367   3.590  12.091 -0.7535  0.0451 -0.8996
  146TMC2    O5 2283   1.488   3.389  12.085  0.1253 -0.3622 -0.4166
  146TMC2    H5 2284   1.510   3.310  12.139  0.3791 -0.0065  0.0023
  147MPD2     C 2285   1.271   2.705  12.694  0.0569  0.6631  0.3622
  147MPD2    C1 2286   1.327   2.810  12.762 -0.2535  0.3260  0.4214
  147MPD2    C2 2287   1.320   2.936  12.705 -0.0591 -0.5441 -0.9450
  147MPD2    C3 2288   1.270   2.955  12.579 -0.0346 -0.7945  0.1639
  147MPD2    C4 2289   1.231   2.843  12.508 -0.9476 -0.4537 -0.5896
  147MPD2    C5 2290   1.227   2.721  12.562  0.1877 -0.2448  0.2449
  147MPD2     H 2291   1.346   3.029  12.755 -2.4048  0.1569 -0.9961
  147MPD2    H1 2292   1.196   2.836  12.405 -0.8511  1.6940 -0.7735
  147MPD2    H2 2293   1.274   2.603  12.730  0.1083  0.4484 -0.2492
  147MPD2    H3 2294   1.184   2.635  12.512 -0.5724  0.3020 -0.0311
  147MPD2     N 2295   1.253   3.083  12.529  0.1575  0.2288  0.3614
  147MPD2    H5 2296   1.281   3.156  12.593  1.3342  0.2163 -0.1455
  147MPD2    N1 2297   1.384   2.784  12.893 -0.4083 -0.4316 -0.2662
  147MPD2    H7 2298   1.381   2.689  12.928  0.6432 -0.1601  0.5380
  148TMC2    C1 2299   1.278   1.987  11.151  0.3080  0.3034 -0.5410
  148TMC2    C2 2300   1.380   2.069  11.199  0.1587  0.1637  0.0397
  148TMC2    C3 2301   1.505   2.052  11.150 -1.1101 -0.7448  0.1429
  148TMC2    C4 2302   1.303   1.892  11.054  0.0899  0.1578 -0.3923
  148TMC2    C5 2303   1.433   1.878  11.008 -0.4776  0.5807  0.5722
  148TMC2    C6 2304   1.539   1.956  11.055 -0.4710 -0.5367 -0.4548
  148TMC2     C 2305   1.148   2.020  11.188  0.0860  0.2519  0.2732
  148TMC2     O 2306   1.128   2.064  11.298 -0.0281  0.0403 -0.4676
  148TMC2     H 2307   1.364   2.143  11.277  0.3939 -2.6503  2.7375
  148TMC2    H1 2308   1.231   1.820  11.017 -0.3840 -0.4369  1.7263
  148TMC2    H2 2309   1.640   1.942  11.020  0.1144  0.1168  0.9773
  148TMC2    C7 2310   1.454   1.792  10.891 -0.4720  0.4848  0.7196
  148TMC2    C8 2311   1.605   2.148  11.184  0.1545 -0.8549 -0.1368
  148TMC2    O1 2312   1.469   1.674  10.919 -0.6923  0.1384 -0.0791
  148TMC2    O2 2313   1.723   2.117  11.171 -0.3112  0.1249 -0.1865
  148TMC2    O5 2314   1.558   2.268  11.144 -0.1806  0.3408  0.3752
  148TMC2    H5 2315   1.462   2.288  11.142 -0.4660 -1.1218 -0.5441
  149MPD2     C 2316   0.852   2.048  11.221 -0.1160 -0.8878  0.3046
  149MPD2    C1 2317   0.923   2.051  11.100  0.5803 -0.3173  0.3811
  149MPD2    C2 2318   0.848   2.065  10.989  0.8856  0.5381 -0.1233
  149MPD2    C3 2319   0.712   2.079  10.984 -0.1300 -1.1777  0.6447
  149MPD2    C4 2320   0.646   2.090  11.107  0.1567  0.2409  0.3961
  149MPD2    C5 2321   0.720   2.078  11.219 -0.5388 -0.1369  0.5394
  149MPD2     H 2322   0.909   2.064  10.899  0.0099 -1.4061 -0.6930
  149MPD2    H1 2323   0.539   2.101  11.118  0.2466  2.0101 -0.4939
  149MPD2    H2 2324   0.905   2.032  11.313  0.2917  2.1498  0.6178
  149MPD2    H3 2325   0.667   2.081  11.313  1.2771  0.4917  1.5322
  149MPD2     N 2326   0.641   2.101  10.863 -0.4740 -0.2815 -0.2623
  149MPD2    H5 2327   0.545   2.129  10.879 -0.3308  0.3937 -0.5833
  149MPD2    N1 2328   1.061   2.020  11.088  0.1595 -0.4506  0.1521
  149MPD2    H7 2329   1.092   1.995  10.995  1.6681  0.4836  0.4164
  150TMC2    C1 2330   3.414   1.492  12.194 -0.4110  0.4500 -0.0905
  150TMC2    C2 2331   3.409   1.542  12.066  0.1280  0.1955  0.4814
  150TMC2    C3 2332   3.518   1.606  12.018 -0.4895 -0.1170  0.3119
  150TMC2    C4 2333   3.535   1.498  12.256 -0.4449  0.0847  0.3268
  150TMC2    C5 2334   3.634   1.571  12.208 -0.0999 -0.1379  0.2192
  150TMC2    C6 2335   3.633   1.632  12.087  0.2327  0.6955  0.3285
  150TMC2     C 2336   3.309   1.411  12.247 -0.2957  0.0153  1.1429
  150TMC2     O 2337   3.324   1.338  12.339  0.3450  0.0732  0.6626
  150TMC2     H 2338   3.328   1.535  11.994 -1.1576 -1.4638  2.0657
  150TMC2    H1 2339   3.535   1.470  12.361 -2.9789 -1.7885 -0.1686
  150TMC2    H2 2340   3.717   1.693  12.056  1.8262 -1.0463  1.2192
  150TMC2    C7 2341   3.732   1.624  12.295 -0.1406 -0.5732 -0.5421
  150TMC2    C8 2342   3.517   1.633  11.881 -0.9981 -0.3294 -0.5757
  150TMC2    O1 2343   3.787   1.732  12.263 -0.3693  0.2674  0.5068
  150TMC2    O2 2344   3.461   1.558  11.802  0.3819 -0.6773 -0.2905
  150TMC2    O5 2345   3.520   1.761  11.867  0.0365 -0.2174  0.2105
  150TMC2    H5 2346   3.544   1.814  11.946  0.3422 -2.5951  1.7031
  151MPD2     C 2347   2.811   1.292  12.281 -0.3135 -0.3029  0.5082
  151MPD2    C1 2348   2.827   1.363  12.174 -0.1399 -0.6580 -0.0106
  151MPD2    C2 2349   2.950   1.415  12.140  0.1447  0.6020  0.1660
  151MPD2    C3 2350   3.058   1.396  12.218  0.5154 -0.2030  0.2346
  151MPD2    C4 2351   3.036   1.315  12.328  0.1889  0.4346 -0.3232
  151MPD2    C5 2352   2.918   1.260  12.359  0.5039  0.0906  0.3712
  151MPD2     H 2353   2.972   1.473  12.050  2.1380 -1.3050 -0.5751
  151MPD2    H1 2354   3.120   1.293  12.393 -0.8107  1.7605  1.4144
  151MPD2    H2 2355   2.717   1.248  12.310 -0.1072 -1.4142 -0.5083
  151MPD2    H3 2356   2.905   1.192  12.443 -2.5668 -0.4673 -0.5878
  151MPD2     N 2357   3.188   1.446  12.185  0.0595  0.4862  0.3936
  151MPD2    H5 2358   3.200   1.499  12.099  1.1782  0.0208  0.2570
  151MPD2    N1 2359   2.709   1.372  12.087  0.3997 -0.3954  0.8361
  151MPD2    H7 2360   2.632   1.311  12.112 -1.0432  1.2615  0.4219
  152TMC2    C1 2361   3.424   1.855  12.425  0.1356  0.0928 -0.1089
  152TMC2    C2 2362   3.424   1.906  12.302  0.3240  0.0559  0.1852
  152TMC2    C3 2363   3.535   1.983  12.257  0.5466 -0.0481  0.5792
  152TMC2    C4 2364   3.523   1.890  12.513  0.0092  0.2899 -0.0021
  152TMC2    C5 2365   3.626   1.973  12.471  0.3426 -0.3754 -0.3859
  152TMC2    C6 2366   3.632   2.022  12.341  0.3009  0.0381  0.0402
  152TMC2     C 2367   3.326   1.757  12.465  0.3227  0.5770 -0.6001
  152TMC2     O 2368   3.228   1.773  12.397 -0.5409 -0.3701 -0.0987
  152TMC2     H 2369   3.365   1.857  12.225 -0.6720 -1.5512  1.9771
  152TMC2    H1 2370   3.497   1.884  12.618  2.6745  0.8019  0.6966
  152TMC2    H2 2371   3.710   2.088  12.304  1.3341 -0.5512  1.1442
  152TMC2    C7 2372   3.729   1.996  12.568 -0.4857 -0.3744  0.1629
  152TMC2    C8 2373   3.540   2.023  12.116 -0.7733  0.1660  0.9941
  152TMC2    O1 2374   3.798   2.090  12.535 -0.1184 -0.0153 -0.2973
  152TMC2    O2 2375   3.574   1.933  12.044 -0.3426  0.4445  0.8276
  152TMC2    O5 2376   3.587   2.152  12.115  0.0118 -0.0581  0.4750
  152TMC2    H5 2377   3.548   2.217  12.177 -0.1762  0.0067  0.2884
  153MPD2     C 2378   3.290   1.547  12.766 -0.6999 -0.7485  0.7411
  153MPD2    C1 2379   3.251   1.601  12.643  0.1562  0.2716 -0.1111
  153MPD2    C2 2380   3.118   1.588  12.601 -0.7047  0.5998  0.4761
  153MPD2    C3 2381   3.022   1.507  12.673 -0.3108 -0.1158 -0.2619
  153MPD2    C4 2382   3.072   1.450  12.792 -0.3402 -0.0885 -0.7286
  153MPD2    C5 2383   3.199   1.484  12.841 -0.0079  0.6239 -0.0828
  153MPD2     H 2384   3.077   1.633  12.512  0.9002  1.8096  0.3434
  153MPD2    H1 2385   3.018   1.377  12.850  0.4508 -1.4770 -1.7182
  153MPD2    H2 2386   3.384   1.562  12.818 -0.0328  3.6695 -1.7459
  153MPD2    H3 2387   3.220   1.449  12.942  2.2049  2.4569  0.0954
  153MPD2     N 2388   2.891   1.492  12.615  0.1619  0.5598 -0.4642
  153MPD2    H5 2389   2.878   1.536  12.525 -2.2611 -0.4846 -0.6112
  153MPD2    N1 2390   3.352   1.678  12.575  0.1822 -0.0232 -0.1795
  153MPD2    H7 2391   3.439   1.691  12.625  0.5674 -2.6321 -0.1276
  154TMC2    C1 2392   4.088   1.222  17.712  0.0633 -0.3036  0.4588
  154TMC2    C2 2393   4.212   1.166  17.702 -0.0916 -0.1746 -0.2021
  154TMC2    C3 2394   4.268   1.174  17.577 -0.1431  0.0897 -0.5753
  154TMC2    C4 2395   4.019   1.265  17.603  0.0723  0.3436  0.3381
  154TMC2    C5 2396   4.083   1.278  17.485  0.3626 -0.5770 -0.6472
  154TMC2    C6 2397   4.207   1.231  17.465  0.4087  0.0580  0.0988
  154TMC2     C 2398   4.033   1.236   0.129  0.3462 -0.1287  0.0770
  154TMC2     O 2399   4.119   1.232   0.217  0.1207 -0.2787  0.3278
  154TMC2     H 2400   4.267   1.125   0.069 -0.7931 -2.0580 -0.6542
  154TMC2    H1 2401   3.916   1.299  17.604 -0.1120 -0.1501 -1.2182
  154TMC2    H2 2402   4.264   1.231  17.373 -0.1205 -1.5860 -0.2356
  154TMC2    C7 2403   4.006   1.301  17.361  0.0581 -0.6769  0.1298
  154TMC2    C8 2404   4.402   1.124  17.560  0.2558 -0.1945  0.2943
  154TMC2    O1 2405   4.045   1.242  17.261  0.0534 -0.1956 -0.1391
  154TMC2    O2 2406   4.447   1.090  17.447  0.2168 -0.5728 -0.6577
  154TMC2    O5 2407   4.467   1.130  17.680 -0.1432 -0.1985  0.4655
  154TMC2    H5 2408   4.426   1.192   0.027 -0.5824 -0.5251  0.5019
  155MPD2     C 2409   3.696   1.286   0.242  0.0188  0.1684 -0.5142
  155MPD2    C1 2410   3.827   1.291   0.247  0.2297 -0.6505 -0.1784
  155MPD2    C2 2411   3.888   1.332   0.361  0.2195 -0.5257  0.0056
  155MPD2    C3 2412   3.817   1.371   0.470 -0.3730 -0.0740  0.3482
  155MPD2    C4 2413   3.682   1.355   0.476 -0.2021  0.1781 -0.0448
  155MPD2    C5 2414   3.619   1.316   0.352  0.2134  0.0950  0.7153
  155MPD2     H 2415   3.996   1.346   0.368 -0.0990  1.8975  0.1292
  155MPD2    H1 2416   3.609   1.377   0.553  1.8114  3.1256  1.0265
  155MPD2    H2 2417   3.653   1.250   0.149  0.8528  3.9934 -2.3514
  155MPD2    H3 2418   3.511   1.320   0.354  0.1029 -2.4879 -0.6058
  155MPD2     N 2419   3.894   1.425   0.579 -0.6699  0.3436  0.6913
  155MPD2    H5 2420   3.995   1.422   0.569 -0.5772 -0.0779  1.7125
  155MPD2    N1 2421   3.896   1.261   0.132 -0.1649 -0.2865 -0.4039
  155MPD2    H7 2422   3.841   1.240   0.050 -1.4509  2.9301 -0.3763
  156TMC2    C1 2423   3.442   3.416  11.422  0.1775 -0.7177 -0.0639
  156TMC2    C2 2424   3.529   3.307  11.421 -0.4690  0.3853 -0.8826
  156TMC2    C3 2425   3.539   3.229  11.307 -0.2666  0.5937  0.1754
  156TMC2    C4 2426   3.366   3.449  11.314 -0.0809 -0.0817  0.6598
  156TMC2    C5 2427   3.381   3.368  11.204  0.0226  0.2725  0.2281
  156TMC2    C6 2428   3.469   3.263  11.189  0.3150 -1.1454  0.3908
  156TMC2     C 2429   3.432   3.494  11.542 -0.3909 -0.2022  0.3544
  156TMC2     O 2430   3.362   3.595  11.534 -0.2687  0.7932 -0.5861
  156TMC2     H 2431   3.592   3.284  11.507 -1.8598  0.6016  0.1950
  156TMC2    H1 2432   3.289   3.525  11.323  0.7656  0.7425  0.9551
  156TMC2    H2 2433   3.502   3.226  11.093 -0.7647 -1.1994  0.0367
  156TMC2    C7 2434   3.306   3.402  11.084 -0.1948  0.2592  0.1944
  156TMC2    C8 2435   3.677   3.182  11.287  0.7275 -0.1055  0.0365
  156TMC2    O1 2436   3.277   3.309  11.006 -0.4830  0.3371 -0.2625
  156TMC2    O2 2437   3.775   3.234  11.329  0.3024  0.2970  0.1676
  156TMC2    O5 2438   3.674   3.084  11.194 -0.0057 -0.0407 -0.6356
  156TMC2    H5 2439   3.584   3.046  11.187 -1.5249  2.7883  3.3233
  157MPD2     C 2440   3.463   3.390  11.899 -0.0419 -0.0265  0.3785
  157MPD2    C1 2441   3.453   3.481  11.793 -0.3150  0.1962 -0.0975
  157MPD2    C2 2442   3.427   3.617  11.821 -0.0213  0.5152  0.7681
  157MPD2    C3 2443   3.419   3.662  11.950  0.3021 -0.3621 -0.0358
  157MPD2    C4 2444   3.449   3.574  12.049  0.4161  0.2549  0.1390
  157MPD2    C5 2445   3.458   3.437  12.019 -0.2168  0.2993  0.8384
  157MPD2     H 2446   3.444   3.687  11.741  0.0551 -0.1860  0.1658
  157MPD2    H1 2447   3.444   3.605  12.153  0.3352  1.6729 -0.2917
  157MPD2    H2 2448   3.487   3.286  11.882  0.0629 -0.0200  0.4875
  157MPD2    H3 2449   3.457   3.362  12.097  2.1822  1.1681  1.7129
  157MPD2     N 2450   3.413   3.804  11.976  0.0004 -0.3851 -0.2078
  157MPD2    H5 2451   3.422   3.870  11.900 -0.3168 -0.5255 -0.3659
  157MPD2    N1 2452   3.464   3.423  11.658  0.1804  0.1592 -0.3529
  157MPD2    H7 2453   3.498   3.327  11.659 -0.3436 -0.0563 -2.0025
  158TMC2    C1 2454   3.868   2.249  13.270  0.2167  0.0604  0.1027
  158TMC2    C2 2455   3.981   2.297  13.218 -0.3489 -0.6520 -0.0070
  158TMC2    C3 2456   3.964   2.387  13.115 -0.3877 -0.4660 -0.6818
  158TMC2    C4 2457   3.740   2.265  13.212 -0.0111 -0.6626  0.3383
  158TMC2    C5 2458   3.732   2.338  13.100  0.6842 -0.6056  0.4902
  158TMC2    C6 2459   3.842   2.407  13.054 -0.5225  0.0184 -0.6843
  158TMC2     C 2460   3.885   2.198  13.402  0.0118 -0.3403  0.2252
  158TMC2     O 2461   3.990   2.142  13.426 -0.2186 -0.0120 -0.0273
  158TMC2     H 2462   4.080   2.288  13.262 -0.6655 -2.3185  0.3679
  158TMC2    H1 2463   3.655   2.223  13.263 -0.1150  0.3469  0.9945
  158TMC2    H2 2464   3.839   2.480  12.974  0.4085  0.5212 -0.2570
  158TMC2    C7 2465   3.604   2.372  13.049  0.4088  0.2674 -0.3490
  158TMC2    C8 2466   4.064   2.489  13.123 -0.0118 -0.3041 -0.2327
  158TMC2    O1 2467   3.606   2.457  12.957  0.6555 -0.0068 -0.0815
  158TMC2    O2 2468   4.086   2.530  13.238  0.5341  0.1094 -0.2465
  158TMC2    O5 2469   4.062   2.563  13.011  0.1119 -0.3084  0.0618
  158TMC2    H5 2470   4.036   2.508  12.935  1.6494  0.4035 -0.9843
  159MPD2     C 2471   3.784   2.197  13.901  0.1736 -0.6217 -0.6070
  159MPD2    C1 2472   3.706   2.292  13.843  0.7787  0.0955 -0.0277
  159MPD2    C2 2473   3.697   2.297  13.704  1.1413  0.0562 -0.1911
  159MPD2    C3 2474   3.784   2.227  13.627  0.7670  0.3894  0.7961
  159MPD2    C4 2475   3.878   2.149  13.687  0.2790  0.1002  0.2896
  159MPD2    C5 2476   3.868   2.124  13.819 -0.3269 -0.6066  0.8295
  159MPD2     H 2477   3.630   2.368  13.658  1.9776  0.9928  0.0486
  159MPD2    H1 2478   3.956   2.096  13.633 -0.0671 -1.0489  0.9151
  159MPD2    H2 2479   3.778   2.185  14.008  2.3255  0.6307 -0.3374
  159MPD2    H3 2480   3.946   2.064  13.865  1.5199 -0.1422 -1.6507
  159MPD2     N 2481   3.783   2.240  13.485  0.1824 -0.3356 -0.4818
  159MPD2    H5 2482   3.713   2.303  13.446  1.0020  0.3079 -0.9252
  159MPD2    N1 2483   3.618   2.362  13.926  0.6638 -0.8257  0.0862
  159MPD2    H7 2484   3.607   2.338  14.024  1.6264 -0.6842  0.2294
  160TMC2    C1 2485   3.606   0.537   1.181  0.2486  0.6191  0.2233
  160TMC2    C2 2486   3.719   0.465   1.198  0.1108 -0.3358  0.3598
  160TMC2    C3 2487   3.805   0.458   1.094  0.0530  0.2812 -0.1837
  160TMC2    C4 2488   3.572   0.596   1.063  0.0265 -0.1589 -0.7536
  160TMC2    C5 2489   3.666   0.574   0.958  0.0701  0.2266 -0.1016
  160TMC2    C6 2490   3.786   0.513   0.970 -0.7133  0.0700 -0.3352
  160TMC2     C 2491   3.504   0.534   1.292  0.2788 -0.5523 -0.3497
  160TMC2     O 2492   3.538   0.489   1.398  0.0018 -0.7260 -0.1505
  160TMC2     H 2493   3.744   0.434   1.299  0.7877  1.0224  0.6082
  160TMC2    H1 2494   3.488   0.664   1.053 -0.1801 -0.1241  1.2356
  160TMC2    H2 2495   3.857   0.498   0.889 -1.4747 -0.5700 -0.8866
  160TMC2    C7 2496   3.653   0.654   0.841 -0.0470 -0.8257 -0.0047
  160TMC2    C8 2497   3.909   0.360   1.103  0.5962 -0.6929  1.0175
  160TMC2    O1 2498   3.701   0.615   0.736 -0.2099 -0.5462  0.4611
  160TMC2    O2 2499   3.997   0.345   1.021  0.4841 -0.0183  0.6703
  160TMC2    O5 2500   3.850   0.253   1.160  0.3801 -0.9686  0.2931
  160TMC2    H5 2501   3.758   0.278   1.185  0.6483 -0.4414  0.7627
  161MPD2     C 2502   3.318   0.691   1.479  0.6697  0.2740  0.9373
  161MPD2    C1 2503   3.293   0.662   1.344 -0.6506 -0.1699  0.5915
  161MPD2    C2 2504   3.181   0.719   1.289 -0.5879 -0.8504  0.3347
  161MPD2    C3 2505   3.098   0.803   1.360  0.1380 -0.6588  0.1263
  161MPD2    C4 2506   3.126   0.827   1.490  0.0599 -0.5510  0.0538
  161MPD2    C5 2507   3.234   0.765   1.549 -0.0518 -0.1640 -0.4171
  161MPD2     H 2508   3.156   0.700   1.186  0.3307  1.9064 -0.3948
  161MPD2    H1 2509   3.060   0.887   1.552 -2.3860 -1.2458 -1.8632
  161MPD2    H2 2510   3.410   0.655   1.523 -0.4520 -1.8649  1.5407
  161MPD2    H3 2511   3.255   0.778   1.654  1.4866 -0.1751 -0.7109
  161MPD2     N 2512   2.982   0.863   1.304  0.6730 -0.5708  0.1354
  161MPD2    H5 2513   2.936   0.937   1.354 -0.0624  0.9285 -2.7279
  161MPD2    N1 2514   3.389   0.600   1.258  0.6233 -0.1706  0.4617
  161MPD2    H7 2515   3.359   0.602   1.161  0.6825 -1.2268  0.4148
  162TMC2    C1 2516   0.983   2.266   1.114  0.3169  0.3545  0.2221
  162TMC2    C2 2517   0.899   2.329   1.201  0.1451 -0.2776 -0.3333
  162TMC2    C3 2518   0.936   2.353   1.327 -0.2981  0.2076  0.3937
  162TMC2    C4 2519   1.113   2.242   1.162 -0.2843 -0.0764  0.0200
  162TMC2    C5 2520   1.147   2.264   1.292  0.2716  0.1293  0.5894
  162TMC2    C6 2521   1.060   2.322   1.375  0.5205 -0.3465 -0.9971
  162TMC2     C 2522   0.965   2.259   0.969  0.1746  0.1895 -0.0226
  162TMC2     O 2523   1.061   2.217   0.910  0.0889 -0.0812  0.2949
  162TMC2     H 2524   0.795   2.353   1.180  0.4727  2.1846  0.8690
  162TMC2    H1 2525   1.181   2.194   1.094 -1.0134 -1.6920  0.4215
  162TMC2    H2 2526   1.080   2.330   1.481 -0.7800 -2.0640 -0.6101
  162TMC2    C7 2527   1.280   2.282   1.327  0.8232  0.0903  0.2853
  162TMC2    C8 2528   0.848   2.429   1.412  0.4369  0.2479  0.5585
  162TMC2    O1 2529   1.306   2.364   1.413 -0.3657  0.3231  0.0955
  162TMC2    O2 2530   0.733   2.396   1.442  0.2255  0.1123  0.4630
  162TMC2    O5 2531   0.929   2.515   1.467 -0.3161  0.1550  0.3524
  162TMC2    H5 2532   1.006   2.529   1.409 -2.4006  0.1851 -2.4440
  163MPD2     C 2533   0.661   2.205   0.568 -0.4802 -0.2469 -0.6799
  163MPD2    C1 2534   0.795   2.238   0.573 -0.2862  0.0246  0.0829
  163MPD2    C2 2535   0.851   2.254   0.698  0.2264 -0.3906 -0.2995
  163MPD2    C3 2536   0.776   2.227   0.810  0.9017 -0.6055  0.1722
  163MPD2    C4 2537   0.645   2.189   0.793  0.3241 -0.4828  0.1707
  163MPD2    C5 2538   0.585   2.180   0.676 -0.0353 -0.8757  0.5871
  163MPD2     H 2539   0.957   2.277   0.710 -0.0171  0.5357  0.0900
  163MPD2    H1 2540   0.580   2.160   0.875  0.2118  0.3312  0.3640
  163MPD2    H2 2541   0.603   2.195   0.477 -1.7050 -2.5384  0.3621
  163MPD2    H3 2542   0.482   2.155   0.657 -1.0981  2.5158  1.8278
  163MPD2     N 2543   0.828   2.247   0.938 -0.1965 -0.3912 -0.1459
  163MPD2    H5 2544   0.765   2.253   1.018 -0.7917  0.7159 -0.7002
  163MPD2    N1 2545   0.870   2.244   0.451  0.1032  0.0915 -0.3014
  163MPD2    H7 2546   0.835   2.217   0.360 -1.0669 -0.1572  0.2217
  164TMC2    C1 2547   1.780   2.139  11.482  0.5140  0.7436 -0.2911
  164TMC2    C2 2548   1.876   2.211  11.417 -0.3161  0.5666 -0.1205
  164TMC2    C3 2549   1.838   2.340  11.369 -0.6668 -0.2252 -0.2232
  164TMC2    C4 2550   1.650   2.180  11.490 -0.9270 -0.5085  0.3842
  164TMC2    C5 2551   1.624   2.310  11.456 -0.1920 -0.0964 -0.3421
  164TMC2    C6 2552   1.712   2.397  11.389 -0.2611  0.0020  0.0730
  164TMC2     C 2553   1.802   1.999  11.502  0.6794 -1.1365 -0.0460
  164TMC2     O 2554   1.872   1.951  11.410 -0.5010 -0.5397 -0.3060
  164TMC2     H 2555   1.971   2.168  11.387 -0.2825  0.6883 -0.1897
  164TMC2    H1 2556   1.571   2.113  11.519 -1.3018 -0.2469 -0.0185
  164TMC2    H2 2557   1.698   2.503  11.370  0.0389 -0.0621 -0.5146
  164TMC2    C7 2558   1.483   2.348  11.454 -0.1899 -0.5328  0.2687
  164TMC2    C8 2559   1.940   2.436  11.315  0.3061 -0.3439 -0.6694
  164TMC2    O1 2560   1.398   2.265  11.466 -0.0760  0.2167 -0.1364
  164TMC2    O2 2561   1.935   2.557  11.313  0.2167  0.3469  0.1350
  164TMC2    O5 2562   2.049   2.367  11.274  0.1475  0.3091 -0.0143
  164TMC2    H5 2563   2.034   2.273  11.252  0.6364  0.2923 -0.2486
  165TMC2    C1 2564   3.386   0.003   1.700  0.1295  0.2045  0.3079
  165TMC2    C2 2565   3.360   4.723   1.830 -0.4210 -0.3276 -0.0905
  165TMC2    C3 2566   3.458   4.693   1.920 -0.8852 -0.2205 -0.3901
  165TMC2    C4 2567   3.504   4.717   1.648  0.2020 -0.4228  0.7691
  165TMC2    C5 2568   3.602   4.676   1.734  0.4187 -0.3363  0.2804
  165TMC2    C6 2569   3.585   4.668   1.871 -0.5082  0.1183  0.8215
  165TMC2     C 2570   3.265   0.013   1.616  0.6327 -0.5411  0.3209
  165TMC2     O 2571   3.165   4.679   1.642 -0.0802 -0.7154  0.0910
  165TMC2     H 2572   3.261   0.026   1.863  1.5612 -0.2002  5.7493
  165TMC2    H1 2573   3.495   4.702   1.541 -0.5314 -1.8776  1.0382
  165TMC2    H2 2574   3.665   4.641   1.940  1.5272 -1.2529 -2.0471
  165TMC2    C7 2575   3.721   4.609   1.690  0.3621 -0.3612 -0.6654
  165TMC2    C8 2576   3.420   4.695   2.058  0.1928  0.0201  0.3728
  165TMC2    O1 2577   3.810   4.598   1.771 -0.0394 -0.1014 -0.3592
  165TMC2    O2 2578   3.337   0.044   2.110  0.0934  0.1411 -0.4945
  165TMC2    O5 2579   3.449   4.569   2.098  0.0265  0.2802 -0.1102
  165TMC2    H5 2580   3.500   4.517   2.033 -0.6837 -0.5921  0.0341
  166MPD2     C 2581   3.010   0.282   1.243  0.4010 -0.0297  0.0359
  166MPD2    C1 2582   2.976   0.150   1.288  0.3279 -0.4601  0.4926
  166MPD2    C2 2583   3.066   0.093   1.384 -0.8881  0.2272 -0.3984
  166MPD2    C3 2584   3.183   0.165   1.429  0.0160 -0.6020 -0.7437
  166MPD2    C4 2585   3.213   0.285   1.365 -0.1779 -0.2552  0.3598
  166MPD2    C5 2586   3.123   0.344   1.280 -0.4489  0.0625 -0.1428
  166MPD2     H 2587   3.051   4.723   1.423  1.3928  0.6114  1.4628
  166MPD2    H1 2588   3.301   0.340   1.395 -0.0303  0.6777 -1.7711
  166MPD2    H2 2589   2.941   0.334   1.178  0.9188  0.9316  0.2533
  166MPD2    H3 2590   3.144   0.440   1.235  2.4427 -0.2368  0.5071
  166MPD2     N 2591   3.277   0.116   1.528  0.0399  0.3433 -0.0683
  166MPD2    H5 2592   3.370   0.156   1.532 -0.0607  0.4561  1.4288
  166MPD2    N1 2593   2.859   0.095   1.228  0.9291  0.5800  0.0303
  166MPD2    H7 2594   2.804   0.159   1.172  1.0917 -1.4919 -2.4670
  167TMC2    C1 2595   1.153   2.144  12.705  0.6150 -0.4368 -0.0777
  167TMC2    C2 2596   1.194   2.158  12.831 -0.5734  1.0158  0.0291
  167TMC2    C3 2597   1.123   2.100  12.930  0.5995  0.1983 -0.4489
  167TMC2    C4 2598   1.046   2.063  12.667 -0.1994 -0.1427 -0.6128
  167TMC2    C5 2599   0.979   2.014  12.775 -0.3078  0.1755 -0.0132
  167TMC2    C6 2600   1.013   2.027  12.908  0.2118 -0.6332 -0.3438
  167TMC2     C 2601   1.222   2.221  12.604 -0.6801  0.9778  0.1376
  167TMC2     O 2602   1.286   2.324  12.635 -0.2661  0.7182 -0.0104
  167TMC2     H 2603   1.284   2.217  12.843  0.5459 -0.3355 -1.5845
  167TMC2    H1 2604   1.010   2.046  12.566  0.9088 -0.8341 -0.8897
  167TMC2    H2 2605   0.963   1.973  12.988 -1.0815 -1.9207 -2.0088
  167TMC2    C7 2606   0.875   1.901  12.752 -0.2838  0.6169 -0.5468
  167TMC2    C8 2607   1.149   2.134  13.069  0.0461 -0.5806 -0.2804
  167TMC2    O1 2608   0.806   1.869  12.843  0.3446 -0.3516  0.5834
  167TMC2    O2 2609   1.252   2.143  13.125 -0.1987  0.4799  0.1104
  167TMC2    O5 2610   1.034   2.142  13.128  0.0482 -0.0191  0.0160
  167TMC2    H5 2611   0.957   2.159  13.069 -0.0182  0.0456  0.1220
  168MPD2     C 2612   1.341   2.340  12.351 -0.1604  0.3796 -0.2752
  168MPD2    C1 2613   1.261   2.228  12.360 -0.0798 -0.2341 -0.4067
  168MPD2    C2 2614   1.237   2.147  12.246 -0.6089 -0.3791  0.1906
  168MPD2    C3 2615   1.286   2.186  12.119 -0.1395  0.2251  0.6791
  168MPD2    C4 2616   1.360   2.300  12.117 -0.1105  0.4220  0.5666
  168MPD2    C5 2617   1.378   2.383  12.229  0.1352  0.0585  0.4414
  168MPD2     H 2618   1.181   2.056  12.261  0.5266 -0.7439  2.1058
  168MPD2    H1 2619   1.405   2.336  12.026 -1.4287  2.8367  0.8900
  168MPD2    H2 2620   1.365   2.405  12.434 -1.0929 -0.2696  0.5012
  168MPD2    H3 2621   1.431   2.477  12.215 -1.0946  0.7206  0.2372
  168MPD2     N 2622   1.260   2.109  12.005  0.2592 -0.2805 -0.3388
  168MPD2    H5 2623   1.201   2.027  12.010  0.0617 -0.0835  0.4984
  168MPD2    N1 2624   1.204   2.173  12.479  0.4041  0.0374 -0.7583
  168MPD2    H7 2625   1.161   2.081  12.477  0.4534  0.0510 -3.2411
  169MPD1     C 2626   1.909   1.389   9.251 -0.0188 -0.0928  0.5412
  169MPD1    C1 2627   1.958   1.294   9.339 -0.1803 -0.3583 -0.2047
  169MPD1    C2 2628   2.084   1.304   9.388 -0.6468 -0.5190 -0.1486
  169MPD1    C3 2629   2.176   1.399   9.342 -0.6979 -0.1694 -0.1356
  169MPD1    C4 2630   2.128   1.481   9.242  0.0149  0.6689  0.3812
  169MPD1    C5 2631   2.001   1.472   9.193  0.2784 -0.1701 -0.3397
  169MPD1     H 2632   2.122   1.249   9.474  0.2725  2.0198  1.0588
  169MPD1    H1 2633   2.195   1.538   9.178 -0.4965  1.6209  0.6993
  169MPD1    H2 2634   1.805   1.389   9.218 -0.2676  0.5475  1.3206
  169MPD1    H3 2635   1.967   1.525   9.105 -0.4703 -0.5672 -0.2923
  169MPD1     N 2636   2.309   1.397   9.392  0.4101  1.1560 -0.2242
  169MPD1    H5 2637   2.337   1.335   9.468 -1.8735 -0.6873 -0.9012
  169MPD1    N1 2638   1.872   1.191   9.387 -0.0162 -0.1077 -0.3687
  169MPD1    H6 2639   1.925   1.112   9.421  0.1011  0.9878  2.0308
  169MPD1    H7 2640   1.796   1.163   9.325  0.8992  1.9039 -2.3961
  170MPD1     C 2641   2.628   0.278  13.023  0.4212 -0.0172  0.3262
  170MPD1    C1 2642   2.538   0.318  12.929  0.4607  0.2176  0.7575
  170MPD1    C2 2643   2.411   0.266  12.950  1.2877  0.0459 -0.1589
  170MPD1    C3 2644   2.376   0.211  13.071 -0.1572  0.5375 -0.1211
  170MPD1    C4 2645   2.466   0.211  13.172 -0.2524  0.3024  0.1205
  170MPD1    C5 2646   2.599   0.223  13.145  0.0562 -0.1496 -0.1174
  170MPD1     H 2647   2.342   0.251  12.868  1.5573  1.5435 -0.6548
  170MPD1    H1 2648   2.441   0.180  13.272 -1.3647  1.0466  0.0740
  170MPD1    H2 2649   2.734   0.297  13.011  0.2114  0.2945 -1.0057
  170MPD1    H3 2650   2.682   0.220  13.214 -3.4603  1.8994  4.2242
  170MPD1     N 2651   2.248   0.159  13.085  0.4111  0.1675  0.2995
  170MPD1    H5 2652   2.183   0.168  13.008  0.9635 -0.5810 -0.2504
  170MPD1    N1 2653   2.577   0.363  12.806 -0.3307  0.4161  0.2248
  170MPD1    H6 2654   2.655   0.428  12.814  0.2252 -0.0751 -1.0403
  170MPD1    H7 2655   2.496   0.407  12.762 -1.4732 -1.4049  0.4910
  171MPD1     C 2656   0.573   0.912  15.518  0.0630  0.2922 -0.2069
  171MPD1    C1 2657   0.473   0.818  15.527 -0.1155 -0.2103 -0.1546
  171MPD1    C2 2658   0.515   0.689  15.551  0.9698  0.4705  0.4957
  171MPD1    C3 2659   0.641   0.663  15.601 -0.0555  0.7947 -0.5923
  171MPD1    C4 2660   0.732   0.767  15.613 -0.1166 -0.1890  0.5208
  171MPD1    C5 2661   0.695   0.889  15.566 -0.1140 -0.0247  0.4824
  171MPD1     H 2662   0.451   0.602  15.543  1.0649  0.0912  3.6616
  171MPD1    H1 2663   0.833   0.743  15.642  0.3825  1.3864  0.0981
  171MPD1    H2 2664   0.552   1.008  15.472  0.4411  0.9887  1.0517
  171MPD1    H3 2665   0.760   0.976  15.561 -1.1687  0.8051  1.3548
  171MPD1     N 2666   0.690   0.537  15.652 -0.1142 -0.3001 -0.6473
  171MPD1    H5 2667   0.784   0.526  15.689  0.0094  1.7354 -0.3684
  171MPD1    N1 2668   0.346   0.851  15.482  0.3054  0.0043  0.1284
  171MPD1    H6 2669   0.270   0.794  15.519  0.0481 -1.3014 -2.3857
  171MPD1    H7 2670   0.324   0.948  15.464 -0.9522 -0.2339  0.3484
  172MPD1     C 2671   0.137   4.249   0.168 -0.3402  0.2766 -0.4153
  172MPD1    C1 2672   0.012   4.299   0.188 -0.6068 -0.3281 -1.0063
  172MPD1    C2 2673   0.009   4.423   0.251 -0.2914  0.3496 -0.2506
  172MPD1    C3 2674   0.120   4.514   0.254  0.1805  0.3210 -0.1572
  172MPD1    C4 2675   0.241   4.468   0.196 -0.1481  0.1698 -0.7326
  172MPD1    C5 2676   0.247   4.335   0.164 -0.0558 -0.1110  0.1700
  172MPD1     H 2677   4.641   4.457   0.284 -0.3140  1.3101 -1.2939
  172MPD1    H1 2678   0.330   4.529   0.183  0.4525 -0.9419 -1.9280
  172MPD1    H2 2679   0.157   4.144   0.150  0.6562  0.6095 -1.2985
  172MPD1    H3 2680   0.342   4.291   0.134 -0.4734  0.4096 -1.9261
  172MPD1     N 2681   0.107   4.645   0.307 -0.0968 -0.0509 -0.3415
  172MPD1    H5 2682   0.181   4.713   0.290  1.0850 -1.1032  0.7023
  172MPD1    N1 2683   4.627   4.220   0.181 -0.4854  0.2176  0.1385
  172MPD1    H6 2684   4.627   4.160   0.099 -2.8540  2.0339 -1.1686
  172MPD1    H7 2685   4.543   4.276   0.166 -0.1597  0.4738 -0.7662
  173MPD1     C 2686   1.204   0.244  13.506 -0.2065  0.8797  0.0080
  173MPD1    C1 2687   1.333   0.236  13.545 -0.5188 -0.4468  0.1685
  173MPD1    C2 2688   1.358   0.176  13.670  0.3695  0.4681  0.1708
  173MPD1    C3 2689   1.254   0.153  13.763  0.0396  0.1412  0.3430
  173MPD1    C4 2690   1.120   0.185  13.718  0.1905 -0.5939  0.1673
  173MPD1    C5 2691   1.097   0.235  13.597 -0.2474  0.4647 -0.2629
  173MPD1     H 2692   1.462   0.153  13.694 -0.2972  0.7824  3.2955
  173MPD1    H1 2693   1.037   0.163  13.784  0.8675  0.9920  1.5566
  173MPD1    H2 2694   1.185   0.284  13.407 -1.2710 -1.8920 -0.9218
  173MPD1    H3 2695   0.996   0.267  13.572 -1.1080 -1.2674  0.9942
  173MPD1     N 2696   1.288   0.095  13.887 -0.4929  0.8269  0.1973
  173MPD1    H5 2697   1.385   0.069  13.901 -1.0897 -0.6780  1.6743
  173MPD1    N1 2698   1.434   0.263  13.450  0.6414 -0.0171 -0.6942
  173MPD1    H6 2699   1.523   0.275  13.498  0.8263 -0.7861 -0.8474
  173MPD1    H7 2700   1.410   0.340  13.388  0.6671  0.6446  0.1142
  174MPD1     C 2701   1.913   4.354  14.015 -0.2334  0.5961 -0.6682
  174MPD1    C1 2702   1.868   4.324  14.140  0.3233  0.1937 -0.4529
  174MPD1    C2 2703   1.738   4.361  14.178 -0.0075 -0.1464 -0.0571
  174MPD1    C3 2704   1.648   4.406  14.083 -0.0513 -0.2247  0.4095
  174MPD1    C4 2705   1.691   4.422  13.956 -0.1747  0.1721 -0.3147
  174MPD1    C5 2706   1.819   4.402  13.924 -0.1812 -0.6007 -0.2346
  174MPD1     H 2707   1.698   4.356  14.278  1.6555 -0.8480  0.5872
  174MPD1    H1 2708   1.621   4.464  13.884 -0.8098 -1.7033 -0.7969
  174MPD1    H2 2709   2.015   4.331  13.988 -0.2312 -0.4256  0.2240
  174MPD1    H3 2710   1.853   4.423  13.824  0.3219  1.2360  0.3281
  174MPD1     N 2711   1.508   4.435  14.106 -0.2275 -0.5637 -0.7314
  174MPD1    H5 2712   1.463   4.475  14.025 -0.8674 -0.5607 -0.3727
  174MPD1    N1 2713   1.947   4.249  14.231  0.0167  0.2771 -0.0207
  174MPD1    H6 2714   1.928   4.265  14.329 -0.9384  1.7679 -0.4442
  174MPD1    H7 2715   2.045   4.277  14.223 -0.1714  1.4609  2.0086
  175MPD1     C 2716   4.711   0.787  15.667 -0.5203 -0.4497  0.3569
  175MPD1    C1 2717   4.588   0.750  15.624  0.2086 -0.5583  0.1647
  175MPD1    C2 2718   4.501   0.711  15.729 -0.5278 -0.6071 -0.2826
  175MPD1    C3 2719   4.534   0.713  15.862 -0.6995 -0.0409  0.3692
  175MPD1    C4 2720   4.661   0.747  15.900  0.0597  0.1067 -0.4224
  175MPD1    C5 2721   0.017   0.789  15.801 -0.4025 -0.7024  0.0538
  175MPD1     H 2722   4.399   0.683  15.704 -0.5127 -0.0289 -1.0066
  175MPD1    H1 2723   4.695   0.750  16.002 -1.7060  0.6695  0.1529
  175MPD1    H2 2724   0.054   0.835  15.601 -0.3395 -0.9728  0.1726
  175MPD1    H3 2725   0.115   0.821  15.836 -0.3814 -1.5431  0.7614
  175MPD1     N 2726   4.441   0.678  15.970 -0.0577 -0.2978 -0.1499
  175MPD1    H5 2727   4.476   0.689  16.065 -2.1802  0.8335  0.4946
  175MPD1    N1 2728   4.538   0.786  15.504  0.0656  0.0877  0.0256
  175MPD1    H6 2729   4.606   0.794  15.428  0.4078 -1.0273  0.2146
  175MPD1    H7 2730   4.462   0.725  15.475 -0.2980 -0.5272  2.3014
  176MPD1     C 2731   1.337   2.317  17.281  0.5185  0.3135 -0.9387
  176MPD1    C1 2732   1.344   2.416  17.178 -0.0616 -0.2574  0.7171
  176MPD1    C2 2733   1.352   2.545  17.218  0.0545  0.2053  0.7044
  176MPD1    C3 2734   1.384   2.594  17.345  0.2870  0.1059  0.2814
  176MPD1    C4 2735   1.405   2.495  17.440 -0.1085 -0.5688  0.6622
  176MPD1    C5 2736   1.363   2.365  17.404  0.0854 -0.1467 -0.2868
  176MPD1     H 2737   1.341   2.620  17.141  1.4012 -0.5772 -0.2377
  176MPD1    H1 2738   1.451   2.510  17.537  1.0727  1.0222 -0.1558
  176MPD1    H2 2739   1.338   2.209  17.271  1.4823  0.2062  0.3987
  176MPD1    H3 2740   1.387   2.296  17.484  0.7062 -0.7734 -1.0092
  176MPD1     N 2741   1.401   2.729  17.360  0.3513  0.2919 -0.4268
  176MPD1    H5 2742   1.393   2.788  17.277  3.0792  2.3541  0.7563
  176MPD1    N1 2743   1.329   2.378  17.042 -0.0854 -0.0878 -0.3002
  176MPD1    H6 2744   1.290   2.284  17.038  0.1010 -0.0968 -2.0279
  176MPD1    H7 2745   1.282   2.445  16.981  2.1257  0.1943 -1.7027
  177MPD1     C 2746   4.174   2.749  10.014 -0.4341 -0.2823  0.5856
  177MPD1    C1 2747   4.060   2.693   9.964 -0.6788  0.1386 -0.7538
  177MPD1    C2 2748   3.976   2.761   9.883 -0.4986 -0.4975  0.1688
  177MPD1    C3 2749   3.989   2.896   9.857 -0.5330 -0.0384 -0.3139
  177MPD1    C4 2750   4.093   2.957   9.916 -1.0127  0.1357  0.3637
  177MPD1    C5 2751   4.185   2.883   9.986 -0.2204 -0.4881 -0.2652
  177MPD1     H 2752   3.895   2.707   9.835  0.0238  1.9409 -3.4616
  177MPD1    H1 2753   4.120   3.061   9.902  1.0804 -0.2313  1.6489
  177MPD1    H2 2754   4.251   2.703  10.075  0.7367 -1.4406 -1.7751
  177MPD1    H3 2755   4.276   2.933  10.019  0.2506 -1.0315 -0.7327
  177MPD1     N 2756   3.889   2.961   9.779  1.3818 -0.3657  0.1772
  177MPD1    H5 2757   3.806   2.911   9.751  1.1764 -0.6322  1.2621
  177MPD1    N1 2758   4.054   2.551   9.977 -0.1373  0.7444 -0.6298
  177MPD1    H6 2759   3.958   2.518   9.991  0.3378 -0.3379  0.1353
  177MPD1    H7 2760   4.114   2.512  10.050 -1.3641  2.8292  1.4794
  178MPD1     C 2761   2.622   3.075   0.313 -0.1015 -0.1858 -0.3205
  178MPD1    C1 2762   2.514   3.019   0.249 -0.1596  0.3725  0.1474
  178MPD1    C2 2763   2.474   3.076   0.131  0.0427 -0.8274  0.5785
  178MPD1    C3 2764   2.525   3.196   0.093 -0.1288 -0.3633 -0.4450
  178MPD1    C4 2765   2.619   3.264   0.166 -0.3731 -0.9823  0.1970
  178MPD1    C5 2766   2.660   3.205   0.286 -0.6565  0.4777 -0.3035
  178MPD1     H 2767   2.413   3.018   0.063  1.0834 -1.1767 -0.0579
  178MPD1    H1 2768   2.658   3.362   0.138 -0.6772 -1.0592 -0.4987
  178MPD1    H2 2769   2.674   3.017   0.389  2.1065  0.5759 -1.2580
  178MPD1    H3 2770   2.724   3.253   0.359 -0.7534 -2.4359  1.6913
  178MPD1     N 2771   2.489   3.263  17.692 -0.6941 -0.2889 -0.2324
  178MPD1    H5 2772   2.543   3.344  17.663  2.4194 -1.7694  1.5443
  178MPD1    N1 2773   2.472   2.890   0.283  0.0667  0.0160 -0.3715
  178MPD1    H6 2774   2.374   2.881   0.258  0.3034  1.4729 -1.8298
  178MPD1    H7 2775   2.485   2.878   0.383 -0.1952 -0.4052 -0.3870
  179MPD1     C 2776   1.536   1.867  15.265 -0.1442 -0.5812  0.3110
  179MPD1    C1 2777   1.498   1.750  15.212 -0.8646  0.1928  0.7857
  179MPD1    C2 2778   1.486   1.643  15.294 -0.5846  0.7079  0.7393
  179MPD1    C3 2779   1.493   1.652  15.432  0.1195  0.0920  0.5071
  179MPD1    C4 2780   1.524   1.773  15.489  0.7375  0.4123  0.6181
  179MPD1    C5 2781   1.542   1.879  15.406  0.1267 -0.0964  0.3859
  179MPD1     H 2782   1.461   1.550  15.246  0.3867  1.7659 -1.8320
  179MPD1    H1 2783   1.524   1.795  15.595 -1.5908 -3.9269  1.5161
  179MPD1    H2 2784   1.567   1.944  15.196 -0.9203  1.1699  1.9286
  179MPD1    H3 2785   1.576   1.975  15.440  3.2884 -0.9176 -0.4591
  179MPD1     N 2786   1.478   1.544  15.523  0.0652  0.3428  0.2853
  179MPD1    H5 2787   1.507   1.552  15.620  2.9246 -0.5803 -0.4983
  179MPD1    N1 2788   1.490   1.725  15.075 -0.6939 -0.0352  0.6444
  179MPD1    H6 2789   1.444   1.807  15.037  2.6273  0.3724 -2.4336
  179MPD1    H7 2790   1.429   1.643  15.073  0.0613 -0.6321  1.5175
  180MPD1     C 2791   1.801   3.436  15.175  0.5757 -0.5968 -0.7747
  180MPD1    C1 2792   1.814   3.480  15.050 -0.7700 -1.0314 -0.4601
  180MPD1    C2 2793   1.734   3.421  14.948 -0.1408 -0.0116 -0.1585
  180MPD1    C3 2794   1.661   3.312  14.978  0.2800 -0.3162 -0.3556
  180MPD1    C4 2795   1.660   3.259  15.101 -0.4677  0.4249 -0.7355
  180MPD1    C5 2796   1.731   3.327  15.198 -0.6360  0.4753 -0.2984
  180MPD1     H 2797   1.736   3.459  14.847  2.6436  1.1854  0.3287
  180MPD1    H1 2798   1.595   3.176  15.125  0.2871 -0.0419 -0.3060
  180MPD1    H2 2799   1.860   3.479  15.255 -0.5482  1.9388 -1.2939
  180MPD1    H3 2800   1.733   3.286  15.298 -2.2613 -3.4567 -1.8980
  180MPD1     N 2801   1.583   3.259  14.871 -0.1128  0.3352 -0.5284
  180MPD1    H5 2802   1.582   3.309  14.783  0.8676 -1.3805 -1.5194
  180MPD1    N1 2803   1.889   3.592  15.020  0.2161  0.5591  0.5625
  180MPD1    H6 2804   1.939   3.587  14.932 -3.7377  0.9262 -1.7159
  180MPD1    H7 2805   1.957   3.631  15.085  0.5972  1.1969 -0.2191
  181MPD1     C 2806   3.157   0.942   9.671  0.5104 -0.3483  0.3971
  181MPD1    C1 2807   3.280   0.993   9.705 -0.5381  0.8533 -0.0295
  181MPD1    C2 2808   3.353   0.937   9.810 -0.5111 -0.5139  0.5156
  181MPD1    C3 2809   3.312   0.823   9.873 -0.2787  0.1930  0.6070
  181MPD1    C4 2810   3.190   0.776   9.836 -0.5503 -0.5035 -0.1200
  181MPD1    C5 2811   3.114   0.830   9.734  0.0510 -0.4972 -0.8109
  181MPD1     H 2812   3.451   0.980   9.828 -0.3624 -0.4075 -0.5488
  181MPD1    H1 2813   3.152   0.683   9.876  1.1022 -0.2956  1.9608
  181MPD1    H2 2814   3.098   0.990   9.594  1.0001 -0.6635 -0.1774
  181MPD1    H3 2815   3.019   0.778   9.722 -1.0672  1.2314  0.6976
  181MPD1     N 2816   3.385   0.748   9.967 -0.0476 -0.5018  0.1980
  181MPD1    H5 2817   3.348   0.658   9.996 -0.6454 -0.6717 -1.0523
  181MPD1    N1 2818   3.327   1.116   9.663 -0.2225 -0.2041  0.2178
  181MPD1    H6 2819   3.429   1.110   9.664 -0.3016 -2.1512 -1.9244
  181MPD1    H7 2820   3.295   1.125   9.567  0.5034 -2.0486 -0.2007
  182MPD1     C 2821   4.247   3.710   0.288 -0.0649 -0.6214 -0.1193
  182MPD1    C1 2822   4.256   3.720   0.425  0.3932 -0.2243 -1.0850
  182MPD1    C2 2823   4.143   3.733   0.498 -0.6000  0.3679  0.1515
  182MPD1    C3 2824   4.020   3.725   0.442  0.1950 -0.4245  0.0147
  182MPD1    C4 2825   4.014   3.706   0.304  0.8304  0.4189  0.4387
  182MPD1    C5 2826   4.128   3.699   0.228 -0.0204  0.6696  0.3067
  182MPD1     H 2827   4.163   3.738   0.604 -1.2372  1.8416  0.2091
  182MPD1    H1 2828   3.922   3.694   0.247  0.4911 -1.2664  1.3325
  182MPD1    H2 2829   4.337   3.717   0.228 -0.9381 -0.1805 -1.3832
  182MPD1    H3 2830   4.121   3.685   0.121  0.6600 -0.2379  0.3794
  182MPD1     N 2831   3.902   3.742   0.517 -0.7906  0.6449 -0.1950
  182MPD1    H5 2832   3.813   3.746   0.468 -0.0156  1.9999 -1.4970
  182MPD1    N1 2833   4.377   3.744   0.489 -0.4003 -0.4861 -0.0260
  182MPD1    H6 2834   4.453   3.708   0.432  1.1145 -0.3949  1.9284
  182MPD1    H7 2835   4.379   3.690   0.575  1.7920 -1.0530 -0.4391
  183MPD1     C 2836   4.219   3.738   9.253  0.0961  0.1759  0.1138
  183MPD1    C1 2837   4.278   3.748   9.374 -0.4765  0.6716 -0.0296
  183MPD1    C2 2838   4.337   3.859   9.424 -0.6584 -0.0216  1.0744
  183MPD1    C3 2839   4.325   3.975   9.348 -0.1267 -0.3642  0.5181
  183MPD1    C4 2840   4.261   3.965   9.227 -0.3400 -0.1036  0.8582
  183MPD1    C5 2841   4.216   3.848   9.178 -0.6967 -0.3473  0.1911
  183MPD1     H 2842   4.393   3.851   9.517 -1.5185 -1.5305  1.4639
  183MPD1    H1 2843   4.235   4.048   9.161  0.3040  0.7776  1.7125
  183MPD1    H2 2844   4.187   3.643   9.211  0.7320 -0.4252  0.9888
  183MPD1    H3 2845   4.171   3.840   9.080 -1.7128 -2.0783  0.8104
  183MPD1     N 2846   4.355   4.097   9.408  0.0431 -0.2103 -0.3556
  183MPD1    H5 2847   4.386   4.100   9.504 -0.0801 -1.2454 -0.2889
  183MPD1    N1 2848   4.305   3.631   9.448  0.6285  0.3679  0.4043
  183MPD1    H6 2849   4.306   3.647   9.548  0.5909  1.1876  0.2679
  183MPD1    H7 2850   4.227   3.567   9.436  1.8544 -1.3042  1.3640
  184MPD1     C 2851   3.343   1.900  10.225  0.5074 -0.2389  0.4449
  184MPD1    C1 2852   3.463   1.969  10.238 -0.1495  0.2049 -0.4546
  184MPD1    C2 2853   3.454   2.102  10.213 -0.3340  0.1235 -0.3729
  184MPD1    C3 2854   3.330   2.169  10.219 -0.2265  0.1242  0.5816
  184MPD1    C4 2855   3.212   2.100  10.232 -0.1216  0.1420  0.8239
  184MPD1    C5 2856   3.223   1.966  10.242 -0.1001  0.1153  0.2221
  184MPD1     H 2857   3.548   2.157  10.212 -0.0575 -0.3971 -2.1762
  184MPD1    H1 2858   3.113   2.144  10.241 -0.0273  0.4706  0.2389
  184MPD1    H2 2859   3.339   1.792  10.217 -0.3860 -0.2067  0.4993
  184MPD1    H3 2860   3.134   1.905  10.257 -0.2010 -0.0260 -0.9426
  184MPD1     N 2861   3.322   2.311  10.200 -0.0263  0.2584  0.3631
  184MPD1    H5 2862   3.231   2.357  10.201 -1.1754 -1.9906  0.3003
  184MPD1    N1 2863   3.586   1.898  10.238 -0.0285  0.1644 -0.0303
  184MPD1    H6 2864   3.657   1.960  10.276  1.7817 -1.8124 -0.1720
  184MPD1    H7 2865   3.580   1.806  10.283 -0.6879  0.6266  0.8086
  185MPD1     C 2866   2.779   3.112  10.432 -0.6832  0.2740  0.8128
  185MPD1    C1 2867   2.771   2.978  10.426  0.2457 -0.0493  0.1095
  185MPD1    C2 2868   2.870   2.902  10.362 -0.2638  0.0878  0.2514
  185MPD1    C3 2869   2.984   2.968  10.320  0.2686  0.3616 -0.3071
  185MPD1    C4 2870   2.990   3.104  10.343 -0.6716  0.0130 -0.0542
  185MPD1    C5 2871   2.886   3.184  10.389 -0.1210  0.3128  0.6072
  185MPD1     H 2872   2.843   2.800  10.339  0.6231  0.2260 -1.3451
  185MPD1    H1 2873   3.084   3.152  10.322  0.3833 -1.5130  1.1201
  185MPD1    H2 2874   2.693   3.165  10.471 -0.3115  1.7028 -0.3195
  185MPD1    H3 2875   2.901   3.287  10.421 -1.6851  0.8204 -0.3308
  185MPD1     N 2876   3.106   2.903  10.266  0.5567  0.0990 -0.1774
  185MPD1    H5 2877   3.187   2.962  10.248 -0.4281  1.5673  0.1714
  185MPD1    N1 2878   2.638   2.924  10.441 -0.4461 -0.0421  0.0259
  185MPD1    H6 2879   2.593   2.965  10.523 -1.0040 -0.8062  0.1054
  185MPD1    H7 2880   2.632   2.822  10.448 -1.5532 -0.0185 -0.7124
  186MPD1     C 2881   2.298   1.953  15.672  0.6970 -0.1687  0.0171
  186MPD1    C1 2882   2.204   1.867  15.721 -0.6776  1.1367 -1.1587
  186MPD1    C2 2883   2.102   1.912  15.798  0.6324 -1.1887 -0.2236
  186MPD1    C3 2884   2.112   2.046  15.846 -0.0924 -0.2068  0.2655
  186MPD1    C4 2885   2.209   2.127  15.805 -0.3775 -0.5904  0.4014
  186MPD1    C5 2886   2.295   2.081  15.709 -0.4797  0.1480  0.0655
  186MPD1     H 2887   2.036   1.845  15.851  0.8444 -0.6340  0.7335
  186MPD1    H1 2888   2.220   2.227  15.845 -0.7932  0.0734 -1.1548
  186MPD1    H2 2889   2.378   1.923  15.606 -0.6777 -1.9633 -0.8141
  186MPD1    H3 2890   2.372   2.146  15.669  0.9097 -1.6449 -0.1543
  186MPD1     N 2891   2.029   2.103  15.937  0.1720 -0.7187  0.5028
  186MPD1    H5 2892   2.051   2.198  15.964  0.6952 -0.8718  0.6115
  186MPD1    N1 2893   2.211   1.737  15.681  0.6084 -0.9951 -0.8451
  186MPD1    H6 2894   2.163   1.667  15.737 -2.6759  0.3426 -1.9621
  186MPD1    H7 2895   2.305   1.701  15.669  1.0048 -0.1958 -0.1018
  187MPD1     C 2896   1.701   3.832   0.130  0.2794  0.2221 -0.4031
  187MPD1    C1 2897   1.718   3.734   0.037 -0.7371  0.3616  0.3266
  187MPD1    C2 2898   1.660   3.741  17.629  0.1777 -0.7844 -0.3827
  187MPD1    C3 2899   1.577   3.847  17.602  0.8027 -0.7220 -0.2622
  187MPD1    C4 2900   1.578   3.959  17.682 -0.8218 -0.3956  0.1440
  187MPD1    C5 2901   1.639   3.946   0.090 -0.1463 -0.4918  0.2401
  187MPD1     H 2902   1.668   3.658  17.559 -2.0911 -0.8942 -0.5058
  187MPD1    H1 2903   1.526   4.052  17.658  2.3956  1.1847 -0.6979
  187MPD1    H2 2904   1.749   3.836   0.227 -0.2634 -0.4058 -0.1063
  187MPD1    H3 2905   1.637   4.034   0.153  3.2318  0.1270 -0.5364
  187MPD1     N 2906   1.492   3.856  17.489 -0.0216  0.1260  0.3768
  187MPD1    H5 2907   1.446   3.946  17.489  0.8966  0.5934  0.3483
  187MPD1    N1 2908   1.806   3.629   0.061 -0.1308  0.2430 -0.5545
  187MPD1    H6 2909   1.775   3.547   0.009  0.4428 -0.5563  0.3691
  187MPD1    H7 2910   1.812   3.615   0.162 -0.6572  2.1251 -0.2639
  188MPD1     C 2911   0.136   3.150   9.663  0.1430  0.2725  0.4001
  188MPD1    C1 2912   0.191   3.089   9.774  0.4061  0.2133  0.4281
  188MPD1    C2 2913   0.176   2.954   9.784  0.7954 -0.3386 -1.1810
  188MPD1    C3 2914   0.135   2.872   9.680  0.1179  0.5369 -0.0397
  188MPD1    C4 2915   0.088   2.934   9.562  1.0963 -0.1492  0.4699
  188MPD1    C5 2916   0.096   3.070   9.553 -0.3367  0.6136 -0.3184
  188MPD1     H 2917   0.206   2.900   9.874 -3.2357  1.1154  1.0644
  188MPD1    H1 2918   0.090   2.877   9.470  1.4330  0.5494  0.0427
  188MPD1    H2 2919   0.156   3.257   9.654 -1.4680  0.6844  1.7230
  188MPD1    H3 2920   0.070   3.110   9.456  1.0475 -2.6693 -2.0668
  188MPD1     N 2921   0.142   2.732   9.696  0.4912 -0.5792  0.6534
  188MPD1    H5 2922   0.181   2.689   9.779  0.7731 -0.5980  0.5142
  188MPD1    N1 2923   0.214   3.156   9.887 -0.3878 -0.0400  0.0547
  188MPD1    H6 2924   0.264   3.240   9.862  0.4314  0.1946  2.4304
  188MPD1    H7 2925   0.268   3.114   9.963 -3.3667 -2.5062  0.8194
  189MPD1     C 2926   3.145   4.572   0.522 -1.1987 -0.3551 -0.1309
  189MPD1    C1 2927   3.103   4.511   0.408  0.1154  1.2602  0.3652
  189MPD1    C2 2928   2.990   4.571   0.346 -0.4107  0.5766 -0.2883
  189MPD1    C3 2929   2.938   4.697   0.389 -0.2671 -0.1041  0.6248
  189MPD1    C4 2930   2.994   0.022   0.501  0.1315  0.0921  0.0588
  189MPD1    C5 2931   3.091   4.692   0.569 -1.1911  0.8538 -0.3165
  189MPD1     H 2932   2.934   4.516   0.271  0.7241 -1.5672  0.4234
  189MPD1    H1 2933   2.953   0.113   0.545  2.3144  0.0421  2.1875
  189MPD1    H2 2934   3.221   4.524   0.584  2.7841  3.8287 -1.7541
  189MPD1    H3 2935   3.120   0.006   0.664 -2.1118  1.3024 -0.2412
  189MPD1     N 2936   2.827   0.022   0.328  0.5984 -0.1801  0.3646
  189MPD1    H5 2937   2.776   4.689   0.266 -0.2366  1.7874 -0.9002
  189MPD1    N1 2938   3.122   4.375   0.389  0.4952  0.0787 -0.2323
  189MPD1    H6 2939   3.220   4.360   0.411  0.5642 -2.0457 -2.0121
  189MPD1    H7 2940   3.102   4.364   0.290 -1.1456 -2.3559  0.3540
  190MPD1     C 2941   0.831   3.361  15.480 -0.1990 -0.9435 -0.0408
  190MPD1    C1 2942   0.918   3.324  15.379 -0.0908  0.2581  0.5747
  190MPD1    C2 2943   0.991   3.208  15.402  0.4033  0.2528  0.5501
  190MPD1    C3 2944   0.956   3.118  15.500  0.9202 -0.3371 -0.2592
  190MPD1    C4 2945   0.857   3.152  15.586  0.0595 -0.0433  0.8769
  190MPD1    C5 2946   0.807   3.275  15.579 -0.3775 -0.0236  0.2171
  190MPD1     H 2947   1.071   3.181  15.334 -0.0339  0.8911 -0.2100
  190MPD1    H1 2948   0.824   3.086  15.665 -1.4577  0.2526  0.4863
  190MPD1    H2 2949   0.777   3.455  15.477 -0.5979 -1.1046  2.1077
  190MPD1    H3 2950   0.732   3.297  15.653  0.3447  0.7148  0.7290
  190MPD1     N 2951   1.018   2.990  15.493  0.4998 -0.7631  0.4691
  190MPD1    H5 2952   1.084   2.987  15.417 -0.2847  1.3603 -0.2986
  190MPD1    N1 2953   0.963   3.420  15.289  0.4797 -0.0491 -0.3738
  190MPD1    H6 2954   0.997   3.380  15.201 -1.3223  1.9946 -2.0136
  190MPD1    H7 2955   0.902   3.501  15.284  1.8876  0.8435 -3.1596
  191MPD1     C 2956   1.157   0.333  11.119  0.3043  0.1697  0.0298
  191MPD1    C1 2957   1.261   0.406  11.172  0.0586  0.1858  0.1897
  191MPD1    C2 2958   1.300   0.378  11.308 -1.2811 -0.1143  0.9831
  191MPD1    C3 2959   1.211   0.304  11.389  0.3212  0.3515  0.5028
  191MPD1    C4 2960   1.102   0.248  11.329  0.3499  0.1764  0.1511
  191MPD1    C5 2961   1.067   0.266  11.198  0.1919 -0.8562 -0.0937
  191MPD1     H 2962   1.384   0.431  11.352  0.9045 -2.5776 -0.2024
  191MPD1    H1 2963   1.038   0.179  11.384  0.3900 -1.1925 -1.5248
  191MPD1    H2 2964   1.140   0.336  11.012 -0.4549  0.9082  0.1808
  191MPD1    H3 2965   0.996   0.197  11.155  0.1075 -0.6696 -0.2464
  191MPD1     N 2966   1.256   0.287  11.523 -0.1891 -0.1026  0.2502
  191MPD1    H5 2967   1.337   0.340  11.554 -1.2333  1.4418  0.3245
  191MPD1    N1 2968   1.354   0.471  11.086  0.4438 -0.5038 -0.0349
  191MPD1    H6 2969   1.410   0.542  11.133  0.5281 -0.0749 -0.7853
  191MPD1    H7 2970   1.312   0.518  11.006 -0.9435 -0.0558  0.9455
  192MPD1     C 2971   1.877   4.602  11.510 -0.0835 -0.2926 -0.2669
  192MPD1    C1 2972   1.904   4.695  11.607  0.0356  0.4509 -1.7710
  192MPD1    C2 2973   1.804   0.002  11.696  0.2980  0.9223  0.2161
  192MPD1    C3 2974   1.678   4.667  11.694 -0.3928  0.5653 -0.8774
  192MPD1    C4 2975   1.659   4.566  11.599 -0.1480  0.2911  0.3274
  192MPD1    C5 2976   1.753   4.546  11.500  0.4905 -0.0115  0.1859
  192MPD1     H 2977   1.818   0.069  11.779  0.7146  0.6257  0.3880
  192MPD1    H1 2978   1.571   4.504  11.598  0.0962 -0.0572  0.2054
  192MPD1    H2 2979   1.945   4.572  11.431 -0.6505 -1.8082 -0.1717
  192MPD1    H3 2980   1.731   4.487  11.412 -0.3308 -0.5460  0.7562
  192MPD1     N 2981   1.564   4.705  11.771  0.0395  0.4211 -0.6939
  192MPD1    H5 2982   1.473   4.675  11.739  0.6702 -0.3042 -1.8076
  192MPD1    N1 2983   2.031   0.034  11.609  0.1367  0.2439  0.4145
  192MPD1    H6 2984   2.029   0.128  11.646 -3.8571  0.1303  0.5795
  192MPD1    H7 2985   2.068   0.052  11.516  0.9215 -0.4177  0.6022
  193MPD1     C 2986   0.389   0.265  16.525 -0.2801 -0.0382 -0.0191
  193MPD1    C1 2987   0.453   0.280  16.396  0.2023  0.0629 -0.1452
  193MPD1    C2 2988   0.568   0.357  16.396  0.2704 -0.1352  0.0736
  193MPD1    C3 2989   0.614   0.415  16.514 -0.1824  0.4616 -0.0546
  193MPD1    C4 2990   0.539   0.416  16.632  0.7249 -0.3917 -0.2320
  193MPD1    C5 2991   0.429   0.331  16.633 -0.1240  0.3433 -0.5151
  193MPD1     H 2992   0.643   0.371  16.320  0.2497 -2.7416 -0.4459
  193MPD1    H1 2993   0.580   0.441  16.729  0.2542 -0.0481 -0.1237
  193MPD1    H2 2994   0.309   0.194  16.537  0.9539 -1.1845  1.3283
  193MPD1    H3 2995   0.383   0.308  16.729 -0.2167  2.2615 -0.0910
  193MPD1     N 2996   0.744   0.478  16.526  0.3220  0.0524  0.2435
  193MPD1    H5 2997   0.760   0.529  16.613 -1.7166  0.6902  0.2432
  193MPD1    N1 2998   0.429   0.192  16.287  0.6825  0.2047  0.2489
  193MPD1    H6 2999   0.339   0.148  16.271  1.4082 -0.9477 -0.6524
  193MPD1    H7 3000   0.467   0.231  16.201  2.2871  0.3742  1.0429
  194MPD1     C 3001   2.938   2.656  17.420  0.5523  0.3132 -0.3835
  194MPD1    C1 3002   2.998   2.635  17.299 -0.1591 -0.5196  0.0400
  194MPD1    C2 3003   3.018   2.503  17.263  0.7627 -0.3711 -0.6231
  194MPD1    C3 3004   2.987   2.395  17.344  0.5765 -0.5697  0.5897
  194MPD1    C4 3005   2.929   2.416  17.472  0.0161  0.3463  0.8228
  194MPD1    C5 3006   2.904   2.549  17.507  0.2683 -0.1117  0.0377
  194MPD1     H 3007   3.069   2.493  17.167  1.4692  0.2230 -0.3123
  194MPD1    H1 3008   2.921   2.335  17.543 -0.7653  1.1447  1.6592
  194MPD1    H2 3009   2.910   2.758  17.447  1.6112  0.3967  0.4047
  194MPD1    H3 3010   2.860   2.583  17.601  0.9315  1.4894 -0.2307
  194MPD1     N 3011   3.019   2.261  17.311 -0.5431 -0.2587 -0.0420
  194MPD1    H5 3012   2.987   2.182  17.368  1.9999 -0.9206  0.4710
  194MPD1    N1 3013   3.037   2.745  17.217  0.3611  0.0164 -0.1757
  194MPD1    H6 3014   2.991   2.732  17.127  2.3235 -0.5041 -1.0862
  194MPD1    H7 3015   2.992   2.829  17.254  0.4284 -0.3180  0.6459
  195MPD1     C 3016   1.455   4.392   0.565  0.2380 -0.7516 -0.5789
  195MPD1    C1 3017   1.383   4.356   0.461 -0.0885 -0.1154 -0.5999
  195MPD1    C2 3018   1.357   4.226   0.444  1.1669 -0.2987  0.1029
  195MPD1    C3 3019   1.407   4.130   0.530 -0.6092  0.2101 -0.2169
  195MPD1    C4 3020   1.480   4.168   0.643 -0.0422  0.2812  0.4423
  195MPD1    C5 3021   1.499   4.305   0.658 -0.0861  0.1825  0.0440
  195MPD1     H 3022   1.289   4.196   0.365  0.7617  0.4809  0.1549
  195MPD1    H1 3023   1.505   4.098   0.721 -0.7763 -0.6224 -0.1212
  195MPD1    H2 3024   1.486   4.495   0.580  2.9649 -1.1811 -3.0838
  195MPD1    H3 3025   1.555   4.342   0.744 -0.1885  0.8141 -0.1574
  195MPD1     N 3026   1.385   3.994   0.518 -0.7974  0.7768 -0.6317
  195MPD1    H5 3027   1.424   3.935   0.590 -0.7172  0.7837 -0.6700
  195MPD1    N1 3028   1.329   4.455   0.370 -0.4929  0.4406 -0.0149
  195MPD1    H6 3029   1.335   4.552   0.401 -0.4292 -0.1134  1.7118
  195MPD1    H7 3030   1.235   4.428   0.342  0.1651 -1.2536 -0.5807
  196MPD1     C 3031   0.150   3.388   1.185 -0.0716  0.1828 -0.1297
  196MPD1    C1 3032   0.282   3.380   1.226 -0.4141 -0.1269  0.0894
  196MPD1    C2 3033   0.380   3.370   1.128  0.0512 -0.9176  0.0803
  196MPD1    C3 3034   0.339   3.379   1.000 -0.3265  0.8652 -0.4675
  196MPD1    C4 3035   0.209   3.391   0.958  0.6440  0.2032  0.5539
  196MPD1    C5 3036   0.114   3.401   1.051  0.5168 -0.3675 -0.6004
  196MPD1     H 3037   0.483   3.356   1.159 -0.0317  2.9681  2.1984
  196MPD1    H1 3038   0.190   3.388   0.851  1.4019 -0.0211  0.4244
  196MPD1    H2 3039   0.075   3.395   1.264  0.5373 -0.0826  0.4751
  196MPD1    H3 3040   0.011   3.422   1.027  0.1555 -0.8777  0.5275
  196MPD1     N 3041   0.428   3.368   0.894  0.0047 -0.3556  0.3497
  196MPD1    H5 3042   0.390   3.346   0.803  0.4061  0.1089  0.0688
  196MPD1    N1 3043   0.319   3.358   1.359  0.4117  0.0903  0.2837
  196MPD1    H6 3044   0.413   3.394   1.373 -0.2222  1.6690  0.5151
  196MPD1    H7 3045   0.256   3.416   1.414  1.2108  1.9773 -0.7842
  197MPD1     C 3046   4.302   0.193  17.582 -0.3585 -0.1275 -0.0666
  197MPD1    C1 3047   4.376   0.264  17.674 -0.1541 -0.2875 -0.7965
  197MPD1    C2 3048   4.398   0.391  17.646 -0.0418  0.5595 -0.3749
  197MPD1    C3 3049   4.361   0.454  17.534 -0.0851 -0.3662  0.4064
  197MPD1    C4 3050   4.292   0.380  17.440 -0.1757  0.1760  0.2128
  197MPD1    C5 3051   4.261   0.251  17.462 -0.2238  0.7255 -0.1738
  197MPD1     H 3052   4.445   0.441   0.014  0.8516  0.8899 -1.0650
  197MPD1    H1 3053   4.265   0.422  17.343 -0.7282  0.6921  0.5939
  197MPD1    H2 3054   4.275   0.091  17.606  1.6580 -0.7984 -0.6088
  197MPD1    H3 3055   4.199   0.192  17.396 -0.6246  0.9056  0.0373
  197MPD1     N 3056   4.383   0.591  17.498 -0.2377 -0.1347  0.0020
  197MPD1    H5 3057   4.344   0.633  17.415  0.6724  0.8388  0.0612
  197MPD1    N1 3058   4.394   0.213   0.082 -0.7533  0.5254  0.5228
  197MPD1    H6 3059   4.472   0.251   0.137  0.0557  0.7764 -0.7882
  197MPD1    H7 3060   4.411   0.113   0.078 -2.6665  0.1963  0.9326
  198MPD1     C 3061   1.214   4.323  15.351  0.0042  0.9783 -0.6234
  198MPD1    C1 3062   1.267   4.270  15.467  0.1495 -0.2449 -0.3418
  198MPD1    C2 3063   1.346   4.354  15.543  0.6295 -0.6374 -0.1272
  198MPD1    C3 3064   1.393   4.472  15.491  0.1731 -0.6946  0.3667
  198MPD1    C4 3065   1.362   4.511  15.362  0.1679 -0.0014 -0.3627
  198MPD1    C5 3066   1.260   4.446  15.302  0.0033 -0.1416  0.4073
  198MPD1     H 3067   1.368   4.331  15.646 -0.2528  1.4245  0.5271
  198MPD1    H1 3068   1.392   4.604  15.316  2.5702  1.0204  3.2341
  198MPD1    H2 3069   1.151   4.273  15.278  1.1424 -1.8985  0.3774
  198MPD1    H3 3070   1.229   4.472  15.201  0.2730 -1.2659  0.0302
  198MPD1     N 3071   1.475   4.541  15.574  0.1580 -0.6767  0.0966
  198MPD1    H5 3072   1.512   4.480  15.647  2.1541 -0.4645 -0.7268
  198MPD1    N1 3073   1.216   4.157  15.523 -0.2886 -0.0516 -0.1164
  198MPD1    H6 3074   1.286   4.101  15.571 -0.7682  1.0140  1.8453
  198MPD1    H7 3075   1.160   4.098  15.462  1.4502 -1.3147 -0.5029
  199MPD1     C 3076   4.007   0.686   9.909  0.6407 -0.4276  0.1632
  199MPD1    C1 3077   3.997   0.795   9.825  0.1773 -0.4034  0.2055
  199MPD1    C2 3078   3.886   0.788   9.738 -0.7016 -0.4684 -0.4790
  199MPD1    C3 3079   3.805   0.678   9.726  0.2973  0.5224 -0.5025
  199MPD1    C4 3080   3.830   0.573   9.804 -0.2245 -0.2219 -0.4480
  199MPD1    C5 3081   3.932   0.571   9.895 -1.4654 -0.3730  0.4748
  199MPD1     H 3082   3.868   0.877   9.680 -0.4406 -0.4084 -0.4694
  199MPD1    H1 3083   3.771   0.485   9.781 -0.3867 -1.0286  3.1298
  199MPD1    H2 3084   4.084   0.700   9.984 -1.3807  2.3562  1.7049
  199MPD1    H3 3085   3.942   0.491   9.967  1.1140  1.6471  2.3237
  199MPD1     N 3086   3.698   0.670   9.634 -0.4711 -0.0081 -0.3714
  199MPD1    H5 3087   3.645   0.584   9.641 -1.3467  0.4722 -1.1497
  199MPD1    N1 3088   4.072   0.915   9.854 -0.0671  0.3409 -0.3995
  199MPD1    H6 3089   4.084   0.982   9.778 -2.0481  0.6406 -0.4624
  199MPD1    H7 3090   4.159   0.882   9.894 -1.2203 -2.0158  0.2019
  200MPD1     C 3091   2.933   1.525  15.933  0.4367  0.0047  0.3911
  200MPD1    C1 3092   3.057   1.511  15.878  0.1562 -0.0568 -0.0313
  200MPD1    C2 3093   3.069   1.436  15.763  1.1646 -0.3169  0.2256
  200MPD1    C3 3094   2.964   1.365  15.705 -0.1322 -0.8681  0.0063
  200MPD1    C4 3095   2.841   1.368  15.764  0.2762  0.1197  0.9971
  200MPD1    C5 3096   2.836   1.450  15.873  0.1426  0.0568  0.1621
  200MPD1     H 3097   3.164   1.442  15.711  1.7449  1.0870  1.4327
  200MPD1    H1 3098   2.751   1.319  15.729  0.3974  0.9186 -0.4293
  200MPD1    H2 3099   2.911   1.592  16.015  2.8057 -0.1670  1.1868
  200MPD1    H3 3100   2.739   1.471  15.916 -1.8564  0.6381 -4.7115
  200MPD1     N 3101   2.979   1.310  15.572 -0.2090 -0.1013  0.0830
  200MPD1    H5 3102   3.072   1.320  15.533  0.0637  0.3616  0.8584
  200MPD1    N1 3103   3.166   1.595  15.912  0.0358  0.8034  0.1851
  200MPD1    H6 3104   3.155   1.624  16.009 -0.5370  0.2615  0.2821
  200MPD1    H7 3105   3.253   1.543  15.902  0.3179  1.5786 -1.3800
  201MPD1     C 3106   4.621   4.197  13.422 -0.1336  0.7425 -1.4440
  201MPD1    C1 3107   4.638   4.122  13.302 -0.4107  0.5742  0.5205
  201MPD1    C2 3108   0.028   4.058  13.286 -0.2439 -1.1571  0.3159
  201MPD1    C3 3109   0.134   4.051  13.381 -0.6808 -0.1243  0.0551
  201MPD1    C4 3110   0.117   4.128  13.498  0.0270  0.4464  0.7102
  201MPD1    C5 3111   4.725   4.191  13.516 -0.3143 -0.2664  0.1022
  201MPD1     H 3112   0.044   3.999  13.196  3.3632  0.0580  0.1672
  201MPD1    H1 3113   0.193   4.146  13.574  1.3081 -1.2781 -0.1635
  201MPD1    H2 3114   4.542   4.269  13.438  0.3977  0.7700  1.0083
  201MPD1    H3 3115   4.723   4.265  13.595 -2.0888 -0.2264  0.0281
  201MPD1     N 3116   0.252   3.978  13.353 -0.8868  0.2310  0.2789
  201MPD1    H5 3117   0.254   3.921  13.269 -1.2030  2.5979 -1.3044
  201MPD1    N1 3118   4.551   4.122  13.198  0.2015  0.0810 -0.7163
  201MPD1    H6 3119   4.461   4.157  13.229  1.2495  0.6665  1.6717
  201MPD1    H7 3120   4.537   4.027  13.164 -2.0076 -0.0145  0.4226
  202MPD1     C 3121   3.920   3.629  10.064 -0.0458  0.0251 -0.1792
  202MPD1    C1 3122   3.985   3.514  10.020 -0.6178  0.2190  0.6622
  202MPD1    C2 3123   4.121   3.513  10.044 -0.5857 -0.1747 -0.6590
  202MPD1    C3 3124   4.189   3.612  10.113 -0.3265 -0.0623  0.4967
  202MPD1    C4 3125   4.117   3.709  10.176 -0.2156 -0.2109 -0.8325
  202MPD1    C5 3126   3.985   3.728  10.137  0.5812 -0.5085 -0.0862
  202MPD1     H 3127   4.181   3.444   9.986  0.0813 -1.2166  1.2706
  202MPD1    H1 3128   4.163   3.792  10.229 -0.7712  1.7340 -3.4307
  202MPD1    H2 3129   3.818   3.651  10.036  0.6792  2.8871 -0.5124
  202MPD1    H3 3130   3.935   3.820  10.162  4.1492  1.6316 -0.7465
  202MPD1     N 3131   4.331   3.616  10.128  0.1583  0.7626  0.6740
  202MPD1    H5 3132   4.367   3.702  10.167 -0.3468  0.5653  1.5882
  202MPD1    N1 3133   3.917   3.435   9.926 -0.2938 -0.1204 -0.1869
  202MPD1    H6 3134   3.965   3.348   9.904  2.1374  1.2651 -0.3460
  202MPD1    H7 3135   3.818   3.418   9.942  0.3459 -2.5899  1.2289
  203MPD1     C 3136   3.692   0.315  12.453 -0.7739  0.1754  0.2477
  203MPD1    C1 3137   3.721   0.231  12.350  0.5472 -0.1477  0.1297
  203MPD1    C2 3138   3.712   0.093  12.369 -0.5483 -0.7702  0.5628
  203MPD1    C3 3139   3.674   0.043  12.492  0.5295 -0.5804  0.4741
  203MPD1    C4 3140   3.639   0.128  12.591 -0.8729 -0.2431 -0.0053
  203MPD1    C5 3141   3.658   0.260  12.575 -0.1441 -0.1331  0.7937
  203MPD1     H 3142   3.762   0.024  12.302 -0.4375  0.7933 -0.9718
  203MPD1    H1 3143   3.603   0.099  12.689 -1.7390 -0.0650 -0.2692
  203MPD1    H2 3144   3.725   0.418  12.443 -2.4545  0.6300 -0.5760
  203MPD1    H3 3145   3.636   0.326  12.659  1.0715  1.9002 -0.4853
  203MPD1     N 3146   3.664   4.627  12.503  0.0541 -0.2188 -0.2895
  203MPD1    H5 3147   3.667   4.571  12.418  2.6951 -0.0349 -0.3015
  203MPD1    N1 3148   3.793   0.281  12.247 -0.0636 -0.7261  0.2321
  203MPD1    H6 3149   3.769   0.227  12.163  0.9611  0.9523 -1.1310
  203MPD1    H7 3150   3.762   0.377  12.235 -0.4433 -0.9505 -0.6134
  204MPD1     C 3151   2.637   1.126  17.455 -0.6135 -0.6801 -0.0837
  204MPD1    C1 3152   2.748   1.165  17.385 -0.5918 -0.0433 -0.4906
  204MPD1    C2 3153   2.860   1.091  17.396  0.4925 -0.3232 -0.2573
  204MPD1    C3 3154   2.865   0.974  17.469 -0.0715 -0.3447  0.3460
  204MPD1    C4 3155   2.751   0.935  17.540  0.1856 -0.3855 -0.1755
  204MPD1    C5 3156   2.639   1.014  17.535 -0.4577 -0.2874  0.0449
  204MPD1     H 3157   2.946   1.121  17.338  1.1957  3.3495  2.6852
  204MPD1    H1 3158   2.744   0.842  17.595 -1.0046 -0.0880  0.1809
  204MPD1    H2 3159   2.540   1.173  17.463 -1.7448 -3.1001  0.2205
  204MPD1    H3 3160   2.547   0.994  17.588 -2.2782 -0.3551 -3.0969
  204MPD1     N 3161   2.982   0.886  17.457 -0.3567 -0.2163  0.0928
  204MPD1    H5 3162   3.061   0.911  17.397 -0.6273  1.1905  0.3123
  204MPD1    N1 3163   2.742   1.284  17.312  0.2387 -0.0772 -1.2458
  204MPD1    H6 3164   2.803   1.278  17.230  0.2677 -0.9698 -1.1599
  204MPD1    H7 3165   2.654   1.333  17.296  0.5892  0.4820 -1.4543
  205MPD1     C 3166   3.915   4.044   0.257 -0.9427 -0.3477 -0.6283
  205MPD1    C1 3167   3.863   4.163   0.297  0.4974  0.4075  0.0605
  205MPD1    C2 3168   3.740   4.203   0.244 -0.9863 -0.1302  0.1208
  205MPD1    C3 3169   3.686   4.138   0.136  0.1264 -0.2273  0.3604
  205MPD1    C4 3170   3.756   4.031   0.086  0.0629 -0.2909  0.6052
  205MPD1    C5 3171   3.872   3.989   0.146 -0.1992  0.2685 -0.7119
  205MPD1     H 3172   3.689   4.287   0.288 -0.4248  0.5475 -0.5126
  205MPD1    H1 3173   3.734   3.980  17.710  0.7059  1.3521 -0.4613
  205MPD1    H2 3174   4.005   4.002   0.299  0.0600  3.1699  0.7163
  205MPD1    H3 3175   3.929   3.906   0.106 -1.3360 -0.0577 -1.6334
  205MPD1     N 3176   3.564   4.194   0.072  0.2618  0.1704  0.1751
  205MPD1    H5 3177   3.526   4.273   0.125 -1.9568 -2.3533  2.3374
  205MPD1    N1 3178   3.899   4.217   0.420 -0.0450  0.2135 -0.0039
  205MPD1    H6 3179   4.000   4.211   0.437 -0.2158  1.8930  1.5292
  205MPD1    H7 3180   3.874   4.314   0.432  1.2869  0.4130  1.1929
  206MPD1     C 3181   2.774   3.484  16.870  0.3720 -0.1153 -0.5930
  206MPD1    C1 3182   2.857   3.378  16.923 -0.0808 -0.0293 -0.3156
  206MPD1    C2 3183   2.934   3.310  16.826  0.3773  0.8097 -0.0091
  206MPD1    C3 3184   2.935   3.351  16.695  0.3556 -0.0936 -0.2175
  206MPD1    C4 3185   2.864   3.461  16.656 -0.3326  0.7376  0.3248
  206MPD1    C5 3186   2.783   3.526  16.743 -0.5974 -0.1177  0.3446
  206MPD1     H 3187   3.011   3.245  16.865  0.0093  0.5826  0.3360
  206MPD1    H1 3188   2.883   3.489  16.553  1.1855 -0.7077  0.2113
  206MPD1    H2 3189   2.712   3.539  16.940 -0.0786  2.4589 -3.0353
  206MPD1    H3 3190   2.726   3.613  16.713  1.7162  1.1996 -0.2054
  206MPD1     N 3191   3.011   3.288  16.596  0.6832 -0.7085 -0.0304
  206MPD1    H5 3192   2.992   3.316  16.500  1.1237 -0.6505 -0.1044
  206MPD1    N1 3193   2.845   3.335  17.055  0.1720  0.3813  0.0505
  206MPD1    H6 3194   2.797   3.409  17.107 -0.3393  1.1551 -1.5439
  206MPD1    H7 3195   2.938   3.327  17.097 -0.6682  1.3716  2.1348
  207MPD1     C 3196   0.361   0.440   9.502 -0.1023 -0.6747 -0.7819
  207MPD1    C1 3197   0.378   0.338   9.583  0.2058 -0.0146  0.5983
  207MPD1    C2 3198   0.503   0.319   9.624  0.2773  0.2495  0.3767
  207MPD1    C3 3199   0.592   0.414   9.615 -0.0702 -0.4352 -0.6084
  207MPD1    C4 3200   0.574   0.529   9.540  0.1559  0.2866 -1.1887
  207MPD1    C5 3201   0.453   0.534   9.474  0.1580 -0.0680 -0.3562
  207MPD1     H 3202   0.525   0.236   9.691 -1.5463 -1.2392 -0.8763
  207MPD1    H1 3203   0.649   0.602   9.512  2.0379 -1.7039 -1.2919
  207MPD1    H2 3204   0.263   0.457   9.458 -0.4640 -3.2527 -0.9731
  207MPD1    H3 3205   0.429   0.615   9.406 -0.6993  0.6060  0.7431
  207MPD1     N 3206   0.713   0.408   9.682  0.0696  0.0912  0.8689
  207MPD1    H5 3207   0.767   0.494   9.685  1.0850 -0.5102  0.1485
  207MPD1    N1 3208   0.283   0.237   9.596  0.0208  0.8191  0.4090
  207MPD1    H6 3209   0.305   0.175   9.673 -1.5467 -0.3648 -0.0983
  207MPD1    H7 3210   0.283   0.176   9.515  0.3889 -0.2279  1.2030
  208MPD1     C 3211   2.485   2.743  17.427  0.2812 -0.2889 -0.4698
  208MPD1    C1 3212   2.501   2.871  17.374  0.2789  0.1961 -0.0488
  208MPD1    C2 3213   2.575   2.964  17.444 -0.1702  0.7076  0.2310
  208MPD1    C3 3214   2.667   2.930  17.545 -0.3110  0.4546 -0.2458
  208MPD1    C4 3215   2.662   2.801  17.590  0.3828 -0.4108  0.2817
  208MPD1    C5 3216   2.570   2.705  17.535 -0.2824 -0.3783  0.7214
  208MPD1     H 3217   2.574   3.069  17.417  0.0861  0.9062  1.0220
  208MPD1    H1 3218   2.722   2.764  17.673  2.9681 -0.6428 -1.6746
  208MPD1    H2 3219   2.423   2.666  17.384 -0.3350  1.2943 -2.4362
  208MPD1    H3 3220   2.574   2.606  17.579 -0.7561 -1.4773 -1.6794
  208MPD1     N 3221   2.755   3.029  17.591  0.4168  0.3118  0.5015
  208MPD1    H5 3222   2.759   3.126  17.561 -0.0871  0.2153  0.1095
  208MPD1    N1 3223   2.414   2.913  17.274 -0.1680 -0.1462  0.2907
  208MPD1    H6 3224   2.451   2.986  17.213  1.1401 -1.3237 -0.3289
  208MPD1    H7 3225   2.393   2.834  17.213 -2.1616 -1.5104  2.7340
  209MPD1     C 3226   0.832   3.832  10.989 -0.5091  0.3913 -0.3993
  209MPD1    C1 3227   0.913   3.899  11.079  0.2163  0.1102 -0.4625
  209MPD1    C2 3228   0.996   3.993  11.023  0.7411  0.2599 -0.0191
  209MPD1    C3 3229   0.993   4.023  10.885  0.8644 -0.4987  0.7996
  209MPD1    C4 3230   0.888   3.978  10.807 -0.0671  0.1745  0.1168
  209MPD1    C5 3231   0.809   3.884  10.865 -0.0650 -0.0257 -0.4025
  209MPD1     H 3232   1.070   4.048  11.081  4.4712 -3.8496 -0.9421
  209MPD1    H1 3233   0.868   4.015  10.707 -1.0019  0.1888  0.3102
  209MPD1    H2 3234   0.765   3.753  11.022  1.7998 -1.1138  0.6880
  209MPD1    H3 3235   0.730   3.837  10.808 -1.2796  1.2896  0.1698
  209MPD1     N 3236   1.084   4.126  10.843  0.2875  0.1297  0.4259
  209MPD1    H5 3237   1.154   4.149  10.913 -0.2659  2.1673  0.3196
  209MPD1    N1 3238   0.936   3.860  11.214 -0.6959 -0.1205 -0.2331
  209MPD1    H6 3239   0.971   3.939  11.267  2.0040  0.0924 -2.3400
  209MPD1    H7 3240   0.857   3.813  11.258  2.1140 -2.7495  2.0073
  210MPD1     C 3241   1.875   4.588  11.140 -0.1993 -0.1985 -0.8478
  210MPD1    C1 3242   1.844   4.459  11.103 -0.2821 -0.1313  0.1485
  210MPD1    C2 3243   1.716   4.445  11.038  0.3429 -0.2520  0.1433
  210MPD1    C3 3244   1.645   4.549  10.986 -0.1100 -0.9231 -0.9979
  210MPD1    C4 3245   1.692   4.675  11.010 -0.0486 -0.2906  0.4614
  210MPD1    C5 3246   1.804   4.694  11.086  0.6306  0.2821  0.2840
  210MPD1     H 3247   1.683   4.342  11.028 -1.6496  0.4224 -0.1381
  210MPD1    H1 3248   1.639   0.029  10.964  2.2446  0.4257 -0.8795
  210MPD1    H2 3249   1.962   4.622  11.195  0.4192  0.1857 -2.0637
  210MPD1    H3 3250   1.842   0.065  11.108  1.4016  0.3205 -1.1966
  210MPD1     N 3251   1.526   4.541  10.909 -0.2252 -0.6164 -0.3115
  210MPD1    H5 3252   1.478   4.630  10.905  2.1479  0.7369  0.9621
  210MPD1    N1 3253   1.903   4.351  11.165 -0.0464 -0.5555 -0.0849
  210MPD1    H6 3254   2.002   4.369  11.180 -0.4586 -0.4166  2.6511
  210MPD1    H7 3255   1.889   4.261  11.120 -0.3878 -0.8049  0.5162
  211MPD1     C 3256   3.292   3.691  17.166 -0.2444 -0.3092 -0.8563
  211MPD1    C1 3257   3.173   3.746  17.201 -0.6972 -0.0125 -0.1798
  211MPD1    C2 3258   3.149   3.876  17.166 -0.7520  0.0984  0.1820
  211MPD1    C3 3259   3.245   3.948  17.094 -0.1097 -0.4839 -0.3492
  211MPD1    C4 3260   3.364   3.892  17.064 -0.2478 -0.1970  0.4603
  211MPD1    C5 3261   3.385   3.764  17.101 -0.5516 -0.3006 -0.0226
  211MPD1     H 3262   3.059   3.924  17.203 -0.7731  1.6449 -1.8834
  211MPD1    H1 3263   3.443   3.941  17.007 -0.3205 -0.8132 -0.1733
  211MPD1    H2 3264   3.307   3.584  17.174 -1.7225 -0.5156 -0.8409
  211MPD1    H3 3265   3.474   3.716  17.063 -0.0634  0.6820 -0.1413
  211MPD1     N 3266   3.211   4.082  17.053 -0.0526  0.2797 -0.3699
  211MPD1    H5 3267   3.119   4.119  17.079  0.1043  1.1757 -1.1045
  211MPD1    N1 3268   3.062   3.672  17.233 -0.0299 -0.3257 -0.0423
  211MPD1    H6 3269   2.986   3.715  17.284  1.9194  2.1858  0.7440
  211MPD1    H7 3270   3.088   3.582  17.273  2.6869  1.2976  1.8371
  212MPD1     C 3271   2.909   3.182  16.151 -0.6657 -0.2138 -0.7142
  212MPD1    C1 3272   2.844   3.205  16.271 -0.0528  0.7341 -0.1974
  212MPD1    C2 3273   2.779   3.092  16.334 -0.6594 -0.0513  0.7509
  212MPD1    C3 3274   2.785   2.970  16.277 -0.1220  0.2307 -0.3200
  212MPD1    C4 3275   2.846   2.953  16.155 -0.9140 -0.0373  0.7555
  212MPD1    C5 3276   2.916   3.054  16.100 -0.4450  0.1114 -0.1683
  212MPD1     H 3277   2.724   3.104  16.426 -1.0232  0.0774  0.5178
  212MPD1    H1 3278   2.841   2.855  16.109 -0.3650  1.4984 -2.5458
  212MPD1    H2 3279   2.963   3.260  16.099  0.0082  0.0096  0.3153
  212MPD1    H3 3280   2.958   3.045  16.001  0.7992  1.5289  0.2209
  212MPD1     N 3281   2.733   2.852  16.342 -0.0377 -0.2769 -0.1080
  212MPD1    H5 3282   2.748   2.758  16.307  3.1514  0.7073 -1.4406
  212MPD1    N1 3283   2.847   3.333  16.338  0.0769  0.6112 -0.1222
  212MPD1    H6 3284   2.764   3.349  16.395 -1.4707  1.0497 -2.5202
  212MPD1    H7 3285   2.877   3.406  16.274  0.4373  0.0335 -0.6112
  213MPD1     C 3286   0.682   3.731  16.013  0.3897  0.1207  0.1484
  213MPD1    C1 3287   0.652   3.598  16.017 -0.0622  0.0933  0.4045
  213MPD1    C2 3288   0.620   3.542  15.891  0.9394  0.7965  0.8407
  213MPD1    C3 3289   0.578   3.612  15.781 -0.9074 -0.6030  0.1279
  213MPD1    C4 3290   0.576   3.756  15.790  0.0682  0.2557  0.6166
  213MPD1    C5 3291   0.631   3.804  15.910  0.0065 -0.1401 -0.4481
  213MPD1     H 3292   0.618   3.435  15.876  1.3820  0.6766  1.6335
  213MPD1    H1 3293   0.536   3.827  15.718 -1.1877 -1.2376 -0.1520
  213MPD1    H2 3294   0.724   3.781  16.100 -0.9382 -0.7120  1.2698
  213MPD1    H3 3295   0.629   3.911  15.924 -0.9875  0.0897 -2.2897
  213MPD1     N 3296   0.552   3.543  15.662  0.0752  0.1070  0.5966
  213MPD1    H5 3297   0.555   3.441  15.662 -0.6984  0.0784 -1.8624
  213MPD1    N1 3298   0.710   3.512  16.113  0.4271 -0.4667 -0.6183
  213MPD1    H6 3299   0.732   3.552  16.204  0.1565  0.8836 -1.1317
  213MPD1    H7 3300   0.666   3.421  16.126  0.1725 -0.3108 -0.3831
  214MPD1     C 3301   0.552   2.708  15.624 -0.5450  0.3872  0.6671
  214MPD1    C1 3302   0.634   2.749  15.529  0.3185 -0.2593 -0.3167
  214MPD1    C2 3303   0.625   2.883  15.477 -0.1552 -0.0985 -0.0204
  214MPD1    C3 3304   0.536   2.970  15.536  0.5172  0.2932 -0.0311
  214MPD1    C4 3305   0.457   2.926  15.635 -0.3445  0.0633 -0.0895
  214MPD1    C5 3306   0.473   2.798  15.684  0.0069 -0.7222  0.0527
  214MPD1     H 3307   0.692   2.914  15.398 -2.0856  0.9229 -1.2768
  214MPD1    H1 3308   0.387   2.995  15.681  0.2662  0.4552  0.2451
  214MPD1    H2 3309   0.551   2.604  15.657 -0.1433 -0.5046 -2.0928
  214MPD1    H3 3310   0.417   2.766  15.770  1.7135 -0.4408  1.2699
  214MPD1     N 3311   0.509   3.098  15.493  0.0986  0.1957 -0.0439
  214MPD1    H5 3312   0.465   3.156  15.563  1.4320 -1.4155  2.1541
  214MPD1    N1 3313   0.708   2.660  15.454  0.0895 -0.8198  0.0447
  214MPD1    H6 3314   0.790   2.706  15.414 -1.3501  0.1029 -1.8167
  214MPD1    H7 3315   0.743   2.595  15.524 -0.7850 -2.0219 -0.6482
  215MPD1     C 3316   0.284   3.770  11.215 -0.0792  0.2679 -0.7982
  215MPD1    C1 3317   0.301   3.840  11.334  0.1098 -0.7184  0.3039
  215MPD1    C2 3318   0.406   3.930  11.342 -0.2984 -0.6757  0.3429
  215MPD1    C3 3319   0.481   3.982  11.234  0.2212  0.2648 -0.2057
  215MPD1    C4 3320   0.456   3.910  11.117  0.4809 -0.5711  0.3323
  215MPD1    C5 3321   0.365   3.805  11.111 -0.7451  0.2590 -0.1559
  215MPD1     H 3322   0.416   3.969  11.442 -2.3229 -2.2923  1.1773
  215MPD1    H1 3323   0.515   3.929  11.028  0.4840 -0.5516  0.3386
  215MPD1    H2 3324   0.218   3.684  11.207  0.3624  0.0007 -1.5444
  215MPD1    H3 3325   0.355   3.745  11.021 -1.6052  1.5134 -0.8877
  215MPD1     N 3326   0.588   4.066  11.254 -0.2428  0.0799 -0.3128
  215MPD1    H5 3327   0.607   4.093  11.350 -1.1806 -2.5919  0.6233
  215MPD1    N1 3328   0.236   3.795  11.450  0.0161  0.4894 -0.5893
  215MPD1    H6 3329   0.233   3.869  11.521 -0.3120  1.2787 -1.4292
  215MPD1    H7 3330   0.139   3.771  11.433 -0.2920  0.0694  1.7130
  216MPD1     C 3331   2.881   2.943  16.892  0.2184 -0.8104 -0.5697
  216MPD1    C1 3332   2.786   2.945  16.992 -0.5096  0.3946 -0.2860
  216MPD1    C2 3333   2.735   2.826  17.035 -0.7022 -0.6449  0.3940
  216MPD1    C3 3334   2.774   2.708  16.976 -0.2361 -0.3369  0.7293
  216MPD1    C4 3335   2.868   2.706  16.876  0.2166  1.2554  0.3544
  216MPD1    C5 3336   2.924   2.827  16.832 -0.8993 -0.3166  0.7812
  216MPD1     H 3337   2.679   2.821  17.128  0.6274  2.3849  1.3702
  216MPD1    H1 3338   2.910   2.619  16.826  0.8182  1.7220  0.0491
  216MPD1    H2 3339   2.919   3.036  16.852 -1.4508  0.2325  0.2958
  216MPD1    H3 3340   2.988   2.825  16.745 -2.3209 -0.0757 -0.2815
  216MPD1     N 3341   2.726   2.587  17.033  0.3973 -0.0569  0.4579
  216MPD1    H5 3342   2.654   2.584  17.105  0.4163 -1.2536  0.4327
  216MPD1    N1 3343   2.757   3.066  17.061 -0.2566  0.3604 -0.4450
  216MPD1    H6 3344   2.788   3.152  17.017 -0.1962  0.0751 -0.9615
  216MPD1    H7 3345   2.659   3.082  17.082 -0.4227 -1.0738 -0.0647
  217MPD1     C 3346   3.442   0.343   8.902  0.2005 -0.2666  0.2888
  217MPD1    C1 3347   3.323   0.373   8.968 -0.0547 -1.0091 -0.2008
  217MPD1    C2 3348   3.249   0.277   9.040  0.5037  0.0390 -0.9399
  217MPD1    C3 3349   3.281   0.145   9.027  0.1817  0.1327  0.7341
  217MPD1    C4 3350   3.399   0.115   8.966 -0.2679 -0.1546  0.1930
  217MPD1    C5 3351   3.480   0.209   8.915 -0.4577 -0.7712 -0.4302
  217MPD1     H 3352   3.161   0.304   9.097  0.0455 -0.8888 -1.2053
  217MPD1    H1 3353   3.428   0.012   8.950  0.2539  0.1083 -0.5524
  217MPD1    H2 3354   3.493   0.413   8.838 -1.1732 -1.9600 -2.6552
  217MPD1    H3 3355   3.575   0.177   8.874 -0.0334  0.4907 -0.4189
  217MPD1     N 3356   3.197   0.039   9.047 -0.3414 -0.2762  0.7842
  217MPD1    H5 3357   3.240   4.676   9.040  2.5654  1.1213  0.3081
  217MPD1    N1 3358   3.290   0.507   9.000 -0.0795 -0.6933 -0.2241
  217MPD1    H6 3359   3.197   0.533   9.032  0.4007  0.2005  0.4299
  217MPD1    H7 3360   3.329   0.572   8.933 -0.5256  0.2393  0.4226
  218MPD1     C 3361   1.249   0.460  12.146 -0.2131 -0.2451  0.4634
  218MPD1    C1 3362   1.319   0.380  12.235  0.5333  0.6304 -0.1075
  218MPD1    C2 3363   1.284   0.250  12.239 -0.5692 -0.4620  0.3853
  218MPD1    C3 3364   1.188   0.197  12.159 -0.1064  0.0643  1.0070
  218MPD1    C4 3365   1.119   0.276  12.069 -0.3083 -0.6962 -0.1504
  218MPD1    C5 3366   1.150   0.406  12.070  0.3181  0.3248 -0.0577
  218MPD1     H 3367   1.346   0.186  12.300 -0.8069 -2.9345 -1.9825
  218MPD1    H1 3368   1.047   0.246  11.994  0.8177 -2.2040 -0.6263
  218MPD1    H2 3369   1.284   0.562  12.138  1.3089 -0.9098 -1.4555
  218MPD1    H3 3370   1.100   0.468  11.997  0.0244  0.6473  0.4174
  218MPD1     N 3371   1.141   0.066  12.188  0.0678  0.3035  0.1559
  218MPD1    H5 3372   1.170   0.026  12.276 -1.0552  2.8355  1.6894
  218MPD1    N1 3373   1.443   0.421  12.290  0.1423  0.4780 -0.0668
  218MPD1    H6 3374   1.467   0.367  12.372 -1.0885  3.1769  2.0785
  218MPD1    H7 3375   1.445   0.521  12.311  2.0058  0.6430 -0.9748
  219MPD1     C 3376   0.689   3.808  11.958  0.2575  0.5405 -0.1766
  219MPD1    C1 3377   0.708   3.913  11.876  0.4662 -0.3258  0.2810
  219MPD1    C2 3378   0.766   4.023  11.938  0.3382 -0.2059 -0.1782
  219MPD1    C3 3379   0.782   4.041  12.073 -0.4670  0.0209  1.2985
  219MPD1    C4 3380   0.755   3.935  12.155  0.3401 -0.6012  0.4830
  219MPD1    C5 3381   0.710   3.816  12.094 -0.7467  0.0409 -0.5071
  219MPD1     H 3382   0.787   4.112  11.880 -0.6914 -0.8925 -1.5979
  219MPD1    H1 3383   0.765   3.931  12.263  0.2736 -1.0240  0.4752
  219MPD1    H2 3384   0.659   3.710  11.922 -0.7831  0.6138  0.4854
  219MPD1    H3 3385   0.691   3.731  12.160 -2.0881  0.7624  0.0443
  219MPD1     N 3386   0.840   4.162  12.130  0.3809  0.2085  0.2389
  219MPD1    H5 3387   0.868   4.153  12.227  3.5075  2.0896 -0.4621
  219MPD1    N1 3388   0.703   3.901  11.729  0.2345 -0.4390 -0.1180
  219MPD1    H6 3389   0.631   3.835  11.701 -1.2159  1.5641 -1.0722
  219MPD1    H7 3390   0.698   3.995  11.691 -0.2164 -0.0622  0.8625
  220MPD1     C 3391   1.246   4.137  10.277  0.2406  0.0492  0.1488
  220MPD1    C1 3392   1.289   4.257  10.340  0.6758 -0.7953 -0.1926
  220MPD1    C2 3393   1.213   4.368  10.304  0.0366 -0.6574 -0.6566
  220MPD1    C3 3394   1.086   4.358  10.246  0.2087  0.6909  0.3001
  220MPD1    C4 3395   1.044   4.234  10.200  0.1640 -0.5335 -0.3554
  220MPD1    C5 3396   1.127   4.126  10.213 -0.2017 -0.0859 -0.2336
  220MPD1     H 3397   1.241   4.469  10.334 -0.9832 -1.0704  1.6889
  220MPD1    H1 3398   0.950   4.222  10.147 -0.4326 -0.8437  0.7574
  220MPD1    H2 3399   1.317   4.056  10.272 -0.7738 -0.8167 -0.1446
  220MPD1    H3 3400   1.092   4.030  10.176 -1.1858  0.1359  0.1185
  220MPD1     N 3401   1.015   4.476  10.232  0.7216  0.5170  0.0567
  220MPD1    H5 3402   1.039   4.564  10.276 -0.7607  1.1765 -0.4281
  220MPD1    N1 3403   1.425   4.271  10.376 -0.5271  0.3634  0.5978
  220MPD1    H6 3404   1.464   4.181  10.405  0.4387  0.5403 -0.1784
  220MPD1    H7 3405   1.445   4.347  10.441  0.1475 -0.1811  1.0233
  221MPD1     C 3406   4.044   3.319  16.552 -0.2412 -0.7802 -0.8899
  221MPD1    C1 3407   4.108   3.333  16.426 -0.5217  0.3016  0.2020
  221MPD1    C2 3408   4.028   3.370  16.317 -0.1137 -0.1566  0.2067
  221MPD1    C3 3409   3.890   3.382  16.339  0.4708 -0.1482  0.2982
  221MPD1    C4 3410   3.832   3.369  16.462  0.2519  0.3426 -0.1424
  221MPD1    C5 3411   3.906   3.334  16.570  0.4539  0.0737  0.5922
  221MPD1     H 3412   4.073   3.380  16.219  0.4357  0.3499  0.5081
  221MPD1    H1 3413   3.726   3.394  16.465 -0.3693 -2.2757 -0.6798
  221MPD1    H2 3414   4.102   3.303  16.643  0.8173 -0.1360 -1.4585
  221MPD1    H3 3415   3.864   3.334  16.670 -0.3566 -1.7369  0.2466
  221MPD1     N 3416   3.793   3.412  16.238 -0.2116  0.0713 -0.4014
  221MPD1    H5 3417   3.701   3.445  16.264  0.0994  0.2994  0.4160
  221MPD1    N1 3418   4.240   3.348  16.427 -0.7986 -0.5099 -0.1106
  221MPD1    H6 3419   4.274   3.343  16.331 -1.8377 -0.6137 -0.4685
  221MPD1    H7 3420   4.286   3.271  16.477 -1.9922 -1.9059 -1.1726
  222MPD1     C 3421   1.829   2.266   0.693  0.2460 -0.3101 -0.2200
  222MPD1    C1 3422   1.853   2.384   0.627 -0.2406 -0.3119 -0.2948
  222MPD1    C2 3423   1.992   2.419   0.606  0.2006  0.2332  0.1230
  222MPD1    C3 3424   2.096   2.343   0.648 -0.2844  0.3741  0.3793
  222MPD1    C4 3425   2.065   2.225   0.710 -0.6781 -0.1405 -0.1436
  222MPD1    C5 3426   1.936   2.185   0.729  0.0206  0.4431  0.2358
  222MPD1     H 3427   2.000   2.514   0.555 -0.2028  0.8677  1.2244
  222MPD1    H1 3428   2.140   2.151   0.734 -0.6220 -0.6890 -2.0006
  222MPD1    H2 3429   1.729   2.223   0.697  0.7212 -1.2971  1.1167
  222MPD1    H3 3430   1.922   2.092   0.784  3.0680 -0.2244 -0.1107
  222MPD1     N 3431   2.227   2.371   0.610  0.3730  0.5734 -0.0095
  222MPD1    H5 3432   2.292   2.294   0.620  0.9736  0.7127 -2.8757
  222MPD1    N1 3433   1.753   2.462   0.566 -0.5219  0.1843  0.3944
  222MPD1    H6 3434   1.778   2.561   0.554 -0.4864 -0.0268 -1.3656
  222MPD1    H7 3435   1.666   2.457   0.618 -1.0351  0.4438 -0.4272
  223MPD1     C 3436   2.980   2.008   0.097 -0.4356 -0.1939  0.3805
  223MPD1    C1 3437   3.008   2.139   0.062  0.1368 -1.0680 -0.0580
  223MPD1    C2 3438   2.926   2.233   0.126  0.5221  0.1142 -0.5273
  223MPD1    C3 3439   2.852   2.197   0.234  0.6840 -0.5921  0.9023
  223MPD1    C4 3440   2.861   2.073   0.292  0.1757  0.4192  0.6722
  223MPD1    C5 3441   2.915   1.980   0.212 -1.0613 -0.2266 -0.2594
  223MPD1     H 3442   2.924   2.333   0.085 -2.8519 -0.5963 -2.0954
  223MPD1    H1 3443   2.824   2.040   0.388  2.6883 -0.3561  1.3914
  223MPD1    H2 3444   3.025   1.922   0.050  1.9816  0.7422  0.9597
  223MPD1    H3 3445   2.894   1.877   0.238 -0.6059 -0.7384 -1.9722
  223MPD1     N 3446   2.766   2.297   0.291 -0.3008 -0.0847 -0.2784
  223MPD1    H5 3447   2.772   2.386   0.243  1.5839  1.0265  1.9991
  223MPD1    N1 3448   3.073   2.167  17.655  0.2113  0.4565  0.2922
  223MPD1    H6 3449   3.151   2.103  17.644 -0.9431 -1.1556  1.5753
  223MPD1    H7 3450   3.104   2.264  17.646  2.0900 -0.2410 -0.6355
  224MPD1     C 3451   3.787   0.580   8.853 -1.3076 -0.5226 -0.2706
  224MPD1    C1 3452   3.883   0.480   8.835  0.2321 -0.2669  0.0122
  224MPD1    C2 3453   3.887   0.377   8.931 -0.0165 -0.9836 -0.4547
  224MPD1    C3 3454   3.796   0.368   9.040  0.2020  0.4891 -0.4963
  224MPD1    C4 3455   3.715   0.481   9.058 -0.2443  0.6542 -0.0906
  224MPD1    C5 3456   3.712   0.581   8.964  0.0300  0.0798 -0.1442
  224MPD1     H 3457   3.957   0.297   8.909  0.0079 -1.0162 -0.2621
  224MPD1    H1 3458   3.648   0.485   9.143 -2.0991 -0.8345 -1.5046
  224MPD1    H2 3459   3.776   0.661   8.782 -0.2433  0.2309  0.4296
  224MPD1    H3 3460   3.653   0.671   8.977  2.9549  1.8908  0.4916
  224MPD1     N 3461   3.792   0.267   9.136 -0.7519  0.2879 -0.1031
  224MPD1    H5 3462   3.726   0.282   9.211 -0.6862  0.3952 -0.0665
  224MPD1    N1 3463   3.959   0.458   8.716 -0.4014 -0.7868 -0.0695
  224MPD1    H6 3464   4.041   0.399   8.723 -0.7812 -1.6148 -2.4901
  224MPD1    H7 3465   3.975   0.544   8.664 -0.0801  0.1600  1.5949
  225MPD1     C 3466   4.637   0.182  13.183  0.3119  0.1419 -0.4176
  225MPD1    C1 3467   0.038   0.221  13.150  0.9652  0.1370 -0.1849
  225MPD1    C2 3468   0.075   0.208  13.018 -0.0931  0.2264 -0.3616
  225MPD1    C3 3469   4.712   0.160  12.927  0.2887 -0.0950 -0.3522
  225MPD1    C4 3470   4.595   0.107  12.970  0.1432 -0.1464 -0.9019
  225MPD1    C5 3471   4.554   0.120  13.103 -0.1020 -0.0140  0.3027
  225MPD1     H 3472   0.172   0.235  12.978 -0.5140 -0.5498 -1.8700
  225MPD1    H1 3473   4.530   0.049  12.905 -3.9851  1.9877  1.3212
  225MPD1    H2 3474   4.595   0.192  13.282  0.1546  1.7529 -0.6394
  225MPD1    H3 3475   4.461   0.073  13.133  1.1727 -1.9773  1.1352
  225MPD1     N 3476   0.003   0.158  12.785 -0.5656  0.5882 -0.4209
  225MPD1    H5 3477   4.675   0.093  12.733 -0.1194 -0.7387  0.7431
  225MPD1    N1 3478   0.120   0.291  13.243  0.3335  0.6233  0.2113
  225MPD1    H6 3479   0.115   0.256  13.338 -1.5055 -1.5142 -0.7002
  225MPD1    H7 3480   0.218   0.286  13.215 -0.1634  0.4596 -1.4677
  226MPD1     C 3481   3.548   1.203   9.124 -0.3690  0.6176 -0.6012
  226MPD1    C1 3482   3.586   1.127   9.234  0.0911  0.2158  0.8650
  226MPD1    C2 3483   3.690   1.040   9.227  0.0889  0.1300  0.7572
  226MPD1    C3 3484   3.760   1.024   9.107  0.4226 -0.3675  0.3160
  226MPD1    C4 3485   3.712   1.087   8.995 -0.1442  0.1190  0.3335
  226MPD1    C5 3486   3.617   1.182   9.008  0.0706 -0.1020 -0.5005
  226MPD1     H 3487   3.727   0.992   9.316 -4.5246 -1.7667  1.6645
  226MPD1    H1 3488   3.755   1.077   8.896  4.2138  0.4631  2.1803
  226MPD1    H2 3489   3.474   1.282   9.115 -0.6038  0.2812 -1.5593
  226MPD1    H3 3490   3.587   1.232   8.917 -0.6910  0.6188  0.1427
  226MPD1     N 3491   3.863   0.930   9.113 -0.3824 -0.1538 -0.1816
  226MPD1    H5 3492   3.885   0.904   9.209 -1.5066  0.8843  0.3682
  226MPD1    N1 3493   3.519   1.158   9.354 -0.4017 -0.1257  0.0079
  226MPD1    H6 3494   3.516   1.078   9.418  0.8610 -1.5433 -1.7369
  226MPD1    H7 3495   3.428   1.204   9.347 -0.7464 -0.2021  3.6769
  227MPD1     C 3496   4.701   0.298   8.791  0.4705 -0.5513  0.2802
  227MPD1    C1 3497   4.644   0.246   8.903  0.1412 -0.7740 -0.5737
  227MPD1    C2 3498   4.524   0.304   8.953  0.0794 -0.1175  0.2921
  227MPD1    C3 3499   4.463   0.403   8.879  0.1905  0.0570  0.1400
  227MPD1    C4 3500   4.523   0.446   8.761 -0.1621 -0.4089  0.1656
  227MPD1    C5 3501   4.644   0.400   8.721  0.0255 -0.0459 -0.3124
  227MPD1     H 3502   4.484   0.279   9.051 -0.6762  0.5808  0.1588
  227MPD1    H1 3503   4.472   0.514   8.693 -0.1090  0.9983  1.5413
  227MPD1    H2 3504   0.064   0.260   8.748  0.6354 -0.7673  0.8277
  227MPD1    H3 3505   4.697   0.435   8.633  0.6066 -0.2200 -0.0270
  227MPD1     N 3506   4.350   0.461   8.937  0.4660 -0.1444  0.1427
  227MPD1    H5 3507   4.306   0.407   9.011  1.7549 -0.0823  0.9691
  227MPD1    N1 3508   4.707   0.151   8.992 -0.4777 -0.5555  0.5491
  227MPD1    H6 3509   0.045   0.099   8.936 -0.3775  0.2857 -0.1016
  227MPD1    H7 3510   4.636   0.100   9.044 -1.0458 -1.6415 -1.2799
  228MPD1     C 3511   1.740   3.544  13.246  0.1056  0.0735 -0.5332
  228MPD1    C1 3512   1.759   3.467  13.366  0.3794  1.3160 -0.4069
  228MPD1    C2 3513   1.716   3.339  13.365 -1.3541 -0.7106 -0.0656
  228MPD1    C3 3514   1.661   3.281  13.250  0.0934 -0.0128  0.4071
  228MPD1    C4 3515   1.648   3.359  13.140 -0.2549 -0.4035 -0.3285
  228MPD1    C5 3516   1.679   3.497  13.137  0.4609 -0.2755  0.2061
  228MPD1     H 3517   1.741   3.272  13.446  1.9855 -1.6672 -1.8993
  228MPD1    H1 3518   1.603   3.318  13.051 -1.7772 -2.0740  1.2235
  228MPD1    H2 3519   1.776   3.646  13.237 -0.3236  0.2699  0.0332
  228MPD1    H3 3520   1.650   3.556  13.051 -0.1069 -0.6602  0.1344
  228MPD1     N 3521   1.638   3.143  13.232  0.8808 -0.6885 -0.6951
  228MPD1    H5 3522   1.616   3.109  13.139  0.0024  1.1853 -1.1592
  228MPD1    N1 3523   1.834   3.526  13.469  0.5661  0.7926  0.4877
  228MPD1    H6 3524   1.837   3.628  13.465 -0.9283  0.8405  0.7131
  228MPD1    H7 3525   1.789   3.497  13.556 -0.1479  0.1044 -0.1100
  229MPD1     C 3526   1.540   2.224  13.901 -0.0937  0.6088 -0.3486
  229MPD1    C1 3527   1.564   2.285  14.017  0.5159  0.0794 -0.1973
  229MPD1    C2 3528   1.609   2.210  14.125  0.5460  0.1290 -0.3564
  229MPD1    C3 3529   1.641   2.074  14.121 -0.0269 -0.0967 -0.2982
  229MPD1    C4 3530   1.624   2.019  13.998  0.4377 -0.2888 -0.5175
  229MPD1    C5 3531   1.570   2.092  13.889  0.7132 -0.8812  0.6681
  229MPD1     H 3532   1.600   2.253  14.224  1.8286 -1.2907  0.3612
  229MPD1    H1 3533   1.639   1.913  13.978 -0.8371 -0.5869  0.0708
  229MPD1    H2 3534   1.502   2.280  13.816  0.8626  1.4371 -0.2397
  229MPD1    H3 3535   1.565   2.051  13.789  1.5409  2.3601 -0.7140
  229MPD1     N 3536   1.695   1.995  14.230  0.2506  0.4509  0.5964
  229MPD1    H5 3537   1.692   1.895  14.212 -1.3446  0.3839  1.2087
  229MPD1    N1 3538   1.524   2.419  14.022 -0.1202  0.3394  0.7796
  229MPD1    H6 3539   1.568   2.470  14.099 -0.9954  1.0757  0.7942
  229MPD1    H7 3540   1.528   2.470  13.935 -0.6101  1.3478  1.3451
  230MPD1     C 3541   1.941   1.958  15.306 -0.3290 -0.0829 -0.1187
  230MPD1    C1 3542   2.017   1.859  15.250 -0.7445  0.9048  0.4583
  230MPD1    C2 3543   1.986   1.835  15.118 -0.2921  0.3298  0.1766
  230MPD1    C3 3544   1.892   1.910  15.038  1.0153  0.1989 -0.5530
  230MPD1    C4 3545   1.838   2.020  15.102  0.3204 -0.3852 -0.3473
  230MPD1    C5 3546   1.858   2.039  15.235  0.1249  0.6421  0.3944
  230MPD1     H 3547   2.050   1.761  15.070 -0.0661  0.5782  0.0939
  230MPD1    H1 3548   1.770   2.090  15.054  1.5364  2.1079  1.5612
  230MPD1    H2 3549   1.939   1.967  15.414 -1.6801  0.1647 -0.1704
  230MPD1    H3 3550   1.794   2.113  15.282 -1.2912 -0.2065 -0.1764
  230MPD1     N 3551   1.870   1.878  14.900  0.4790  0.4761  0.0863
  230MPD1    H5 3552   1.918   1.797  14.861 -1.9262 -1.0353  0.2325
  230MPD1    N1 3553   2.098   1.773  15.326 -0.2348  0.1036 -0.6250
  230MPD1    H6 3554   2.141   1.824  15.403 -0.4011  0.0299 -0.4843
  230MPD1    H7 3555   2.178   1.738  15.272  1.7186 -0.3814  2.5553
  231MPD1     C 3556   0.076   3.682  15.396  0.0302 -0.9890  0.3751
  231MPD1    C1 3557   0.036   3.655  15.264 -0.3996  0.7271 -0.3269
  231MPD1    C2 3558   0.113   3.706  15.159  0.0154 -0.0451 -0.3038
  231MPD1    C3 3559   0.228   3.776  15.187 -0.6823 -0.3749 -0.1265
  231MPD1    C4 3560   0.269   3.804  15.318  0.5099 -0.3071 -0.3371
  231MPD1    C5 3561   0.188   3.756  15.420  0.1361 -0.1948 -0.3070
  231MPD1     H 3562   0.076   3.691  15.058 -1.3049  2.6238 -0.2043
  231MPD1    H1 3563   0.352   3.863  15.355  1.8193 -1.4501 -1.4539
  231MPD1    H2 3564   0.026   3.628  15.475  2.1820  0.5353  2.7718
  231MPD1    H3 3565   0.214   3.759  15.525  0.0601  0.9840 -0.3292
  231MPD1     N 3566   0.285   3.844  15.076 -0.4784 -0.1994 -0.4273
  231MPD1    H5 3567   0.253   3.833  14.981  0.5105  1.4722 -0.9523
  231MPD1    N1 3568   4.664   3.549  15.243 -0.1492 -0.4395 -0.0562
  231MPD1    H6 3569   4.598   3.526  15.317 -1.4760  0.7493 -0.8792
  231MPD1    H7 3570   4.616   3.569  15.156  0.4415  1.6963  0.1017
  232MPD1     C 3571   2.368   1.502   0.547  0.0085  0.5225 -0.0020
  232MPD1    C1 3572   2.356   1.374   0.507 -0.5106 -0.1985 -0.2527
  232MPD1    C2 3573   2.263   1.346   0.408  1.2146 -0.2312 -1.0357
  232MPD1    C3 3574   2.173   1.440   0.369 -0.2118  0.5109  0.2112
  232MPD1    C4 3575   2.181   1.568   0.420 -0.4126  0.1478 -0.0869
  232MPD1    C5 3576   2.283   1.598   0.504  0.3025  0.3101 -0.2454
  232MPD1     H 3577   2.246   1.247   0.369 -1.1352  0.2268 -1.1311
  232MPD1    H1 3578   2.125   1.655   0.387  1.1118  0.7372 -1.1343
  232MPD1    H2 3579   2.447   1.536   0.613  0.6827 -3.5485  1.3294
  232MPD1    H3 3580   2.309   1.698   0.537 -1.0813  0.6020 -0.0625
  232MPD1     N 3581   2.072   1.403   0.272 -0.1993  0.8376 -0.2580
  232MPD1    H5 3582   2.064   1.308   0.238  0.2372  0.3140  1.1288
  232MPD1    N1 3583   2.451   1.290   0.561 -0.1326  0.0600 -0.1430
  232MPD1    H6 3584   2.495   1.330   0.644 -1.9539 -0.1917  0.9551
  232MPD1    H7 3585   2.422   1.193   0.572 -0.5905  0.1319 -0.7214
  233MPD1     C 3586   2.935   4.441   2.029 -0.6892  0.0440  0.6407
  233MPD1    C1 3587   3.051   4.421   2.092 -0.0275  0.0881  0.0248
  233MPD1    C2 3588   3.158   4.374   2.017  0.1771 -0.3803  0.3757
  233MPD1    C3 3589   3.154   4.367   1.877  0.1791 -0.1512  0.2090
  233MPD1    C4 3590   3.035   4.406   1.814 -0.4479 -0.0211  0.3411
  233MPD1    C5 3591   2.925   4.429   1.894  0.1485  0.3543  0.2845
  233MPD1     H 3592   3.249   4.337   2.064  0.3633 -1.2419 -0.6518
  233MPD1    H1 3593   3.016   4.422   1.708 -1.0454 -1.1685  0.2731
  233MPD1    H2 3594   2.839   4.459   2.077 -1.3109 -1.4139 -0.0599
  233MPD1    H3 3595   2.835   4.455   1.839  0.9958  1.2617 -0.6712
  233MPD1     N 3596   3.262   4.333   1.797 -0.2508  0.1941 -0.2212
  233MPD1    H5 3597   3.245   4.320   1.698  0.4537 -0.9117 -0.2040
  233MPD1    N1 3598   3.062   4.417   2.231 -0.2649  0.7388 -0.3931
  233MPD1    H6 3599   3.156   4.446   2.258 -0.5313 -0.3454  1.7367
  233MPD1    H7 3600   3.014   4.492   2.279  0.3758  0.5082  0.6216
  234MPD1     C 3601   3.651   2.985   9.369  0.7163  0.1494 -1.1013
  234MPD1    C1 3602   3.770   3.056   9.357 -0.2865 -0.0717 -0.8306
  234MPD1    C2 3603   3.768   3.174   9.287 -0.3826 -0.2729  0.1646
  234MPD1    C3 3604   3.652   3.232   9.249  0.9109  0.1376  0.4613
  234MPD1    C4 3605   3.534   3.177   9.298  0.1602 -0.7315  0.1682
  234MPD1    C5 3606   3.533   3.046   9.342 -0.2366 -0.1394  0.4025
  234MPD1     H 3607   3.862   3.221   9.258 -0.8924 -0.3943 -1.6370
  234MPD1    H1 3608   3.437   3.220   9.276 -0.9472 -2.2195  2.1129
  234MPD1    H2 3609   3.654   2.888   9.417 -1.2973  0.9449  0.6466
  234MPD1    H3 3610   3.437   2.998   9.358 -0.9406  1.6766  1.5734
  234MPD1     N 3611   3.667   3.347   9.167  0.2669  0.1236  0.5344
  234MPD1    H5 3612   3.762   3.379   9.150  0.2908  0.4734  1.2866
  234MPD1    N1 3613   3.896   2.998   9.393  0.3761  0.2383  0.2921
  234MPD1    H6 3614   3.878   2.930   9.467  0.9144  0.8373  0.9727
  234MPD1    H7 3615   3.963   3.068   9.424  0.6531 -0.4041  1.1618
  235MPD1     C 3616   0.576   0.372  10.162 -0.8606 -0.2013 -0.4213
  235MPD1    C1 3617   0.571   0.417  10.033  0.4785 -1.0748 -0.3060
  235MPD1    C2 3618   0.669   0.500   9.995 -0.5785  0.5835  0.2383
  235MPD1    C3 3619   0.771   0.543  10.080 -0.3156 -0.3025  0.1943
  235MPD1    C4 3620   0.777   0.495  10.209 -1.0032 -0.2715  0.0432
  235MPD1    C5 3621   0.678   0.410  10.245  0.2317 -0.7021 -0.5830
  235MPD1     H 3622   0.650   0.555   9.904 -3.3687  0.1578  0.5626
  235MPD1    H1 3623   0.841   0.532  10.288 -0.1030 -0.6475 -0.5113
  235MPD1    H2 3624   0.502   0.302  10.200  0.2445 -0.6110  0.9550
  235MPD1    H3 3625   0.690   0.359  10.340  2.6862  0.0170 -0.5120
  235MPD1     N 3626   0.860   0.641  10.031 -0.2748  0.1841  0.1952
  235MPD1    H5 3627   0.833   0.685   9.944  0.4635  0.6363  0.1906
  235MPD1    N1 3628   0.459   0.389   9.962  0.0929 -0.0743 -0.6204
  235MPD1    H6 3629   0.426   0.301  10.000 -0.9093 -0.5312 -2.5278
  235MPD1    H7 3630   0.480   0.383   9.862 -0.4927 -1.3691 -0.6587
  236MPD1     C 3631   0.223   2.805  10.545  0.1286 -0.3273  0.8150
  236MPD1    C1 3632   0.159   2.703  10.477 -0.9139 -0.2283  0.1582
  236MPD1    C2 3633   0.221   2.581  10.466  0.0894  0.0554  1.0402
  236MPD1    C3 3634   0.337   2.555  10.536 -0.1377 -0.0736 -0.0438
  236MPD1    C4 3635   0.394   2.664  10.613  0.2257 -0.6231  0.3266
  236MPD1    C5 3636   0.334   2.785  10.620 -0.1031 -0.4602 -0.3565
  236MPD1     H 3637   0.175   2.504  10.407 -1.8751 -1.0527  4.0622
  236MPD1    H1 3638   0.481   2.651  10.676  1.3851 -0.3438 -1.1959
  236MPD1    H2 3639   0.184   2.906  10.549  0.3636 -0.1578 -1.1075
  236MPD1    H3 3640   0.381   2.868  10.671 -0.2835 -0.6502  0.1237
  236MPD1     N 3641   0.402   2.429  10.540  0.0794 -0.2015  0.5356
  236MPD1    H5 3642   0.491   2.429  10.589 -0.1234 -0.5305  0.9069
  236MPD1    N1 3643   0.053   2.737  10.403 -0.7542  0.0807 -0.4466
  236MPD1    H6 3644   0.002   2.819  10.434 -2.3048 -1.5276  1.2705
  236MPD1    H7 3645   4.721   2.659  10.378  1.3474 -0.8311 -2.7601
  237MPD1     C 3646   0.905   0.329  14.795  0.1698 -0.0726  0.0275
  237MPD1    C1 3647   0.908   0.278  14.920 -0.1238 -0.4554 -0.1954
  237MPD1    C2 3648   0.784   0.229  14.966  0.3408 -0.7422 -0.3186
  237MPD1    C3 3649   0.662   0.247  14.896 -0.6959  0.1786  0.2424
  237MPD1    C4 3650   0.669   0.297  14.772  0.3838 -0.2988 -0.1674
  237MPD1    C5 3651   0.789   0.337  14.722 -0.8167 -0.1781 -0.2232
  237MPD1     H 3652   0.774   0.195  15.069  0.1709 -2.1538 -0.8124
  237MPD1    H1 3653   0.585   0.301  14.703 -0.2987 -1.6313  0.5793
  237MPD1    H2 3654   0.999   0.340  14.743  0.4517 -0.0323  0.5507
  237MPD1    H3 3655   0.788   0.379  14.621  1.9118  0.5690  0.0376
  237MPD1     N 3656   0.534   0.221  14.945  0.5119  0.2116 -0.3268
  237MPD1    H5 3657   0.457   0.261  14.891 -0.9091 -0.3704  1.3040
  237MPD1    N1 3658   1.020   0.248  14.991 -0.5061  0.2486  0.4876
  237MPD1    H6 3659   1.100   0.310  14.990  0.0783 -0.5603 -4.2268
  237MPD1    H7 3660   0.991   0.222  15.085 -0.2104  0.4225  0.6228
  238MPD1     C 3661   1.725   3.950  15.645 -0.6095  0.2516  0.3498
  238MPD1    C1 3662   1.660   3.834  15.659 -0.3917  0.0064 -0.1167
  238MPD1    C2 3663   1.606   3.776  15.549  0.6187  0.2437 -0.1362
  238MPD1    C3 3664   1.657   3.814  15.422  0.6545 -0.1562 -0.4591
  238MPD1    C4 3665   1.748   3.915  15.413  0.0270  0.5438 -0.5800
  238MPD1    C5 3666   1.772   3.993  15.523  0.4138 -0.5588 -0.4186
  238MPD1     H 3667   1.537   3.693  15.564  1.3374 -0.7597 -2.3738
  238MPD1    H1 3668   1.785   3.956  15.319  0.7966 -0.4492 -0.7085
  238MPD1    H2 3669   1.756   4.003  15.735  2.0846 -1.0986  0.2309
  238MPD1    H3 3670   1.834   4.082  15.517  1.2449 -1.0533  0.6645
  238MPD1     N 3671   1.618   3.755  15.307  0.6907  0.0215 -0.3095
  238MPD1    H5 3672   1.641   3.810  15.225  1.8674 -1.8140 -1.2075
  238MPD1    N1 3673   1.596   3.808  15.784  0.0301  0.0145  0.4053
  238MPD1    H6 3674   1.645   3.843  15.866  1.3788 -1.5343  0.2580
  238MPD1    H7 3675   1.590   3.707  15.790  0.4275 -0.0121  0.3654
  239MPD1     C 3676   2.316   4.411  14.656 -0.4264  0.7994 -0.1330
  239MPD1    C1 3677   2.351   4.438  14.526  0.4730  1.3157 -0.5506
  239MPD1    C2 3678   2.250   4.493  14.442  0.3300 -0.2643  0.1108
  239MPD1    C3 3679   2.119   4.498  14.489 -0.3625  0.1398  0.4810
  239MPD1    C4 3680   2.093   4.463  14.616  0.3286 -0.1694 -0.1467
  239MPD1    C5 3681   2.188   4.425  14.700  1.0279  0.7275 -0.0232
  239MPD1     H 3682   2.272   4.524  14.341  0.4878 -0.9399 -0.0635
  239MPD1    H1 3683   1.990   4.464  14.652  0.0644 -0.7379 -0.8871
  239MPD1    H2 3684   2.391   4.393  14.732  0.1364  0.4497 -0.7740
  239MPD1    H3 3685   2.168   4.395  14.802 -1.7928  0.3648 -0.6893
  239MPD1     N 3686   2.011   4.563  14.421  0.1587  0.1165 -0.8868
  239MPD1    H5 3687   1.932   4.571  14.484  1.0582  0.6032  0.1655
  239MPD1    N1 3688   2.485   4.433  14.489  0.5979  0.1942  0.2981
  239MPD1    H6 3689   2.529   4.365  14.550  1.3126 -0.4855 -0.9671
  239MPD1    H7 3690   2.499   4.411  14.390  3.2040 -1.1698  0.9649
  240MPD1     C 3691   1.480   4.131  13.701  0.5735 -0.3084 -0.3739
  240MPD1    C1 3692   1.349   4.133  13.732 -0.0507 -0.3313  0.6141
  240MPD1    C2 3693   1.314   4.112  13.866 -0.9414  0.4991  0.1288
  240MPD1    C3 3694   1.407   4.113  13.971 -0.3047 -0.0631 -0.0161
  240MPD1    C4 3695   1.536   4.126  13.930  0.3624  0.5437 -0.9102
  240MPD1    C5 3696   1.577   4.131  13.800 -0.0425 -0.1402  0.0221
  240MPD1     H 3697   1.210   4.091  13.891 -1.2560  0.7591 -0.9554
  240MPD1    H1 3698   1.618   4.117  14.001 -1.5564  4.1780  1.7477
  240MPD1    H2 3699   1.505   4.125  13.596  0.7481  1.9699 -0.4683
  240MPD1    H3 3700   1.681   4.112  13.773  0.3713  0.9279  0.8427
  240MPD1     N 3701   1.362   4.094  14.102  0.5785 -0.5578  0.6202
  240MPD1    H5 3702   1.262   4.085  14.116  0.2421  2.9090  0.3853
  240MPD1    N1 3703   1.258   4.102  13.630 -0.1997  0.0775  0.6196
  240MPD1    H6 3704   1.280   4.163  13.551  0.3067  0.7653  1.2927
  240MPD1    H7 3705   1.166   4.129  13.663 -1.0675 -0.1168 -1.6259
  241MPD1     C 3706   1.391   4.103  15.193 -0.0551  0.0034  0.0032
  241MPD1    C1 3707   1.438   4.193  15.103 -0.1403  0.0800 -0.4363
  241MPD1    C2 3708   1.448   4.157  14.967 -0.2303 -0.0166  0.0175
  241MPD1    C3 3709   1.386   4.032  14.930 -0.1386 -0.6145 -0.9261
  241MPD1    C4 3710   1.328   3.950  15.022 -0.2446  0.1193 -0.3216
  241MPD1    C5 3711   1.324   3.989  15.156  0.3765  0.2515 -0.1499
  241MPD1     H 3712   1.488   4.237  14.905  0.4873 -0.5185 -0.1747
  241MPD1    H1 3713   1.290   3.853  14.989  0.9681  0.0171 -1.4373
  241MPD1    H2 3714   1.397   4.108  15.301 -0.5488  0.2852  0.0148
  241MPD1    H3 3715   1.274   3.920  15.222 -0.8340  1.8883  0.6609
  241MPD1     N 3716   1.388   3.980  14.799 -0.6004 -0.5014 -0.3728
  241MPD1    H5 3717   1.336   3.893  14.790  0.5108 -1.3524  1.3778
  241MPD1    N1 3718   1.514   4.295  15.168 -0.2451  0.5627 -0.1416
  241MPD1    H6 3719   1.465   4.334  15.248  0.5887 -2.2300  1.7515
  241MPD1    H7 3720   1.528   4.374  15.105  0.5475 -0.9472 -1.8834
  242MPD1     C 3721   1.193   1.575  15.730 -0.2948  0.9435  0.3137
  242MPD1    C1 3722   1.135   1.565  15.603  0.3003 -0.5055 -0.1421
  242MPD1    C2 3723   1.148   1.680  15.520  0.2063  0.5273 -0.0021
  242MPD1    C3 3724   1.194   1.799  15.568  0.0076 -0.4722 -0.5921
  242MPD1    C4 3725   1.236   1.807  15.694  0.4832 -0.4164  0.3161
  242MPD1    C5 3726   1.243   1.692  15.772  0.6791  0.0167  0.9020
  242MPD1     H 3727   1.117   1.676  15.416  0.9742 -2.8642 -0.1219
  242MPD1    H1 3728   1.280   1.899  15.732  0.1419  0.3008 -0.9990
  242MPD1    H2 3729   1.185   1.486  15.792  0.6521 -1.5840 -3.1981
  242MPD1    H3 3730   1.286   1.702  15.871  1.2585  1.4345  0.5119
  242MPD1     N 3731   1.205   1.921  15.488 -0.4689 -0.1507  0.0297
  242MPD1    H5 3732   1.244   2.002  15.534  0.4438  0.1969 -1.3303
  242MPD1    N1 3733   1.090   1.442  15.553 -0.1070 -0.3335 -0.3169
  242MPD1    H6 3734   1.060   1.370  15.618  0.4254  0.5198  0.8707
  242MPD1    H7 3735   1.049   1.437  15.460  0.6008 -1.0524 -0.5946
  243MPD1     C 3736   1.900   0.911  17.414  0.2801  0.4633 -0.6933
  243MPD1    C1 3737   1.949   0.944  17.291 -0.1576 -0.4138 -0.3966
  243MPD1    C2 3738   2.081   0.915  17.267 -0.0121 -0.2796 -0.5264
  243MPD1    C3 3739   2.159   0.853  17.365 -0.5566  0.2451  0.6602
  243MPD1    C4 3740   2.110   0.836  17.493 -0.1572  1.0190  0.4554
  243MPD1    C5 3741   1.973   0.858  17.515  0.7144 -0.7131 -0.0983
  243MPD1     H 3742   2.126   0.947  17.173  2.7399 -1.6740  0.3349
  243MPD1    H1 3743   2.172   0.807  17.577  1.8273 -1.4198 -1.8456
  243MPD1    H2 3744   1.798   0.932  17.441  0.1213 -2.0304  0.6816
  243MPD1    H3 3745   1.936   0.852  17.617  1.3683 -2.1329  0.0503
  243MPD1     N 3746   2.296   0.841  17.335  0.1923  0.2508  0.1698
  243MPD1    H5 3747   2.326   0.884  17.248 -0.5018 -1.0019 -0.6980
  243MPD1    N1 3748   1.868   0.997  17.186 -0.0164 -0.4581 -0.5983
  243MPD1    H6 3749   1.799   1.062  17.223  1.6102  0.6499  0.5158
  243MPD1    H7 3750   1.919   1.035  17.107 -0.6463 -2.1678 -1.8339
  244MPD1     C 3751   3.102   0.104  17.212 -0.1959 -0.4173  0.4938
  244MPD1    C1 3752   3.109   0.205  17.118  0.1592  0.5227  0.5502
  244MPD1    C2 3753   3.023   0.311  17.124 -0.1745  0.3361  0.4263
  244MPD1    C3 3754   2.947   0.331  17.238  0.4762  0.1758  0.5024
  244MPD1    C4 3755   2.954   0.240  17.342  0.5907  0.5431 -0.0574
  244MPD1    C5 3756   3.024   0.122  17.321  0.8338  0.5293  0.2064
  244MPD1     H 3757   3.019   0.385  17.045  0.2279  1.5794  1.5612
  244MPD1    H1 3758   2.887   0.243  17.427 -0.6244 -4.6994 -0.8121
  244MPD1    H2 3759   3.149   0.008  17.197 -1.4822 -0.6361 -2.2828
  244MPD1    H3 3760   3.026   0.058  17.409 -4.8296  1.2570  0.8476
  244MPD1     N 3761   2.869   0.454  17.241 -0.3019  0.1108 -0.0794
  244MPD1    H5 3762   2.865   0.507  17.154  0.7336  0.6160  0.1791
  244MPD1    N1 3763   3.182   0.174  17.002  0.7559  0.4043  0.0395
  244MPD1    H6 3764   3.220   0.260  16.963  1.8544  0.3868  1.0693
  244MPD1    H7 3765   3.255   0.106  17.023  0.1600 -0.3001 -0.1690
  245MPD1     C 3766   0.009   0.890  13.028  0.4687 -0.0920 -0.4156
  245MPD1    C1 3767   0.020   0.910  13.164  0.3794  0.6919 -0.4625
  245MPD1    C2 3768   0.066   1.034  13.217 -0.2685  0.9672  0.2549
  245MPD1    C3 3769   0.114   1.138  13.135  0.6599  0.3732 -0.9457
  245MPD1    C4 3770   0.107   1.111  12.997 -0.2648  0.0756 -1.5032
  245MPD1    C5 3771   0.050   0.991  12.947 -0.5732  0.1113 -0.3883
  245MPD1     H 3772   0.074   1.045  13.324  1.9619 -1.5226  0.3669
  245MPD1    H1 3773   0.148   1.177  12.921 -0.1261  1.3969 -0.2984
  245MPD1    H2 3774   4.696   0.801  12.981  0.1092 -1.0314  1.6776
  245MPD1    H3 3775   0.045   0.970  12.841  0.0723 -1.1146 -0.1771
  245MPD1     N 3776   0.138   1.267  13.186 -0.2399  0.4610  0.1954
  245MPD1    H5 3777   0.145   1.285  13.285  0.9490  1.7970 -0.1418
  245MPD1    N1 3778   4.681   0.817  13.250 -0.1946  0.4005 -0.0996
  245MPD1    H6 3779   4.716   0.821  13.345  3.9262  0.2523 -1.5736
  245MPD1    H7 3780   4.683   0.720  13.219  1.7557  0.5448 -0.4747
  246MPD1     C 3781   3.756   3.664   8.661  0.1516 -0.1984 -0.0320
  246MPD1    C1 3782   3.874   3.734   8.675  0.2169 -0.0809  0.7280
  246MPD1    C2 3783   3.973   3.674   8.752  0.5279  0.0020 -0.2172
  246MPD1    C3 3784   3.949   3.574   8.844 -0.4476  0.1535 -0.2665
  246MPD1    C4 3785   3.829   3.513   8.831 -0.1653  0.1518 -0.4836
  246MPD1    C5 3786   3.739   3.553   8.738 -0.3179 -0.5038 -0.3247
  246MPD1     H 3787   4.064   3.726   8.779 -0.6650  0.7216  2.4396
  246MPD1    H1 3788   3.804   3.419   8.879  0.1067  0.3115 -0.0294
  246MPD1    H2 3789   3.666   3.700   8.613  1.8476  2.9001 -0.9609
  246MPD1    H3 3790   3.641   3.508   8.740 -0.6472  0.1913 -0.7473
  246MPD1     N 3791   4.054   3.523   8.921 -0.2411 -0.3565 -0.5055
  246MPD1    H5 3792   4.143   3.571   8.909  1.6019 -4.0752 -1.6916
  246MPD1    N1 3793   3.895   3.855   8.609  0.1897 -0.2310 -0.3819
  246MPD1    H6 3794   3.810   3.890   8.566 -0.6131 -3.6775 -1.6041
  246MPD1    H7 3795   3.939   3.924   8.669  0.0790 -0.4443 -0.0566
  247MPD1     C 3796   0.017   2.048  17.118 -0.6050  0.2478  0.2150
  247MPD1    C1 3797   4.699   2.047  16.991 -0.9545  0.2004 -0.5449
  247MPD1    C2 3798   4.673   1.926  16.932  0.5993 -0.6832 -0.0250
  247MPD1    C3 3799   4.704   1.806  16.991  0.2475  0.1997 -0.4055
  247MPD1    C4 3800   0.015   1.815  17.124 -0.0146  0.5144  0.4866
  247MPD1    C5 3801   0.038   1.929  17.188  0.0396  0.4913 -0.1501
  247MPD1     H 3802   4.645   1.932  16.827 -1.1328 -1.6226  0.4045
  247MPD1    H1 3803   0.046   1.722  17.168 -0.1592  0.6812  0.9410
  247MPD1    H2 3804   0.039   2.140  17.172 -1.2706  0.9956 -0.7863
  247MPD1    H3 3805   0.083   1.925  17.286  0.0110 -0.1952 -0.1667
  247MPD1     N 3806   4.694   1.678  16.925 -0.2109  0.4316 -0.2081
  247MPD1    H5 3807   4.716   1.594  16.977  2.3254 -0.5550 -2.8736
  247MPD1    N1 3808   4.660   2.160  16.925  0.0972  0.2686 -0.0211
  247MPD1    H6 3809   4.683   2.249  16.969  2.1402 -0.1043 -0.3468
  247MPD1    H7 3810   4.669   2.154  16.824  0.1668 -2.0939  0.1148
  248MPD1     C 3811   3.651   1.542  17.067  0.2777 -0.3751 -0.3374
  248MPD1    C1 3812   3.628   1.587  17.197 -1.0018  0.1372  0.0330
  248MPD1    C2 3813   3.706   1.529  17.299 -0.6322 -0.5721 -0.3289
  248MPD1    C3 3814   3.814   1.440  17.267  0.3089  0.1169 -0.3230
  248MPD1    C4 3815   3.831   1.403  17.134  0.0531 -0.1592 -0.1228
  248MPD1    C5 3816   3.755   1.450  17.039  0.0788 -0.3282 -0.0513
  248MPD1     H 3817   3.692   1.564  17.401  2.4273  0.2182 -0.1975
  248MPD1    H1 3818   3.917   1.341  17.110  0.4202  1.2366 -2.4301
  248MPD1    H2 3819   3.582   1.567  16.988 -0.4406  1.1378  0.7621
  248MPD1    H3 3820   3.771   1.401  16.944  0.9701 -1.7120  0.8084
  248MPD1     N 3821   3.900   1.394  17.371  0.6952 -0.3080  0.1006
  248MPD1    H5 3822   3.874   1.430  17.463 -0.5606 -0.1009 -0.3300
  248MPD1    N1 3823   3.516   1.667  17.228 -0.0763 -0.0549  0.0078
  248MPD1    H6 3824   3.520   1.713  17.318  1.1905  1.0626 -0.6050
  248MPD1    H7 3825   3.495   1.737  17.157 -3.8279 -0.2913  0.8799
  249MPD1     C 3826   2.373   4.360  11.137  0.5264  0.4190 -1.5639
  249MPD1    C1 3827   2.279   4.456  11.132 -0.8609 -0.6887  0.4057
  249MPD1    C2 3828   2.193   4.462  11.026  0.1434 -0.4687  0.2090
  249MPD1    C3 3829   2.177   4.349  10.946 -0.1438  0.0957 -0.4649
  249MPD1    C4 3830   2.268   4.245  10.959 -0.1320  0.4755 -0.4651
  249MPD1    C5 3831   2.370   4.254  11.046  0.0172 -0.2566 -0.5905
  249MPD1     H 3832   2.121   4.541  11.009  0.7897  0.5764  2.2630
  249MPD1    H1 3833   2.267   4.153  10.902 -0.4743  1.0665 -1.4255
  249MPD1    H2 3834   2.449   4.367  11.214 -1.6342  0.1248  0.5959
  249MPD1    H3 3835   2.448   4.180  11.047  0.8741  0.6759  1.0546
  249MPD1     N 3836   2.067   4.354  10.854 -0.2412 -0.1444  0.2679
  249MPD1    H5 3837   2.008   4.436  10.855  0.0332  0.0572 -0.0257
  249MPD1    N1 3838   2.285   4.569  11.212  0.4101 -0.3083 -0.5322
  249MPD1    H6 3839   2.196   4.617  11.212  0.3026 -0.5110  0.6611
  249MPD1    H7 3840   2.320   4.544  11.305 -0.6055 -3.5884 -1.0501
  250MPD2     C 3841   2.984   0.667  13.005 -0.7446 -0.2913  0.0951
  250MPD2    C1 3842   2.957   0.735  12.894  0.2000 -0.6150 -0.1306
  250MPD2    C2 3843   2.906   0.669  12.786  0.4744  0.2108 -0.1247
  250MPD2    C3 3844   2.889   0.526  12.784 -0.6164 -0.0577 -0.0630
  250MPD2    C4 3845   2.921   0.464  12.903 -0.0717 -0.3833 -0.3720
  250MPD2    C5 3846   2.960   0.533  13.008 -0.3052 -0.5540  0.0045
  250MPD2     H 3847   2.891   0.717  12.690 -0.6971 -0.2410 -0.1708
  250MPD2    H1 3848   2.939   0.358  12.916 -1.4302 -0.2963  2.1190
  250MPD2    H2 3849   3.012   0.721  13.094  0.5271  0.3456 -0.7038
  250MPD2    H3 3850   2.969   0.488  13.107  2.1172  2.2860  1.0572
  250MPD2     N 3851   2.855   0.450  12.668  0.3844  0.0142 -0.1897
  250MPD2    H5 3852   2.854   0.349  12.680 -0.4646  0.0498  0.0260
  250MPD2    N1 3853   3.009   0.869  12.889 -0.0817 -0.7210  0.1105
  250MPD2    H7 3854   3.069   0.898  12.966  0.2857  1.8903 -1.1539
  251TMC3    C1 3855   3.108   1.047  12.779  0.2344 -0.1579  0.0270
  251TMC3    C2 3856   3.138   1.106  12.895  0.7164  0.0744  0.0812
  251TMC3    C3 3857   3.267   1.157  12.905 -0.2111  0.1538 -0.2820
  251TMC3    C4 3858   3.198   1.028  12.685 -0.5468 -0.3291 -0.6277
  251TMC3    C5 3859   3.332   1.050  12.708 -0.2139 -0.9933 -0.1474
  251TMC3    C6 3860   3.371   1.129  12.809 -0.1035 -0.5234  0.4773
  251TMC3     C 3861   3.003   0.952  12.779  0.1612  0.2086  0.4138
  251TMC3     O 3862   2.946   0.933  12.672 -0.2595 -0.1151 -0.0919
  251TMC3     H 3863   3.070   1.113  12.979 -0.6663  3.0580 -1.2778
  251TMC3    H1 3864   3.166   0.983  12.592  1.4484 -0.1970 -1.3755
  251TMC3    H2 3865   3.470   1.169  12.825 -0.8269  1.1925  0.6387
  251TMC3    C7 3866   3.411   0.934  12.728 -0.3720 -0.1849 -0.0537
  251TMC3    C8 3867   3.311   1.194  13.042 -0.1095 -0.2959  0.4482
  251TMC3    O1 3868   3.496   0.948  12.819  0.3353 -0.4460  0.3258
  251TMC3    O2 3869   3.237   1.272  13.101  0.2938  0.4535 -0.2401
  252TMC3    C1 3870   2.540   1.416   9.391 -0.3302 -0.2047  0.5591
  252TMC3    C2 3871   2.648   1.509   9.383  0.0187  0.1899  0.5690
  252TMC3    C3 3872   2.771   1.460   9.422  0.3984  0.1474  0.0428
  252TMC3    C4 3873   2.552   1.286   9.437 -0.0581  0.0064  0.2846
  252TMC3    C5 3874   2.674   1.246   9.462  0.4685  0.0762 -0.2332
  252TMC3    C6 3875   2.781   1.326   9.450  0.3818  0.1068  0.2526
  252TMC3     C 3876   2.415   1.476   9.356  0.0212 -0.1482 -0.1886
  252TMC3     O 3877   2.408   1.573   9.279  0.4555 -0.0978 -0.1828
  252TMC3     H 3878   2.633   1.611   9.348  3.1831  0.4965  0.0863
  252TMC3    H1 3879   2.470   1.216   9.441 -0.6195  0.5755 -1.4405
  252TMC3    H2 3880   2.875   1.281   9.481 -0.4378 -1.2945  0.7101
  252TMC3    C7 3881   2.692   1.103   9.472  0.3561 -0.3010  0.3530
  252TMC3    C8 3882   2.879   1.555   9.415 -0.6303  0.2071  0.1435
  252TMC3    O1 3883   2.587   1.040   9.488  0.0824 -0.0069 -0.0316
  252TMC3    O2 3884   2.862   1.657   9.341 -0.5049 -0.4431 -0.0540
  253MPD2     C 3885   0.147   0.438  15.269  0.0894  0.8536 -0.4334
  253MPD2    C1 3886   0.020   0.399  15.228 -0.6876 -0.4874 -0.0130
  253MPD2    C2 3887   4.654   0.386  15.330 -0.4041  0.9582 -0.2569
  253MPD2    C3 3888   4.668   0.408  15.463 -0.3869 -0.7904  0.5917
  253MPD2    C4 3889   0.070   0.435  15.504  0.0583  0.1601  0.1097
  253MPD2    C5 3890   0.163   0.451  15.407 -0.2010 -0.1670  0.0791
  253MPD2     H 3891   4.555   0.350  15.303 -0.2255 -0.1466  0.5404
  253MPD2    H1 3892   0.102   0.443  15.607 -1.2398 -1.4060  0.6521
  253MPD2    H2 3893   0.232   0.464  15.206 -0.7051 -2.4790 -2.8596
  253MPD2    H3 3894   0.257   0.483  15.450 -0.5188 -0.9979  1.3878
  253MPD2     N 3895   4.568   0.392  15.566 -1.0007 -0.8100  0.1916
  253MPD2    H5 3896   4.585   0.386  15.666  0.0676  1.7202  0.1399
  253MPD2    N1 3897   4.714   0.394  15.094 -0.0936  0.1928 -0.0475
  253MPD2    H7 3898   4.617   0.369  15.078  0.8926 -0.4697 -4.9478
  254TMC3    C1 3899   4.358   0.353  15.669 -0.4040  0.3395 -0.2475
  254TMC3    C2 3900   4.222   0.360  15.659  0.3763  0.4314 -0.2227
  254TMC3    C3 3901   4.158   0.317  15.776  0.0517 -0.0739  0.1296
  254TMC3    C4 3902   4.418   0.326  15.789 -0.0286  1.0932  0.1903
  254TMC3    C5 3903   4.348   0.282  15.901 -0.1854 -0.4534 -0.3623
  254TMC3    C6 3904   4.214   0.279  15.894  0.7255  0.7517  0.0342
  254TMC3     C 3905   4.433   0.379  15.547 -0.0016 -0.9836  0.0017
  254TMC3     O 3906   4.376   0.390  15.443 -0.2762  0.1215 -0.4617
  254TMC3     H 3907   4.176   0.389  15.566 -0.8434 -0.0308  0.2293
  254TMC3    H1 3908   4.525   0.321  15.802  0.3840 -0.2579 -3.7756
  254TMC3    H2 3909   4.162   0.229  15.975 -1.3504  1.3637 -0.9264
  254TMC3    C7 3910   4.409   0.257  16.032  0.5456 -0.2003  0.0936
  254TMC3    C8 3911   4.017   0.330  15.781 -0.9960  0.1327 -0.2734
  254TMC3    O1 3912   4.336   0.227  16.121 -0.4264 -0.0259  0.6227
  254TMC3    O2 3913   3.957   0.244  15.842  0.3215 -0.3254 -0.8474
  255MPD2     C 3914   1.815   3.606   9.969  0.2602 -1.1453  0.1847
  255MPD2    C1 3915   1.770   3.694   9.874  0.4604  0.1624 -0.6345
  255MPD2    C2 3916   1.844   3.718   9.754  0.3526  0.6989 -0.9690
  255MPD2    C3 3917   1.961   3.651   9.740  0.0457 -0.1830  0.7976
  255MPD2    C4 3918   2.001   3.555   9.831  0.5839  0.0301  0.0658
  255MPD2    C5 3919   1.923   3.529   9.944 -0.1851 -0.4361 -0.8661
  255MPD2     H 3920   1.820   3.794   9.681 -0.2044 -0.2763 -1.7929
  255MPD2    H1 3921   2.095   3.501   9.824 -0.6584 -2.3765  1.8904
  255MPD2    H2 3922   1.764   3.601  10.065  1.7122 -1.1335  0.9629
  255MPD2    H3 3923   1.953   3.470  10.030 -1.0676  0.1838 -0.1310
  255MPD2     N 3924   2.028   3.674   9.611 -0.2468  0.3982 -0.2350
  255MPD2    H5 3925   1.979   3.746   9.558 -1.1237 -0.2057 -0.2376
  255MPD2    N1 3926   1.655   3.768   9.908  0.2303 -0.3875 -0.3272
  255MPD2    H7 3927   1.610   3.738   9.994 -0.5199  0.0961 -0.5563
  256TMC3    C1 3928   1.467   3.901   9.878  0.1089 -0.4019  0.4637
  256TMC3    C2 3929   1.426   4.031   9.842  0.1854 -0.9069  0.4173
  256TMC3    C3 3930   1.291   4.058   9.847  0.2059  0.4134 -1.1746
  256TMC3    C4 3931   1.384   3.807   9.921 -0.5114 -0.7220 -0.6029
  256TMC3    C5 3932   1.247   3.834   9.930 -0.5360  0.1239 -0.6403
  256TMC3    C6 3933   1.201   3.957   9.891 -0.3158  0.5718  0.3741
  256TMC3     C 3934   1.596   3.857   9.828 -0.4408 -0.4973 -0.1432
  256TMC3     O 3935   1.643   3.914   9.729 -0.2794  0.0078  0.4287
  256TMC3     H 3936   1.501   4.091   9.791 -0.6594 -0.1423  0.0783
  256TMC3    H1 3937   1.417   3.706   9.940  3.1536  0.0769 -2.6145
  256TMC3    H2 3938   1.098   3.991   9.895 -0.4636  0.1854 -0.3341
  256TMC3    C7 3939   1.153   3.718   9.926 -0.5309  0.5620  0.2525
  256TMC3    C8 3940   1.237   4.182   9.796 -0.1537 -0.2842  0.5655
  256TMC3    O1 3941   1.057   3.721   9.850 -0.0592  0.2971  0.7482
  256TMC3    O2 3942   1.118   4.202   9.770  0.0054  0.4891 -0.1331
  257MPD2     C 3943   1.548   0.570  12.961 -0.5191 -0.7968  0.4789
  257MPD2    C1 3944   1.686   0.571  12.969  0.7862  0.2203 -0.3726
  257MPD2    C2 3945   1.761   0.468  13.020 -0.6464 -0.2318 -0.2125
  257MPD2    C3 3946   1.696   0.349  13.034 -0.1937 -0.2405 -0.0806
  257MPD2    C4 3947   1.560   0.345  13.031  0.7192 -0.3347  0.3482
  257MPD2    C5 3948   1.487   0.456  13.004 -0.7821 -0.4818 -0.6615
  257MPD2     H 3949   1.868   0.473  13.038 -0.5151 -2.8773 -0.3749
  257MPD2    H1 3950   1.505   0.255  13.053  0.9724 -0.6150 -0.1547
  257MPD2    H2 3951   1.491   0.654  12.922 -1.9676 -0.8226  2.5090
  257MPD2    H3 3952   1.379   0.442  13.001 -0.7986 -0.5215  0.1747
  257MPD2     N 3953   1.775   0.237  13.061  0.1885  0.4851 -0.4599
  257MPD2    H5 3954   1.875   0.253  13.069  0.4025 -0.8665 -0.5090
  257MPD2    N1 3955   1.751   0.680  12.906 -0.2314  0.3862 -0.1430
  257MPD2    H7 3956   1.690   0.738  12.849  0.8446  0.1428 -1.5504
  258TMC3    C1 3957   1.852   0.026  13.104 -0.4561  0.6737  0.5624
  258TMC3    C2 3958   1.973   0.088  13.100  0.6910 -0.4066 -0.2376
  258TMC3    C3 3959   2.071   0.031  13.173 -0.1016  0.6305  0.1795
  258TMC3    C4 3960   1.819   4.649  13.184  0.2584  0.0660 -0.4956
  258TMC3    C5 3961   1.919   4.606  13.267 -0.2717 -0.0718 -0.0749
  258TMC3    C6 3962   2.046   4.657  13.255 -0.0481  0.5356 -0.1792
  258TMC3     C 3963   1.735   0.107  13.079  0.2925  0.7130  0.0182
  258TMC3     O 3964   1.624   0.062  13.112 -0.1876 -0.5966  0.2127
  258TMC3     H 3965   1.999   0.167  13.031  0.9132 -1.4133 -1.3123
  258TMC3    H1 3966   1.716   4.617  13.196  0.5108 -1.1282 -1.4863
  258TMC3    H2 3967   2.122   4.616  13.321  1.0548 -0.3900 -2.0394
  258TMC3    C7 3968   1.908   4.485  13.352  0.1432 -0.3169  0.5897
  258TMC3    C8 3969   2.198   0.100  13.198  0.0418  0.9429  0.1619
  258TMC3    O1 3970   1.814   4.405  13.324 -0.2806  0.5176  0.1300
  258TMC3    O2 3971   2.241   0.085  13.313  0.1722  0.7058  0.0191
  259MPD2     C 3972   0.610   1.748   0.550 -0.5656  0.3837  0.3447
  259MPD2    C1 3973   0.738   1.725   0.498 -0.2341  0.1938  0.0679
  259MPD2    C2 3974   0.777   1.790   0.384 -0.0080 -0.8727 -0.3276
  259MPD2    C3 3975   0.688   1.867   0.311  0.7723  0.3063 -0.3345
  259MPD2    C4 3976   0.565   1.896   0.362  0.1516 -0.2133 -0.3146
  259MPD2    C5 3977   0.524   1.833   0.478  0.2200  0.1281  0.2099
  259MPD2     H 3978   0.878   1.777   0.348  0.2437 -1.0484  0.4391
  259MPD2    H1 3979   0.505   1.967   0.307  0.1679 -0.8773 -1.1938
  259MPD2    H2 3980   0.575   1.680   0.627 -1.3414  0.7494  0.3177
  259MPD2    H3 3981   0.421   1.842   0.512  0.1944  2.8877 -0.5710
  259MPD2     N 3982   0.725   1.897   0.179 -0.0822 -0.2007  0.2726
  259MPD2    H5 3983   0.818   1.864   0.154 -1.9310 -2.8151 -3.1734
  259MPD2    N1 3984   0.814   1.626   0.566  0.1601  0.2879  0.0705
  259MPD2    H7 3985   0.772   1.579   0.645  0.6954  1.5178  1.0876
  260TMC3    C1 3986   0.718   1.920  17.668  0.0364 -0.2995  0.0411
  260TMC3    C2 3987   0.833   1.982  17.629  0.0521  0.2010  0.0309
  260TMC3    C3 3988   0.922   1.902  17.563 -0.1160 -0.5190  0.4295
  260TMC3    C4 3989   0.693   1.789  17.649  0.2384 -0.1155  0.2858
  260TMC3    C5 3990   0.786   1.715  17.580  0.3787  0.1003 -0.1821
  260TMC3    C6 3991   0.905   1.770  17.541  0.3392  0.1408 -0.1366
  260TMC3     C 3992   0.658   1.958   0.079 -0.1327 -0.0851  0.8441
  260TMC3     O 3993   0.544   1.998   0.085  0.1188  0.5472  0.0336
  260TMC3     H 3994   0.853   2.088  17.645 -2.4188  0.6544  0.2523
  260TMC3    H1 3995   0.612   1.746  17.706 -0.0473  0.4797  0.3245
  260TMC3    H2 3996   0.975   1.710  17.483 -0.4575 -0.4025 -0.5322
  260TMC3    C7 3997   0.824   1.583  17.634 -0.3283  0.8433  1.0065
  260TMC3    C8 3998   1.063   1.946  17.570 -0.6101 -0.4146  0.5815
  260TMC3    O1 3999   0.910   1.518  17.577  0.0674 -0.2354 -0.1583
  260TMC3    O2 4000   1.081   2.066  17.572  0.4299 -0.2227  0.4766
  261MPD2     C 4001   2.400   0.246  11.957 -0.0026 -0.0081  0.2417
  261MPD2    C1 4002   2.532   0.256  11.932 -0.3924 -0.2987  0.2623
  261MPD2    C2 4003   2.579   0.242  11.804  0.0856 -0.6417  0.6542
  261MPD2    C3 4004   2.489   0.235  11.692  0.1344 -0.5579  0.4385
  261MPD2    C4 4005   2.360   0.212  11.722 -0.2950 -0.0526  0.8893
  261MPD2    C5 4006   2.317   0.221  11.845  0.4361 -0.4753 -0.2181
  261MPD2     H 4007   2.686   0.250  11.789 -0.0477 -2.0104 -1.0842
  261MPD2    H1 4008   2.284   0.197  11.646  1.4596 -1.9951 -0.4708
  261MPD2    H2 4009   2.358   0.253  12.057 -0.6342  1.8975 -0.1477
  261MPD2    H3 4010   2.213   0.191  11.858  0.3404  0.3600  0.9192
  261MPD2     N 4011   2.543   0.231  11.560 -0.7733 -0.1584 -0.1349
  261MPD2    H5 4012   2.644   0.243  11.562 -0.5370 -2.1446 -0.3656
  261MPD2    N1 4013   2.615   0.269  12.039 -0.3843 -0.1372 -0.4952
  261MPD2    H7 4014   2.714   0.257  12.020 -0.2625 -0.9603  0.6747
  262TMC3    C1 4015   2.551   0.290  11.328 -0.2781 -0.1876  0.0422
  262TMC3    C2 4016   2.493   0.407  11.283 -0.3358 -0.0059 -0.2210
  262TMC3    C3 4017   2.558   0.525  11.247  0.4185 -0.0608 -0.1103
  262TMC3    C4 4018   2.689   0.297  11.337  0.0958 -0.0981  0.4966
  262TMC3    C5 4019   2.756   0.396  11.275 -0.1877  0.4804  0.2814
  262TMC3    C6 4020   2.696   0.514  11.234  0.2124  0.8274  0.0844
  262TMC3     C 4021   2.474   0.241  11.443 -0.3119  0.2902 -0.2266
  262TMC3     O 4022   2.353   0.234  11.431 -0.1342  0.1650 -0.3794
  262TMC3     H 4023   2.385   0.415  11.283 -0.2393  1.1730  2.0857
  262TMC3    H1 4024   2.734   0.209  11.382 -0.9536 -0.1490  1.4319
  262TMC3    H2 4025   2.752   0.601  11.203 -3.0916  2.2522 -1.8264
  262TMC3    C7 4026   2.902   0.384  11.246  0.1441 -0.0758  0.0201
  262TMC3    C8 4027   2.520   0.647  11.318 -0.2048  0.2104  0.7295
  262TMC3    O1 4028   2.941   0.278  11.201 -0.0955 -0.0813  0.5696
  262TMC3    O2 4029   2.603   0.741  11.318  0.3484 -0.1553  0.4725
  263MPD2     C 4030   3.525   3.987  11.170 -0.6683  0.0182  0.4002
  263MPD2    C1 4031   3.593   4.097  11.216  0.3521  0.1495 -0.4095
  263MPD2    C2 4032   3.579   4.217  11.153  0.0549 -0.0277 -0.6723
  263MPD2    C3 4033   3.497   4.235  11.041  0.6114  0.0797  0.2349
  263MPD2    C4 4034   3.429   4.125  10.993 -0.0020  0.4698  0.3765
  263MPD2    C5 4035   3.445   4.007  11.061 -0.7070  0.6203 -0.7721
  263MPD2     H 4036   3.641   4.297  11.191 -0.4355  0.6262 -1.2287
  263MPD2    H1 4037   3.367   4.132  10.905  1.9320 -0.3140 -1.0322
  263MPD2    H2 4038   3.518   3.888  11.215  0.9364 -0.2039  0.1719
  263MPD2    H3 4039   3.387   3.927  11.016  2.6463 -2.9789  1.3182
  263MPD2     N 4040   3.499   4.361  10.989  0.1038  0.0037  0.2670
  263MPD2    H5 4041   3.560   4.428  11.034  1.0355 -1.2402  0.8445
  263MPD2    N1 4042   3.678   4.084  11.329 -0.2380  0.0179  0.0422
  263MPD2    H7 4043   3.702   3.995  11.373  0.7579 -1.0196 -2.6138
  264TMC3    C1 4044   3.476   4.550  10.858  1.2287 -0.4246  0.5931
  264TMC3    C2 4045   3.491   4.635  10.966 -0.2902  0.1930  0.1879
  264TMC3    C3 4046   3.572   0.016  10.957 -0.1675  0.1316 -0.2232
  264TMC3    C4 4047   3.518   4.592  10.739 -0.5428  0.6044 -0.2353
  264TMC3    C5 4048   3.592   4.706  10.729  0.8446  0.3519  0.3292
  264TMC3    C6 4049   3.628   0.058  10.836 -0.2491 -0.0622  0.6095
  264TMC3     C 4050   3.440   4.413  10.876  0.0167  0.2620 -0.7027
  264TMC3     O 4051   3.371   4.356  10.790 -0.0838  0.2564  0.6155
  264TMC3     H 4052   3.454   4.604  11.063  0.0971 -2.0221 -0.3638
  264TMC3    H1 4053   3.513   4.523  10.655  1.8325  1.5158 -1.1131
  264TMC3    H2 4054   3.700   0.139  10.836 -0.5253  0.1807  0.0017
  264TMC3    C7 4055   3.699   4.724  10.631  0.2368 -0.9177  0.1514
  264TMC3    C8 4056   3.658   0.050  11.068 -0.1315 -1.3866  0.0909
  264TMC3    O1 4057   3.739   0.107  10.609  0.4770 -0.2669 -0.2356
  264TMC3    O2 4058   3.777   0.066  11.034 -0.2120 -0.1316 -0.6530
  265MPD2     C 4059   0.736   4.407  15.662 -0.3860  0.4371  0.3362
  265MPD2    C1 4060   0.738   4.513  15.582  0.1534 -0.1900 -0.1755
  265MPD2    C2 4061   0.760   4.484  15.451  0.3160 -0.5661  0.1732
  265MPD2    C3 4062   0.790   4.360  15.397  0.0264  0.5106 -0.1218
  265MPD2    C4 4063   0.791   4.259  15.485 -0.3520  0.2315 -1.3515
  265MPD2    C5 4064   0.757   4.280  15.619 -0.0420 -0.7039  0.1344
  265MPD2     H 4065   0.753   4.564  15.378 -0.5036  0.6892  1.5983
  265MPD2    H1 4066   0.828   4.160  15.462 -0.2395 -0.2594  0.8587
  265MPD2    H2 4067   0.733   4.417  15.770  2.8565  0.6445  0.4346
  265MPD2    H3 4068   0.775   4.207  15.696  1.1980 -0.8108 -0.2536
  265MPD2     N 4069   0.847   4.340  15.271 -0.3178 -0.5999 -0.1568
  265MPD2    H5 4070   0.880   4.246  15.252 -0.2745 -0.1762 -2.2539
  265MPD2    N1 4071   0.720   4.643  15.629  0.7987  0.7441 -0.6747
  265MPD2    H7 4072   0.727   4.720  15.563 -0.0317  1.1813 -0.2569
  266TMC3    C1 4073   0.701   0.093  15.784 -0.4197  0.3851 -0.0451
  266TMC3    C2 4074   0.770   0.130  15.897  0.3754 -0.0901  0.5312
  266TMC3    C3 4075   0.787   0.256  15.928  0.5722 -0.1748  0.6778
  266TMC3    C4 4076   0.661   0.184  15.691  0.7617 -0.0430  0.3205
  266TMC3    C5 4077   0.689   0.318  15.721 -0.1340 -0.1200 -0.6368
  266TMC3    C6 4078   0.755   0.353  15.839  0.4110  0.6265  0.4848
  266TMC3     C 4079   0.693   4.682  15.761  0.4084 -0.1311  0.6186
  266TMC3     O 4080   0.661   4.612  15.857  0.0964 -0.0261 -0.0922
  266TMC3     H 4081   0.801   0.049  15.962 -0.1801  0.3943  1.3985
  266TMC3    H1 4082   0.599   0.150  15.609 -0.1831 -0.5397  1.2423
  266TMC3    H2 4083   0.768   0.458  15.863 -1.7109  1.3873 -1.6378
  266TMC3    C7 4084   0.630   0.420  15.639 -0.1796 -0.5319 -0.5243
  266TMC3    C8 4085   0.908   0.277  15.999 -0.1910  0.7461  0.0223
  266TMC3    O1 4086   0.529   0.390  15.577 -0.0664  0.3624 -0.1340
  266TMC3    O2 4087   0.971   0.174  16.025  0.7418 -0.3737  0.9162
  267MPD2     C 4088   2.482   2.120   0.161  0.8020 -0.4012 -0.3801
  267MPD2    C1 4089   2.553   2.023   0.100  0.3558 -0.0583 -0.2742
  267MPD2    C2 4090   2.605   2.052  17.695  0.3213 -0.2450  0.1852
  267MPD2    C3 4091   2.593   2.173  17.637  0.9490  0.0050 -0.7875
  267MPD2    C4 4092   2.518   2.272  17.699 -0.7548  0.6763 -0.2800
  267MPD2    C5 4093   2.468   2.246   0.102  0.6521  0.1651  0.0352
  267MPD2     H 4094   2.663   1.977  17.644  3.2265  1.5321  0.8406
  267MPD2    H1 4095   2.502   2.371  17.659  0.0297  0.2089 -1.7548
  267MPD2    H2 4096   2.439   2.100   0.259  1.3495  2.1817  0.3945
  267MPD2    H3 4097   2.401   2.317   0.150 -0.1547 -0.4090 -0.2381
  267MPD2     N 4098   2.633   2.182  17.500 -0.4108 -0.1840  0.3916
  267MPD2    H5 4099   2.701   2.115  17.465  1.6363  1.7577  0.6888
  267MPD2    N1 4100   2.572   1.893   0.161  0.7520 -0.1200  0.6627
  267MPD2    H7 4101   2.550   1.880   0.259  0.3672  1.7953  0.8287
  268TMC3    C1 4102   2.635   1.668   0.191 -0.5706 -0.2719  0.0390
  268TMC3    C2 4103   2.702   1.557   0.143  1.0627  0.5372 -0.0687
  268TMC3    C3 4104   2.767   1.478   0.231 -0.6464 -0.1076 -0.0389
  268TMC3    C4 4105   2.621   1.686   0.328 -0.1768  0.1360 -0.3500
  268TMC3    C5 4106   2.672   1.599   0.418  0.8180  0.5610 -0.8000
  268TMC3    C6 4107   2.735   1.488   0.369 -0.4810  0.9324  0.3389
  268TMC3     C 4108   2.607   1.773   0.098 -0.2421 -0.3865  0.1485
  268TMC3     O 4109   2.632   1.757  17.695  0.7671 -0.3434  0.2004
  268TMC3     H 4110   2.715   1.546   0.036  0.8337 -2.0989  0.1743
  268TMC3    H1 4111   2.572   1.774   0.367 -2.2380 -1.1665 -0.0346
  268TMC3    H2 4112   2.777   1.419   0.441 -1.7590 -0.6521 -0.4322
  268TMC3    C7 4113   2.709   1.638   0.553  0.2234 -0.5596  0.3441
  268TMC3    C8 4114   2.910   1.468   0.218 -0.5968  0.1102  0.2884
  268TMC3    O1 4115   2.740   1.544   0.624  0.4612 -0.2338 -0.1690
  268TMC3    O2 4116   2.970   1.449   0.323 -0.4685 -0.5698 -0.5280
  269MPD2     C 4117   3.821   0.971  15.453  0.3946 -0.0234 -0.1875
  269MPD2    C1 4118   3.681   0.998  15.482 -0.2410 -0.3844 -0.7743
  269MPD2    C2 4119   3.643   1.128  15.467 -0.0623 -1.0994 -0.7617
  269MPD2    C3 4120   3.727   1.231  15.444 -0.4677  0.3998  1.0725
  269MPD2    C4 4121   3.860   1.205  15.431 -0.1689 -0.2646 -0.6506
  269MPD2    C5 4122   3.904   1.075  15.439 -1.1777  0.4363 -0.1494
  269MPD2     H 4123   3.537   1.152  15.470  0.5839  1.6766 -0.3582
  269MPD2    H1 4124   3.922   1.292  15.413  0.1120 -0.4828 -0.7299
  269MPD2    H2 4125   3.856   0.869  15.452 -0.7648 -0.4334  1.0553
  269MPD2    H3 4126   4.009   1.059  15.422 -0.9273  1.0368  0.8678
  269MPD2     N 4127   3.660   1.353  15.428  0.4291  0.4947  0.0673
  269MPD2    H5 4128   3.561   1.350  15.450  0.1036 -1.5292 -1.7111
  269MPD2    N1 4129   3.598   0.880  15.499 -1.0978  0.6542 -0.0048
  269MPD2    H7 4130   3.650   0.793  15.509 -2.2934 -0.2680 -1.6727
  270TMC3    C1 4131   3.397   0.755  15.558 -0.0781  0.2620 -0.2838
  270TMC3    C2 4132   3.262   0.746  15.547  0.0923 -0.3071 -0.0431
  270TMC3    C3 4133   3.212   0.630  15.590 -1.2199 -0.0954 -0.0545
  270TMC3    C4 4134   3.477   0.681  15.643  0.3343 -0.1415 -0.4173
  270TMC3    C5 4135   3.411   0.576  15.712 -0.7228  0.7890 -0.3638
  270TMC3    C6 4136   3.281   0.541  15.674  0.8411  0.6853 -0.5497
  270TMC3     C 4137   3.458   0.879  15.512  0.0140  0.0485 -0.1096
  270TMC3     O 4138   3.378   0.966  15.474 -0.1892  0.2116 -0.4448
  270TMC3     H 4139   3.211   0.807  15.473 -2.3486 -1.3855  0.7486
  270TMC3    H1 4140   3.582   0.692  15.667  1.1843 -2.0491 -3.3174
  270TMC3    H2 4141   3.251   0.439  15.695  1.3262  0.5845 -0.3266
  270TMC3    C7 4142   3.498   0.460  15.706  0.2919 -0.1416 -0.1187
  270TMC3    C8 4143   3.166   0.554  15.478  0.3011  0.4990 -0.5846
  270TMC3    O1 4144   3.572   0.442  15.608 -0.3164  0.5092 -0.3704
  270TMC3    O2 4145   3.208   0.585  15.365 -0.1239  0.0912  0.1649
  271MPD2     C 4146   2.675   0.353  13.940 -0.0002  0.8180 -0.4360
  271MPD2    C1 4147   2.615   0.354  14.060 -0.1811  0.8182 -0.5469
  271MPD2    C2 4148   2.488   0.421  14.073 -0.7389  0.4021  0.0333
  271MPD2    C3 4149   2.420   0.454  13.959 -0.0482 -0.4851  0.4659
  271MPD2    C4 4150   2.481   0.443  13.835  0.2424  0.4300  0.5852
  271MPD2    C5 4151   2.608   0.395  13.828 -0.3849 -0.0108 -0.4990
  271MPD2     H 4152   2.449   0.443  14.171  0.4097 -0.7722  0.7676
  271MPD2    H1 4153   2.443   0.475  13.739 -0.0527  1.3940  1.0260
  271MPD2    H2 4154   2.775   0.315  13.923 -0.3110 -0.2690  0.1113
  271MPD2    H3 4155   2.662   0.395  13.734  0.2251  1.9792 -0.1466
  271MPD2     N 4156   2.290   0.509  13.955 -0.5576 -0.0304  0.3467
  271MPD2    H5 4157   2.235   0.533  13.874  1.1049 -0.5153 -0.9269
  271MPD2    N1 4158   2.682   0.313  14.175  0.0198 -0.0018 -0.6926
  271MPD2    H7 4159   2.668   0.354  14.266 -1.1089  0.6293 -1.1522
  272TMC3    C1 4160   2.883   0.231  14.285  0.3831 -0.2817  0.5104
  272TMC3    C2 4161   3.011   0.192  14.262 -0.3393  0.1688  0.5290
  272TMC3    C3 4162   3.083   0.139  14.369  0.0199 -0.3328  0.1726
  272TMC3    C4 4163   2.838   0.248  14.414 -0.0958  0.8950  0.2157
  272TMC3    C5 4164   2.930   0.225  14.519 -1.0306 -0.4763 -0.1789
  272TMC3    C6 4165   3.055   0.170  14.496  0.0388  0.2554 -0.7351
  272TMC3     C 4166   2.795   0.225  14.169  0.4731  0.3766  0.3429
  272TMC3     O 4167   2.827   0.143  14.087 -0.0288  0.6618  0.1808
  272TMC3     H 4168   3.027   0.160  14.160  0.3555  2.5124 -0.1026
  272TMC3    H1 4169   2.734   0.274  14.432  0.0178  1.6207 -0.1822
  272TMC3    H2 4170   3.094   0.114  14.581 -2.5951 -2.0269 -0.9997
  272TMC3    C7 4171   2.891   0.280  14.641 -0.2945 -0.3821 -0.0257
  272TMC3    C8 4172   3.206   0.077  14.324 -0.2611  0.1226 -0.0640
  272TMC3    O1 4173   2.775   0.267  14.672  0.3876 -0.0396 -0.2590
  272TMC3    O2 4174   3.205   0.046  14.205 -0.1343 -0.5770 -0.1094
  273MPD2     C 4175   3.863   2.974  11.859 -0.3026 -0.3854 -0.1829
  273MPD2    C1 4176   3.996   3.022  11.838 -0.4557  0.4437 -0.2565
  273MPD2    C2 4177   4.045   3.038  11.706 -0.6814 -0.2152 -0.3276
  273MPD2    C3 4178   3.961   3.018  11.593 -0.0725 -0.4107  0.1452
  273MPD2    C4 4179   3.843   2.960  11.616  0.6937 -0.1280 -0.0314
  273MPD2    C5 4180   3.796   2.936  11.747  0.0122 -0.1566 -0.5677
  273MPD2     H 4181   4.147   3.075  11.694 -0.5662  0.1715  1.8470
  273MPD2    H1 4182   3.780   2.924  11.535 -0.0333  2.3789 -0.5786
  273MPD2    H2 4183   3.812   2.980  11.955 -0.3358  2.4524 -0.3937
  273MPD2    H3 4184   3.692   2.904  11.757 -0.2772  1.4301  1.5155
  273MPD2     N 4185   3.985   3.058  11.462  0.4074  0.5667  0.8065
  273MPD2    H5 4186   3.918   3.043  11.387  1.6057  1.9494 -0.5531
  273MPD2    N1 4187   4.063   3.080  11.948  0.1784  0.3906  0.4730
  273MPD2    H7 4188   4.023   3.054  12.037 -2.3150 -2.8834 -1.6219
  274TMC3    C1 4189   4.105   3.164  11.286 -0.1787 -0.1105 -0.0980
  274TMC3    C2 4190   4.032   3.105  11.185  0.9344  0.8333  0.8062
  274TMC3    C3 4191   4.063   3.132  11.054  0.0771  0.3352  0.2689
  274TMC3    C4 4192   4.202   3.257  11.253  0.1636 -0.2340 -0.1883
  274TMC3    C5 4193   4.236   3.280  11.118  0.4420 -0.0971 -1.1869
  274TMC3    C6 4194   4.174   3.208  11.017 -0.1426 -0.0349  0.1175
  274TMC3     C 4195   4.098   3.126  11.427  0.4046  0.4736 -0.2149
  274TMC3     O 4196   4.193   3.163  11.494  0.0879 -0.4077  0.5043
  274TMC3     H 4197   3.938   3.055  11.207  0.4240  2.1890  1.7058
  274TMC3    H1 4198   4.263   3.303  11.330 -2.3961  0.5601  1.3993
  274TMC3    H2 4199   4.185   3.246  10.916 -1.3669 -1.3995 -0.5118
  274TMC3    C7 4200   4.284   3.415  11.086  0.0320  0.4226 -0.4266
  274TMC3    C8 4201   3.942   3.185  10.992 -0.4820  0.3475  0.5414
  274TMC3    O1 4202   4.305   3.439  10.967 -0.4930 -0.4428 -0.1288
  274TMC3    O2 4203   3.942   3.305  10.998 -0.0752 -0.0920  0.4963
  275MPD2     C 4204   4.545   1.071  14.497  0.4094  0.4122 -1.0109
  275MPD2    C1 4205   4.476   1.181  14.461 -0.4074  0.0827  0.1467
  275MPD2    C2 4206   4.342   1.163  14.420  0.0239  0.2474  0.5379
  275MPD2    C3 4207   4.283   1.035  14.427 -0.6245  1.0044  0.0525
  275MPD2    C4 4208   4.363   0.929  14.457 -0.8789  0.2935 -0.3523
  275MPD2    C5 4209   4.493   0.945  14.490  0.0810 -0.2393  0.5010
  275MPD2     H 4210   4.289   1.253  14.390  0.9699  1.2898  2.0237
  275MPD2    H1 4211   4.312   0.834  14.459  0.5966 -0.4783  0.6052
  275MPD2    H2 4212   4.650   1.081  14.525  0.0648 -0.2764  0.5562
  275MPD2    H3 4213   4.553   0.859  14.519 -0.6908 -0.7228  0.6468
  275MPD2     N 4214   4.142   1.006  14.426  1.0169 -0.3271 -1.0201
  275MPD2    H5 4215   4.123   0.912  14.456  1.7351 -0.6240 -1.4803
  275MPD2    N1 4216   4.518   1.314  14.473 -0.5019 -0.5614  0.4884
  275MPD2    H7 4217   4.455   1.389  14.444  1.3044  0.7871  0.0423
  276TMC3    C1 4218   4.640   1.488  14.611 -0.4029  0.4403  0.1103
  276TMC3    C2 4219   4.508   1.522  14.634  0.0369 -0.2117  0.0101
  276TMC3    C3 4220   4.459   1.537  14.759  0.1478  0.6435  0.7047
  276TMC3    C4 4221   4.726   1.493  14.717 -0.5973 -0.3907  0.1273
  276TMC3    C5 4222   4.673   1.517  14.844  0.3477  0.3735  0.8381
  276TMC3    C6 4223   4.543   1.540  14.862 -0.1075 -0.0205 -0.5182
  276TMC3     C 4224   4.635   1.353  14.548 -0.2767 -0.2192  0.5554
  276TMC3     O 4225   0.006   1.289  14.585 -0.0682  0.4320  1.0098
  276TMC3     H 4226   4.429   1.522  14.559 -1.3900  0.5438  1.5023
  276TMC3    H1 4227   0.102   1.484  14.693 -0.4669  1.9231 -0.1155
  276TMC3    H2 4228   4.504   1.563  14.961 -0.4353  1.7719 -1.0623
  276TMC3    C7 4229   0.033   1.520  14.960 -0.2972  1.1868 -0.8919
  276TMC3    C8 4230   4.342   1.463  14.792  0.2938 -0.5061 -0.0366
  276TMC3    O1 4231   4.710   1.568  15.058  0.0945  0.0737 -0.1931
  276TMC3    O2 4232   4.233   1.504  14.761 -0.2683 -0.3322  0.2496
  277MPD2     C 4233   1.496   4.443  13.332  0.1225 -0.0637  0.6993
  277MPD2    C1 4234   1.359   4.472  13.320  0.0889 -0.2099  0.3395
  277MPD2    C2 4235   1.285   4.513  13.432  0.3926  0.5616  0.0690
  277MPD2    C3 4236   1.341   4.499  13.559  0.9801 -1.0047  0.3458
  277MPD2    C4 4237   1.472   4.467  13.577  0.6128  0.5235  0.6532
  277MPD2    C5 4238   1.543   4.440  13.464  0.3184  0.7598  0.8295
  277MPD2     H 4239   1.179   4.532  13.427  0.1242 -1.2134 -1.0022
  277MPD2    H1 4240   1.524   4.453  13.671 -1.6193 -0.2131  1.7837
  277MPD2    H2 4241   1.564   4.415  13.253 -1.0873 -0.2404 -0.2834
  277MPD2    H3 4242   1.642   4.401  13.481  0.0242 -0.7314 -0.9038
  277MPD2     N 4243   1.239   4.499  13.665 -0.2070 -0.3914  0.2369
  277MPD2    H5 4244   1.140   4.501  13.644  0.1665  1.9507 -1.3167
  277MPD2    N1 4245   1.308   4.474  13.191 -0.3408  0.5108 -0.0508
  277MPD2    H7 4246   1.367   4.461  13.109  1.3587 -0.9293  1.3888
  278TMC3    C1 4247   1.146   4.495  13.874 -0.2833  1.0860 -0.4824
  278TMC3    C2 4248   1.129   4.389  13.956 -0.2813  0.0359  0.5849
  278TMC3    C3 4249   1.010   4.348  13.982  0.1637  0.2192 -0.2200
  278TMC3    C4 4250   1.045   4.564  13.816  0.5495  0.3457  0.1146
  278TMC3    C5 4251   0.917   4.527  13.848 -0.5282 -0.4369 -0.1935
  278TMC3    C6 4252   0.901   4.408  13.922 -0.5062  0.1369 -0.4387
  278TMC3     C 4253   1.265   4.478  13.796 -0.0801 -0.4517 -0.6226
  278TMC3     O 4254   1.369   4.461  13.854  0.0992 -0.5344 -0.1907
  278TMC3     H 4255   1.218   4.334  13.983 -0.3594  0.1867  1.1550
  278TMC3    H1 4256   1.056   4.639  13.739  1.8025  2.2715  2.1732
  278TMC3    H2 4257   0.801   4.380  13.953 -0.1775  1.1129  1.4982
  278TMC3    C7 4258   0.833   4.535  13.736  0.7699  0.7458  0.7882
  278TMC3    C8 4259   0.997   4.204  14.026  0.0758  0.0320  0.2521
  278TMC3    O1 4260   0.884   4.517  13.629 -0.4297  0.3412 -0.0864
  278TMC3    O2 4261   1.087   4.153  14.097 -0.4415  0.5930 -0.2461
  279MPD2     C 4262   0.535   4.654   0.559  0.5570  1.3391 -0.1259
  279MPD2    C1 4263   0.462   0.039   0.533 -0.0449 -0.2688  0.0234
  279MPD2    C2 4264   0.454   0.088   0.403 -0.2295  0.5272  0.3836
  279MPD2    C3 4265   0.518   0.018   0.304 -0.4305 -0.5932  0.6909
  279MPD2    C4 4266   0.591   4.632   0.330 -0.1734  0.5937 -0.1391
  279MPD2    C5 4267   0.594   4.578   0.458  0.7598  0.1494 -0.2477
  279MPD2     H 4268   0.422   0.189   0.379 -0.2935  0.3265 -0.3773
  279MPD2    H1 4269   0.645   4.576   0.255  0.6537  3.3893 -1.6221
  279MPD2    H2 4270   0.535   4.623   0.663  1.2008  2.7464  0.2972
  279MPD2    H3 4271   0.641   4.481   0.472  0.7081  0.3500  1.3066
  279MPD2     N 4272   0.508   0.054   0.169 -0.2012  0.1965  0.2880
  279MPD2    H5 4273   0.577   0.013   0.107  0.4840  1.7831  0.0149
  279MPD2    N1 4274   0.409   0.106   0.647 -0.5208 -0.7575  0.2716
  279MPD2    H7 4275   0.446   0.068   0.733 -0.9167  0.1687  0.8513
  280TMC3    C1 4276   0.206   0.203   0.563  0.0067 -0.2392 -0.1257
  280TMC3    C2 4277   0.161   0.087   0.498  0.2597  0.1373 -0.1202
  280TMC3    C3 4278   0.037   0.089   0.439 -0.2896  0.4257  0.4343
  280TMC3    C4 4279   0.121   0.310   0.570 -0.4198  0.2363 -0.0085
  280TMC3    C5 4280   0.001   0.307   0.504  0.3573  0.3521 -0.2466
  280TMC3    C6 4281   4.684   0.196   0.441 -0.5525  0.0092  0.3818
  280TMC3     C 4282   0.321   0.213   0.649  0.2435 -0.4316 -0.2629
  280TMC3     O 4283   0.299   0.281   0.749 -0.0055 -0.2888 -0.3895
  280TMC3     H 4284   0.212   4.721   0.509 -0.9820 -0.6594 -1.2929
  280TMC3    H1 4285   0.152   0.393   0.633  2.3019 -0.5679 -0.2989
  280TMC3    H2 4286   4.581   0.187   0.408 -1.0057  1.1845  1.4796
  280TMC3    C7 4287   4.637   0.410   0.535  0.1554 -0.5548 -0.0482
  280TMC3    C8 4288   4.722   4.694   0.374  0.8200 -0.6723  0.3923
  280TMC3    O1 4289   4.642   0.473   0.639  0.1111  0.6659 -0.3460
  280TMC3    O2 4290   4.605   4.676   0.343 -0.0379 -0.8430  0.3527
  281TMC3    C1 4291   3.878   0.512  13.202  0.7560 -0.0095 -0.7715
  281TMC3    C2 4292   3.836   0.510  13.067 -0.8083  0.3489 -0.1106
  281TMC3    C3 4293   3.786   0.389  13.026 -0.0631 -0.3695 -0.0349
  281TMC3    C4 4294   3.875   0.408  13.290  0.2975 -0.4960  0.2049
  281TMC3    C5 4295   3.836   0.285  13.241  0.0551 -0.2399  0.3168
  281TMC3    C6 4296   3.784   0.278  13.111  0.4520 -0.3878 -0.0659
  281TMC3     C 4297   3.937   0.635  13.256 -0.8784 -0.2680  0.3004
  281TMC3     O 4298   3.990   0.633  13.365 -0.0200 -0.5827 -0.3198
  281TMC3     H 4299   3.841   0.593  12.998  1.2795 -0.9522 -1.5161
  281TMC3    H1 4300   3.897   0.435  13.393  1.9746  3.3872 -1.1878
  281TMC3    H2 4301   3.763   0.185  13.060 -3.9861 -0.0123  1.0804
  281TMC3    C7 4302   3.762   0.213  13.344  0.2555 -0.4576 -0.0984
  281TMC3    C8 4303   3.686   0.376  12.925  0.1040  0.1281 -0.2850
  281TMC3    O1 4304   3.790   0.222  13.463 -0.4274 -0.1347 -0.2021
  281TMC3    O2 4305   3.632   0.266  12.903  0.3472  0.3020  0.5023
  282MPD2     C 4306   0.892   1.498  15.069 -0.1420 -0.3347  0.1086
  282MPD2    C1 4307   0.831   1.615  15.093  0.2722  0.3878 -0.0478
  282MPD2    C2 4308   0.805   1.709  14.991  0.3236 -0.3382 -0.0827
  282MPD2    C3 4309   0.823   1.665  14.861 -0.2701 -0.2589  0.2383
  282MPD2    C4 4310   0.867   1.540  14.837 -0.0086 -0.5661  0.4003
  282MPD2    C5 4311   0.896   1.453  14.942  0.5353 -1.0132  0.2360
  282MPD2     H 4312   0.766   1.805  15.021 -0.1594 -1.6670  3.5808
  282MPD2    H1 4313   0.894   1.502  14.739  0.5313 -1.5276  0.9239
  282MPD2    H2 4314   0.924   1.427  15.145 -0.4875  1.4636  1.9062
  282MPD2    H3 4315   0.950   1.362  14.919  1.5071 -0.5251  0.5407
  282MPD2     N 4316   0.776   1.750  14.756 -0.0347  0.2637  0.2882
  282MPD2    H5 4317   0.741   1.842  14.781 -0.7296  0.7162 -2.3343
  282MPD2    N1 4318   0.804   1.656  15.221  0.2706 -0.0256  0.2116
  282MPD2    H7 4319   0.773   1.752  15.235  0.2926  0.1150 -0.7135
  283TMC3    C1 4320   0.774   1.644  15.461 -0.4182 -0.0544 -0.4473
  283TMC3    C2 4321   0.821   1.768  15.488  0.2718  0.2383 -0.4120
  283TMC3    C3 4322   0.816   1.816  15.614  0.9809 -0.5423 -0.2148
  283TMC3    C4 4323   0.751   1.553  15.563 -0.5638  0.6709 -0.1592
  283TMC3    C5 4324   0.762   1.602  15.692 -0.0139 -0.8407 -0.0374
  283TMC3    C6 4325   0.793   1.733  15.721 -0.5781  0.2557  0.0989
  283TMC3     C 4326   0.811   1.573  15.334  0.3463  0.2827 -0.1773
  283TMC3     O 4327   0.828   1.454  15.349 -0.1728  0.1146 -0.1834
  283TMC3     H 4328   0.875   1.810  15.403  1.0469  0.3142  0.1177
  283TMC3    H1 4329   0.708   1.455  15.543  3.1808 -1.2084  1.1133
  283TMC3    H2 4330   0.793   1.760  15.826  1.0009 -0.2131  0.2258
  283TMC3    C7 4331   0.719   1.520  15.805 -0.7545  0.9464  0.2476
  283TMC3    C8 4332   0.880   1.939  15.641  0.1682  0.8314  0.0098
  283TMC3    O1 4333   0.681   1.576  15.905  0.0063 -1.3045  0.0601
  283TMC3    O2 4334   0.929   1.954  15.749 -0.3012  0.2752  0.0616
  284MPD2     C 4335   3.645   1.245  11.793  0.1050 -0.1271 -0.1498
  284MPD2    C1 4336   3.740   1.154  11.762 -1.0456 -0.3369  0.5247
  284MPD2    C2 4337   3.815   1.099  11.864 -0.2417 -0.3821  0.1811
  284MPD2    C3 4338   3.790   1.134  11.993 -0.9199  1.0374 -0.3529
  284MPD2    C4 4339   3.687   1.213  12.025  0.5531  0.2481 -0.0655
  284MPD2    C5 4340   3.612   1.262  11.924  0.6024 -0.5135  0.2311
  284MPD2     H 4341   3.907   1.047  11.839 -0.1399 -1.2241  2.3169
  284MPD2    H1 4342   3.650   1.235  12.124 -1.7151  0.8020 -1.0246
  284MPD2    H2 4343   3.579   1.294  11.723  1.7058  0.2924 -1.3856
  284MPD2    H3 4344   3.521   1.317  11.944  0.8927 -0.9388  2.6617
  284MPD2     N 4345   3.875   1.076  12.087 -0.2413 -0.6061  0.2046
  284MPD2    H5 4346   3.943   1.006  12.058 -0.2281  0.1063 -1.4849
  284MPD2    N1 4347   3.764   1.133  11.626  0.2893  0.1158 -0.2232
  284MPD2    H7 4348   3.845   1.075  11.607  2.1361  1.6805  2.8920
  285TMC3    C1 4349   3.784   1.169  11.412 -0.7297  0.0920  0.9176
  285TMC3    C2 4350   3.864   1.064  11.408  0.1697  0.4674  0.3404
  285TMC3    C3 4351   3.986   1.084  11.345  0.9378 -0.1171  0.6025
  285TMC3    C4 4352   3.809   1.291  11.351 -0.4019 -0.4728 -0.3566
  285TMC3    C5 4353   3.933   1.308  11.297 -0.1657  0.5373  0.4545
  285TMC3    C6 4354   4.027   1.209  11.290 -0.0960  0.1862 -0.8342
  285TMC3     C 4355   3.692   1.181  11.518  0.0097  0.4604  0.4373
  285TMC3     O 4356   3.599   1.255  11.504  0.0665  0.1643  0.0479
  285TMC3     H 4357   3.832   0.967  11.445 -1.3809  0.8147 -0.1074
  285TMC3    H1 4358   3.734   1.370  11.351 -0.0745 -0.1694  0.5283
  285TMC3    H2 4359   4.123   1.224  11.242  0.1839 -1.1157 -0.6922
  285TMC3    C7 4360   3.976   1.441  11.316 -0.2463  0.0096  0.8002
  285TMC3    C8 4361   4.062   0.968  11.325 -0.2129  0.4799 -0.6003
  285TMC3    O1 4362   3.908   1.532  11.267 -0.2953 -0.5387  0.1991
  285TMC3    O2 4363   4.001   0.863  11.340  0.1534  0.2754  0.5467
  286MPD2     C 4364   4.181   4.275   0.519 -0.8687  0.7426 -0.2680
  286MPD2    C1 4365   4.147   4.283   0.648  0.5576 -0.2850 -0.4859
  286MPD2    C2 4366   4.199   4.190   0.738  0.0908  0.2423  0.2812
  286MPD2    C3 4367   4.277   4.091   0.688  0.4285 -0.0046  0.0544
  286MPD2    C4 4368   4.314   4.085   0.554  0.2063 -0.8287  0.0616
  286MPD2    C5 4369   4.264   4.181   0.475 -0.6640 -0.6037 -0.6807
  286MPD2     H 4370   4.182   4.191   0.845 -1.2226 -1.0834  0.0857
  286MPD2    H1 4371   4.382   4.009   0.519  0.0668 -0.3898 -1.1777
  286MPD2    H2 4372   4.163   4.346   0.439  0.9983 -0.2471 -1.5534
  286MPD2    H3 4373   4.294   4.187   0.371 -0.2443  1.9431 -0.4095
  286MPD2     N 4374   4.332   3.987   0.763  0.1188  0.4697 -0.1289
  286MPD2    H5 4375   4.390   3.919   0.715  0.9582  1.1039 -0.0101
  286MPD2    N1 4376   4.062   4.385   0.698  0.2156 -0.0856 -0.4829
  286MPD2    H7 4377   4.050   4.380   0.799 -1.7463  2.5784 -0.6161
  287TMC3    C1 4378   4.414   3.868   0.940 -0.4630 -0.3294 -0.2225
  287TMC3    C2 4379   4.445   3.778   0.837  0.0468 -0.2638 -0.0683
  287TMC3    C3 4380   4.563   3.717   0.839 -0.7173  0.1942 -0.3063
  287TMC3    C4 4381   4.514   3.907   1.024 -0.6188 -0.5121  0.5287
  287TMC3    C5 4382   4.632   3.844   1.022 -0.5317  0.2636  0.4152
  287TMC3    C6 4383   4.656   3.741   0.928 -1.0776 -0.1203  0.0693
  287TMC3     C 4384   4.333   3.976   0.896 -0.2517 -0.3699 -0.1804
  287TMC3     O 4385   4.288   4.047   0.982 -0.0850  0.1292 -0.3038
  287TMC3     H 4386   4.375   3.755   0.758 -0.0594 -2.0847  0.5392
  287TMC3    H1 4387   4.506   3.993   1.090  4.1710  0.6358 -0.3800
  287TMC3    H2 4388   0.013   3.676   0.939  0.1155  1.3774 -0.3456
  287TMC3    C7 4389   4.726   3.880   1.121  0.7260 -0.2223 -0.1322
  287TMC3    C8 4390   4.589   3.622   0.733  0.0915 -0.5431  0.0515
  287TMC3    O1 4391   4.692   3.961   1.206  0.0075 -0.1574 -0.5679
  287TMC3    O2 4392   4.494   3.567   0.682 -0.0544 -0.1710 -0.7219
  288TMC3    C1 4393   1.352   4.566  14.223 -0.6253  0.9656  0.2491
  288TMC3    C2 4394   1.257   4.571  14.326  0.2195 -0.3698 -0.6533
  288TMC3    C3 4395   1.163   4.669  14.318  0.0709  0.7036 -0.0018
  288TMC3    C4 4396   1.345   4.655  14.118 -0.5994  0.1229 -0.0215
  288TMC3    C5 4397   1.252   0.033  14.122  0.8640 -0.4176  0.0227
  288TMC3    C6 4398   1.159   0.037  14.232  0.1414  0.3661 -0.5485
  288TMC3     C 4399   1.445   4.455  14.226 -0.2587 -0.1114  0.3499
  288TMC3     O 4400   1.474   4.400  14.336  0.1603  0.1711  0.1912
  288TMC3     H 4401   1.254   4.494  14.402  0.4795  0.3188  0.0590
  288TMC3    H1 4402   1.404   4.633  14.030 -3.7784  1.5216 -2.4813
  288TMC3    H2 4403   1.084   0.115  14.234  0.9255  1.0959  0.6446
  288TMC3    C7 4404   1.197   0.094  13.997 -0.0280  0.1352  0.4019
  288TMC3    C8 4405   1.067   4.689  14.427  0.1827 -0.1757 -0.1879
  288TMC3    O1 4406   1.081   0.134  13.999  0.4204  0.1800  0.7232
  288TMC3    O2 4407   1.031   0.073  14.445  0.1995  0.1105  0.2283
  289MPD2     C 4408   1.006   3.484  14.574 -0.1124 -0.0573 -0.1377
  289MPD2    C1 4409   1.001   3.602  14.496  0.4431 -0.3405 -0.0009
  289MPD2    C2 4410   0.892   3.624  14.414 -0.2212 -0.0778  0.0324
  289MPD2    C3 4411   0.792   3.526  14.404  0.8524 -0.6595  0.0424
  289MPD2    C4 4412   0.796   3.410  14.480 -0.0016 -0.2907 -0.1615
  289MPD2    C5 4413   0.903   3.395  14.565  0.0125 -0.0475 -0.0619
  289MPD2     H 4414   0.878   3.709  14.348 -0.5824  0.2546  0.5296
  289MPD2    H1 4415   0.723   3.330  14.488 -1.7916  1.3120 -0.2672
  289MPD2    H2 4416   1.089   3.464  14.641  0.3914  1.5321 -0.2968
  289MPD2    H3 4417   0.899   3.303  14.622 -0.5702 -0.1728 -0.3028
  289MPD2     N 4418   0.687   3.538  14.310  0.3046  0.2043  0.1458
  289MPD2    H5 4419   0.676   3.631  14.271 -0.0937  0.0838 -0.0223
  289MPD2    N1 4420   1.110   3.692  14.494  0.3399 -0.0303 -0.6822
  289MPD2    H7 4421   1.189   3.670  14.554  0.8987 -0.6066 -1.6323
  290TMC3    C1 4422   0.555   3.472  14.135 -0.0881  0.6782  0.4121
  290TMC3    C2 4423   0.525   3.600  14.107 -0.4518  0.1859 -0.3193
  290TMC3    C3 4424   0.484   3.631  13.978 -0.6298  0.6575 -0.3454
  290TMC3    C4 4425   0.544   3.369  14.046 -0.1273  0.1111 -0.3112
  290TMC3    C5 4426   0.487   3.399  13.924  0.0250 -0.2661  0.4301
  290TMC3    C6 4427   0.462   3.531  13.886  0.4522 -0.3854 -0.5717
  290TMC3     C 4428   0.616   3.433  14.257 -0.1787  0.2556 -0.2576
  290TMC3     O 4429   0.618   3.313  14.284  0.5862 -0.4836  0.2188
  290TMC3     H 4430   0.527   3.679  14.181  0.9566 -1.0961  1.0124
  290TMC3    H1 4431   0.577   3.268  14.063  2.2494  1.4787  3.1188
  290TMC3    H2 4432   0.430   3.549  13.784  1.3358  0.2254 -0.7425
  290TMC3    C7 4433   0.454   3.290  13.831 -0.2368  0.2645 -0.3479
  290TMC3    C8 4434   0.465   3.767  13.929 -0.3955  0.7125  0.5520
  290TMC3    O1 4435   0.405   3.320  13.722  0.2272  0.1321 -0.1742
  290TMC3    O2 4436   0.437   3.769  13.808 -0.9285  0.3043  0.0504
  291MPD2     C 4437   0.577   3.534   0.239 -0.3396  0.1943  0.8820
  291MPD2    C1 4438   0.663   3.431   0.278  1.2104 -0.3729 -0.6401
  291MPD2    C2 4439   0.804   3.449   0.290 -0.1935  0.5633 -0.3448
  291MPD2    C3 4440   0.860   3.577   0.268  0.2985  0.0747 -0.3023
  291MPD2    C4 4441   0.770   3.670   0.213 -0.9577 -1.1527  0.4613
  291MPD2    C5 4442   0.632   3.654   0.203 -0.1310  0.1341  0.4064
  291MPD2     H 4443   0.857   3.358   0.317 -0.6226  0.2291 -0.6394
  291MPD2    H1 4444   0.814   3.768   0.199  0.1410 -1.8516 -0.9859
  291MPD2    H2 4445   0.469   3.524   0.236 -0.0169 -2.9262  0.1657
  291MPD2    H3 4446   0.560   3.727   0.167 -0.9762 -0.2543  1.3264
  291MPD2     N 4447   0.995   3.614   0.282  0.3655 -0.3532 -0.4078
  291MPD2    H5 4448   1.029   3.708   0.264  0.8799 -0.3419  0.5628
  291MPD2    N1 4449   0.617   3.304   0.313 -0.4899 -0.1958  0.1610
  291MPD2    H7 4450   0.680   3.237   0.355 -0.7529 -0.4902  0.0816
  292TMC3    C1 4451   0.475   3.127   0.350 -0.3570 -0.0848 -0.3841
  292TMC3    C2 4452   0.458   3.119   0.484  0.0349 -0.1597  0.8596
  292TMC3    C3 4453   0.357   3.032   0.533 -1.1137 -0.0307 -1.3748
  292TMC3    C4 4454   0.394   3.055   0.264  0.4153 -0.0727 -0.4073
  292TMC3    C5 4455   0.307   2.972   0.320  0.4922 -1.2771 -0.0584
  292TMC3    C6 4456   0.284   2.960   0.455  0.8237  0.0220  0.2040
  292TMC3     C 4457   0.490   3.259   0.291 -0.1168  1.1234 -0.2533
  292TMC3     O 4458   0.389   3.302   0.241 -0.1225 -0.4156 -0.3859
  292TMC3     H 4459   0.503   3.194   0.548  0.8995 -0.5747  0.7307
  292TMC3    H1 4460   0.400   3.071   0.157 -0.9356  3.4149  0.0546
  292TMC3    H2 4461   0.209   2.890   0.489 -1.4574  1.8757 -1.0033
  292TMC3    C7 4462   0.260   2.862   0.232  0.2168  0.2801  0.0893
  292TMC3    C8 4463   0.307   3.077   0.663  0.5013 -0.4445  0.3856
  292TMC3    O1 4464   0.348   2.821   0.162 -0.1010 -0.2601  0.2206
  292TMC3    O2 4465   0.327   3.189   0.705 -0.2870 -0.3526 -0.1090
  293MPD2     C 4466   2.362   0.565  12.535  0.3667 -0.0075 -0.6330
  293MPD2    C1 4467   2.239   0.516  12.585 -0.4892 -0.3502 -0.0526
  293MPD2    C2 4468   2.206   0.540  12.718  0.4344 -0.6440 -0.1785
  293MPD2    C3 4469   2.301   0.585  12.804 -0.4927  0.2269 -0.0125
  293MPD2    C4 4470   2.422   0.626  12.752 -0.0291  0.2303  0.1206
  293MPD2    C5 4471   2.448   0.627  12.616  0.1515  0.1600 -0.1481
  293MPD2     H 4472   2.107   0.523  12.759 -0.8140  0.2289 -2.8008
  293MPD2    H1 4473   2.504   0.663  12.812 -1.6962 -0.7743  3.0290
  293MPD2    H2 4474   2.392   0.567  12.431  0.2921  0.3656 -0.6473
  293MPD2    H3 4475   2.546   0.655  12.577  0.4407 -0.7246 -0.0652
  293MPD2     N 4476   2.271   0.580  12.945  0.0034 -0.3286 -0.7181
  293MPD2    H5 4477   2.176   0.552  12.969 -0.0898  0.8396  0.2860
  293MPD2    N1 4478   2.148   0.458  12.489 -0.6317 -0.1529 -0.1575
  293MPD2    H7 4479   2.180   0.456  12.392  1.2716  0.1275  0.4557
  294TMC3    C1 4480   1.956   0.352  12.388 -0.6657  0.6842 -0.5227
  294TMC3    C2 4481   1.831   0.300  12.409  0.2776  0.0070 -0.4328
  294TMC3    C3 4482   1.753   0.262  12.304 -0.3062 -0.3513 -0.0247
  294TMC3    C4 4483   2.006   0.383  12.263  0.5700 -0.3051  0.1721
  294TMC3    C5 4484   1.928   0.333  12.158  0.1007  0.8694  0.3945
  294TMC3    C6 4485   1.802   0.275  12.175 -0.0267 -0.2481 -0.3933
  294TMC3     C 4486   2.023   0.398  12.508 -0.3915  0.1479  0.0227
  294TMC3     O 4487   1.973   0.380  12.619 -0.7970 -0.1186 -0.2594
  294TMC3     H 4488   1.804   0.264  12.507  2.3920  0.7333  0.4245
  294TMC3    H1 4489   2.090   0.449  12.249  1.1702 -0.8246  1.2410
  294TMC3    H2 4490   1.751   0.216  12.100  0.6718 -2.7722  1.1193
  294TMC3    C7 4491   1.976   0.356  12.025  0.4209  0.3784 -0.1790
  294TMC3    C8 4492   1.657   0.159  12.336 -0.4713 -0.4559  0.9395
  294TMC3    O1 4493   2.083   0.412  12.022 -0.3551  0.1695 -0.5205
  294TMC3    O2 4494   1.588   0.181  12.436  0.6283 -0.2096 -0.3370
  295MPD2     C 4495   2.988   3.698   1.088 -0.5835 -0.4697  0.2711
  295MPD2    C1 4496   2.897   3.631   1.012  0.0184  0.4626 -0.2238
  295MPD2    C2 4497   2.765   3.628   1.058  0.2225  0.2981 -0.0555
  295MPD2    C3 4498   2.717   3.704   1.160 -0.8478 -0.2662 -0.0189
  295MPD2    C4 4499   2.801   3.797   1.215  0.1755  0.3065 -0.7897
  295MPD2    C5 4500   2.934   3.795   1.168 -0.3795  0.0262  0.0172
  295MPD2     H 4501   2.697   3.575   0.992  0.9298  0.5247 -0.9796
  295MPD2    H1 4502   2.779   3.870   1.292  3.7855 -0.1250  0.5965
  295MPD2    H2 4503   3.095   3.707   1.071 -0.9216  2.3967 -0.4050
  295MPD2    H3 4504   2.996   3.861   1.227  0.1298  1.0595 -1.6745
  295MPD2     N 4505   2.589   3.697   1.217 -0.5323 -0.2193  0.3624
  295MPD2    H5 4506   2.564   3.774   1.279  2.0313  0.8023  0.1404
  295MPD2    N1 4507   2.926   3.557   0.899  0.1375 -0.0909  0.4180
  295MPD2    H7 4508   2.856   3.496   0.857  1.1166 -1.1975  0.3840
  296TMC3    C1 4509   2.384   3.604   1.267  0.2744  0.1451  0.2373
  296TMC3    C2 4510   2.334   3.722   1.305 -0.4897  0.2349 -0.0275
  296TMC3    C3 4511   2.213   3.726   1.371  0.2298 -0.9919  0.3192
  296TMC3    C4 4512   2.330   3.483   1.303 -0.2610  0.2921  0.3391
  296TMC3    C5 4513   2.215   3.491   1.378  0.2537  0.4037 -0.2223
  296TMC3    C6 4514   2.162   3.607   1.417 -0.4583 -0.0194  0.3942
  296TMC3     C 4515   2.504   3.594   1.188 -0.3152  0.0408  0.0326
  296TMC3     O 4516   2.523   3.486   1.131  0.2298  0.8737  0.3294
  296TMC3     H 4517   2.384   3.809   1.264  0.2961  0.0399  0.5195
  296TMC3    H1 4518   2.368   3.396   1.249  0.3593 -0.6737  2.3321
  296TMC3    H2 4519   2.071   3.612   1.476  1.2422 -1.0404  3.0989
  296TMC3    C7 4520   2.143   3.369   1.411  0.1580 -0.1912  0.5345
  296TMC3    C8 4521   2.135   3.852   1.391  0.5923 -0.6198 -0.3420
  296TMC3    O1 4522   2.031   3.377   1.455 -0.5857 -0.3747 -0.4584
  296TMC3    O2 4523   2.026   3.839   1.444 -0.3505 -0.1124  0.8699
  297MPD2     C 4524   4.620   0.463  16.618 -0.6018  0.2320  0.7974
  297MPD2    C1 4525   4.637   0.516  16.490  0.3022  0.1204 -0.0348
  297MPD2    C2 4526   0.036   0.552  16.455  0.2379 -0.1347  0.8955
  297MPD2    C3 4527   0.145   0.534  16.533  1.3107 -0.3462 -0.1063
  297MPD2    C4 4528   0.127   0.483  16.660  0.1321  0.2618 -0.3657
  297MPD2    C5 4529   0.001   0.446  16.698 -0.4045 -0.0801  0.2347
  297MPD2     H 4530   0.057   0.573  16.350  3.1762  0.0625  1.5225
  297MPD2    H1 4531   0.204   0.483  16.736  0.9480 -2.1393 -1.1789
  297MPD2    H2 4532   4.526   0.437  16.666 -1.7835 -0.5094 -1.9115
  297MPD2    H3 4533   4.721   0.414  16.802  1.5507 -2.3455 -0.3094
  297MPD2     N 4534   0.270   0.584  16.494 -0.0929 -0.1904 -0.0856
  297MPD2    H5 4535   0.330   0.586  16.575 -1.1470  0.0833  0.6921
  297MPD2    N1 4536   4.530   0.535  16.406  1.4416 -0.5652  0.0651
  297MPD2    H7 4537   4.548   0.577  16.316 -0.2562  0.3246  0.1370
  298TMC3    C1 4538   4.309   0.535  16.320 -0.8049  0.5789  0.0493
  298TMC3    C2 4539   4.356   0.552  16.190  0.0890 -0.5487  0.5044
  298TMC3    C3 4540   4.267   0.599  16.092  0.3990 -0.2919  0.2696
  298TMC3    C4 4541   4.188   0.571  16.355  0.1219 -0.2529 -0.6669
  298TMC3    C5 4542   4.114   0.625  16.257  0.2273 -0.3241  0.3457
  298TMC3    C6 4543   4.141   0.623  16.123 -0.6295 -0.8082  0.9067
  298TMC3     C 4544   4.399   0.500  16.432 -0.3869 -0.5866  0.0862
  298TMC3     O 4545   4.345   0.446  16.527 -0.7409  0.6632 -0.0632
  298TMC3     H 4546   4.455   0.518  16.159  0.5948  0.4932  0.9589
  298TMC3    H1 4547   4.157   0.585  16.458  0.5209 -0.2419 -0.5489
  298TMC3    H2 4548   4.066   0.650  16.049 -1.5910  0.9340  2.5189
  298TMC3    C7 4549   4.005   0.703  16.300  0.7442  0.2462  0.3944
  298TMC3    C8 4550   4.317   0.635  15.962 -0.1113  0.1855 -0.0844
  298TMC3    O1 4551   3.964   0.692  16.413  0.1115  0.6602  0.1436
  298TMC3    O2 4552   4.233   0.636  15.871  0.3084 -0.4945 -0.2590
  299MPD2     C 4553   0.630   4.654  11.102  0.0771  0.0304 -0.0211
  299MPD2    C1 4554   0.632   0.052  11.054  0.9457  0.2818  0.6473
  299MPD2    C2 4555   0.567   0.072  10.934 -0.0891  0.2574 -0.5472
  299MPD2    C3 4556   0.519   4.696  10.860  0.6626  0.6953  0.5002
  299MPD2    C4 4557   0.533   4.570  10.902 -0.1782 -0.1421 -0.8377
  299MPD2    C5 4558   0.580   4.556  11.025 -0.0022 -0.3225  0.0203
  299MPD2     H 4559   0.564   0.170  10.888 -0.5911 -0.6591 -2.4515
  299MPD2    H1 4560   0.499   4.482  10.849  2.1380  0.5940 -3.5483
  299MPD2    H2 4561   0.676   4.633  11.198  0.7105 -0.6247 -0.4643
  299MPD2    H3 4562   0.584   4.453  11.058  0.5195 -0.2147  0.2827
  299MPD2     N 4563   0.460   4.716  10.732  0.8633  0.0035 -0.2296
  299MPD2    H5 4564   0.422   4.632  10.691  0.9580 -0.1737  0.0390
  299MPD2    N1 4565   0.689   0.156  11.129  0.4487  0.4470  0.4886
  299MPD2    H7 4566   0.724   0.134  11.221 -0.9699  0.9894  1.1498
  300TMC3    C1 4567   0.337   0.084  10.558  0.6733 -0.6405 -0.4057
  300TMC3    C2 4568   0.340   0.180  10.468  0.5497 -0.1506 -0.5619
  300TMC3    C3 4569   0.232   0.188  10.386 -0.4759  0.4263 -0.2698
  300TMC3    C4 4570   0.223   0.028  10.601 -1.5149 -0.2684 -0.2244
  300TMC3    C5 4571   0.111   0.045  10.522  0.4655  0.2679  0.0483
  300TMC3    C6 4572   0.117   0.119  10.411 -0.6829  0.3973 -0.5037
  300TMC3     C 4573   0.436   0.105  10.659  0.1284 -0.1724 -0.5143
  300TMC3     O 4574   0.447   0.217  10.698  0.5762 -0.9222  0.3882
  300TMC3     H 4575   0.433   0.234  10.462  0.5581 -0.0650  0.3912
  300TMC3    H1 4576   0.232   4.690  10.686  2.1763  1.5113  0.7783
  300TMC3    H2 4577   0.026   0.131  10.353 -1.0423  1.0931  0.2019
  300TMC3    C7 4578   4.709   0.017  10.576 -0.4794 -0.1037  0.3521
  300TMC3    C8 4579   0.220   0.318  10.321  0.6485 -0.2487 -0.3931
  300TMC3    O1 4580   4.619   0.022  10.493 -0.5132  0.2175 -0.3077
  300TMC3    O2 4581   0.284   0.410  10.373  0.1669 -0.0342  0.3834
  301MPD2     C 4582   3.024   1.703   1.140 -0.0677 -0.5497 -0.3391
  301MPD2    C1 4583   2.900   1.666   1.096  0.5193 -0.4664 -0.5217
  301MPD2    C2 4584   2.864   1.539   1.101  0.5248 -0.0565 -0.8991
  301MPD2    C3 4585   2.940   1.450   1.161  0.2781 -0.5717  0.5030
  301MPD2    C4 4586   3.062   1.488   1.216  0.1045 -0.4736 -0.0205
  301MPD2    C5 4587   3.098   1.612   1.207 -0.1129 -0.2118  0.4427
  301MPD2     H 4588   2.766   1.512   1.064  0.8664 -0.1361 -1.7523
  301MPD2    H1 4589   3.127   1.415   1.263 -0.9884 -0.6036  1.3199
  301MPD2    H2 4590   3.067   1.802   1.128  0.2906 -0.2774  3.3063
  301MPD2    H3 4591   3.198   1.639   1.238  0.2248 -0.8427 -0.0916
  301MPD2     N 4592   2.905   1.312   1.154  0.7777  0.2337  0.1373
  301MPD2    H5 4593   2.964   1.256   1.215 -0.6599 -1.7940 -0.3575
  301MPD2    N1 4594   2.822   1.764   1.040  0.0677  0.4994 -0.2114
  301MPD2    H7 4595   2.735   1.724   1.006 -0.7335  1.2974  0.8791
  302TMC3    C1 4596   2.789   1.119   1.064  0.3711  0.0728  0.7262
  302TMC3    C2 4597   2.858   1.038   1.149 -0.4722 -0.3429 -0.6274
  302TMC3    C3 4598   2.827   0.902   1.132 -0.1474 -0.1062 -0.9698
  302TMC3    C4 4599   2.696   1.077   0.971 -0.6320  0.5391 -0.5449
  302TMC3    C5 4600   2.680   0.945   0.957  0.2616  0.2558  0.0434
  302TMC3    C6 4601   2.750   0.854   1.031  0.2906  0.5564 -0.6360
  302TMC3     C 4602   2.816   1.258   1.063  0.0919  0.0781  0.6619
  302TMC3     O 4603   2.760   1.314   0.969  0.5382 -0.3221 -0.5783
  302TMC3     H 4604   2.953   1.075   1.185 -1.6966  1.0779  1.1100
  302TMC3    H1 4605   2.647   1.145   0.903 -1.9433  1.7206  1.5614
  302TMC3    H2 4606   2.748   0.749   1.004 -2.1889  0.6740 -0.8654
  302TMC3    C7 4607   2.591   0.899   0.846  0.2006  0.3328  0.5319
  302TMC3    C8 4608   2.925   0.809   1.193 -0.4077 -0.1067  0.4691
  302TMC3    O1 4609   2.619   0.803   0.781 -0.1755 -0.7735 -0.3998
  302TMC3    O2 4610   2.949   0.706   1.134 -0.1629 -0.2873  0.2547
  303MPD2     C 4611   2.683   3.963  10.080 -0.3553 -0.4858  0.0117
  303MPD2    C1 4612   2.669   4.092  10.120 -0.1843  0.6059  0.3834
  303MPD2    C2 4613   2.684   4.194  10.025  0.6706  0.2544 -0.0779
  303MPD2    C3 4614   2.702   4.173   9.889  0.4798  0.7289 -1.1117
  303MPD2    C4 4615   2.716   4.043   9.853  0.5090 -0.0249 -0.0307
  303MPD2    C5 4616   2.710   3.936   9.945  0.0150  0.7197 -0.7259
  303MPD2     H 4617   2.674   4.296  10.061 -1.4256 -0.6597  1.9525
  303MPD2    H1 4618   2.728   4.019   9.748  1.2947 -0.9009  0.2577
  303MPD2    H2 4619   2.679   3.872  10.139  1.3028 -0.8906 -0.4941
  303MPD2    H3 4620   2.721   3.832   9.917 -0.1534  0.3147  0.7231
  303MPD2     N 4621   2.709   4.277   9.802  0.5791  0.5258  0.1207
  303MPD2    H5 4622   2.739   4.259   9.707 -0.7229 -0.2904 -0.1328
  303MPD2    N1 4623   2.640   4.116  10.254  0.3904 -0.2611  0.4643
  303MPD2    H7 4624   2.613   4.035  10.310  0.5283 -1.4331 -1.1846
  304TMC3    C1 4625   2.600   4.238  10.456 -0.6120  0.0043 -0.4483
  304TMC3    C2 4626   2.647   4.335  10.532  0.5297  0.9491 -0.2691
  304TMC3    C3 4627   2.566   4.376  10.631 -0.5677  0.4282  0.2064
  304TMC3    C4 4628   2.481   4.175  10.481  0.2246 -0.2481  0.2752
  304TMC3    C5 4629   2.396   4.224  10.571 -0.2615 -0.7801  0.2097
  304TMC3    C6 4630   2.444   4.321  10.657  0.1542  0.6292 -0.5521
  304TMC3     C 4631   2.644   4.240  10.317 -0.0065  0.7901 -0.0439
  304TMC3     O 4632   2.660   4.355  10.270  0.6327  0.1828  0.1518
  304TMC3     H 4633   2.720   4.401  10.487  0.4128  1.4301  0.2415
  304TMC3    H1 4634   2.447   4.097  10.414  0.0334 -0.6098  0.7848
  304TMC3    H2 4635   2.389   4.366  10.739  0.7340 -0.4368  0.4255
  304TMC3    C7 4636   2.266   4.242  10.511  0.1652 -0.1102  0.7222
  304TMC3    C8 4637   2.549   4.526  10.644  0.5696  0.1286 -0.6345
  304TMC3    O1 4638   2.223   4.153  10.441 -0.2306 -0.3055  0.3117
  304TMC3    O2 4639   2.432   4.558  10.648 -0.1558 -0.0934  0.1707
  305MPD2     C 4640   0.903   2.166  13.758 -0.3346 -0.1118 -0.0399
  305MPD2    C1 4641   1.020   2.093  13.767  0.6083  0.3004  0.3271
  305MPD2    C2 4642   1.051   2.020  13.649  0.2120  0.3548  0.3529
  305MPD2    C3 4643   0.968   2.026  13.538 -0.3139 -0.4930  0.4280
  305MPD2    C4 4644   0.866   2.111  13.538  0.6130 -0.1097  0.0692
  305MPD2    C5 4645   0.834   2.186  13.644  0.2119 -1.0391 -0.2128
  305MPD2     H 4646   1.131   1.948  13.661  0.8044  1.0406  0.4849
  305MPD2    H1 4647   0.802   2.122  13.452 -1.3689 -2.0528  1.2856
  305MPD2    H2 4648   0.858   2.227  13.835 -0.0632  0.7739 -0.5739
  305MPD2    H3 4649   0.751   2.255  13.642  0.3767 -0.9169 -2.7762
  305MPD2     N 4650   0.989   1.950  13.418  0.5699  0.1817 -0.1478
  305MPD2    H5 4651   0.921   1.947  13.343  2.0606  1.1216 -1.5644
  305MPD2    N1 4652   1.087   2.089  13.888 -0.4781 -0.0239 -0.5252
  305MPD2    H7 4653   1.043   2.150  13.957  1.7248  0.1134  0.7650
  306TMC3    C1 4654   1.242   2.021  14.048  0.2360 -0.0301  0.1416
  306TMC3    C2 4655   1.314   1.917  14.102 -0.1382 -0.0666 -0.1296
  306TMC3    C3 4656   1.349   1.927  14.230  0.1600  0.1898 -0.0055
  306TMC3    C4 4657   1.226   2.142  14.117 -0.2064 -0.7648 -0.4946
  306TMC3    C5 4658   1.266   2.140  14.247  0.8254  0.2759 -0.2314
  306TMC3    C6 4659   1.322   2.035  14.311 -0.4388 -0.2658  0.1125
  306TMC3     C 4660   1.190   2.005  13.919  0.1436  0.2093  0.2851
  306TMC3     O 4661   1.232   1.912  13.852  0.3201  0.3295  0.5471
  306TMC3     H 4662   1.334   1.823  14.051  0.6137  1.2265 -2.2035
  306TMC3    H1 4663   1.190   2.233  14.071  1.9830 -0.4852 -1.6612
  306TMC3    H2 4664   1.350   2.024  14.415 -0.4684 -3.8969 -0.2360
  306TMC3    C7 4665   1.233   2.259  14.324  0.3794  0.5514 -0.2970
  306TMC3    C8 4666   1.413   1.809  14.277  0.8936  0.2252 -0.4140
  306TMC3    O1 4667   1.200   2.356  14.259 -0.0840 -0.6582  0.2600
  306TMC3    O2 4668   1.446   1.724  14.197  0.1339  0.0942  0.4441
  307MPD2     C 4669   3.621   4.596   0.483  0.1934 -0.0803 -0.1737
  307MPD2    C1 4670   3.568   4.722   0.451  0.4333  0.2848 -0.0720
  307MPD2    C2 4671   3.507   0.068   0.546 -0.2122 -0.4128  0.1900
  307MPD2    C3 4672   3.488   0.029   0.678  0.5400  0.4864 -0.0696
  307MPD2    C4 4673   3.531   4.629   0.705  0.5317 -0.4194  0.4838
  307MPD2    C5 4674   3.599   4.550   0.613  0.1095  0.4044 -0.7910
  307MPD2     H 4675   3.478   0.171   0.525  1.6569  0.0402 -0.1967
  307MPD2    H1 4676   3.518   4.589   0.805 -3.1545 -1.2025 -0.2897
  307MPD2    H2 4677   3.677   4.535   0.413 -0.3563 -1.0629  0.2379
  307MPD2    H3 4678   3.641   4.457   0.649  2.2414  1.5667 -0.2876
  307MPD2     N 4679   3.437   0.124   0.774  0.0907 -0.1005  0.0280
  307MPD2    H5 4680   3.430   0.222   0.748  2.1880 -0.4176 -1.6818
  307MPD2    N1 4681   3.579   0.055   0.320 -0.2322  0.0498 -0.2053
  307MPD2    H7 4682   3.532   0.144   0.301  0.3714  0.4900  0.3794
  308TMC3    C1 4683   3.071   0.220   0.928  0.3714 -0.0879  0.8562
  308TMC3    C2 4684   3.095   0.351   0.880 -0.1467  0.0583 -0.5685
  308TMC3    C3 4685   3.225   0.394   0.868 -0.1148  0.5324 -0.1305
  308TMC3    C4 4686   3.180   0.146   0.967  0.5475 -0.4448  0.1465
  308TMC3    C5 4687   3.308   0.190   0.945  0.7727 -0.0011  0.1630
  308TMC3    C6 4688   3.330   0.314   0.900  0.2582 -0.1864  0.3487
  308TMC3     C 4689   2.960   0.148   0.876  0.6720 -0.2037 -0.0017
  308TMC3     O 4690   2.979   0.025   0.879  0.1867  0.0045 -0.3271
  308TMC3     H 4691   3.015   0.423   0.869 -0.0761  0.4117  1.2837
  308TMC3    H1 4692   3.172   0.048   1.012  3.8904 -0.1694  1.3721
  308TMC3    H2 4693   3.433   0.347   0.904  0.2990 -0.1450 -1.2060
  308TMC3    C7 4694   3.396   0.088   0.898 -0.5729 -0.0138  0.0662
  308TMC3    C8 4695   3.247   0.536   0.888  0.0649 -0.3308  0.8674
  308TMC3    O1 4696   3.375   4.703   0.939  0.3520  0.0614 -0.3217
  308TMC3    O2 4697   3.274   0.568   1.003 -0.0951 -0.4349 -0.4467
  309MPD2     C 4698   2.599   0.416  17.064  0.2279 -0.2180 -0.3960
  309MPD2    C1 4699   2.543   0.515  16.985  0.1591 -0.0799 -0.7926
  309MPD2    C2 4700   2.409   0.534  17.003  0.2727 -0.4603 -0.1730
  309MPD2    C3 4701   2.343   0.482  17.116  0.0376 -0.5605  0.7621
  309MPD2    C4 4702   2.407   0.385  17.194 -0.4269  0.1553 -0.0232
  309MPD2    C5 4703   2.533   0.357  17.166  0.4841  0.3798 -0.4241
  309MPD2     H 4704   2.359   0.597  16.930  1.0663  0.0022 -0.3137
  309MPD2    H1 4705   2.354   0.334  17.275 -0.0952  1.5787  1.0876
  309MPD2    H2 4706   2.704   0.387  17.064  0.5715  1.0052  0.5479
  309MPD2    H3 4707   2.592   0.284  17.220 -2.5144 -1.5470  0.2591
  309MPD2     N 4708   2.204   0.506  17.143 -0.2210  0.0361  0.6805
  309MPD2    H5 4709   2.162   0.448  17.215  0.4593 -1.6649 -0.2816
  309MPD2    N1 4710   2.620   0.597  16.894  0.5985  0.3220  0.0514
  309MPD2    H7 4711   2.567   0.645  16.821 -0.4823  0.7968  1.1616
  310TMC3    C1 4712   2.819   0.660  16.773 -0.3247  0.2487  0.7074
  310TMC3    C2 4713   2.747   0.732  16.681 -0.0208 -0.7455  0.7355
  310TMC3    C3 4714   2.809   0.763  16.568 -0.0467  0.6292  0.4640
  310TMC3    C4 4715   2.941   0.608  16.741 -0.0660  0.7895  0.2172
  310TMC3    C5 4716   3.005   0.648  16.622 -0.4564 -0.6640  0.1919
  310TMC3    C6 4717   2.934   0.721  16.529  0.8191  0.3423  0.0336
  310TMC3     C 4718   2.759   0.601  16.898 -0.7993  0.3773  0.1493
  310TMC3     O 4719   2.837   0.563  16.984  0.3902  0.6396  0.1450
  310TMC3     H 4720   2.652   0.778  16.702  0.9281  1.6678 -0.2823
  310TMC3    H1 4721   3.001   0.560  16.818 -0.5665  0.9209  0.6870
  310TMC3    H2 4722   2.982   0.750  16.436  2.4483 -0.5923  0.5814
  310TMC3    C7 4723   3.094   0.553  16.562  0.0418  0.0020 -0.0826
  310TMC3    C8 4724   2.727   0.851  16.473 -0.0643 -0.2171 -0.1952
  310TMC3    O1 4725   3.145   0.584  16.456  0.0205  0.4407  0.2326
  310TMC3    O2 4726   2.603   0.845  16.480  0.2974 -0.3977  0.6139
  311MPD2     C 4727   0.100   1.391  12.667  0.6422  0.3228  0.2949
  311MPD2    C1 4728   0.079   1.526  12.696  0.1568  0.3594  0.4115
  311MPD2    C2 4729   4.703   1.551  12.785 -0.3092 -0.5172 -0.2640
  311MPD2    C3 4730   4.613   1.460  12.830 -1.1018 -0.3962  0.2774
  311MPD2    C4 4731   4.633   1.331  12.799  1.1036 -0.1598  0.7144
  311MPD2    C5 4732   0.008   1.305  12.718  0.1679 -0.2924  0.2355
  311MPD2     H 4733   4.692   1.656  12.812  1.1137 -0.2225 -0.7991
  311MPD2    H1 4734   4.578   1.248  12.841  2.8649 -1.5659  0.2086
  311MPD2    H2 4735   0.182   1.356  12.605 -0.7591 -0.6587 -0.9881
  311MPD2    H3 4736   0.007   1.201  12.688 -1.4455  0.4303 -2.2357
  311MPD2     N 4737   4.503   1.503  12.906 -0.1630 -0.2568 -0.4017
  311MPD2    H5 4738   4.510   1.594  12.950  1.9336 -0.9045  0.6152
  311MPD2    N1 4739   0.158   1.634  12.645  0.3301  0.5489  0.2386
  311MPD2    H7 4740   0.118   1.727  12.658 -1.5010 -0.5056  2.1418
  312TMC3    C1 4741   4.313   1.457  13.046 -0.3174 -0.0834  0.2042
  312TMC3    C2 4742   4.173   1.454  13.032  0.5196  0.0782  0.6251
  312TMC3    C3 4743   4.101   1.530  13.113 -1.1256  0.2894 -0.2863
  312TMC3    C4 4744   4.369   1.523  13.150 -0.5520 -0.2622 -0.0989
  312TMC3    C5 4745   4.285   1.579  13.243  0.0641  0.1476 -0.6558
  312TMC3    C6 4746   4.157   1.593  13.224 -0.1600 -0.7251  0.1423
  312TMC3     C 4747   4.390   1.425  12.925  1.0515 -0.2957  0.2957
  312TMC3     O 4748   4.339   1.360  12.834  0.3485  0.0072  0.1227
  312TMC3     H 4749   4.131   1.418  12.938 -1.3852  2.3305  0.6224
  312TMC3    H1 4750   4.476   1.545  13.154 -0.8668  1.1940  0.4153
  312TMC3    H2 4751   4.094   1.644  13.295 -0.4723 -0.6822 -0.1665
  312TMC3    C7 4752   4.324   1.578  13.382  0.3073 -0.5370  0.3919
  312TMC3    C8 4753   3.994   1.604  13.050 -0.4302  0.0234 -0.4389
  312TMC3    O1 4754   4.259   1.644  13.463  0.7258 -0.0908 -0.4735
  312TMC3    O2 4755   3.915   1.548  12.974 -0.6814  0.1536 -0.3948
  313MPD2     C 4756   4.178   0.516  10.991 -0.1792 -0.8338  0.4690
  313MPD2    C1 4757   4.195   0.629  10.909 -0.0363  0.2223  0.4571
  313MPD2    C2 4758   4.296   0.635  10.815 -0.1121  0.5492 -0.0630
  313MPD2    C3 4759   4.400   0.540  10.806 -0.4577  0.3258 -0.1884
  313MPD2    C4 4760   4.383   0.432  10.885  0.1508  0.0432  0.7396
  313MPD2    C5 4761   4.268   0.415  10.966 -0.1836 -0.0770 -0.2554
  313MPD2     H 4762   4.296   0.721  10.749  1.3289  1.6288  1.3628
  313MPD2    H1 4763   4.449   0.346  10.883  2.2538  1.6579  0.5751
  313MPD2    H2 4764   4.090   0.499  11.053 -0.8362 -3.1957 -1.1113
  313MPD2    H3 4765   4.251   0.317  11.010 -0.4360 -0.3856 -1.0537
  313MPD2     N 4766   4.493   0.552  10.707  0.4262 -0.3346 -0.3487
  313MPD2    H5 4767   4.484   0.631  10.643  2.4383  0.6639  0.5761
  313MPD2    N1 4768   4.105   0.738  10.908  0.6623 -0.3749  0.1208
  313MPD2    H7 4769   4.138   0.811  10.846  0.3370 -0.1982  0.1538
  314TMC3    C1 4770   3.938   0.883  10.970 -0.1902 -0.3932  0.2353
  314TMC3    C2 4771   4.021   0.988  10.946  0.2333  0.5416 -0.3060
  314TMC3    C3 4772   3.965   1.110  10.918 -0.2822  0.9749  0.1712
  314TMC3    C4 4773   3.812   0.901  10.958  0.3335  0.3616 -0.2790
  314TMC3    C5 4774   3.755   1.024  10.920 -1.0891  0.2456 -0.0874
  314TMC3    C6 4775   3.831   1.135  10.905  0.4426  0.0935 -0.9171
  314TMC3     C 4776   3.985   0.748  10.982 -0.6411  0.6337  0.2328
  314TMC3     O 4777   3.911   0.668  11.037 -0.4314 -0.3953  0.2377
  314TMC3     H 4778   4.127   0.972  10.958  0.0828  0.2576  0.6690
  314TMC3    H1 4779   3.751   0.814  10.978 -1.9019  1.7873 -0.8775
  314TMC3    H2 4780   3.804   1.238  10.885  0.2322  0.4043  0.9938
  314TMC3    C7 4781   3.616   1.031  10.873  0.6207  0.0670  0.5012
  314TMC3    C8 4782   4.056   1.229  10.908  0.6893  0.2454  0.2614
  314TMC3    O1 4783   3.543   0.938  10.890  0.2114 -0.1662  0.9965
  314TMC3    O2 4784   4.005   1.340  10.912  0.0424  0.0825  0.3305
  315MPD2     C 4785   3.865   4.724  17.464 -0.2940  0.4722  0.2161
  315MPD2    C1 4786   3.925   0.021  17.586  0.6081 -0.1812 -0.0809
  315MPD2    C2 4787   3.950   0.150  17.630  0.8558 -0.4591 -0.2705
  315MPD2    C3 4788   3.937   0.258  17.550  0.3436 -0.6800 -0.4941
  315MPD2    C4 4789   3.904   0.229  17.420 -0.0024 -0.2284  0.6907
  315MPD2    C5 4790   3.868   0.104  17.378 -0.2039 -0.2998 -0.5992
  315MPD2     H 4791   3.982   0.164   0.016  1.0435  0.1410 -0.4127
  315MPD2    H1 4792   3.910   0.304  17.342  1.4121 -0.5204  0.5200
  315MPD2    H2 4793   3.824   4.631  17.426 -1.1517  0.5740  0.8768
  315MPD2    H3 4794   3.841   0.092  17.274  1.2593 -1.9756 -0.7938
  315MPD2     N 4795   3.958   0.389  17.598 -0.5291  0.5327  0.1708
  315MPD2    H5 4796   4.003   0.399  17.689 -1.4667  1.6880  0.4998
  315MPD2    N1 4797   3.930   4.650  17.681 -0.0202 -0.2220  0.1024
  315MPD2    H7 4798   3.977   4.679   0.050 -0.9865  0.5135  0.3818
  316TMC3    C1 4799   3.954   0.634  17.583  1.0440  0.2186  0.8441
  316TMC3    C2 4800   4.059   0.644  17.664 -0.3710  0.6223 -0.1385
  316TMC3    C3 4801   4.075   0.763   0.012 -0.6614  0.0153  0.1630
  316TMC3    C4 4802   3.877   0.735  17.545 -0.5036 -0.0029 -0.0667
  316TMC3    C5 4803   3.900   0.854  17.607 -0.0843  0.2284  0.4384
  316TMC3    C6 4804   3.986   0.863  17.709  0.3166 -0.0816 -1.0162
  316TMC3     C 4805   3.921   0.501  17.526 -0.1128  0.2292  0.0411
  316TMC3     O 4806   3.842   0.508  17.436  0.0983  0.0983  0.4225
  316TMC3     H 4807   4.128   0.561  17.673 -0.0841  0.8107 -0.5898
  316TMC3    H1 4808   3.786   0.729  17.486 -2.4589 -0.7703  3.0384
  316TMC3    H2 4809   3.995   0.955   0.048  1.2794  0.3541 -1.8914
  316TMC3    C7 4810   3.817   0.973  17.583  0.1597 -0.6611  0.0711
  316TMC3    C8 4811   4.162   0.774   0.126 -0.2838 -0.0605 -0.8692
  316TMC3    O1 4812   3.805   1.058  17.671  0.2075 -0.2785  0.0054
  316TMC3    O2 4813   4.171   0.887   0.176 -0.4489 -0.0315  0.1857
  317MPD2     C 4814   1.158   3.709  12.819  0.2444  0.0376  0.7356
  317MPD2    C1 4815   1.223   3.591  12.809 -0.0369 -0.1771  0.5134
  317MPD2    C2 4816   1.252   3.517  12.919  0.0280 -0.1349  0.4259
  317MPD2    C3 4817   1.235   3.567  13.046  0.6891 -0.4870  0.2588
  317MPD2    C4 4818   1.185   3.696  13.054 -0.7220  0.0581  0.1764
  317MPD2    C5 4819   1.150   3.763  12.942  0.1756 -0.4694  0.3405
  317MPD2     H 4820   1.277   3.411  12.914 -1.1979 -0.4075  0.0007
  317MPD2    H1 4821   1.171   3.751  13.146  0.3803 -0.5393  0.6986
  317MPD2    H2 4822   1.135   3.773  12.735 -0.3583  0.3421  1.1380
  317MPD2    H3 4823   1.107   3.860  12.962 -1.0428 -1.0295  0.4047
  317MPD2     N 4824   1.260   3.488  13.159 -0.2027  0.0926 -0.3093
  317MPD2    H5 4825   1.275   3.390  13.139 -2.3482 -0.3455  0.1585
  317MPD2    N1 4826   1.247   3.524  12.687 -0.3287 -0.2878 -0.0965
  317MPD2    H7 4827   1.278   3.428  12.694  1.1430  0.1973  0.2302
  318TMC3    C1 4828   1.279   3.403  13.370 -0.0834  0.0955 -0.0206
  318TMC3    C2 4829   1.242   3.274  13.328 -0.2161 -0.2406  0.6879
  318TMC3    C3 4830   1.294   3.166  13.400  0.6357 -0.0568 -0.4918
  318TMC3    C4 4831   1.362   3.421  13.477 -0.2213 -0.1955 -0.0922
  318TMC3    C5 4832   1.410   3.317  13.540 -0.0548 -0.0583 -0.3663
  318TMC3    C6 4833   1.385   3.189  13.500  0.1321 -0.4573 -0.6236
  318TMC3     C 4834   1.249   3.520  13.293 -0.1166 -0.2442 -0.0405
  318TMC3     O 4835   1.239   3.629  13.348 -0.0946 -0.3091 -0.7151
  318TMC3     H 4836   1.154   3.261  13.267 -0.8076 -0.3696  1.5727
  318TMC3    H1 4837   1.388   3.520  13.513 -0.9452  0.4092 -1.2458
  318TMC3    H2 4838   1.426   3.108  13.558  1.6162 -0.3264 -1.5087
  318TMC3    C7 4839   1.511   3.340  13.638  0.0274 -0.2726  0.6194
  318TMC3    C8 4840   1.232   3.034  13.384 -0.6754 -0.0051  0.1432
  318TMC3    O1 4841   1.496   3.440  13.714  0.0253  0.5894 -1.1129
  318TMC3    O2 4842   1.254   2.945  13.464 -0.3320  0.7561  0.2040
  319MPD2     C 4843   1.717   0.172  16.833 -0.9006  0.4630 -0.2470
  319MPD2    C1 4844   1.743   0.040  16.869 -0.7755 -0.6169  0.1022
  319MPD2    C2 4845   1.672   4.670  16.805  0.1886  0.8956 -0.2350
  319MPD2    C3 4846   1.578   4.708  16.708  0.0411  0.6411  0.5714
  319MPD2    C4 4847   1.547   0.109  16.686 -0.4004  0.1710 -0.2340
  319MPD2    C5 4848   1.621   0.203  16.743  0.1548 -0.1214  0.6393
  319MPD2     H 4849   1.682   4.570  16.846 -1.7072  0.3589 -1.1152
  319MPD2    H1 4850   1.466   0.152  16.629 -1.9057  1.0770  2.6208
  319MPD2    H2 4851   1.768   0.262  16.864 -1.1130  0.9816 -1.4350
  319MPD2    H3 4852   1.594   0.302  16.708  0.0151 -0.8437 -1.3294
  319MPD2     N 4853   1.504   4.609  16.631 -0.3151  0.9816  0.2282
  319MPD2    H5 4854   1.425   4.640  16.575 -0.9929  1.5774  1.4981
  319MPD2    N1 4855   1.837   0.014  16.972  0.0587 -0.1801 -0.0314
  319MPD2    H7 4856   1.841   4.646  17.004 -0.0323 -0.0748  0.3028
  320TMC3    C1 4857   1.421   4.412  16.532 -0.3333 -0.4287 -0.3539
  320TMC3    C2 4858   1.366   4.488  16.433 -0.0978 -0.2374 -0.7740
  320TMC3    C3 4859   1.317   4.429  16.320  0.0841  0.0841 -0.6609
  320TMC3    C4 4860   1.415   4.280  16.525 -0.5172  0.9096 -0.4874
  320TMC3    C5 4861   1.361   4.220  16.414 -0.5477 -0.2141  0.1860
  320TMC3    C6 4862   1.303   4.295  16.311  0.1612  0.0737  1.4303
  320TMC3     C 4863   1.520   4.475  16.621  0.0562 -0.1914  0.2842
  320TMC3     O 4864   1.583   4.399  16.689 -0.1268 -0.3404  0.1773
  320TMC3     H 4865   1.371   4.596  16.434  0.0421 -0.2506 -0.1914
  320TMC3    H1 4866   1.472   4.234  16.605 -0.0654 -1.3156 -2.0712
  320TMC3    H2 4867   1.253   4.243  16.230  0.5328  0.6009  0.8654
  320TMC3    C7 4868   1.382   4.073  16.381 -0.4388 -0.5906  0.2643
  320TMC3    C8 4869   1.285   4.509  16.212  0.1777  0.3840 -0.0281
  320TMC3    O1 4870   1.347   4.044  16.265  0.3494 -0.1661 -0.3779
  320TMC3    O2 4871   1.311   4.626  16.207 -0.1514 -0.3301 -0.1753
  321TMC3    C1 4872   1.958   0.072  17.171 -0.4538  0.2319  0.5546
  321TMC3    C2 4873   1.961   4.672  17.208  0.6317 -0.2100 -0.0123
  321TMC3    C3 4874   1.979   4.651  17.341  0.6108 -0.2777 -0.3825
  321TMC3    C4 4875   1.988   0.177  17.250 -0.4442  0.4263  0.0842
  321TMC3    C5 4876   2.011   0.156  17.383 -0.8187 -0.0108 -0.2221
  321TMC3    C6 4877   2.008   0.030  17.429 -0.1812  0.1480  0.6198
  321TMC3     C 4878   1.906   0.113  17.039  0.0837  0.1164 -0.0150
  321TMC3     O 4879   1.926   0.229  17.011 -0.0877 -0.3263 -0.2060
  321TMC3     H 4880   1.968   4.589  17.138  0.4016 -1.9644  2.0589
  321TMC3    H1 4881   1.975   0.277  17.209 -0.0484 -0.0934 -1.3052
  321TMC3    H2 4882   2.018   0.005  17.534  0.3312 -0.8057  0.3458
  321TMC3    C7 4883   2.135   0.216  17.431 -0.0956 -0.2669  0.4319
  321TMC3    C8 4884   2.074   4.547  17.372  0.2929 -0.0734  0.0636
  321TMC3    O1 4885   2.155   0.332  17.396 -0.9148 -0.8341 -0.1868
  321TMC3    O2 4886   2.165   4.589  17.445  0.5765 -0.1169 -0.2117
  322MPD2     C 4887   0.936   1.395  13.432  0.2060  0.7412  0.7105
  322MPD2    C1 4888   1.001   1.333  13.536  0.2567 -0.3170 -0.1225
  322MPD2    C2 4889   0.983   1.197  13.550 -0.3947 -0.3146  0.4679
  322MPD2    C3 4890   0.913   1.126  13.454  0.0880 -0.0454  0.1270
  322MPD2    C4 4891   0.854   1.192  13.344  1.0647  0.0629 -0.2503
  322MPD2    C5 4892   0.853   1.331  13.345 -1.0677 -0.1686  0.8315
  322MPD2     H 4893   1.048   1.142  13.616 -0.8685 -0.7234  0.5910
  322MPD2    H1 4894   0.806   1.143  13.260  0.8507  0.1510 -0.1805
  322MPD2    H2 4895   0.915   1.501  13.431 -0.5317  0.5782 -0.8848
  322MPD2    H3 4896   0.800   1.381  13.265 -1.2330 -0.6406  0.6470
  322MPD2     N 4897   0.937   0.988  13.454  0.8655 -0.0740 -0.3002
  322MPD2    H5 4898   0.986   0.942  13.530 -0.9509 -0.6923  0.5141
  322MPD2    N1 4899   1.068   1.407  13.638 -0.2796 -0.2617 -0.6873
  322MPD2    H7 4900   1.101   1.498  13.608  1.3103  0.0098  1.8456
  323TMC3    C1 4901   1.194   1.456  13.838 -0.7525 -0.3903 -0.2767
  323TMC3    C2 4902   1.298   1.485  13.760 -0.1842  0.1509 -0.4284
  323TMC3    C3 4903   1.424   1.500  13.819  0.5183 -0.1367 -0.7377
  323TMC3    C4 4904   1.195   1.458  13.979 -0.2556  0.3009 -0.2894
  323TMC3    C5 4905   1.319   1.484  14.032  0.1571 -0.1736 -0.1140
  323TMC3    C6 4906   1.434   1.494  13.953  0.4084  0.4692  0.5108
  323TMC3     C 4907   1.091   1.375  13.774  0.9373 -0.1661 -0.5603
  323TMC3     O 4908   1.049   1.277  13.837 -0.2723 -0.2481  0.0552
  323TMC3     H 4909   1.289   1.471  13.653 -0.3916 -2.7479 -0.0343
  323TMC3    H1 4910   1.112   1.418  14.037  0.4468 -2.0277 -0.8814
  323TMC3    H2 4911   1.531   1.506  13.999  1.3190 -2.2098 -0.7526
  323TMC3    C7 4912   1.341   1.418  14.158  0.4561 -0.4724 -0.0757
  323TMC3    C8 4913   1.546   1.517  13.742 -0.6872  0.6135 -0.5160
  323TMC3    O1 4914   1.436   1.335  14.158 -0.5020 -0.1772 -0.6269
  323TMC3    O2 4915   1.651   1.528  13.805 -0.4115  0.4794  0.2475
  324MPD2     C 4916   2.430   2.420  14.117 -0.1721  0.0499 -0.3126
  324MPD2    C1 4917   2.374   2.547  14.142 -0.4504  0.7231  0.9267
  324MPD2    C2 4918   2.243   2.563  14.098 -0.2941 -0.8799 -0.4359
  324MPD2    C3 4919   2.170   2.469  14.023  0.1173  0.4187 -0.3952
  324MPD2    C4 4920   2.227   2.348  14.005 -0.0198  0.4819 -0.4211
  324MPD2    C5 4921   2.348   2.327  14.057 -0.1842  0.6351 -0.1772
  324MPD2     H 4922   2.198   2.660  14.113  0.4884 -0.9649  2.2879
  324MPD2    H1 4923   2.178   2.257  13.973  1.5750  0.0166 -1.5024
  324MPD2    H2 4924   2.525   2.392  14.162 -0.1774 -0.0784 -0.3796
  324MPD2    H3 4925   2.383   2.225  14.049 -0.2288  0.6567 -0.6205
  324MPD2     N 4926   2.035   2.477  13.985 -0.2454  0.5041  0.4737
  324MPD2    H5 4927   1.994   2.396  13.941 -1.7903 -0.3581  3.5215
  324MPD2    N1 4928   2.429   2.654  14.213 -0.2176  0.5944 -0.3955
  324MPD2    H7 4929   2.370   2.733  14.236  1.0803  0.8007  2.2250
  325TMC3    C1 4930   1.843   2.592  13.922 -0.1624  0.1970 -0.7096
  325TMC3    C2 4931   1.835   2.495  13.824  0.6974 -0.2209 -0.4596
  325TMC3    C3 4932   1.744   2.526  13.724  0.0163 -0.1864 -0.5438
  325TMC3    C4 4933   1.764   2.699  13.929 -0.1305  0.0411  0.2215
  325TMC3    C5 4934   1.676   2.719  13.827  0.0840 -0.6439  0.2023
  325TMC3    C6 4935   1.665   2.632  13.720 -0.6947  0.4795 -0.0244
  325TMC3     C 4936   1.947   2.579  14.017 -0.8457  0.0521  0.2021
  325TMC3     O 4937   1.976   2.674  14.093 -0.0857 -0.0677  0.3531
  325TMC3     H 4938   1.852   2.391  13.851  1.5145  0.4254  1.4802
  325TMC3    H1 4939   1.787   2.768  14.010  0.7399  0.7343 -0.6200
  325TMC3    H2 4940   1.604   2.648  13.632 -1.5263 -2.8964 -0.0433
  325TMC3    C7 4941   1.581   2.827  13.823 -0.6760  0.0291 -0.1209
  325TMC3    C8 4942   1.710   2.421  13.640  0.5314 -0.4961  0.5456
  325TMC3    O1 4943   1.526   2.858  13.720 -0.0399  0.5322  0.0025
  325TMC3    O2 4944   1.792   2.329  13.650  0.0585  0.4755 -0.2719
  326MPD2     C 4945   3.864   3.987  10.953 -0.2158 -0.3081  0.5282
  326MPD2    C1 4946   3.867   3.882  10.866  0.2584  0.0957  0.0902
  326MPD2    C2 4947   3.988   3.825  10.826  0.3121 -0.5468 -0.1299
  326MPD2    C3 4948   4.107   3.899  10.860 -0.0461  0.4415 -0.0508
  326MPD2    C4 4949   4.098   4.011  10.942 -0.2764 -0.8511  0.3444
  326MPD2    C5 4950   3.976   4.049  10.997  0.3273  0.3309  0.5366
  326MPD2     H 4951   3.994   3.734  10.767 -1.7885  0.2244 -1.5409
  326MPD2    H1 4952   4.184   4.067  10.977  0.6854 -1.0386 -1.7403
  326MPD2    H2 4953   3.769   4.003  11.002 -0.8836  0.0716 -0.8895
  326MPD2    H3 4954   3.956   4.137  11.056 -0.4983 -0.9231  2.1172
  326MPD2     N 4955   4.238   3.863  10.811  0.1231  0.4317  0.5911
  326MPD2    H5 4956   4.307   3.930  10.845  3.3012 -1.7327 -1.5535
  326MPD2    N1 4957   3.751   3.840  10.795  0.3549  0.0451 -0.7259
  326MPD2    H7 4958   3.763   3.759  10.734  1.3443 -0.5570  0.2670
  327TMC3    C1 4959   3.527   3.823  10.729 -0.1519  0.0692 -0.0832
  327TMC3    C2 4960   3.443   3.888  10.647  0.0133 -0.1927 -0.7655
  327TMC3    C3 4961   3.367   3.811  10.564 -0.7106  0.0472  0.5605
  327TMC3    C4 4962   3.549   3.686  10.732 -0.1633 -0.1099 -0.5343
  327TMC3    C5 4963   3.464   3.613  10.648  0.2000 -0.2175  0.0667
  327TMC3    C6 4964   3.377   3.675  10.553  0.7354  0.5688 -0.2203
  327TMC3     C 4965   3.633   3.903  10.796  0.7293 -0.0763 -0.1486
  327TMC3     O 4966   3.613   4.021  10.813  0.2569  0.2446 -0.6744
  327TMC3     H 4967   3.457   3.993  10.625 -1.5016  0.1104 -0.3286
  327TMC3    H1 4968   3.585   3.644  10.825 -0.2289 -0.9104 -0.8690
  327TMC3    H2 4969   3.307   3.620  10.491  1.3503 -2.0457  1.4380
  327TMC3    C7 4970   3.458   3.469  10.656  0.6287 -0.0186 -0.2859
  327TMC3    C8 4971   3.288   3.891  10.472  0.2031 -0.6729 -0.2856
  327TMC3    O1 4972   3.360   3.413  10.607  0.0386 -0.2137 -0.0356
  327TMC3    O2 4973   3.244   4.003  10.508 -0.5697 -0.5963 -0.1467
  328MPD2     C 4974   1.589   3.544  17.108  0.1057 -0.4542 -0.2529
  328MPD2    C1 4975   1.495   3.448  17.131 -0.5407 -0.8612  0.2053
  328MPD2    C2 4976   1.372   3.465  17.069 -0.5501  0.0662  0.1693
  328MPD2    C3 4977   1.356   3.568  16.972 -0.1014 -0.1243 -0.5077
  328MPD2    C4 4978   1.448   3.665  16.955  0.7725 -0.1061 -0.2327
  328MPD2    C5 4979   1.568   3.655  17.020 -0.3970 -0.4272 -0.4818
  328MPD2     H 4980   1.299   3.391  17.101 -1.2571  0.4394 -0.5806
  328MPD2    H1 4981   1.439   3.739  16.876 -0.2391  0.5752  0.5212
  328MPD2    H2 4982   1.691   3.546  17.146 -0.2685  1.1732  0.6675
  328MPD2    H3 4983   1.649   3.724  16.999 -0.2970 -0.1176  0.9140
  328MPD2     N 4984   1.234   3.589  16.911  0.4547  0.5429  1.1288
  328MPD2    H5 4985   1.225   3.671  16.852  0.7891  0.1853  0.5756
  328MPD2    N1 4986   1.536   3.343  17.215  0.0320  0.2917  1.0875
  328MPD2    H7 4987   1.630   3.355  17.251  0.3123 -0.1897  0.5078
  329TMC3    C1 4988   1.508   3.139  17.351  0.5716 -0.5043 -0.6787
  329TMC3    C2 4989   1.620   3.182  17.416 -0.1517 -0.4831  0.4327
  329TMC3    C3 4990   1.681   3.089  17.495 -0.1126  0.4149  0.5211
  329TMC3    C4 4991   1.456   3.011  17.358  0.0376  0.1159 -1.5060
  329TMC3    C5 4992   1.520   2.920  17.438  0.2662  0.1574 -0.3316
  329TMC3    C6 4993   1.633   2.958  17.506  0.0467  0.1790  0.1799
  329TMC3     C 4994   1.454   3.231  17.252 -0.2311  0.4634 -0.5260
  329TMC3     O 4995   1.343   3.201  17.200  0.1818 -0.2479  0.2080
  329TMC3     H 4996   1.665   3.280  17.422  0.6652 -0.8473  0.3856
  329TMC3    H1 4997   1.366   2.990  17.300 -0.4884 -0.3672 -0.5195
  329TMC3    H2 4998   1.686   2.885  17.566  0.9701  0.1708 -0.6506
  329TMC3    C7 4999   1.469   2.788  17.463  0.0149  0.2136  0.8610
  329TMC3    C8 5000   1.772   3.132  17.599  0.0193 -0.3788 -0.1913
  329TMC3    O1 5001   1.517   2.732  17.556 -0.1505 -0.2191  0.1102
  329TMC3    O2 5002   1.863   3.062  17.638  0.1978  0.1388 -0.0554
  330TMC3    C1 5003   3.633   3.316   9.607  0.4507 -0.0972  0.5811
  330TMC3    C2 5004   3.520   3.263   9.649  0.4984 -0.6213  0.6794
  330TMC3    C3 5005   3.519   3.143   9.718  0.0928 -0.9082  0.4715
  330TMC3    C4 5006   3.757   3.256   9.636 -0.7773  0.5745  0.1670
  330TMC3    C5 5007   3.757   3.136   9.706 -0.6174 -0.7903 -0.8854
  330TMC3    C6 5008   3.639   3.083   9.751  0.0722 -0.5516 -0.5807
  330TMC3     C 5009   3.624   3.439   9.527  0.0569 -0.5992 -0.3548
  330TMC3     O 5010   3.728   3.502   9.527  0.2615  0.5191  0.8279
  330TMC3     H 5011   3.433   3.327   9.657  1.7831  1.3928 -1.3355
  330TMC3    H1 5012   3.852   3.298   9.604  0.0227 -2.3238 -1.1838
  330TMC3    H2 5013   3.634   3.016   9.836 -0.7925 -0.6007 -0.6702
  330TMC3    C7 5014   3.882   3.099   9.767  0.5889  0.7449  0.6077
  330TMC3    C8 5015   3.394   3.091   9.753 -0.4839 -0.7646  0.9037
  330TMC3    O1 5016   3.961   3.192   9.775  0.1592 -0.7984 -0.2390
  330TMC3    O2 5017   3.296   3.161   9.728  0.4899 -0.2444  0.4271
  331MPD2     C 5018   2.357   2.127  12.930  0.1555  0.3857  0.1278
  331MPD2    C1 5019   2.424   2.135  12.808 -0.1078  0.3238 -0.7270
  331MPD2    C2 5020   2.436   2.016  12.734 -0.6700 -0.2722  0.4769
  331MPD2    C3 5021   2.388   1.891  12.788 -0.4128 -0.7635 -0.0735
  331MPD2    C4 5022   2.349   1.887  12.921  0.5080 -0.4358 -0.7317
  331MPD2    C5 5023   2.330   2.009  12.987 -0.4003  0.0076 -0.4207
  331MPD2     H 5024   2.471   2.015  12.632 -0.3527  1.7845  0.5723
  331MPD2    H1 5025   2.322   1.797  12.974 -0.1016  0.6318  0.7621
  331MPD2    H2 5026   2.337   2.218  12.985 -0.8106  0.7996 -0.9327
  331MPD2    H3 5027   2.276   2.015  13.081 -1.0912 -0.1802 -0.8047
  331MPD2     N 5028   2.403   1.779  12.704 -0.1665  0.1997 -0.6404
  331MPD2    H5 5029   2.456   1.798  12.620 -0.9101  0.9720 -0.9381
  331MPD2    N1 5030   2.455   2.254  12.737 -0.7010  0.0984  0.5246
  331MPD2    H7 5031   2.486   2.242  12.642  2.0254  1.8777  1.1833
  332TMC3    C1 5032   2.431   1.555  12.636  0.0408 -0.4016  0.2111
  332TMC3    C2 5033   2.439   1.600  12.506 -0.9441 -0.1538  0.9170
  332TMC3    C3 5034   2.556   1.580  12.434  0.5166  0.6018  0.4823
  332TMC3    C4 5035   2.535   1.483  12.691  0.6981  0.4616  0.0668
  332TMC3    C5 5036   2.653   1.472  12.614  0.4065 -0.0503 -0.0716
  332TMC3    C6 5037   2.660   1.521  12.487  0.0974 -0.1135 -0.4124
  332TMC3     C 5038   2.376   1.647  12.733 -0.2094 -0.2423 -0.0332
  332TMC3     O 5039   2.338   1.608  12.841 -0.8344 -0.3962 -0.0128
  332TMC3     H 5040   2.360   1.661  12.463  1.9143  2.2890 -0.8012
  332TMC3    H1 5041   2.537   1.448  12.793  0.1855 -0.1840 -0.1379
  332TMC3    H2 5042   2.744   1.504  12.421  1.0238  0.5012  0.6012
  332TMC3    C7 5043   2.778   1.438  12.682  0.0230  0.0182  0.3140
  332TMC3    C8 5044   2.577   1.645  12.309  0.3627 -0.9517 -0.2722
  332TMC3    O1 5045   2.772   1.388  12.798  0.5431  0.2280  0.1916
  332TMC3    O2 5046   2.687   1.696  12.304 -0.0754 -1.0502 -0.2686
  333MPD2     C 5047   2.267   1.821  11.437 -0.2487 -0.4029 -0.2921
  333MPD2    C1 5048   2.293   1.705  11.361 -0.3786  0.2197  0.0715
  333MPD2    C2 5049   2.270   1.580  11.418  0.2086 -0.5081  0.1788
  333MPD2    C3 5050   2.237   1.571  11.545  0.4489  0.5333 -0.3442
  333MPD2    C4 5051   2.207   1.683  11.618  0.4110 -1.2893  0.4895
  333MPD2    C5 5052   2.217   1.807  11.559 -0.3940 -0.1636 -0.8208
  333MPD2     H 5053   2.298   1.485  11.374 -0.6541  0.0238 -1.5058
  333MPD2    H1 5054   2.160   1.676  11.715 -1.2091 -0.0070 -0.2033
  333MPD2    H2 5055   2.262   1.919  11.392 -1.7416 -0.4811 -0.3177
  333MPD2    H3 5056   2.191   1.888  11.626  0.5881 -1.2569  0.8981
  333MPD2     N 5057   2.222   1.436  11.592  0.4213 -0.4324  0.1838
  333MPD2    H5 5058   2.227   1.362  11.524 -0.3301 -0.4968  0.1969
  333MPD2    N1 5059   2.346   1.724  11.232 -0.1690  0.0601  0.0903
  333MPD2    H7 5060   2.367   1.819  11.206 -0.4213 -0.1218 -0.7561
  334TMC3    C1 5061   2.460   1.702  11.030 -0.7365 -0.4118 -0.0303
  334TMC3    C2 5062   2.552   1.622  10.956 -0.8427 -0.7383 -0.1437
  334TMC3    C3 5063   2.630   1.683  10.861  0.0891 -0.4828  0.8977
  334TMC3    C4 5064   2.447   1.837  11.009  0.0492 -0.5537 -0.7620
  334TMC3    C5 5065   2.532   1.892  10.917 -0.0233  0.4623  1.2781
  334TMC3    C6 5066   2.614   1.815  10.835  0.7819  0.5485  0.0046
  334TMC3     C 5067   2.391   1.631  11.145 -0.1886 -0.2002  0.2319
  334TMC3     O 5068   2.386   1.509  11.149  0.7589 -0.0270  0.1993
  334TMC3     H 5069   2.571   1.520  10.986  1.7320  0.2066  1.3717
  334TMC3    H1 5070   2.376   1.896  11.066  0.4652 -0.1632 -0.6382
  334TMC3    H2 5071   2.666   1.860  10.751  0.0741 -0.5838 -1.0443
  334TMC3    C7 5072   2.511   2.032  10.880  0.1458  0.1121  0.1100
  334TMC3    C8 5073   2.728   1.610  10.795  0.2089  0.5719 -0.0998
  334TMC3    O1 5074   2.605   2.081  10.817 -0.2101  0.2639  0.2187
  334TMC3    O2 5075   2.717   1.489  10.785 -0.0039 -0.0512 -0.0583
  335TMC3    C1 5076   2.366   3.309  17.498  0.0643 -0.2131 -0.5900
  335TMC3    C2 5077   2.236   3.312  17.446  0.1507  0.0560  0.2798
  335TMC3    C3 5078   2.229   3.367  17.318 -0.2657 -0.1326 -0.4643
  335TMC3    C4 5079   2.474   3.378  17.447 -0.2845 -0.1226 -0.8925
  335TMC3    C5 5080   2.453   3.431  17.327  0.3858 -0.2888  0.1966
  335TMC3    C6 5081   2.337   3.425  17.262  0.4921  0.4535  0.4854
  335TMC3     C 5082   2.392   3.216  17.602  0.3140  0.4210 -0.1809
  335TMC3     O 5083   2.309   3.131  17.616  0.7272  0.1130  0.2631
  335TMC3     H 5084   2.147   3.268  17.489  0.3578 -1.9028 -1.2490
  335TMC3    H1 5085   2.574   3.391  17.487 -1.0473  1.1873  0.6135
  335TMC3    H2 5086   2.336   3.469  17.162  1.4701 -1.1477 -0.2306
  335TMC3    C7 5087   2.563   3.510  17.263  0.1087 -0.0641  0.3876
  335TMC3    C8 5088   2.111   3.341  17.242  0.0138 -0.2540  0.1150
  335TMC3    O1 5089   2.676   3.467  17.265  0.8998  0.5084 -0.3736
  335TMC3    O2 5090   2.090   3.406  17.139 -0.6013  0.5344 -0.4477
  336MPD2     C 5091   1.688   1.228  16.179 -0.0667 -0.2557 -0.1066
  336MPD2    C1 5092   1.716   1.145  16.075  0.2434  0.8110  0.1472
  336MPD2    C2 5093   1.796   1.031  16.087  0.3310  0.0796  0.1931
  336MPD2    C3 5094   1.845   1.000  16.214  0.0220  0.3691 -1.0709
  336MPD2    C4 5095   1.804   1.076  16.326  0.8014 -1.1625 -0.4349
  336MPD2    C5 5096   1.729   1.191  16.306  0.0566  0.3391 -0.3526
  336MPD2     H 5097   1.797   0.969  15.998 -1.0320 -0.8573  0.8101
  336MPD2    H1 5098   1.826   1.054  16.430  0.0585  2.9438  0.6089
  336MPD2    H2 5099   1.629   1.317  16.157  1.3218  0.6339 -0.2437
  336MPD2    H3 5100   1.703   1.247  16.395  2.8937  2.6652 -0.9840
  336MPD2     N 5101   1.916   0.877  16.246 -1.1808  0.5780 -0.4032
  336MPD2    H5 5102   1.933   0.865  16.346 -0.1091 -2.6119 -0.9798
  336MPD2    N1 5103   1.663   1.159  15.945  0.9406 -0.0813 -0.1640
  336MPD2    H7 5104   1.672   1.078  15.884 -0.8383 -0.2927 -0.1567
  337TMC3    C1 5105   1.520   1.237  15.780  0.3902  0.6069  0.4729
  337TMC3    C2 5106   1.475   1.111  15.745 -0.3973  0.6502 -0.5097
  337TMC3    C3 5107   1.401   1.102  15.628 -0.0211 -0.4093 -0.9002
  337TMC3    C4 5108   1.486   1.343  15.709  0.3959 -0.9513  0.5413
  337TMC3    C5 5109   1.414   1.329  15.591 -0.0235 -0.6727  0.8019
  337TMC3    C6 5110   1.368   1.209  15.546 -0.5816  0.0325  0.3240
  337TMC3     C 5111   1.582   1.260  15.903 -0.5258  0.1777 -0.0235
  337TMC3     O 5112   1.592   1.378  15.941  0.4971  0.0070 -0.3870
  337TMC3     H 5113   1.505   1.029  15.808 -0.4052  0.1167 -1.2036
  337TMC3    H1 5114   1.514   1.444  15.738  0.1827 -0.7110 -0.0802
  337TMC3    H2 5115   1.311   1.194  15.455 -0.6919 -0.2635  0.4409
  337TMC3    C7 5116   1.412   1.430  15.489  0.4561  0.4126 -1.3448
  337TMC3    C8 5117   1.382   0.966  15.579 -0.0710  0.6773 -0.4252
  337TMC3    O1 5118   1.361   1.397  15.381 -0.0279 -0.0153  0.8317
  337TMC3    O2 5119   1.440   0.873  15.633  0.4328  0.1526 -0.1618
  338MPD2     C 5120   1.945   0.790   0.947  0.2615  0.2713  0.0846
  338MPD2    C1 5121   1.903   0.714   0.837 -0.4910  0.4485 -0.2504
  338MPD2    C2 5122   1.762   0.702   0.821  0.5493 -0.2739  0.6905
  338MPD2    C3 5123   1.669   0.739   0.915  0.5116 -0.4165  0.2551
  338MPD2    C4 5124   1.719   0.802   1.030  0.1288  0.4412  0.2467
  338MPD2    C5 5125   1.853   0.827   1.047 -0.4647  0.2904  0.2298
  338MPD2     H 5126   1.724   0.678   0.722 -1.1987  0.7904  1.1055
  338MPD2    H1 5127   1.659   0.833   1.115  1.0242 -0.2254  1.1263
  338MPD2    H2 5128   2.050   0.812   0.963  0.5415 -0.2262 -1.0575
  338MPD2    H3 5129   1.883   0.876   1.139  2.8415 -1.0471 -0.1209
  338MPD2     N 5130   1.534   0.727   0.888  0.8612  0.0043  0.0819
  338MPD2    H5 5131   1.506   0.668   0.810 -2.5336 -0.3063  1.5416
  338MPD2    N1 5132   1.994   0.675   0.730 -0.2455  0.1945  0.2937
  338MPD2    H7 5133   1.950   0.638   0.646 -1.2690  0.8595  0.5451
  339TMC3    C1 5134   1.299   0.774   0.887  1.0800 -0.1274  0.0476
  339TMC3    C2 5135   1.292   0.636   0.868 -0.2578  0.1388  0.2332
  339TMC3    C3 5136   1.226   0.593   0.758  0.0968 -0.3657  0.7011
  339TMC3    C4 5137   1.246   0.857   0.795 -0.2938  0.6633  0.1362
  339TMC3    C5 5138   1.190   0.809   0.682  0.4867  0.1574  0.4083
  339TMC3    C6 5139   1.166   0.674   0.666 -0.2034 -0.1842 -0.4066
  339TMC3     C 5140   1.434   0.810   0.933  0.6571 -0.1195 -0.5565
  339TMC3     O 5141   1.434   0.903   1.011 -0.1299  0.2212  0.2049
  339TMC3     H 5142   1.341   0.563   0.932 -1.7618 -1.1261 -0.0683
  339TMC3    H1 5143   1.284   0.959   0.801  2.0932 -0.2070 -0.2924
  339TMC3    H2 5144   1.101   0.644   0.584 -0.4645 -1.1222  0.1428
  339TMC3    C7 5145   1.252   0.870   0.567 -0.0922 -0.2815 -0.2372
  339TMC3    C8 5146   1.198   0.450   0.741  0.0749  0.0607 -0.4558
  339TMC3    O1 5147   1.245   0.994   0.553 -0.1669  0.1705 -0.6562
  339TMC3    O2 5148   1.164   0.418   0.627  0.5153 -0.5817 -0.4514
  340MPD2     C 5149   1.063   3.237  10.068 -0.3516  0.5138  0.1182
  340MPD2    C1 5150   1.028   3.311   9.953 -0.7033  0.0398  0.0042
  340MPD2    C2 5151   1.061   3.446   9.943 -0.8054  0.2766  0.2952
  340MPD2    C3 5152   1.127   3.504  10.051 -0.5546  0.0927  0.4629
  340MPD2    C4 5153   1.146   3.438  10.173  1.1600 -0.0503  0.2327
  340MPD2    C5 5154   1.112   3.300  10.180  0.7393  0.6910  0.3331
  340MPD2     H 5155   1.044   3.496   9.848  3.0258  1.2496  0.1259
  340MPD2    H1 5156   1.188   3.491  10.258  2.1245  1.5609 -1.2655
  340MPD2    H2 5157   1.032   3.134  10.082  0.9045  0.3051  1.3503
  340MPD2    H3 5158   1.127   3.249  10.274 -4.5335  0.9440  1.3066
  340MPD2     N 5159   1.182   3.631  10.028 -0.3143 -0.2454  0.3635
  340MPD2    H5 5160   1.237   3.664  10.108 -0.6074  0.9728  0.0648
  340MPD2    N1 5161   0.978   3.232   9.845  0.4613 -0.3320 -0.6470
  340MPD2    H7 5162   0.978   3.132   9.865 -0.3043 -0.0526  0.7613
  341TMC3    C1 5163   0.885   3.183   9.630  0.0304  1.0570  0.4136
  341TMC3    C2 5164   0.846   3.054   9.661  0.5395 -0.3315 -0.1108
  341TMC3    C3 5165   0.816   2.974   9.551 -0.2249  0.2536  0.2325
  341TMC3    C4 5166   0.904   3.233   9.507  0.3943 -0.5688 -0.2638
  341TMC3    C5 5167   0.869   3.151   9.406 -0.6994  0.5658  0.2333
  341TMC3    C6 5168   0.827   3.023   9.427 -0.4336  0.5183 -0.2727
  341TMC3     C 5169   0.903   3.278   9.736 -0.0819 -0.7376  0.9030
  341TMC3     O 5170   0.880   3.393   9.708 -0.3504 -0.0757  0.2089
  341TMC3     H 5171   0.832   3.020   9.763 -1.6298 -1.4314 -0.7832
  341TMC3    H1 5172   0.937   3.335   9.492  1.8021 -0.9677  0.1210
  341TMC3    H2 5173   0.807   2.959   9.342 -0.9360 -1.6725  1.4864
  341TMC3    C7 5174   0.861   3.195   9.267  0.5240  0.3330 -0.3833
  341TMC3    C8 5175   0.805   2.828   9.577  0.2354 -0.3243  0.4254
  341TMC3    O1 5176   0.782   3.139   9.193  0.3931  0.0569 -0.1408
  341TMC3    O2 5177   0.821   2.787   9.690  0.3983  0.1283  0.0596
  342MPD2     C 5178   0.421   1.391   0.152 -0.2717  0.5086  0.4131
  342MPD2    C1 5179   0.410   1.412   0.015  0.8747 -0.0944 -0.6541
  342MPD2    C2 5180   0.371   1.536  17.688  0.1353 -0.8569  0.3941
  342MPD2    C3 5181   0.357   1.649   0.055  0.1300  0.0892 -0.4893
  342MPD2    C4 5182   0.375   1.624   0.187 -0.2870 -0.2477 -0.0724
  342MPD2    C5 5183   0.406   1.498   0.236 -0.2636 -0.4330  0.2559
  342MPD2     H 5184   0.353   1.546  17.582  0.2326  0.5514  0.5046
  342MPD2    H1 5185   0.373   1.708   0.255  0.2347 -0.1159 -0.2155
  342MPD2    H2 5186   0.442   1.295   0.199 -1.7291  0.3990  0.8396
  342MPD2    H3 5187   0.427   1.473   0.339  1.6820 -0.0261 -0.0398
  342MPD2     N 5188   0.322   1.779   0.008 -0.7229  0.1120  0.7926
  342MPD2    H5 5189   0.317   1.851   0.079 -0.1985 -0.6918  1.6463
  342MPD2    N1 5190   0.434   1.319  17.628  0.1849  0.1234 -0.3987
  342MPD2    H7 5191   0.401   1.350  17.537  1.3989  0.7655 -0.6157
  343TMC3    C1 5192   0.492   1.107  17.517 -0.3454  0.1085 -0.3566
  343TMC3    C2 5193   0.509   1.167  17.397  0.4099 -0.6333 -0.5774
  343TMC3    C3 5194   0.558   1.083  17.301  0.4265 -0.1800  0.0570
  343TMC3    C4 5195   0.473   0.972  17.530 -0.8625  0.2337 -0.4188
  343TMC3    C5 5196   0.496   0.889  17.421 -0.0865  0.0062  0.3996
  343TMC3    C6 5197   0.547   0.948  17.309 -0.7047  0.3316  0.6406
  343TMC3     C 5198   0.462   1.187  17.640  1.0687 -0.4804  0.6245
  343TMC3     O 5199   0.474   1.125   0.029 -0.0116  0.3326  0.0358
  343TMC3     H 5200   0.522   1.274  17.406  0.6029 -0.7656  0.7088
  343TMC3    H1 5201   0.429   0.945  17.625 -0.9514  1.8876  0.0099
  343TMC3    H2 5202   0.560   0.886  17.222 -1.7121 -0.8171  1.3068
  343TMC3    C7 5203   0.418   0.765  17.407 -0.3760  0.1465 -0.1200
  343TMC3    C8 5204   0.648   1.145  17.203  0.1390  0.0989  0.2318
  343TMC3    O1 5205   0.368   0.748  17.293  0.0379 -0.1517  0.4282
  343TMC3    O2 5206   0.678   1.265  17.207  0.2122 -0.1807 -0.6101
  344MPD2     C 5207   1.192   0.748  11.199 -0.0468 -0.1944 -0.1243
  344MPD2    C1 5208   1.068   0.767  11.142 -0.5081  0.0866  0.1175
  344MPD2    C2 5209   1.060   0.837  11.026  1.0586  0.1191  0.2522
  344MPD2    C3 5210   1.179   0.869  10.958 -0.2006 -0.4586  0.3521
  344MPD2    C4 5211   1.298   0.849  11.015 -0.0936 -0.1186 -0.2643
  344MPD2    C5 5212   1.307   0.785  11.131  0.2258 -0.0511  0.5624
  344MPD2     H 5213   0.960   0.859  10.991  0.0772 -0.3869  2.7269
  344MPD2    H1 5214   1.390   0.875  10.963 -0.5912  0.1456 -1.0184
  344MPD2    H2 5215   1.205   0.693  11.291 -0.8069 -0.9250 -0.4535
  344MPD2    H3 5216   1.402   0.765  11.178  0.7791  0.1020 -0.4899
  344MPD2     N 5217   1.191   0.928  10.833 -0.0129  0.0416  0.0757
  344MPD2    H5 5218   1.284   0.942  10.796  1.2335 -0.1161  3.1007
  344MPD2    N1 5219   0.949   0.700  11.184 -0.5399 -0.0947 -0.0792
  344MPD2    H7 5220   0.861   0.708  11.135 -0.9045 -1.7320  0.3165
  345TMC3    C1 5221   1.104   1.035  10.641 -0.1209 -0.7548  0.1574
  345TMC3    C2 5222   1.197   1.132  10.655  0.1799  0.1504  0.2737
  345TMC3    C3 5223   1.200   1.232  10.560 -0.2529  0.1237 -0.1739
  345TMC3    C4 5224   1.013   1.023  10.545 -0.6994  0.9127  0.2738
  345TMC3    C5 5225   1.025   1.116  10.446  0.0028 -0.2700 -0.0576
  345TMC3    C6 5226   1.110   1.229  10.458  0.0824 -0.1389 -0.0830
  345TMC3     C 5227   1.082   0.962  10.764 -0.3829  0.1469  0.0278
  345TMC3     O 5228   0.963   0.948  10.789 -0.2681 -0.6884  0.3521
  345TMC3     H 5229   1.257   1.145  10.744  0.2105 -0.4760  0.3391
  345TMC3    H1 5230   0.935   0.948  10.553 -0.6259  0.7834 -0.2057
  345TMC3    H2 5231   1.099   1.303  10.380  1.1807 -1.1068 -1.1638
  345TMC3    C7 5232   0.907   1.118  10.360 -0.5828  0.3098 -0.3258
  345TMC3    C8 5233   1.272   1.355  10.596  0.0786  0.6328 -0.1760
  345TMC3    O1 5234   0.895   1.226  10.306 -0.0650 -0.3110 -0.5305
  345TMC3    O2 5235   1.280   1.371  10.718 -0.2191  0.1093 -0.1007
  346MPD2     C 5236   0.786   2.760  14.354  0.7373  0.0096 -0.1101
  346MPD2    C1 5237   0.825   2.872  14.285 -0.3852  0.7069 -0.0150
  346MPD2    C2 5238   0.891   2.974  14.344 -0.9480  0.0755 -0.1019
  346MPD2    C3 5239   0.940   2.966  14.474 -0.2761  0.0098  0.0476
  346MPD2    C4 5240   0.889   2.860  14.549 -0.3917  0.0469 -0.4056
  346MPD2    C5 5241   0.819   2.756  14.487 -0.0927 -0.3564 -0.3695
  346MPD2     H 5242   0.936   3.056  14.290  0.0654 -1.5853 -1.8053
  346MPD2    H1 5243   0.914   2.845  14.654  0.4841  0.0414 -0.6129
  346MPD2    H2 5244   0.740   2.678  14.300 -0.1058 -0.4305  1.2697
  346MPD2    H3 5245   0.781   2.673  14.546  0.5516  0.1839  0.7898
  346MPD2     N 5246   1.043   3.055  14.515 -0.7130 -0.0534 -0.4206
  346MPD2    H5 5247   1.060   3.131  14.449  1.6528  1.1044  1.5246
  346MPD2    N1 5248   0.811   2.884  14.148 -1.2333  0.3172  0.6519
  346MPD2    H7 5249   0.850   2.967  14.105  0.5057 -1.6973 -1.6984
  347TMC3    C1 5250   1.236   3.110  14.638 -0.3953 -0.2364  0.8516
  347TMC3    C2 5251   1.301   3.111  14.514 -0.2692 -0.1776 -0.3000
  347TMC3    C3 5252   1.438   3.118  14.523  0.1518  0.5885  0.5637
  347TMC3    C4 5253   1.297   3.115  14.758 -0.1448 -0.3898  0.1882
  347TMC3    C5 5254   1.431   3.137  14.758 -0.0206 -0.1709 -0.1724
  347TMC3    C6 5255   1.506   3.142  14.640  0.1904  0.7583  0.2065
  347TMC3     C 5256   1.108   3.049  14.631 -0.3096  0.4739 -0.2067
  347TMC3     O 5257   1.086   2.979  14.726  0.6355 -0.3015 -0.1100
  347TMC3     H 5258   1.256   3.096  14.417 -0.4626  1.6682 -0.4875
  347TMC3    H1 5259   1.234   3.112  14.846 -0.2082  1.9381  0.2127
  347TMC3    H2 5260   1.614   3.139  14.633  0.1749 -2.7967  1.0467
  347TMC3    C7 5261   1.491   3.158  14.886  0.0345  0.2201  0.1922
  347TMC3    C8 5262   1.511   3.106  14.398 -0.1274 -0.4661 -0.7845
  347TMC3    O1 5263   1.433   3.110  14.986  0.3451  0.1299 -0.1338
  347TMC3    O2 5264   1.615   3.041  14.397 -0.1195 -0.4035  0.2104
  348MPD2     C 5265   4.250   2.190  12.220  0.4472  0.2874 -0.6371
  348MPD2    C1 5266   4.363   2.209  12.142 -0.1522  1.0279  0.0413
  348MPD2    C2 5267   4.368   2.307  12.058 -0.3181  0.4319 -0.0449
  348MPD2    C3 5268   4.256   2.381  12.029  0.1310 -0.3079 -0.3907
  348MPD2    C4 5269   4.135   2.340  12.081 -0.0594 -0.4135  0.3463
  348MPD2    C5 5270   4.135   2.251  12.186 -0.6388  0.0387 -0.5022
  348MPD2     H 5271   4.466   2.341  12.025  0.0586 -0.3330  0.2712
  348MPD2    H1 5272   4.043   2.393  12.064  0.2692 -0.3259 -1.1912
  348MPD2    H2 5273   4.241   2.118  12.301 -1.0608  0.7776 -0.3862
  348MPD2    H3 5274   4.038   2.220  12.225 -1.3814  1.3768 -1.2605
  348MPD2     N 5275   4.273   2.497  11.964  0.5716 -0.0008  0.1188
  348MPD2    H5 5276   4.360   2.548  11.965 -0.5819  2.0085 -0.2812
  348MPD2    N1 5277   4.479   2.140  12.168  0.1096 -0.1089  0.6824
  348MPD2    H7 5278   4.558   2.171  12.112 -1.3564  0.4620 -1.0551
  349TMC3    C1 5279   4.635   1.993  12.234 -0.4904  0.3674  0.6856
  349TMC3    C2 5280   4.650   1.855  12.229  0.1259  0.1440 -0.3562
  349TMC3    C3 5281   4.723   1.792  12.127  0.6124  0.0478  0.4580
  349TMC3    C4 5282   4.706   2.062  12.140 -0.2130  1.1829 -1.0157
  349TMC3    C5 5283   0.039   2.003  12.028 -0.1022  0.6626 -0.2390
  349TMC3    C6 5284   0.051   1.867  12.025 -0.2413  0.0854  0.3734
  349TMC3     C 5285   4.495   2.029  12.244 -0.0870 -0.1267 -0.2472
  349TMC3     O 5286   4.414   1.969  12.310 -0.1794  0.1953 -0.6674
  349TMC3     H 5287   4.591   1.798  12.300  0.9542  1.6487  1.5715
  349TMC3    H1 5288   4.719   2.168  12.157 -2.4878  1.3643 -0.3488
  349TMC3    H2 5289   0.096   1.818  11.940 -0.5027  0.2503  0.1385
  349TMC3    C7 5290   0.015   2.068  11.896  0.7970  0.4280  0.2654
  349TMC3    C8 5291   0.035   1.667  12.163 -0.6640  0.1951 -0.4668
  349TMC3    O1 5292   4.727   1.996  11.802  0.2595  0.2536  0.3583
  349TMC3    O2 5293   4.708   1.609  12.255  0.0394 -0.0594 -0.6748
  350MPD2     C 5294   4.092   0.960  10.267  0.6820 -0.7389  0.2453
  350MPD2    C1 5295   4.082   0.823  10.264 -0.3107  0.1102  0.5928
  350MPD2    C2 5296   4.190   0.747  10.288  0.0096 -0.1033 -0.8751
  350MPD2    C3 5297   4.316   0.801  10.307  0.4685  0.8267  0.4263
  350MPD2    C4 5298   4.329   0.934  10.309 -0.1258  0.4429  0.2718
  350MPD2    C5 5299   4.218   1.007  10.290 -0.2041  0.4764 -0.3850
  350MPD2     H 5300   4.174   0.640  10.295 -1.0711  0.0675 -0.7565
  350MPD2    H1 5301   4.422   0.987  10.328 -0.2969  0.2270  1.7362
  350MPD2    H2 5302   4.010   1.029  10.262  2.0623  0.8337 -0.5935
  350MPD2    H3 5303   4.239   1.113  10.299  0.5893  0.2186  0.8805
  350MPD2     N 5304   4.423   0.714  10.320 -0.6753 -0.3724 -0.0855
  350MPD2    H5 5305   4.405   0.615  10.308 -1.4546  0.1099 -2.7377
  350MPD2    N1 5306   3.957   0.769  10.237 -0.1799  0.6341  0.3681
  350MPD2    H7 5307   3.882   0.834  10.213  1.5464  1.6596 -2.2561
  351TMC3    C1 5308   3.770   0.617  10.219 -0.2249  0.7452  0.3743
  351TMC3    C2 5309   3.741   0.486  10.200  0.1098 -0.1312  0.7199
  351TMC3    C3 5310   3.633   0.452  10.128 -0.3349 -0.3258  0.2075
  351TMC3    C4 5311   3.700   0.715  10.154 -0.1606 -0.1365  0.3252
  351TMC3    C5 5312   3.588   0.682  10.082  0.8085  0.0742 -0.4316
  351TMC3    C6 5313   3.553   0.553  10.076  0.4952 -0.6267 -0.1284
  351TMC3     C 5314   3.910   0.644  10.261  0.2844 -0.8615  0.6070
  351TMC3     O 5315   3.964   0.557  10.325  0.7900  0.3348 -0.3964
  351TMC3     H 5316   3.817   0.412  10.222 -0.7526 -0.6514  1.9378
  351TMC3    H1 5317   3.727   0.820  10.158  1.4437 -0.6195  2.0636
  351TMC3    H2 5318   3.461   0.530  10.023  1.6812  0.7101 -2.7454
  351TMC3    C7 5319   3.512   0.787  10.013 -0.7959  0.3875  0.2085
  351TMC3    C8 5320   3.647   0.328  10.053  0.5920  0.1421  0.3091
  351TMC3    O1 5321   3.575   0.885   9.990 -0.5528  0.0719 -0.1471
  351TMC3    O2 5322   3.614   0.340   9.936 -0.2607 -0.3702 -0.8887
  352MPD2     C 5323   2.666   2.764   0.961  0.1154  0.2568  0.5203
  352MPD2    C1 5324   2.557   2.693   0.928  0.8525 -0.6364 -0.2459
  352MPD2    C2 5325   2.565   2.555   0.900  0.0573  0.4514 -0.4259
  352MPD2    C3 5326   2.689   2.488   0.903 -0.1969  0.8323 -0.3422
  352MPD2    C4 5327   2.798   2.562   0.944  0.9612 -0.0652  0.3754
  352MPD2    C5 5328   2.785   2.695   0.974 -0.2440  0.5294  0.1107
  352MPD2     H 5329   2.479   2.497   0.869  0.6288  0.4919 -2.0596
  352MPD2    H1 5330   2.900   2.526   0.941  0.8411 -0.3565 -0.2596
  352MPD2    H2 5331   2.670   2.872   0.970  0.7090  0.1724  1.2093
  352MPD2    H3 5332   2.870   2.755   1.007  0.3276  0.0360 -0.4709
  352MPD2     N 5333   2.700   2.353   0.869 -0.0985 -0.3969  0.6510
  352MPD2    H5 5334   2.779   2.301   0.905 -0.5470 -0.2531  1.8418
  352MPD2    N1 5335   2.431   2.750   0.916 -0.7095 -0.0952  0.1473
  352MPD2    H7 5336   2.351   2.691   0.893 -1.2164 -0.4043  2.7279
  353TMC3    C1 5337   2.601   2.139   0.874 -0.1363 -0.1951 -0.5345
  353TMC3    C2 5338   2.699   2.092   0.960 -1.2225 -0.6786  0.3342
  353TMC3    C3 5339   2.715   1.955   0.971 -0.2359  0.1855  0.7957
  353TMC3    C4 5340   2.521   2.055   0.800 -0.0658  0.1463 -0.4839
  353TMC3    C5 5341   2.529   1.918   0.831 -0.4963 -0.9229 -0.6281
  353TMC3    C6 5342   2.628   1.867   0.914 -0.7133 -0.2664  0.3695
  353TMC3     C 5343   2.590   2.273   0.835  0.3078 -0.8907 -0.3541
  353TMC3     O 5344   2.488   2.301   0.771  0.5559 -0.4161 -0.1936
  353TMC3     H 5345   2.755   2.150   1.032 -0.1723  0.1734 -1.1737
  353TMC3    H1 5346   2.447   2.094   0.731  0.3707 -0.8486 -1.5036
  353TMC3    H2 5347   2.620   1.760   0.929 -0.4176 -0.4076 -0.5312
  353TMC3    C7 5348   2.409   1.841   0.817  0.3754 -0.6095 -0.5464
  353TMC3    C8 5349   2.831   1.902   1.042  0.1601  0.2029  0.1726
  353TMC3    O1 5350   2.410   1.720   0.787  0.2642 -0.2964  0.1444
  353TMC3    O2 5351   2.893   1.979   1.110 -0.4326 -0.5094  0.0085
  354TMC3    C1 5352   3.511   3.517  13.492  0.1782  0.0770  0.3031
  354TMC3    C2 5353   3.483   3.626  13.414 -0.6152 -0.1611  0.3527
  354TMC3    C3 5354   3.537   3.636  13.291 -0.4202  0.0349  0.7924
  354TMC3    C4 5355   3.596   3.417  13.445 -0.0685  0.4258  0.7230
  354TMC3    C5 5356   3.657   3.448  13.322  0.2991 -0.0706  0.3852
  354TMC3    C6 5357   3.626   3.547  13.243 -0.4732  0.6375  0.0736
  354TMC3     C 5358   3.486   3.511  13.625  0.2279 -0.1832  0.3613
  354TMC3     O 5359   3.479   3.399  13.679  0.2560  0.2195  0.5845
  354TMC3     H 5360   3.408   3.693  13.455 -0.5105  0.3417 -0.2787
  354TMC3    H1 5361   3.646   3.354  13.518 -1.9167 -1.5033  0.3338
  354TMC3    H2 5362   3.666   3.556  13.142 -2.1014  1.4537 -0.4882
  354TMC3    C7 5363   3.771   3.364  13.292 -0.2623  0.2412 -0.2567
  354TMC3    C8 5364   3.533   3.757  13.208 -0.6503  0.0254  0.1310
  354TMC3    O1 5365   3.761   3.249  13.338 -0.3587 -0.2208 -0.2287
  354TMC3    O2 5366   3.535   3.745  13.090  0.5012 -0.4874  0.1772
  355MPD2     C 5367   4.155   4.280  11.785 -0.0387 -0.4758 -0.2915
  355MPD2    C1 5368   4.238   4.243  11.691 -0.0595 -0.0863  0.2656
  355MPD2    C2 5369   4.303   4.123  11.709  0.4839 -0.1540  0.5689
  355MPD2    C3 5370   4.268   4.039  11.814  0.2229 -0.3038 -0.0092
  355MPD2    C4 5371   4.168   4.076  11.901 -0.1670 -0.5092  0.0330
  355MPD2    C5 5372   4.110   4.198  11.889 -0.1588 -0.1826 -0.4826
  355MPD2     H 5373   4.379   4.091  11.638  1.2141 -0.1515  1.3460
  355MPD2    H1 5374   4.138   4.014  11.985  0.4146  0.4881  0.9901
  355MPD2    H2 5375   4.112   4.377  11.763  1.1306  0.3177  0.9298
  355MPD2    H3 5376   4.031   4.219  11.960  0.1673  2.3722 -0.8460
  355MPD2     N 5377   4.344   3.922  11.840  0.2738 -0.1626 -0.1477
  355MPD2    H5 5378   4.329   3.886  11.934  0.8561 -1.1017 -0.4092
  355MPD2    N1 5379   4.286   4.341  11.599 -0.6196  0.2236 -0.4964
  355MPD2    H7 5380   4.260   4.437  11.615 -0.3658  0.0909  0.6821
  356TMC3    C1 5381   4.580   3.873  11.841  0.4922 -0.1747  0.3685
  356TMC3    C2 5382   4.679   3.919  11.762  0.0030 -0.7241  0.6213
  356TMC3    C3 5383   0.008   4.028  11.809 -0.1400 -0.6433 -0.6666
  356TMC3    C4 5384   4.549   3.924  11.969  0.0767  0.5754  0.3472
  356TMC3    C5 5385   4.621   4.025  12.010 -0.6032  0.1019  0.1199
  356TMC3    C6 5386   4.712   4.088  11.929  0.8275 -0.1558  0.3202
  356TMC3     C 5387   4.454   3.874  11.767 -0.2983  0.3541  0.7079
  356TMC3     O 5388   4.458   3.874  11.643  0.6293 -0.0072 -0.3770
  356TMC3     H 5389   4.707   3.866  11.671 -0.1489 -0.0635  0.1892
  356TMC3    H1 5390   4.482   3.872  12.037 -0.9459  0.9592 -0.3652
  356TMC3    H2 5391   0.049   4.168  11.962  0.8407  1.0596 -2.6794
  356TMC3    C7 5392   4.579   4.082  12.136  0.0786 -0.1853  0.7187
  356TMC3    C8 5393   0.093   4.097  11.713 -0.6066 -0.1031  0.0289
  356TMC3    O1 5394   4.511   4.006  12.204 -0.6292 -0.5070 -0.3398
  356TMC3    O2 5395   0.140   4.030  11.626  0.6262  0.3221 -0.3578
  357MPD2     C 5396   3.202   4.034   1.011 -0.2573 -0.1794  0.0248
  357MPD2    C1 5397   3.334   4.005   1.032 -0.7051  0.7744  0.6556
  357MPD2    C2 5398   3.402   4.051   1.144 -0.1395  0.3585 -0.4653
  357MPD2    C3 5399   3.336   4.127   1.234  0.3356  0.5683  0.6243
  357MPD2    C4 5400   3.203   4.147   1.217  0.0172 -0.3789  1.0845
  357MPD2    C5 5401   3.137   4.109   1.105  0.4149  0.1757 -0.1444
  357MPD2     H 5402   3.508   4.031   1.151 -0.7605 -2.9066 -0.7612
  357MPD2    H1 5403   3.145   4.211   1.282 -1.4297 -2.2756  1.6636
  357MPD2    H2 5404   3.148   3.998   0.924  1.0907  0.4294 -1.0713
  357MPD2    H3 5405   3.031   4.130   1.091  0.6313  0.2246 -1.7626
  357MPD2     N 5406   3.391   4.184   1.347 -0.4188 -0.0938  0.0497
  357MPD2    H5 5407   3.332   4.229   1.416 -0.0959  1.7705 -0.8714
  357MPD2    N1 5408   3.399   3.931   0.930 -0.3942  0.2403 -0.0168
  357MPD2    H7 5409   3.344   3.915   0.846  1.3500  1.2026 -1.3377
  358TMC3    C1 5410   3.574   3.812   0.823 -0.0606  0.4472 -0.2406
  358TMC3    C2 5411   3.477   3.744   0.747  1.0026  0.4260  0.1972
  358TMC3    C3 5412   3.530   3.676   0.638  0.8108 -0.2704 -0.1456
  358TMC3    C4 5413   3.710   3.809   0.796  0.1722  0.2807  0.1895
  358TMC3    C5 5414   3.747   3.738   0.689 -0.5380  0.1320  0.1337
  358TMC3    C6 5415   3.661   3.679   0.604 -0.1410  0.2258  0.0567
  358TMC3     C 5416   3.534   3.896   0.934  0.0544 -0.3571  0.8558
  358TMC3     O 5417   3.621   3.909   1.019  0.1035 -0.6382 -0.3256
  358TMC3     H 5418   3.374   3.718   0.766  0.7564  1.6396  0.4752
  358TMC3    H1 5419   3.786   3.844   0.864  2.1147  0.0950 -1.8937
  358TMC3    H2 5420   3.696   3.599   0.540 -2.1927 -0.2665 -0.4488
  358TMC3    C7 5421   3.882   3.738   0.651  0.4009 -0.0207  0.0901
  358TMC3    C8 5422   3.446   3.581   0.564 -1.2676  0.4646 -0.2685
  358TMC3    O1 5423   3.959   3.737   0.748 -0.0884  0.1996 -0.3424
  358TMC3    O2 5424   3.337   3.616   0.524  0.2210 -0.1839 -0.2953
  359MPD2     C 5425   3.792   3.509  12.453 -0.0218  0.3792  0.4022
  359MPD2    C1 5426   3.796   3.378  12.385  0.3655  0.5231  0.6488
  359MPD2    C2 5427   3.675   3.314  12.362  0.0079  0.0799  0.7338
  359MPD2    C3 5428   3.555   3.369  12.403 -0.3233 -0.1153 -0.1673
  359MPD2    C4 5429   3.553   3.494  12.459 -0.2822  0.6423 -0.1889
  359MPD2    C5 5430   3.668   3.562  12.478  0.1652 -0.2209  0.5628
  359MPD2     H 5431   3.687   3.220  12.309 -1.6317  1.3744 -1.9502
  359MPD2    H1 5432   3.462   3.540  12.496 -1.3677 -2.1458  0.5831
  359MPD2    H2 5433   3.885   3.560  12.478 -1.0520  1.4874  1.9552
  359MPD2    H3 5434   3.662   3.655  12.534  0.0121  1.2058 -1.8095
  359MPD2     N 5435   3.433   3.311  12.383 -0.2293 -0.2666  0.2507
  359MPD2    H5 5436   3.359   3.366  12.427 -0.3533 -1.5139  1.6172
  359MPD2    N1 5437   3.919   3.330  12.324 -0.5789  0.3950  0.9667
  359MPD2    H7 5438   3.912   3.242  12.274  3.0096 -0.6759  2.3844
  360TMC3    C1 5439   4.151   3.296  12.291  0.3087  0.8639  0.4228
  360TMC3    C2 5440   4.269   3.266  12.349  0.7192 -0.3550 -0.4355
  360TMC3    C3 5441   4.368   3.218  12.269  0.4569 -0.4284  0.4228
  360TMC3    C4 5442   4.126   3.250  12.166  0.3280 -0.0079 -0.0220
  360TMC3    C5 5443   4.222   3.188  12.090 -0.8592 -0.5942 -0.2126
  360TMC3    C6 5444   4.347   3.171  12.141 -0.2223  0.9617  0.2244
  360TMC3     C 5445   4.045   3.378  12.354 -0.0764  0.4569  0.1798
  360TMC3     O 5446   4.083   3.478  12.411 -0.0973 -0.2429  0.6761
  360TMC3     H 5447   4.292   3.324  12.438 -0.1203 -0.0384 -0.4292
  360TMC3    H1 5448   4.032   3.264  12.113 -1.5802 -0.5772  3.2047
  360TMC3    H2 5449   4.415   3.136  12.065  1.8564  0.1217  2.4543
  360TMC3    C7 5450   4.180   3.153  11.955  0.0768  0.0770 -0.1222
  360TMC3    C8 5451   4.495   3.188  12.342  0.0465 -0.2623  0.1047
  360TMC3    O1 5452   4.255   3.194  11.870  0.3428 -0.2730  0.2347
  360TMC3    O2 5453   4.504   3.225  12.457 -0.2691 -0.5762  0.1320
  361MPD2     C 5454   1.398   2.162  16.321  0.8722 -0.2515 -0.7664
  361MPD2    C1 5455   1.340   2.155  16.446  0.2002  0.2984 -0.5397
  361MPD2    C2 5456   1.396   2.063  16.541  0.5458 -0.1607  0.1190
  361MPD2    C3 5457   1.508   1.981  16.512  0.5210  0.5438 -0.2607
  361MPD2    C4 5458   1.562   1.996  16.385 -0.1430 -0.4178 -0.8794
  361MPD2    C5 5459   1.510   2.087  16.294 -0.0984 -0.1872 -0.2430
  361MPD2     H 5460   1.353   2.053  16.640 -0.4083 -2.7325 -0.5637
  361MPD2    H1 5461   1.645   1.934  16.354  0.3939  0.8753 -2.0284
  361MPD2    H2 5462   1.355   2.212  16.235  0.5605  0.7350 -0.0257
  361MPD2    H3 5463   1.562   2.092  16.198 -2.2127  0.9753 -1.3227
  361MPD2     N 5464   1.575   1.900  16.607 -0.2254  0.2158 -0.1493
  361MPD2    H5 5465   1.621   1.820  16.565  1.9621  0.8476  1.0751
  361MPD2    N1 5466   1.236   2.238  16.497 -0.2919 -0.8541  1.0361
  361MPD2    H7 5467   1.207   2.215  16.591  1.1057 -0.0107  1.6662
  362TMC3    C1 5468   1.038   2.383  16.505  0.6518  0.1958 -0.4313
  362TMC3    C2 5469   1.060   2.401  16.636 -0.1917  0.2478 -0.9862
  362TMC3    C3 5470   0.964   2.461  16.711 -0.9258 -0.0757 -0.2402
  362TMC3    C4 5471   0.914   2.405  16.442 -0.0918  0.5334 -0.2738
  362TMC3    C5 5472   0.829   2.477  16.522  0.0787 -0.3676  0.4305
  362TMC3    C6 5473   0.850   2.508  16.654 -0.0943  0.2214 -0.2569
  362TMC3     C 5474   1.154   2.332  16.427 -0.4879  0.2248 -0.6335
  362TMC3     O 5475   1.157   2.359  16.308  0.5010  0.2040  0.0051
  362TMC3     H 5476   1.157   2.383  16.681 -1.1895 -0.0399  1.0193
  362TMC3    H1 5477   0.909   2.389  16.335 -0.5051 -2.2800  0.1699
  362TMC3    H2 5478   0.773   2.572  16.696  2.0404  1.4493  1.7851
  362TMC3    C7 5479   0.734   2.555  16.443 -0.7162  0.3830  0.3683
  362TMC3    C8 5480   0.993   2.481  16.849 -0.1878  0.0800  0.0375
  362TMC3    O1 5481   0.703   2.666  16.494  0.2076 -0.2325 -0.0069
  362TMC3    O2 5482   1.113   2.508  16.875 -0.1011  0.3839  0.1984
  363TMC3    C1 5483   4.389   4.335   9.427  0.1741  0.9088  0.3495
  363TMC3    C2 5484   4.475   4.318   9.535  0.0581  0.5039  0.7348
  363TMC3    C3 5485   4.502   4.429   9.608  0.6334  0.2683 -0.2562
  363TMC3    C4 5486   4.330   4.450   9.383  0.7742 -0.4330 -0.2012
  363TMC3    C5 5487   4.357   4.558   9.463 -0.2486  0.7108 -0.6333
  363TMC3    C6 5488   4.447   4.548   9.564 -0.5498 -0.0658 -0.1697
  363TMC3     C 5489   4.333   4.221   9.349 -0.2530  0.2610  0.3687
  363TMC3     O 5490   4.268   4.242   9.248 -0.2807 -0.4722 -0.2671
  363TMC3     H 5491   4.522   4.221   9.541 -1.6463 -0.3021  0.9495
  363TMC3    H1 5492   4.249   4.445   9.311  1.4373  0.5507 -1.0069
  363TMC3    H2 5493   4.472   4.633   9.627 -0.3425 -0.1960 -0.0738
  363TMC3    C7 5494   4.256   4.665   9.446 -0.2705 -0.0188  0.1685
  363TMC3    C8 5495   4.573   4.423   9.736 -0.5004 -0.2515 -0.0042
  363TMC3    O1 5496   4.205   4.670   9.334 -0.2945  0.1785  0.2911
  363TMC3    O2 5497   4.590   4.529   9.795 -0.1950  0.1400 -0.4215
  364MPD2     C 5498   3.124   3.979   9.996  0.7351 -0.3911 -0.3062
  364MPD2    C1 5499   3.149   4.069  10.099  0.6616  1.0520  0.4046
  364MPD2    C2 5500   3.188   4.018  10.218  0.3549  0.1502  0.5762
  364MPD2    C3 5501   3.205   3.877  10.238 -0.7604  0.5663 -0.0512
  364MPD2    C4 5502   3.176   3.788  10.139  0.9858 -0.5686 -0.5722
  364MPD2    C5 5503   3.135   3.841  10.016  0.5469 -0.3670 -0.1082
  364MPD2     H 5504   3.200   4.087  10.301 -0.6478  2.0074 -0.8375
  364MPD2    H1 5505   3.202   3.684  10.159  0.4624 -0.5507  0.1918
  364MPD2    H2 5506   3.089   4.009   9.897 -0.5649 -0.8570  0.0131
  364MPD2    H3 5507   3.101   3.776   9.935 -0.4894  0.1304 -0.0696
  364MPD2     N 5508   3.269   3.822  10.357  0.1250 -0.6605 -0.5897
  364MPD2    H5 5509   3.295   3.724  10.363 -0.1113 -0.6919 -0.0517
  364MPD2    N1 5510   3.133   4.206  10.082  0.0129 -0.0418 -0.3968
  364MPD2    H7 5511   3.166   4.267  10.156 -1.1022  0.2038 -0.1030
  365TMC3    C1 5512   3.102   4.421   9.969  0.2765  0.0281 -1.0202
  365TMC3    C2 5513   3.141   4.473   9.846 -0.7988  0.6539 -0.4897
  365TMC3    C3 5514   3.212   4.584   9.847  0.7581 -0.7359 -0.5843
  365TMC3    C4 5515   3.152   4.474  10.080  0.1435  0.4206 -0.2477
  365TMC3    C5 5516   3.202   4.603  10.071 -0.3009  0.0252 -0.2481
  365TMC3    C6 5517   3.243   4.656   9.955 -0.3240  0.3725  0.0422
  365TMC3     C 5518   3.083   4.274   9.972 -0.0143  0.5862  0.5363
  365TMC3     O 5519   3.051   4.219   9.867 -0.1843 -0.0241 -0.4485
  365TMC3     H 5520   3.075   4.444   9.765 -0.8805 -2.4828  0.7093
  365TMC3    H1 5521   3.128   4.433  10.177 -0.4127  1.1120 -0.0946
  365TMC3    H2 5522   3.280   0.029   9.956 -0.0591  0.2764  0.0986
  365TMC3    C7 5523   3.245   4.677  10.191 -0.2349 -0.3765  0.0968
  365TMC3    C8 5524   3.329   4.563   9.767 -0.2248  0.0821 -0.2522
  365TMC3    O1 5525   3.344   0.024  10.190 -0.6480  0.6653  0.4203
  365TMC3    O2 5526   3.428   4.608   9.824  0.6744 -0.1841  0.0354
  366MPD2     C 5527   1.396   0.375  15.052  0.8754  0.0528 -0.1260
  366MPD2    C1 5528   1.485   0.454  15.115 -0.2323  0.6441  0.7379
  366MPD2    C2 5529   1.598   0.401  15.169  0.2397  0.7547 -0.1772
  366MPD2    C3 5530   1.629   0.267  15.167  0.3294  0.5696 -0.4893
  366MPD2    C4 5531   1.538   0.186  15.099  0.4757  0.1735 -0.7688
  366MPD2    C5 5532   1.421   0.237  15.054 -0.2688 -0.0601 -0.5645
  366MPD2     H 5533   1.669   0.467  15.218 -0.0015 -0.9249  2.4462
  366MPD2    H1 5534   1.546   0.078  15.094 -0.9423  0.1884 -2.9609
  366MPD2    H2 5535   1.309   0.418  15.005 -0.5987 -2.0326  0.7342
  366MPD2    H3 5536   1.347   0.171  15.011 -0.5383 -0.9040  1.1897
  366MPD2     N 5537   1.755   0.218  15.218  0.4113 -0.2044 -0.1238
  366MPD2    H5 5538   1.819   0.280  15.266 -0.4482 -1.7513  2.9704
  366MPD2    N1 5539   1.476   0.596  15.113 -0.4423 -0.1475  0.4719
  366MPD2    H7 5540   1.554   0.649  15.151  0.0226 -0.4305 -0.1014
  367TMC3    C1 5541   1.395   0.809  15.092 -0.4093 -0.6321 -0.6014
  367TMC3    C2 5542   1.494   0.853  15.173  0.4501  0.1699 -0.3750
  367TMC3    C3 5543   1.494   0.983  15.207 -0.4874  0.0273  0.3740
  367TMC3    C4 5544   1.290   0.893  15.059  0.0937  0.2987 -0.1138
  367TMC3    C5 5545   1.296   1.021  15.105 -0.3578 -0.4320  0.1711
  367TMC3    C6 5546   1.388   1.068  15.185 -0.2262  0.5173  0.6044
  367TMC3     C 5547   1.380   0.673  15.045  0.0893  0.8319 -0.2445
  367TMC3     O 5548   1.280   0.645  14.976 -0.0031  0.1404  0.0953
  367TMC3     H 5549   1.569   0.786  15.215 -0.1781 -1.7006 -2.2338
  367TMC3    H1 5550   1.212   0.862  14.990 -0.1971  2.0479 -0.5794
  367TMC3    H2 5551   1.375   1.172  15.215 -0.2673  1.0650 -1.2872
  367TMC3    C7 5552   1.174   1.102  15.086  0.0150 -0.4144  0.8256
  367TMC3    C8 5553   1.591   1.021  15.305  0.2040  0.8389  0.5033
  367TMC3    O1 5554   1.130   1.171  15.178  0.0388 -0.0865 -0.2152
  367TMC3    O2 5555   1.654   0.935  15.363 -0.0297 -0.4169 -0.2086
  368MPD2     C 5556   2.606   2.479  13.505 -0.1914  0.3497  0.0373
  368MPD2    C1 5557   2.551   2.605  13.488 -0.4354 -0.1359  0.5537
  368MPD2    C2 5558   2.634   2.719  13.509 -0.3361 -0.3914  0.3901
  368MPD2    C3 5559   2.761   2.705  13.546 -0.1843 -0.6438 -0.1724
  368MPD2    C4 5560   2.807   2.583  13.587 -0.5358  0.0387  0.3299
  368MPD2    C5 5561   2.726   2.473  13.567  1.2663  0.8313 -0.0326
  368MPD2     H 5562   2.594   2.812  13.468  0.6015  0.7144  1.9738
  368MPD2    H1 5563   2.910   2.568  13.619 -0.2145  0.7764 -0.3543
  368MPD2    H2 5564   2.542   2.392  13.498  2.1480 -1.3688 -0.1870
  368MPD2    H3 5565   2.768   2.377  13.596  0.2923  0.3246 -0.2926
  368MPD2     N 5566   2.855   2.814  13.538 -0.1642  0.6309  0.3324
  368MPD2    H5 5567   2.948   2.796  13.573 -0.1772  0.4889  0.2932
  368MPD2    N1 5568   2.434   2.615  13.421 -1.1739 -0.0099 -0.7335
  368MPD2    H7 5569   2.408   2.527  13.379  2.6713 -0.5334 -2.0288
  369TMC3    C1 5570   2.246   2.724  13.316  0.1292  0.6187 -0.3332
  369TMC3    C2 5571   2.226   2.846  13.246 -0.6827  0.1717  0.2857
  369TMC3    C3 5572   2.189   2.834  13.116  0.3410 -0.2743  0.5354
  369TMC3    C4 5573   2.210   2.601  13.268  0.6736 -0.0621 -0.3023
  369TMC3    C5 5574   2.168   2.595  13.138  0.1059 -0.3226 -0.0084
  369TMC3    C6 5575   2.152   2.712  13.066 -0.2180  0.0526  0.0096
  369TMC3     C 5576   2.357   2.727  13.406 -0.2693 -0.1591 -0.2617
  369TMC3     O 5577   2.371   2.830  13.477  0.0512 -0.3129  0.1999
  369TMC3     H 5578   2.262   2.940  13.287  0.9931 -0.8195  1.0961
  369TMC3    H1 5579   2.240   2.513  13.324 -0.6765 -0.6508 -0.5132
  369TMC3    H2 5580   2.106   2.706  12.967  1.1626  0.1299 -0.6398
  369TMC3    C7 5581   2.135   2.459  13.092 -0.3269 -0.4652 -0.2950
  369TMC3    C8 5582   2.212   2.942  13.017  1.1929  0.0011 -0.4355
  369TMC3    O1 5583   2.129   2.370  13.174  0.4177  0.0099 -0.2286
  369TMC3    O2 5584   2.175   2.927  12.903 -0.3908  0.1654  0.1015
  370TMC3    C1 5585   1.808   2.841  16.052 -0.3463 -0.4928  0.3447
  370TMC3    C2 5586   1.750   2.815  16.174  0.2326 -0.5669  0.4408
  370TMC3    C3 5587   1.721   2.683  16.208 -0.0619 -1.0917 -0.4800
  370TMC3    C4 5588   1.837   2.739  15.971  0.1264  0.3215 -0.4137
  370TMC3    C5 5589   1.781   2.613  15.994 -0.0929  0.7430 -0.6333
  370TMC3    C6 5590   1.727   2.585  16.111  0.1585  0.3598  0.9193
  370TMC3     C 5591   1.915   2.937  16.068  0.5538  0.2818 -0.5964
  370TMC3     O 5592   1.947   2.959  16.181  0.1170  0.4879 -0.0779
  370TMC3     H 5593   1.720   2.891  16.245  0.5535  0.4092 -0.4846
  370TMC3    H1 5594   1.895   2.768  15.884 -2.1780  1.7326 -1.4607
  370TMC3    H2 5595   1.697   2.483  16.132  1.9215 -0.2737  0.3742
  370TMC3    C7 5596   1.786   2.512  15.897 -0.2744  0.2490 -0.2118
  370TMC3    C8 5597   1.760   2.648  16.351  0.1644 -0.3685 -1.3543
  370TMC3    O1 5598   1.696   2.439  15.886  0.1543  0.2941 -0.0698
  370TMC3    O2 5599   1.767   2.525  16.373  0.0525  0.3689 -0.4415
  371TMC3    C1 5600   3.625   1.585  15.375 -0.2984 -0.2480 -1.0104
  371TMC3    C2 5601   3.489   1.560  15.390  0.0441  0.6157 -0.1133
  371TMC3    C3 5602   3.400   1.662  15.373  0.0448  0.0194 -0.8375
  371TMC3    C4 5603   3.676   1.710  15.344 -0.4660  0.0319  0.4219
  371TMC3    C5 5604   3.581   1.813  15.331 -0.3762  0.6007 -0.0108
  371TMC3    C6 5605   3.444   1.788  15.350  0.3433 -0.3707 -0.3952
  371TMC3     C 5606   3.715   1.473  15.385  0.0446 -0.4594 -0.7083
  371TMC3     O 5607   3.834   1.499  15.372  0.1088  0.3856 -0.2463
  371TMC3     H 5608   3.447   1.461  15.379  0.3427  0.3089  1.4758
  371TMC3    H1 5609   3.783   1.724  15.348 -0.0173 -2.8248 -0.7787
  371TMC3    H2 5610   3.385   1.879  15.343 -0.9963 -1.2614 -0.6313
  371TMC3    C7 5611   3.616   1.952  15.298  0.7786 -0.2594 -0.1650
  371TMC3    C8 5612   3.260   1.636  15.394  0.4775 -0.2912  0.0410
  371TMC3    O1 5613   3.556   2.042  15.351 -0.3135  0.2542 -0.8224
  371TMC3    O2 5614   3.232   1.526  15.426  0.1392 -0.1524  0.2144
  372MPD2     C 5615   3.321   2.458  13.052 -0.3569 -0.2716  0.0380
  372MPD2    C1 5616   3.370   2.345  13.112 -0.5413  0.3876 -0.0785
  372MPD2    C2 5617   3.277   2.260  13.173 -0.7691 -0.4332 -0.5157
  372MPD2    C3 5618   3.144   2.294  13.187 -0.0091 -0.4517  0.1628
  372MPD2    C4 5619   3.100   2.411  13.138  0.1174 -0.1917 -0.5230
  372MPD2    C5 5620   3.184   2.489  13.071 -0.5885  0.4154  0.4230
  372MPD2     H 5621   3.307   2.168  13.221  0.0746 -0.4662 -1.0948
  372MPD2    H1 5622   2.995   2.441  13.142  0.8675  2.5401 -1.2760
  372MPD2    H2 5623   3.385   2.526  12.996  0.9080 -2.9384 -1.7588
  372MPD2    H3 5624   3.139   2.581  13.035  1.8542  1.0685 -0.9170
  372MPD2     N 5625   3.065   2.198  13.254 -0.0736 -0.6615  0.5197
  372MPD2    H5 5626   3.109   2.122  13.306 -0.9572 -1.2930  0.3607
  372MPD2    N1 5627   3.507   2.308  13.113  0.4715  0.8556  0.6811
  372MPD2    H7 5628   3.534   2.231  13.173 -0.6580  1.6145  2.1735
  373TMC3    C1 5629   2.885   2.084  13.317 -0.0261  0.1510 -0.2576
  373TMC3    C2 5630   2.841   2.110  13.441  0.2971  0.1727  0.0017
  373TMC3    C3 5631   2.836   2.003  13.528 -0.4666 -0.4520  0.0535
  373TMC3    C4 5632   2.948   1.968  13.290 -0.0999 -0.3644 -0.6832
  373TMC3    C5 5633   2.952   1.866  13.380 -1.2943  0.4965  0.0420
  373TMC3    C6 5634   2.900   1.881  13.504  0.1985 -0.2155 -0.4229
  373TMC3     C 5635   2.928   2.203  13.255  0.7551  0.3333  0.0691
  373TMC3     O 5636   2.845   2.283  13.212 -0.2779  0.8617 -0.0297
  373TMC3     H 5637   2.813   2.213  13.460 -1.5442 -0.2691 -0.2443
  373TMC3    H1 5638   2.975   1.937  13.190  0.1344  2.9486 -1.6286
  373TMC3    H2 5639   2.920   1.805  13.579 -2.4667 -0.3931  0.0822
  373TMC3    C7 5640   3.056   1.768  13.350  0.3078 -0.5033 -0.5716
  373TMC3    C8 5641   2.807   2.046  13.661 -0.5231 -0.3041  0.1626
  373TMC3    O1 5642   3.089   1.765  13.233 -0.4449  0.1942 -0.0714
  373TMC3    O2 5643   2.748   1.964  13.732 -0.3140 -0.5310 -0.4300
  374TMC3    C1 5644   3.402   2.540  10.218  0.4695 -0.3553  1.0429
  374TMC3    C2 5645   3.505   2.626  10.174 -0.0368 -0.3753  0.2666
  374TMC3    C3 5646   3.471   2.752  10.133 -0.5373  0.0678  0.3445
  374TMC3    C4 5647   3.275   2.581  10.237  1.0697 -0.2038 -0.4265
  374TMC3    C5 5648   3.251   2.709  10.212 -0.2064 -0.0615  0.3017
  374TMC3    C6 5649   3.344   2.797  10.162 -0.2607  0.6622 -0.2046
  374TMC3     C 5650   3.430   2.399  10.201 -0.0505 -0.5221 -0.3896
  374TMC3     O 5651   3.550   2.376  10.209 -0.1011 -0.6115  0.1519
  374TMC3     H 5652   3.602   2.576  10.167  0.4586  0.8545 -1.5070
  374TMC3    H1 5653   3.209   2.509  10.285 -3.7234  4.8446  0.5375
  374TMC3    H2 5654   3.323   2.904  10.160  0.7068  0.8622  0.2393
  374TMC3    C7 5655   3.118   2.760  10.249  0.2171 -0.0467 -0.8847
  374TMC3    C8 5656   3.580   2.854  10.112  0.6067 -0.0963  0.4000
  374TMC3    O1 5657   3.037   2.673  10.253 -0.3915 -0.4426  0.1427
  374TMC3    O2 5658   3.549   2.968  10.078  0.0707  0.3524  0.5108
  375MPD2     C 5659   3.453   3.220  16.886 -0.7832  0.6468  0.7481
  375MPD2    C1 5660   3.436   3.291  16.768  0.1517 -0.6616 -0.5158
  375MPD2    C2 5661   3.500   3.239  16.658  0.8197  0.2374  0.0783
  375MPD2    C3 5662   3.577   3.123  16.654  0.0485  0.0833 -0.3675
  375MPD2    C4 5663   3.604   3.066  16.774  0.3948 -0.0536 -0.6759
  375MPD2    C5 5664   3.535   3.113  16.889 -0.6403 -0.4960  0.4160
  375MPD2     H 5665   3.492   3.296  16.566 -1.1404  0.7786  0.6032
  375MPD2    H1 5666   3.651   2.969  16.791 -1.3575 -0.9634 -1.0514
  375MPD2    H2 5667   3.412   3.255  16.981 -2.5259  0.9748 -0.1189
  375MPD2    H3 5668   3.542   3.063  16.985 -0.3393  0.6663  0.9938
  375MPD2     N 5669   3.634   3.067  16.540 -0.5745  0.1183 -0.1736
  375MPD2    H5 5670   3.702   2.994  16.559  0.1273  1.1410  1.2703
  375MPD2    N1 5671   3.357   3.410  16.745  0.0840 -0.8104  0.2458
  375MPD2    H7 5672   3.367   3.459  16.657  1.4220 -1.0043  0.2820
  376TMC3    C1 5673   3.707   3.042  16.321  0.4320 -0.4947 -0.2802
  376TMC3    C2 5674   3.820   2.980  16.366 -0.4355 -0.1289 -0.8100
  376TMC3    C3 5675   3.893   2.909  16.278  0.1345 -0.2129  0.2639
  376TMC3    C4 5676   3.681   3.057  16.183  0.3069 -0.5712 -0.1799
  376TMC3    C5 5677   3.754   2.990  16.098 -0.5274  0.0427 -0.2756
  376TMC3    C6 5678   3.857   2.910  16.144  0.8437  0.3076  0.3724
  376TMC3     C 5679   3.618   3.112  16.413  0.2938  0.7020  0.3020
  376TMC3     O 5680   3.549   3.203  16.369  0.3148  0.3552 -0.4031
  376TMC3     H 5681   3.838   2.980  16.473 -0.7984  2.6669 -0.7293
  376TMC3    H1 5682   3.590   3.101  16.144  0.1057 -0.8171  0.0087
  376TMC3    H2 5683   3.916   2.853  16.074 -0.9587  1.1512 -1.8196
  376TMC3    C7 5684   3.730   3.019  15.963 -0.1800 -0.0020  0.4171
  376TMC3    C8 5685   4.033   2.901  16.312  0.4851 -0.0387  0.5697
  376TMC3    O1 5686   3.709   3.138  15.946  0.0180  0.6295  0.4929
  376TMC3    O2 5687   4.109   2.897  16.213  0.2290  0.1432 -0.3442
  377MPD2     C 5688   1.684   2.870  12.382  0.8625 -0.7090 -0.7043
  377MPD2    C1 5689   1.797   2.883  12.460 -0.1639  0.2405 -0.1646
  377MPD2    C2 5690   1.807   2.828  12.583  0.3243 -0.4312 -0.7269
  377MPD2    C3 5691   1.700   2.757  12.634  0.0848 -0.2656 -0.3495
  377MPD2    C4 5692   1.587   2.736  12.552  1.2861  0.9243 -0.2719
  377MPD2    C5 5693   1.582   2.791  12.432 -0.5314  0.3090 -0.1668
  377MPD2     H 5694   1.896   2.837  12.643 -0.2136  3.2327 -0.4642
  377MPD2    H1 5695   1.495   2.689  12.586  1.4203  0.7404 -0.1633
  377MPD2    H2 5696   1.664   2.923  12.289  0.9246  1.1373  0.3186
  377MPD2    H3 5697   1.493   2.790  12.371 -1.3394  0.7064  1.0024
  377MPD2     N 5698   1.704   2.688  12.753 -0.4487 -0.5532  0.1046
  377MPD2    H5 5699   1.635   2.615  12.763  0.2818 -1.5198 -2.0552
  377MPD2    N1 5700   1.916   2.953  12.414 -0.1996  0.3093 -0.1149
  377MPD2    H7 5701   1.991   2.943  12.481 -0.3976  1.0128  0.2155
  378TMC3    C1 5702   2.196   3.040  12.083 -0.0881  0.3165  0.1370
  378TMC3    C2 5703   2.078   3.086  12.130 -0.4234 -0.6471 -0.1492
  378TMC3    C3 5704   2.061   3.067  12.261  0.1174 -0.2587 -0.0586
  378TMC3    C4 5705   2.305   3.011  12.157 -0.2574  0.1568  0.2685
  378TMC3    C5 5706   2.286   3.018  12.291 -0.1442  0.0799  1.0458
  378TMC3    C6 5707   2.162   3.037  12.343 -0.6511  0.4692  0.0160
  378TMC3     C 5708   2.207   3.033  11.934 -0.2704 -0.1690  0.2256
  378TMC3     O 5709   2.126   3.094  11.863  0.8310  0.6170 -0.3674
  378TMC3     H 5710   2.001   3.115  12.059 -1.8935  0.1424  1.7881
  378TMC3    H1 5711   2.406   3.026  12.122  0.1271 -2.2545  0.3662
  378TMC3    H2 5712   2.141   3.023  12.448 -0.5291  1.7353  0.2035
  378TMC3    C7 5713   2.391   2.978  12.388 -0.4739  0.0380 -0.1388
  378TMC3    C8 5714   1.922   3.027  12.298  0.1907 -0.5443 -0.4473
  378TMC3    O1 5715   2.357   2.978  12.505  0.2546 -0.3144  0.4135
  378TMC3    O2 5716   1.832   3.051  12.217 -0.2929 -0.1714 -0.2029
  379MPD2     C 5717   2.706   1.134  16.033 -0.0030  0.6480 -0.1423
  379MPD2    C1 5718   2.605   1.062  16.095 -0.4959 -0.1311  0.8324
  379MPD2    C2 5719   2.631   0.993  16.217 -0.3114 -0.0978 -0.1869
  379MPD2    C3 5720   2.759   0.994  16.268 -0.0735 -0.0562 -0.1580
  379MPD2    C4 5721   2.854   1.073  16.205 -0.4172 -0.7879  0.5848
  379MPD2    C5 5722   2.829   1.144  16.092 -0.5055 -0.0175 -1.0382
  379MPD2     H 5723   2.550   0.946  16.271  0.9878 -0.4862  1.4394
  379MPD2    H1 5724   2.952   1.085  16.250  0.0590  1.6256 -1.0784
  379MPD2    H2 5725   2.680   1.182  15.940 -0.6828 -3.0219 -1.8638
  379MPD2    H3 5726   2.912   1.202  16.054  0.5786 -1.2741 -0.5856
  379MPD2     N 5727   2.798   0.929  16.390 -0.5074 -0.3759  0.1090
  379MPD2    H5 5728   2.897   0.939  16.410 -0.2466 -0.6226 -1.0818
  379MPD2    N1 5729   2.486   1.050  16.020  0.0506  0.1665  0.3207
  379MPD2    H7 5730   2.496   1.093  15.928  0.1498 -0.6252 -0.0394
  380TMC3    C1 5731   2.279   0.992  15.935 -0.1689  0.2785 -0.0496
  380TMC3    C2 5732   2.326   0.927  15.822 -0.4397  0.1401 -0.0283
  380TMC3    C3 5733   2.239   0.914  15.717 -0.6098 -0.0699 -0.3963
  380TMC3    C4 5734   2.157   1.060  15.939  0.2645 -0.2231 -0.3225
  380TMC3    C5 5735   2.085   1.052  15.826 -0.2001  0.4287  0.3462
  380TMC3    C6 5736   2.114   0.974  15.719 -0.0432  0.3672 -0.0230
  380TMC3     C 5737   2.368   0.999  16.050 -0.1796 -0.0145 -0.3667
  380TMC3     O 5738   2.334   0.942  16.157 -0.4161 -0.0623 -0.3688
  380TMC3     H 5739   2.427   0.888  15.818 -0.9608 -1.3128  0.8446
  380TMC3    H1 5740   2.146   1.134  16.018  0.0789  0.5872 -1.1103
  380TMC3    H2 5741   2.043   0.952  15.640  0.6927  0.8413 -0.8238
  380TMC3    C7 5742   1.994   1.162  15.799  0.3417  0.6434 -0.1639
  380TMC3    C8 5743   2.299   0.907  15.590  0.3569 -0.4190 -0.7807
  380TMC3    O1 5744   2.022   1.269  15.855 -0.6840 -0.4031 -0.1078
  380TMC3    O2 5745   2.418   0.934  15.578 -0.3227 -0.0973 -0.2716
  381TMC3    C1 5746   1.867   2.125  16.097  0.8522  0.1678  0.2526
  381TMC3    C2 5747   1.904   2.250  16.090 -0.6474  0.3273  0.4169
  381TMC3    C3 5748   1.943   2.317  16.203  0.2289  0.1336  0.0831
  381TMC3    C4 5749   1.859   2.055  16.218  0.0871 -0.5254  0.0289
  381TMC3    C5 5750   1.884   2.121  16.332  0.3216 -0.0923  0.2076
  381TMC3    C6 5751   1.935   2.253  16.328 -0.4564  0.5226 -0.6846
  381TMC3     C 5752   1.918   2.045  15.986  0.2781  0.5594  0.5482
  381TMC3     O 5753   1.883   1.933  15.986 -0.5321  0.0587  0.7283
  381TMC3     H 5754   1.894   2.300  15.994 -0.6460  0.2637  0.3838
  381TMC3    H1 5755   1.818   1.954  16.218 -1.4117  0.0765 -1.1521
  381TMC3    H2 5756   1.990   2.296  16.411  2.5605 -2.1976 -1.2285
  381TMC3    C7 5757   1.910   2.052  16.457 -0.1188  0.4078 -0.2663
  381TMC3    C8 5758   2.056   2.400  16.168  0.1836  0.2695  0.4124
  381TMC3    O1 5759   1.915   1.932  16.452  0.4155  0.1488  0.2434
  381TMC3    O2 5760   2.099   2.382  16.055 -0.0802  0.0081  0.3053
  382MPD2     C 5761   1.118   4.482  16.822 -0.1017  0.2036  0.5429
  382MPD2    C1 5762   1.220   4.478  16.919 -0.2233 -0.5886  0.0469
  382MPD2    C2 5763   1.236   4.362  16.996 -0.3223  1.0882  0.3655
  382MPD2    C3 5764   1.164   4.244  16.972  0.4064  0.0063  0.8149
  382MPD2    C4 5765   1.075   4.247  16.861  0.3094  0.7076  0.2289
  382MPD2    C5 5766   1.048   4.366  16.797 -0.7162  0.2605  0.4402
  382MPD2     H 5767   1.307   4.355  17.078 -0.1967  0.6769  0.2200
  382MPD2    H1 5768   1.015   4.160  16.836 -1.1571  1.6467  0.4694
  382MPD2    H2 5769   1.079   4.580  16.795 -0.2730  0.3829  1.4298
  382MPD2    H3 5770   0.962   4.367  16.731 -1.1288  1.1294  0.9889
  382MPD2     N 5771   1.168   4.125  17.052  0.9647  0.2541  0.2204
  382MPD2    H5 5772   1.101   4.054  17.024 -0.2019  1.3335  0.3371
  382MPD2    N1 5773   1.294   4.596  16.956 -0.5031 -0.2648 -0.2382
  382MPD2    H7 5774   1.356   4.574  17.033 -1.9031 -2.8283  0.1579
  383TMC3    C1 5775   1.241   3.958  17.213 -0.2528 -0.0925 -1.0564
  383TMC3    C2 5776   1.121   3.885  17.209 -0.1225 -0.3838  0.6593
  383TMC3    C3 5777   1.136   3.750  17.246  0.3170 -0.1503  0.0150
  383TMC3    C4 5778   1.355   3.909  17.269  0.4405  0.1721 -0.0992
  383TMC3    C5 5779   1.350   3.788  17.322  0.3250  0.0790 -0.2167
  383TMC3    C6 5780   1.246   3.699  17.307 -0.1086 -0.0633 -0.0169
  383TMC3     C 5781   1.263   4.090  17.152  0.1926  0.9696 -0.0374
  383TMC3     O 5782   1.366   4.144  17.191  0.1805 -0.0533  0.2070
  383TMC3     H 5783   1.030   3.926  17.166 -0.1776 -1.1817  0.0250
  383TMC3    H1 5784   1.454   3.944  17.242  0.8266 -0.4370  0.5144
  383TMC3    H2 5785   1.255   3.601  17.353 -4.2409 -1.8360 -3.0190
  383TMC3    C7 5786   1.461   3.753  17.402 -0.6924 -0.3608 -0.3389
  383TMC3    C8 5787   1.006   3.686  17.263  0.0161  0.7288 -0.7994
  383TMC3    O1 5788   1.490   3.635  17.405  0.6697 -0.0090 -0.5903
  383TMC3    O2 5789   0.908   3.757  17.241 -0.0419 -0.4604  0.0866
  384MPD2     C 5790   2.650   0.735  11.817  0.3782 -0.0530  0.0903
  384MPD2    C1 5791   2.781   0.755  11.870  0.6073 -1.0171  0.2115
  384MPD2    C2 5792   2.876   0.658  11.837  0.2920 -0.3701  0.2069
  384MPD2    C3 5793   2.850   0.553  11.751 -0.9064 -0.2975 -0.5731
  384MPD2    C4 5794   2.722   0.530  11.711  0.5183  0.3202 -0.2911
  384MPD2    C5 5795   2.622   0.624  11.743 -0.5940 -0.6396 -0.0829
  384MPD2     H 5796   2.972   0.659  11.887  0.7065  1.3089 -0.5808
  384MPD2    H1 5797   2.707   0.451  11.638  1.3365  1.0513 -1.2453
  384MPD2    H2 5798   2.571   0.807  11.837  1.0822  0.2647  1.7122
  384MPD2    H3 5799   2.522   0.618  11.700 -0.5816  0.0282 -0.2106
  384MPD2     N 5800   2.957   0.473  11.712  0.0842 -0.4315  0.5002
  384MPD2    H5 5801   3.048   0.492  11.754  1.2009 -2.6071 -0.9358
  384MPD2    N1 5802   2.802   0.854  11.968 -0.5562  0.1986  0.3746
  384MPD2    H7 5803   2.723   0.896  12.016 -0.0346 -1.8230  3.0403
  385TMC3    C1 5804   3.084   0.302  11.616  0.6456  0.6895 -0.3330
  385TMC3    C2 5805   3.105   0.177  11.659 -0.2862  0.2083  0.2456
  385TMC3    C3 5806   3.219   0.151  11.726 -0.0418 -0.1568  0.4573
  385TMC3    C4 5807   3.182   0.394  11.626  0.6089  0.1281  0.0260
  385TMC3    C5 5808   3.291   0.374  11.712  0.3397  0.1724  0.4196
  385TMC3    C6 5809   3.306   0.251  11.768  0.7207  0.1211 -0.2543
  385TMC3     C 5810   2.953   0.362  11.630 -0.1788 -0.0695  1.0515
  385TMC3     O 5811   2.858   0.304  11.580  0.3382 -0.2549 -0.2095
  385TMC3     H 5812   3.023   0.106  11.662 -0.8950  0.9868  1.7246
  385TMC3    H1 5813   3.162   0.495  11.591  0.4631 -0.3620 -1.2848
  385TMC3    H2 5814   3.404   0.227  11.807  0.8509  2.8127  1.0628
  385TMC3    C7 5815   3.302   0.485  11.806 -0.0189  0.7381 -0.0016
  385TMC3    C8 5816   3.283   0.027  11.715 -0.6790 -0.5456  0.5443
  385TMC3    O1 5817   3.218   0.570  11.796  0.0936  0.3404  0.1076
  385TMC3    O2 5818   3.353   4.721  11.810  0.0018 -0.3650 -0.8478
  386TMC3    C1 5819   3.153   2.801  11.840  0.1085 -0.4407  0.2197
  386TMC3    C2 5820   3.134   2.751  11.714 -0.0813 -0.2700  0.3627
  386TMC3    C3 5821   3.003   2.759  11.668  0.5799  0.4465  0.3478
  386TMC3    C4 5822   3.050   2.851  11.912  0.7349  0.1747  0.1536
  386TMC3    C5 5823   2.921   2.856  11.864  0.5185 -0.2385 -0.6318
  386TMC3    C6 5824   2.901   2.816  11.738 -0.5066  0.8273 -0.0422
  386TMC3     C 5825   3.278   2.771  11.919 -0.3369  0.7217  0.1378
  386TMC3     O 5826   3.281   2.818  12.032  0.1411 -0.4280 -0.0450
  386TMC3     H 5827   3.218   2.732  11.648 -0.6041  2.8931 -1.1780
  386TMC3    H1 5828   3.057   2.891  12.012  1.6522 -1.9676  0.9637
  386TMC3    H2 5829   2.803   2.819  11.691 -2.0286 -2.0291  2.9599
  386TMC3    C7 5830   2.843   2.960  11.927  0.4977 -0.6727  0.3387
  386TMC3    C8 5831   2.974   2.715  11.532 -0.2498 -1.1951 -0.0917
  386TMC3    O1 5832   2.826   2.965  12.049  0.3521 -0.3624 -0.3913
  386TMC3    O2 5833   2.867   2.732  11.479  0.0023  0.1129 -0.3352
  387MPD2     C 5834   4.570   1.898   9.641  0.1266  0.3646 -0.5032
  387MPD2    C1 5835   4.702   1.934   9.636  0.1671  0.0821  0.5627
  387MPD2    C2 5836   0.065   1.827   9.638  0.0372 -0.3232 -0.3031
  387MPD2    C3 5837   0.026   1.694   9.667  0.1962 -0.6694  0.2296
  387MPD2    C4 5838   4.621   1.662   9.669  0.3282  0.0846  0.2035
  387MPD2    C5 5839   4.533   1.763   9.644 -0.3886 -0.0317  0.2702
  387MPD2     H 5840   0.170   1.854   9.642  0.1594 -1.2718  2.6040
  387MPD2    H1 5841   4.599   1.556   9.679  0.9819 -0.0105  0.6556
  387MPD2    H2 5842   4.495   1.976   9.649  1.0120  1.1559  0.0610
  387MPD2    H3 5843   4.427   1.741   9.649 -0.5706  0.7852  0.0972
  387MPD2     N 5844   0.131   1.606   9.691 -1.3474  0.4005  0.0707
  387MPD2    H5 5845   0.224   1.646   9.686 -0.9544 -0.3805  1.2183
  387MPD2    N1 5846   0.031   2.066   9.638 -0.1649  0.8261  0.1336
  387MPD2    H7 5847   0.132   2.075   9.649 -0.4398  1.7165  1.9991
  388TMC3    C1 5848   0.034   2.289   9.681 -0.3354  0.3810 -0.5344
  388TMC3    C2 5849   0.015   2.414   9.627  0.2514  0.7012  0.1487
  388TMC3    C3 5850   0.106   2.505   9.663 -0.6062  0.5109  0.2738
  388TMC3    C4 5851   0.152   2.254   9.740  0.4468  0.6864 -0.4833
  388TMC3    C5 5852   0.249   2.352   9.757  0.0268  0.4852 -0.6430
  388TMC3    C6 5853   0.222   2.482   9.728 -0.1610  0.0139  0.0064
  388TMC3     C 5854   4.681   2.177   9.638  0.3400  0.5497 -0.0797
  388TMC3     O 5855   4.566   2.188   9.593  0.0821 -0.7053 -0.3727
  388TMC3     H 5856   4.658   2.435   9.565 -0.9087  0.9719  1.8570
  388TMC3    H1 5857   0.154   2.173   9.811  0.2632  1.0122 -0.1096
  388TMC3    H2 5858   0.293   2.559   9.754  2.4157 -2.8683  1.5153
  388TMC3    C7 5859   0.367   2.319   9.834 -0.2440  0.4950 -0.5717
  388TMC3    C8 5860   0.088   2.643   9.614  0.9274 -0.2387 -0.4878
  388TMC3    O1 5861   0.442   2.407   9.881 -0.1190 -0.5186  0.0384
  388TMC3    O2 5862   4.729   2.659   9.532 -0.2033  0.1239  0.1113
  389MPD2     C 5863   0.270   0.607  10.650  0.3093  0.2352 -1.5804
  389MPD2    C1 5864   0.236   0.737  10.676  0.7140  0.0941  0.1535
  389MPD2    C2 5865   0.186   0.773  10.806 -0.1795 -0.2252  0.5381
  389MPD2    C3 5866   0.150   0.672  10.894 -0.8158 -0.3940  0.2468
  389MPD2    C4 5867   0.179   0.538  10.859 -0.2867  0.4188 -0.5232
  389MPD2    C5 5868   0.248   0.506  10.745  0.3423 -0.2813 -0.5030
  389MPD2     H 5869   0.167   0.873  10.842 -0.5691  0.0368 -0.4030
  389MPD2    H1 5870   0.147   0.458  10.925  0.1699  0.7351  0.0848
  389MPD2    H2 5871   0.315   0.576  10.557  1.9357  0.6590 -0.9337
  389MPD2    H3 5872   0.270   0.407  10.706  0.0100 -0.5068 -0.1183
  389MPD2     N 5873   0.089   0.709  11.015 -0.1043  0.3137 -0.0635
  389MPD2    H5 5874   0.056   0.634  11.075  0.7116 -0.8836 -1.1295
  389MPD2    N1 5875   0.243   0.830  10.577 -0.0574 -1.0384  0.5004
  389MPD2    H7 5876   0.271   0.792  10.487  0.4376 -1.5683  0.8791
  390TMC3    C1 5877   0.030   0.819  11.214 -0.8703  0.1603  0.4969
  390TMC3    C2 5878   0.047   0.703  11.290  0.1245 -0.1644 -0.0727
  390TMC3    C3 5879   0.002   0.693  11.414 -0.8949 -0.1254 -0.1808
  390TMC3    C4 5880   4.683   0.921  11.268 -0.2743  0.4592  0.4415
  390TMC3    C5 5881   4.628   0.903  11.397  0.1593 -0.8306  0.6457
  390TMC3    C6 5882   4.654   0.795  11.473 -0.5724 -0.1967 -0.4398
  390TMC3     C 5883   0.074   0.834  11.076 -0.4045  0.4157  0.1491
  390TMC3     O 5884   0.084   0.951  11.037 -0.4161  0.1294 -0.0867
  390TMC3     H 5885   0.117   0.630  11.251  0.6671  0.2788  0.0597
  390TMC3    H1 5886   4.673   1.014  11.214  1.0368  0.0715 -0.4704
  390TMC3    H2 5887   4.623   0.788  11.577  1.3218  0.7935  0.2069
  390TMC3    C7 5888   4.563   1.018  11.447  0.0189  0.0513 -0.2652
  390TMC3    C8 5889   4.716   0.562  11.469  0.0833  0.0108 -0.4225
  390TMC3    O1 5890   4.592   1.123  11.385 -0.2489 -0.0150 -0.4451
  390TMC3    O2 5891   4.698   0.474  11.382 -0.2513 -0.5835 -0.4178
  391MPD2     C 5892   3.854   2.747  11.307 -0.0767 -0.4290 -0.3683
  391MPD2    C1 5893   3.992   2.762  11.322  0.1300  0.3477  1.0703
  391MPD2    C2 5894   4.067   2.760  11.203  0.2823  0.7325 -0.5530
  391MPD2    C3 5895   4.014   2.763  11.079 -0.1714 -0.8505  0.5856
  391MPD2    C4 5896   3.880   2.749  11.065 -0.5360  0.3122  0.4041
  391MPD2    C5 5897   3.796   2.741  11.179 -0.9198  0.0285  0.0513
  391MPD2     H 5898   4.175   2.773  11.212  0.2271 -0.4119  1.9816
  391MPD2    H1 5899   3.835   2.744  10.966 -0.2256  0.5539  0.2480
  391MPD2    H2 5900   3.789   2.730  11.391  2.4080 -0.2149  1.5838
  391MPD2    H3 5901   3.689   2.740  11.161 -0.5467 -2.0777 -2.0507
  391MPD2     N 5902   4.103   2.752  10.964 -0.3985  0.2347  0.3657
  391MPD2    H5 5903   4.201   2.758  10.988 -0.0230 -1.4560 -0.7918
  391MPD2    N1 5904   4.056   2.747  11.449 -0.1722 -0.7520 -0.6782
  391MPD2    H7 5905   3.996   2.729  11.529 -0.5325 -2.6073 -1.3567
  392TMC3    C1 5906   4.177   2.703  10.739  0.5002 -0.5099 -1.0575
  392TMC3    C2 5907   4.128   2.681  10.613  0.4705 -0.4300 -0.3581
  392TMC3    C3 5908   4.218   2.699  10.515 -0.7266  0.6362 -0.3948
  392TMC3    C4 5909   4.305   2.732  10.769 -1.0962  0.2990 -0.8302
  392TMC3    C5 5910   4.388   2.749  10.661 -0.3197  0.4517  0.3011
  392TMC3    C6 5911   4.347   2.739  10.530  0.2677  0.0180 -0.0192
  392TMC3     C 5912   4.072   2.711  10.835 -0.9605  0.0555  0.3805
  392TMC3     O 5913   3.960   2.695  10.788 -0.4355  0.3639 -0.2579
  392TMC3     H 5914   4.030   2.641  10.592  0.7786 -1.2842 -0.1985
  392TMC3    H1 5915   4.347   2.731  10.868  1.3897  0.8455 -1.8855
  392TMC3    H2 5916   4.411   2.737  10.443  0.2980 -1.0052  0.0164
  392TMC3    C7 5917   4.516   2.811  10.685 -0.5899 -0.4340  0.4281
  392TMC3    C8 5918   4.162   2.704  10.382 -0.1798  0.2626  0.0245
  392TMC3    O1 5919   4.567   2.772  10.790  0.0396  0.1074 -0.7421
  392TMC3    O2 5920   4.097   2.608  10.346  0.4093 -0.3451 -0.6171
  393TMC3    C1 5921   3.723   0.734  10.625  0.7417  0.7327  0.4389
  393TMC3    C2 5922   3.607   0.738  10.706 -0.4400  0.3864  0.5364
  393TMC3    C3 5923   3.582   0.635  10.791  0.1747  0.6944  0.0457
  393TMC3    C4 5924   3.816   0.641  10.645 -0.3615 -0.0997  0.4542
  393TMC3    C5 5925   3.786   0.542  10.739  0.5622  0.3914 -0.4013
  393TMC3    C6 5926   3.669   0.534  10.808 -0.8970  0.1204 -0.3089
  393TMC3     C 5927   3.750   0.851  10.554  0.1886  0.2561 -0.6179
  393TMC3     O 5928   3.866   0.887  10.533 -0.5636  0.2511 -0.2118
  393TMC3     H 5929   3.535   0.815  10.682 -1.1042 -0.5866 -0.6036
  393TMC3    H1 5930   3.910   0.647  10.591 -1.4988  0.8014 -1.4382
  393TMC3    H2 5931   3.642   0.448  10.868 -0.0029  0.1619  0.1664
  393TMC3    C7 5932   3.876   0.440  10.754 -0.3751  0.5549 -0.0403
  393TMC3    C8 5933   3.448   0.607  10.841  0.4141 -0.8958 -0.2042
  393TMC3    O1 5934   3.853   0.361  10.844  0.4303  0.3515 -0.2062
  393TMC3    O2 5935   3.414   0.490  10.866 -0.2434  0.3152 -0.4256
  394TMC3    C1 5936   0.212   1.028  10.449  0.2497  0.3081 -0.1336
  394TMC3    C2 5937   0.164   0.951  10.351 -0.1397  0.2538 -0.0405
  394TMC3    C3 5938   0.159   1.000  10.227 -0.2644  0.2516 -0.3332
  394TMC3    C4 5939   0.249   1.157  10.428  0.3730  0.3680  0.0423
  394TMC3    C5 5940   0.230   1.201  10.295  0.6013  0.8894 -0.6343
  394TMC3    C6 5941   0.188   1.127  10.190 -0.2955 -0.5948  0.4434
  394TMC3     C 5942   0.227   0.967  10.584  0.5331 -0.3425 -0.3564
  394TMC3     O 5943   0.241   1.036  10.687  0.0904  0.3994  0.1190
  394TMC3     H 5944   0.129   0.851  10.373 -0.6678  0.2958 -0.6870
  394TMC3    H1 5945   0.295   1.223  10.501  2.5510 -0.8855 -0.2011
  394TMC3    H2 5946   0.194   1.157  10.086  0.1391 -1.2239  0.2901
  394TMC3    C7 5947   0.280   1.333  10.272 -0.6188  0.5958 -1.0298
  394TMC3    C8 5948   0.110   0.906  10.123 -0.5590 -0.4439 -0.1180
  394TMC3    O1 5949   0.355   1.372  10.358 -0.3554 -0.6415 -0.0464
  394TMC3    O2 5950   0.051   0.943  10.023 -0.3537  0.0551 -0.2579
  395TMC3    C1 5951   4.453   3.175  14.605 -0.1649 -0.3091 -0.5592
  395TMC3    C2 5952   4.358   3.177  14.506  1.0009  0.9660  0.2764
  395TMC3    C3 5953   4.358   3.288  14.427  0.2965  0.0372  0.4733
  395TMC3    C4 5954   4.545   3.271  14.618 -0.0611 -0.0342  0.4204
  395TMC3    C5 5955   4.554   3.366  14.532 -0.0995  0.1400  0.0795
  395TMC3    C6 5956   4.457   3.382  14.431  0.2474 -0.0002  0.1345
  395TMC3     C 5957   4.422   3.107  14.727 -0.1580 -0.2237  0.0742
  395TMC3     O 5958   4.460   3.158  14.835 -0.2883 -0.0901  0.2229
  395TMC3     H 5959   4.261   3.130  14.523  1.1518  0.1907 -0.9483
  395TMC3    H1 5960   4.615   3.272  14.701  0.2984  1.7681  0.1112
  395TMC3    H2 5961   4.447   3.476  14.377  0.6302  0.3122  0.6177
  395TMC3    C7 5962   4.656   3.465  14.550  0.2092  0.3806 -0.5176
  395TMC3    C8 5963   4.234   3.324  14.373 -0.3914 -0.3169  0.4090
  395TMC3    O1 5964   4.690   3.493  14.666  0.3103 -0.5712  0.2284
  395TMC3    O2 5965   4.203   3.438  14.393 -1.2550 -0.1459  0.0359
  396MPD2     C 5966   4.151   3.942  16.994 -0.3258 -0.8373 -0.1154
  396MPD2    C1 5967   4.281   3.963  17.039 -0.3066 -0.4447  0.6967
  396MPD2    C2 5968   4.356   4.069  16.993 -0.0877  0.2035  0.2471
  396MPD2    C3 5969   4.315   4.136  16.878 -0.5055  0.1000  0.2896
  396MPD2    C4 5970   4.197   4.093  16.815  0.3492  0.0719 -0.4302
  396MPD2    C5 5971   4.113   3.999  16.873  0.5419 -0.6888  0.2221
  396MPD2     H 5972   4.459   4.082  17.022  0.0512  2.4341 -1.2439
  396MPD2    H1 5973   4.161   4.136  16.721  0.3143  1.1541  0.0755
  396MPD2    H2 5974   4.084   3.867  17.033  0.7426 -2.3951 -1.2639
  396MPD2    H3 5975   4.018   3.987  16.823 -0.1928 -0.2238  1.5378
  396MPD2     N 5976   4.384   4.246  16.846  0.2720  0.0158 -0.4329
  396MPD2    H5 5977   4.463   4.273  16.903  0.9784 -1.0722 -0.9060
  396MPD2    N1 5978   4.307   3.885  17.149  0.6426  0.6375  1.0093
  396MPD2    H7 5979   4.242   3.812  17.177 -0.0758  1.6697  2.0225
  397TMC3    C1 5980   4.440   3.805  17.331  0.2800 -0.2044 -0.2538
  397TMC3    C2 5981   4.551   3.724  17.320 -0.3170  0.3459  0.2270
  397TMC3    C3 5982   4.540   3.589  17.331  0.0847 -0.6127  0.3164
  397TMC3    C4 5983   4.317   3.747  17.374 -0.2537 -0.0175 -0.0254
  397TMC3    C5 5984   4.323   3.613  17.406  0.3839  0.3610 -0.2234
  397TMC3    C6 5985   4.434   3.534  17.396  0.7232  0.1692 -0.1339
  397TMC3     C 5986   4.432   3.897  17.213 -0.7009  0.2229 -0.3037
  397TMC3     O 5987   4.540   3.936  17.177  0.2654 -0.1607  0.0119
  397TMC3     H 5988   4.643   3.768  17.285 -0.0768  0.9500  1.6202
  397TMC3    H1 5989   4.227   3.806  17.390 -0.2892  0.1707 -0.9373
  397TMC3    H2 5990   4.426   3.429  17.419 -0.2023  0.1288 -0.6362
  397TMC3    C7 5991   4.217   3.562  17.483  0.0777  0.0043  0.0272
  397TMC3    C8 5992   4.550   3.520  17.204 -0.6327 -0.2091  0.1958
  397TMC3    O1 5993   4.106   3.606  17.460 -0.1261 -0.3146 -0.2107
  397TMC3    O2 5994   4.515   3.403  17.203 -0.3434 -0.0465  0.4068
  398MPD2     C 5995   2.448   0.749   0.152 -0.1078 -0.1913  0.0775
  398MPD2    C1 5996   2.565   0.688   0.173 -0.4384  0.1958 -0.8050
  398MPD2    C2 5997   2.679   0.765   0.184  0.0473  0.7588  0.1403
  398MPD2    C3 5998   2.677   0.902   0.175 -0.6152 -0.7248  0.4648
  398MPD2    C4 5999   2.554   0.963   0.156  0.7461  0.6501 -0.3652
  398MPD2    C5 6000   2.446   0.880   0.150 -0.5564 -0.5729  0.9409
  398MPD2     H 6001   2.775   0.716   0.196  0.4973  1.4184 -0.7666
  398MPD2    H1 6002   2.549   1.070   0.144  1.4527  0.9063  1.5273
  398MPD2    H2 6003   2.351   0.702   0.150 -0.3204  0.3118 -1.0107
  398MPD2    H3 6004   2.349   0.922   0.129 -0.4971 -0.6031  0.5997
  398MPD2     N 6005   2.798   0.969   0.178 -0.3818  0.0980 -0.1988
  398MPD2    H5 6006   2.881   0.922   0.211  0.5911  1.7732 -0.2482
  398MPD2    N1 6007   2.577   0.542   0.172 -1.2214 -0.0594  0.7261
  398MPD2    H7 6008   2.668   0.497   0.170 -0.5950  1.1748  0.8527
  399TMC3    C1 6009   2.523   0.316   0.172  0.5113  0.4365  0.3659
  399TMC3    C2 6010   2.633   0.306   0.257 -0.2423 -0.1237  0.2244
  399TMC3    C3 6011   2.650   0.180   0.307  0.7282  0.3132 -0.3279
  399TMC3    C4 6012   2.432   0.216   0.142 -0.5136 -0.5042 -0.0432
  399TMC3    C5 6013   2.456   0.098   0.204  0.6957 -0.1948 -0.4372
  399TMC3    C6 6014   2.558   0.083   0.294  0.0024  0.0378  0.4344
  399TMC3     C 6015   2.473   0.452   0.165  0.3557 -0.9126  0.3155
  399TMC3     O 6016   2.352   0.475   0.163  0.2357  1.3282  0.1337
  399TMC3     H 6017   2.700   0.382   0.296  1.5882 -1.1171 -1.0190
  399TMC3    H1 6018   2.369   0.216   0.054  0.0969 -0.9524 -0.4764
  399TMC3    H2 6019   2.571   4.720   0.350  1.9334  0.4864  0.7525
  399TMC3    C7 6020   2.362   4.723   0.167 -0.3870  0.4337 -0.1340
  399TMC3    C8 6021   2.787   0.149   0.353 -0.1957  0.3973 -0.0539
  399TMC3    O1 6022   2.409   4.611   0.181  0.1290  0.4830  0.0257
  399TMC3    O2 6023   2.852   0.245   0.395 -0.2153  0.0961  0.5657
  400TMC3    C1 6024   1.003   3.556  16.870 -0.1458 -0.0991 -0.1866
  400TMC3    C2 6025   0.892   3.473  16.897  0.1463 -0.7359 -0.3393
  400TMC3    C3 6026   0.767   3.533  16.900 -0.5949  0.1310  0.5600
  400TMC3    C4 6027   0.984   3.690  16.882  0.6072 -0.1526  0.3143
  400TMC3    C5 6028   0.862   3.742  16.907 -0.2322  0.2448 -0.2696
  400TMC3    C6 6029   0.754   3.667  16.911 -0.7566 -0.1608 -0.1923
  400TMC3     C 6030   1.126   3.500  16.914 -0.2098 -0.0415 -0.7066
  400TMC3     O 6031   1.120   3.384  16.955 -0.2457 -0.0084  0.4460
  400TMC3     H 6032   0.905   3.366  16.890  0.3387 -0.3748 -5.3788
  400TMC3    H1 6033   1.068   3.757  16.869 -1.1742  1.9565 -0.2489
  400TMC3    H2 6034   0.659   3.713  16.937 -1.9948 -0.8164 -3.5889
  400TMC3    C7 6035   0.844   3.890  16.929  0.0774 -0.1660 -0.5381
  400TMC3    C8 6036   0.653   3.461  16.855 -0.4257  1.0948  0.1285
  400TMC3    O1 6037   0.948   3.948  16.946  0.6642  0.6657 -0.4654
  400TMC3    O2 6038   0.567   3.534  16.812  0.0296 -0.2021  0.1782
  401MPD2     C 6039   4.114   2.351   1.083 -0.0832 -0.3612 -0.1343
  401MPD2    C1 6040   4.232   2.290   1.059  0.0378 -0.2165 -0.0198
  401MPD2    C2 6041   4.219   2.165   1.006  0.3320  0.4353 -0.2093
  401MPD2    C3 6042   4.100   2.105   0.968  0.4807  0.7876  0.1547
  401MPD2    C4 6043   3.984   2.175   0.985 -0.1153 -0.1798 -0.1632
  401MPD2    C5 6044   3.991   2.305   1.040  0.2214 -0.1196  0.1690
  401MPD2     H 6045   4.309   2.107   0.994  0.4691  0.5370  0.3073
  401MPD2    H1 6046   3.888   2.129   0.963 -0.8607  0.6131  1.4625
  401MPD2    H2 6047   4.118   2.447   1.133 -1.3137  0.5025 -1.6956
  401MPD2    H3 6048   3.894   2.354   1.046  1.2781  1.6813  2.6232
  401MPD2     N 6049   4.098   1.969   0.919  0.2688  0.2566  0.3294
  401MPD2    H5 6050   4.186   1.921   0.900  0.5484 -0.5152  3.6342
  401MPD2    N1 6051   4.357   2.335   1.103  0.7185  0.0864 -0.4595
  401MPD2    H7 6052   4.433   2.283   1.062  1.0250  0.0805  0.1218
  402TMC3    C1 6053   4.026   1.757   0.840 -0.0768 -0.4085  0.0181
  402TMC3    C2 6054   4.143   1.699   0.883 -0.4154  0.6333  0.4625
  402TMC3    C3 6055   4.166   1.568   0.853  0.1231  0.0936 -0.0172
  402TMC3    C4 6056   3.919   1.683   0.789 -0.6952 -0.2198 -0.1968
  402TMC3    C5 6057   3.949   1.551   0.765  0.1369  0.5429 -0.2808
  402TMC3    C6 6058   4.066   1.486   0.790 -0.6605 -0.9676  0.1554
  402TMC3     C 6059   3.992   1.901   0.873 -0.5945 -0.9009  0.4331
  402TMC3     O 6060   3.878   1.938   0.849 -0.2136  0.3899  0.1476
  402TMC3     H 6061   4.221   1.752   0.936 -1.0636  2.0757 -0.0260
  402TMC3    H1 6062   3.827   1.736   0.768  1.2643  3.1311 -0.3644
  402TMC3    H2 6063   4.097   1.389   0.754 -0.9550 -0.0279 -2.6646
  402TMC3    C7 6064   3.844   1.494   0.688  0.2368 -0.6853  0.1023
  402TMC3    C8 6065   4.285   1.497   0.898  0.0639  0.1061 -0.1246
  402TMC3    O1 6066   3.731   1.538   0.703 -0.0024  0.4360  0.8183
  402TMC3    O2 6067   4.282   1.378   0.885  0.1975 -0.3845 -0.0506
  403MPD2     C 6068   2.182   0.871  13.799 -0.0863  0.2873  0.2051
  403MPD2    C1 6069   2.287   0.824  13.729  0.1379  0.7600  1.0919
  403MPD2    C2 6070   2.417   0.849  13.770  0.9527  0.1104  0.0906
  403MPD2    C3 6071   2.445   0.926  13.880 -0.5527 -0.8012  0.0533
  403MPD2    C4 6072   2.336   0.974  13.948 -0.2904  0.0902 -0.3210
  403MPD2    C5 6073   2.207   0.949  13.907 -0.3887  0.4401  0.5427
  403MPD2     H 6074   2.497   0.811  13.708  1.8669  1.1175  0.6470
  403MPD2    H1 6075   2.343   1.036  14.037  2.0409  1.0195 -1.1749
  403MPD2    H2 6076   2.078   0.871  13.770 -0.9509  0.7076  3.2650
  403MPD2    H3 6077   2.129   0.982  13.975  0.0043  0.5891  0.9223
  403MPD2     N 6078   2.579   0.957  13.923  0.1082 -0.0661 -0.4921
  403MPD2    H5 6079   2.646   0.904  13.869  2.4742 -0.0245  2.4290
  403MPD2    N1 6080   2.252   0.781  13.599 -0.0620 -0.2585  0.3046
  403MPD2    H7 6081   2.154   0.759  13.582  0.2589 -0.5879 -1.1341
  404TMC3    C1 6082   2.300   0.658  13.397 -0.2183 -0.1404 -0.0430
  404TMC3    C2 6083   2.199   0.573  13.426 -0.8599 -0.2415 -0.3212
  404TMC3    C3 6084   2.149   0.499  13.322  0.1729 -0.5241  0.1673
  404TMC3    C4 6085   2.355   0.666  13.273  0.4155 -0.3636 -0.0066
  404TMC3    C5 6086   2.308   0.576  13.175  0.1934  0.3898 -1.0158
  404TMC3    C6 6087   2.199   0.498  13.196 -0.5185 -0.0930 -0.5579
  404TMC3     C 6088   2.345   0.755  13.492  0.1540 -0.6267 -0.0499
  404TMC3     O 6089   2.463   0.790  13.477  0.4537 -0.1196 -0.2653
  404TMC3     H 6090   2.170   0.556  13.529 -0.9653  0.5523 -0.2224
  404TMC3    H1 6091   2.434   0.737  13.251  0.0673  0.5073  1.5368
  404TMC3    H2 6092   2.154   0.436  13.119 -2.1169 -0.7550  0.8944
  404TMC3    C7 6093   2.356   0.606  13.044  0.5789  0.2589 -0.1929
  404TMC3    C8 6094   2.045   0.401  13.351 -0.0964 -0.1152  0.1541
  404TMC3    O1 6095   2.461   0.667  13.039 -0.2568 -0.4750 -0.3628
  404TMC3    O2 6096   1.984   0.358  13.256 -0.5063 -0.0814 -0.1162
  405MPD2     C 6097   3.010   1.634  15.069  0.0173 -0.1027 -0.0247
  405MPD2    C1 6098   3.028   1.503  15.024  0.4617 -0.2675 -0.6879
  405MPD2    C2 6099   3.010   1.477  14.887  0.6583 -0.2866  0.2105
  405MPD2    C3 6100   2.963   1.574  14.800  0.3598  0.2885  0.0813
  405MPD2    C4 6101   2.942   1.697  14.852 -0.3713  0.5461  0.5204
  405MPD2    C5 6102   2.963   1.729  14.984 -0.6777  0.2653  0.0759
  405MPD2     H 6103   3.033   1.378  14.851  3.3313  0.5933 -0.5422
  405MPD2    H1 6104   2.887   1.777  14.802  0.9512  1.1179 -0.0239
  405MPD2    H2 6105   3.023   1.656  15.174  1.6714  0.8542 -0.4419
  405MPD2    H3 6106   2.934   1.830  15.010 -0.0856  0.5035 -0.1964
  405MPD2     N 6107   2.909   1.529  14.677  0.4746 -0.7325 -0.6555
  405MPD2    H5 6108   2.930   1.434  14.647 -2.8711 -1.2337 -1.3939
  405MPD2    N1 6109   3.057   1.404  15.119  0.2500 -0.2030  0.0798
  405MPD2    H7 6110   3.100   1.423  15.209 -1.3489 -0.7506  0.9469
  406TMC3    C1 6111   2.622   1.465  14.324 -0.1695  0.5249  0.3743
  406TMC3    C2 6112   2.608   1.328  14.359  0.9830  0.3400  0.2845
  406TMC3    C3 6113   2.686   1.283  14.462  0.4653  0.2140 -0.0407
  406TMC3    C4 6114   2.693   1.556  14.394 -0.1855 -0.5613 -0.0519
  406TMC3    C5 6115   2.758   1.507  14.498 -0.3248  0.0523 -0.5946
  406TMC3    C6 6116   2.750   1.372  14.539 -0.4144  0.6110 -0.5062
  406TMC3     C 6117   2.520   1.536  14.234 -0.1132  0.4104  0.5914
  406TMC3     O 6118   2.533   1.654  14.206 -0.2973  0.4441  0.3325
  406TMC3     H 6119   2.553   1.255  14.300  0.1480  2.1848 -1.2020
  406TMC3    H1 6120   2.693   1.662  14.368 -1.1141 -0.1047  1.7866
  406TMC3    H2 6121   2.780   1.352  14.641 -1.8283  1.3733  0.0659
  406TMC3    C7 6122   2.811   1.597  14.602  0.1568  0.0485 -0.3480
  406TMC3    C8 6123   2.657   1.151  14.512 -0.5101  0.6433  0.0633
  406TMC3    O1 6124   2.761   1.711  14.613 -0.3812 -0.0373 -0.4430
  406TMC3    O2 6125   2.558   1.095  14.470 -0.1728 -1.2788 -0.8594
  407MPD2     C 6126   4.555   2.218  10.033 -0.7597  0.2437 -0.0604
  407MPD2    C1 6127   4.563   2.337   9.953 -0.2091 -0.2647  0.8228
  407MPD2    C2 6128   4.666   2.414   9.991 -0.0421  0.1787  0.2243
  407MPD2    C3 6129   0.029   2.385  10.088  0.3143  0.3861  0.2686
  407MPD2    C4 6130   0.020   2.269  10.157 -1.0912 -0.1248 -0.2430
  407MPD2    C5 6131   4.645   2.189  10.131 -0.4590 -0.1923  0.4653
  407MPD2     H 6132   4.674   2.507   9.935  1.0635  0.5154  0.9340
  407MPD2    H1 6133   0.095   2.235  10.227  0.2363  0.2829 -1.4578
  407MPD2    H2 6134   4.477   2.145  10.014 -0.8871  0.1958  0.6619
  407MPD2    H3 6135   4.638   2.101  10.194  3.3658 -1.1519 -0.4429
  407MPD2     N 6136   0.143   2.465  10.114 -0.2899 -0.2504 -0.5599
  407MPD2    H5 6137   0.217   2.419  10.166 -2.4396 -3.0407  0.0632
  407MPD2    N1 6138   4.477   2.383   9.854  0.1656 -0.2019 -0.0085
  407MPD2    H7 6139   4.498   2.477   9.822 -0.2151 -0.3466 -0.6663
  408TMC3    C1 6140   4.308   2.386   9.697 -0.0089 -0.6652 -0.8960
  408TMC3    C2 6141   4.250   2.321   9.591  0.6064 -0.3868  0.7055
  408TMC3    C3 6142   4.157   2.379   9.510 -0.4633 -0.1493  0.9802
  408TMC3    C4 6143   4.289   2.516   9.720  0.7141 -0.1778  0.2586
  408TMC3    C5 6144   4.187   2.578   9.649 -0.4535  0.0455  0.9428
  408TMC3    C6 6145   4.126   2.508   9.541 -0.3614  0.3764  0.0782
  408TMC3     C 6146   4.368   2.314   9.802  0.2592  0.1295  0.2536
  408TMC3     O 6147   4.308   2.222   9.857  0.0291 -0.0132  0.1977
  408TMC3     H 6148   4.273   2.217   9.575  0.6397  0.0607 -2.0814
  408TMC3    H1 6149   4.319   2.560   9.815  1.0163  0.6078 -0.1980
  408TMC3    H2 6150   4.084   2.570   9.463 -4.4261  0.2007  2.1227
  408TMC3    C7 6151   4.197   2.724   9.618 -0.1934 -0.7869  0.2531
  408TMC3    C8 6152   4.197   2.379   9.374 -0.7118  0.0284 -0.6769
  408TMC3    O1 6153   4.117   2.774   9.541 -0.1926 -0.7580  0.1871
  408TMC3    O2 6154   4.113   2.410   9.290  0.4336  0.4872 -0.7093
  409MPD2     C 6155   4.694   2.745  17.040  0.1282  0.9379 -0.0712
  409MPD2    C1 6156   0.038   2.800  17.144  1.3758  0.3253 -0.7630
  409MPD2    C2 6157   0.076   2.928  17.137 -0.2934 -0.7110 -0.2729
  409MPD2    C3 6158   0.067   3.002  17.017  0.0931  0.3063 -0.0229
  409MPD2    C4 6159   0.008   2.935  16.905  0.2165 -0.0951 -0.6768
  409MPD2    C5 6160   4.692   2.810  16.919 -0.0790  0.2242  0.2936
  409MPD2     H 6161   0.135   2.963  17.222  0.1361 -2.5868  0.1973
  409MPD2    H1 6162   4.723   2.985  16.810 -1.1095 -2.7495 -1.8614
  409MPD2    H2 6163   4.652   2.646  17.054 -0.3571  1.3827  1.5788
  409MPD2    H3 6164   4.659   2.756  16.831  0.6605 -1.0042  0.7862
  409MPD2     N 6165   0.106   3.138  17.008  0.0828  0.3068  0.1247
  409MPD2    H5 6166   0.078   3.197  16.931  1.9209  0.3106 -0.5539
  409MPD2    N1 6167   0.059   2.727  17.264 -0.0054 -0.4324  0.5889
  409MPD2    H7 6168   0.101   2.775  17.343  1.4492 -0.9719  0.1388
  410TMC3    C1 6169   0.197   3.347  17.088 -0.4127  0.2690  0.0036
  410TMC3    C2 6170   0.298   3.402  17.170  0.7287  0.0147  0.3417
  410TMC3    C3 6171   0.354   3.521  17.126 -0.6388  0.1228  0.6238
  410TMC3    C4 6172   0.157   3.410  16.968 -0.4866  0.0188 -0.0165
  410TMC3    C5 6173   0.212   3.531  16.938 -0.2066 -0.1911 -0.4238
  410TMC3    C6 6174   0.308   3.596  17.019 -0.3594  0.3836  0.0062
  410TMC3     C 6175   0.161   3.210  17.116  0.0847 -0.8868  0.4371
  410TMC3     O 6176   0.195   3.175  17.230  0.0161  0.6098 -0.1992
  410TMC3     H 6177   0.294   3.369  17.273 -2.5256 -1.5583 -0.3021
  410TMC3    H1 6178   0.078   3.364  16.909 -0.6406 -1.0378  1.0092
  410TMC3    H2 6179   0.367   3.685  17.002  1.3354 -0.9847 -1.3267
  410TMC3    C7 6180   0.183   3.578  16.807  0.0104  0.3201  0.8011
  410TMC3    C8 6181   0.491   3.544  17.166 -0.7400  0.0689 -0.5427
  410TMC3    O1 6182   0.136   3.499  16.726 -0.0060  0.0044  0.0304
  410TMC3    O2 6183   0.537   3.657  17.159 -0.0594  0.5106  0.2683
  411MPD2     C 6184   0.235   4.071  14.240  0.1057 -0.2793 -0.0352
  411MPD2    C1 6185   0.149   4.097  14.347 -0.2838 -0.2641 -0.0020
  411MPD2    C2 6186   0.026   4.047  14.345  0.3178  0.0886 -0.9122
  411MPD2    C3 6187   4.698   3.993  14.228  0.2077 -0.0384  0.5700
  411MPD2    C4 6188   0.051   3.976  14.119 -0.1649  0.0688  0.0549
  411MPD2    C5 6189   0.182   4.021  14.123 -0.5332  0.2140 -0.0862
  411MPD2     H 6190   4.687   4.064  14.427 -0.8569  0.7563 -2.0259
  411MPD2    H1 6191   0.004   3.959  14.022  0.1504 -0.5324  0.0073
  411MPD2    H2 6192   0.338   4.105  14.240  1.0901 -3.2658  1.2943
  411MPD2    H3 6193   0.231   4.029  14.027  0.0393 -0.6395  0.1358
  411MPD2     N 6194   4.557   3.968  14.215 -0.3022 -0.0738 -0.2539
  411MPD2    H5 6195   4.522   3.946  14.122  0.0261  1.2085 -0.6854
  411MPD2    N1 6196   0.189   4.165  14.466 -0.3748 -0.0297  0.0250
  411MPD2    H7 6197   0.117   4.178  14.536 -0.1900 -2.5551  0.6957
  412TMC3    C1 6198   4.338   3.902  14.288  0.2737  0.2178  0.4689
  412TMC3    C2 6199   4.282   3.971  14.183 -0.8478  0.2603 -0.5536
  412TMC3    C3 6200   4.232   3.904  14.066 -0.1983 -0.2781 -0.0483
  412TMC3    C4 6201   4.344   3.766  14.281  0.5293 -0.1326 -0.3968
  412TMC3    C5 6202   4.305   3.709  14.162  0.1710 -0.0520  0.4652
  412TMC3    C6 6203   4.240   3.766  14.057 -0.1166 -0.3063  0.4219
  412TMC3     C 6204   4.475   3.945  14.325 -0.9126  0.7954 -0.3198
  412TMC3     O 6205   4.496   3.970  14.443  0.4093 -0.4760  0.4571
  412TMC3     H 6206   4.267   4.079  14.186  0.3827  0.4597 -1.7306
  412TMC3    H1 6207   4.423   3.714  14.334  0.1793 -0.6883 -0.4156
  412TMC3    H2 6208   4.231   3.711  13.965  0.4161  2.5790 -1.3387
  412TMC3    C7 6209   4.401   3.617  14.108 -1.0911  0.2680  0.2246
  412TMC3    C8 6210   4.257   3.983  13.948  0.0083 -0.3758  0.1442
  412TMC3    O1 6211   4.513   3.637  14.153  0.2996  0.2139 -0.0949
  412TMC3    O2 6212   4.340   4.073  13.969  0.3123  0.2534  0.6934
  413MPD2     C 6213   1.712   2.435  15.399  0.0760 -0.0259  0.5812
  413MPD2    C1 6214   1.667   2.380  15.277 -0.0119  0.0933 -0.6115
  413MPD2    C2 6215   1.755   2.381  15.174  0.0424  0.2413 -0.2710
  413MPD2    C3 6216   1.879   2.435  15.174  0.1993 -0.0695 -0.1339
  413MPD2    C4 6217   1.921   2.488  15.291 -0.4337  0.2339 -0.3913
  413MPD2    C5 6218   1.841   2.491  15.400  1.0194 -0.8742  0.1144
  413MPD2     H 6219   1.721   2.331  15.084  0.0090  0.4303 -0.3638
  413MPD2    H1 6220   2.017   2.537  15.299  0.2446 -0.9637 -1.2674
  413MPD2    H2 6221   1.653   2.437  15.489  0.9754 -2.3764  1.2174
  413MPD2    H3 6222   1.891   2.530  15.488 -0.1570  0.4048  0.2088
  413MPD2     N 6223   1.962   2.416  15.061 -0.0762 -0.0545  0.4200
  413MPD2    H5 6224   1.915   2.370  14.983  0.3843  0.0238  0.0960
  413MPD2    N1 6225   1.537   2.326  15.260  0.1683 -1.0246  0.6842
  413MPD2    H7 6226   1.508   2.292  15.169 -1.3662 -0.0161  0.7861
  414TMC3    C1 6227   2.162   2.377  14.955  0.1165 -0.0068 -0.2129
  414TMC3    C2 6228   2.218   2.262  15.016  0.3160 -0.0611 -0.7344
  414TMC3    C3 6229   2.192   2.140  14.964  0.5332  0.7036  1.1507
  414TMC3    C4 6230   2.092   2.366  14.836 -0.2647  0.0592 -0.4915
  414TMC3    C5 6231   2.080   2.244  14.780  0.3972  0.7985 -0.0803
  414TMC3    C6 6232   2.114   2.128  14.852 -0.1794  0.0070  0.3246
  414TMC3     C 6233   2.092   2.456  15.054  0.4260  0.0413  0.4758
  414TMC3     O 6234   2.166   2.515  15.132  0.4354 -0.3180 -0.5570
  414TMC3     H 6235   2.259   2.258  15.116 -1.0554 -0.0584 -0.1656
  414TMC3    H1 6236   2.074   2.450  14.771  0.8464  0.2551 -0.5379
  414TMC3    H2 6237   2.092   2.031  14.810  0.8589 -0.6690  1.3381
  414TMC3    C7 6238   2.020   2.240  14.647  0.5503 -0.2224  0.2757
  414TMC3    C8 6239   2.267   2.017  14.990  0.4830  0.0096  0.1189
  414TMC3    O1 6240   1.930   2.322  14.638  0.1864  0.1784  0.0212
  414TMC3    O2 6241   2.266   1.919  14.916  0.3054  0.0076  0.7298
  415TMC3    C1 6242   2.695   4.489   9.704 -0.5233  0.6480  0.2897
  415TMC3    C2 6243   2.821   4.482   9.639 -0.0522 -0.5305 -0.3037
  415TMC3    C3 6244   2.859   4.587   9.559  0.3192  0.4720  0.0082
  415TMC3    C4 6245   2.616   4.600   9.685  0.2675  0.9301 -0.3271
  415TMC3    C5 6246   2.649   4.689   9.594  0.5910  0.3319 -0.7737
  415TMC3    C6 6247   2.766   4.683   9.529 -0.7058 -0.1175  0.0185
  415TMC3     C 6248   2.661   4.409   9.818  0.8334 -0.1930 -0.3741
  415TMC3     O 6249   2.600   4.458   9.911 -0.7124  0.4289  0.2360
  415TMC3     H 6250   2.894   4.407   9.663  2.4578  1.9821 -0.0635
  415TMC3    H1 6251   2.518   4.608   9.731  0.6683 -0.6373  0.7818
  415TMC3    H2 6252   2.780   0.022   9.446  2.2170  0.8074  1.2802
  415TMC3    C7 6253   2.578   0.088   9.605  0.2077 -0.3955  0.0343
  415TMC3    C8 6254   2.991   4.583   9.496  0.7122 -0.0378 -0.4301
  415TMC3    O1 6255   2.592   0.165   9.512  0.6731  0.3622 -0.0133
  415TMC3    O2 6256   3.053   4.481   9.521  0.5204  0.4287  0.9271
  416MPD2     C 6257   4.323   3.905  11.180 -0.7293  0.2951  0.3284
  416MPD2    C1 6258   4.234   3.853  11.270 -0.1476  0.5623  0.1923
  416MPD2    C2 6259   4.214   3.713  11.270  0.4645  0.0098 -0.0972
  416MPD2    C3 6260   4.282   3.633  11.179 -0.8165  0.7417  0.3466
  416MPD2    C4 6261   4.378   3.687  11.100 -0.0438  0.0351 -0.3905
  416MPD2    C5 6262   4.404   3.825  11.106 -0.8746  0.4930 -0.1760
  416MPD2     H 6263   4.141   3.667  11.335  0.5828  0.1645  0.1447
  416MPD2    H1 6264   4.449   3.631  11.041 -0.3890  0.2248 -0.9790
  416MPD2    H2 6265   4.340   4.012  11.176  0.2725  0.0945 -0.7393
  416MPD2    H3 6266   4.483   3.869  11.045  0.1860 -1.2220 -0.0481
  416MPD2     N 6267   4.240   3.499  11.178 -0.5093 -0.7080 -0.5528
  416MPD2    H5 6268   4.174   3.465  11.247 -2.5034 -1.0777 -2.6471
  416MPD2    N1 6269   4.161   3.931  11.359  0.0095 -0.1593  0.3202
  416MPD2    H7 6270   4.153   4.029  11.335  1.0816  0.0654  0.8927
  417TMC3    C1 6271   3.997   3.982  11.515 -1.1754 -0.2506  1.3081
  417TMC3    C2 6272   3.971   3.981  11.646 -1.2086  0.4110  0.3817
  417TMC3    C3 6273   3.863   4.057  11.697  0.1064  0.5994 -0.1811
  417TMC3    C4 6274   3.930   4.061  11.429  0.3149  0.6715  0.1106
  417TMC3    C5 6275   3.832   4.136  11.484 -0.4186  0.1395  0.1237
  417TMC3    C6 6276   3.796   4.142  11.619 -0.0775 -0.3565  0.4120
  417TMC3     C 6277   4.078   3.877  11.459  0.0755  0.1708  0.1467
  417TMC3     O 6278   4.085   3.783  11.534  0.1934 -0.2976 -0.1444
  417TMC3     H 6279   4.028   3.923  11.717 -1.0066  0.4234  0.2281
  417TMC3    H1 6280   3.942   4.068  11.322 -1.6144  1.4185 -0.0434
  417TMC3    H2 6281   3.710   4.203  11.645 -1.7787 -1.7391 -1.9945
  417TMC3    C7 6282   3.736   4.185  11.399 -0.2223  0.0878  0.0990
  417TMC3    C8 6283   3.813   4.046  11.833  0.5645  0.8717  0.6771
  417TMC3    O1 6284   3.719   4.306  11.399  0.5278 -0.5225 -0.2816
  417TMC3    O2 6285   3.737   4.134  11.870  0.1095  0.1892  0.1537
  418TMC3    C1 6286   3.159   1.084   0.074 -0.5952 -1.2197  0.4049
  418TMC3    C2 6287   3.026   1.128   0.057  0.0767  0.0346 -0.0337
  418TMC3    C3 6288   2.949   1.134   0.180  0.7195  0.5955 -0.3625
  418TMC3    C4 6289   3.212   1.051   0.199  0.1397 -0.0595 -0.4960
  418TMC3    C5 6290   3.128   1.046   0.305 -0.0448 -0.1173  0.4475
  418TMC3    C6 6291   3.001   1.095   0.304  0.5142 -0.4031  0.7736
  418TMC3     C 6292   3.219   1.023  17.672  0.0936 -0.3539 -0.0132
  418TMC3     O 6293   3.195   1.087  17.569  0.0669  0.0159 -0.3492
  418TMC3     H 6294   2.970   1.120  17.681 -3.3570 -2.4913  2.2664
  418TMC3    H1 6295   3.309   1.006   0.212 -0.4551 -1.7995 -2.0921
  418TMC3    H2 6296   2.933   1.087   0.388 -0.8604  0.7040 -0.2240
  418TMC3    C7 6297   3.168   0.967   0.415 -0.1780  0.0635  0.2333
  418TMC3    C8 6298   2.813   1.106   0.172  0.1944 -0.5704  0.8571
  418TMC3    O1 6299   3.236   0.868   0.383  0.2356  0.3209 -0.2393
  418TMC3    O2 6300   2.740   1.195   0.129  0.0533  0.6516  0.7658
  419MPD2     C 6301   1.685   3.667  12.270 -0.3260  0.3085 -0.5632
  419MPD2    C1 6302   1.650   3.800  12.276  0.5913  0.0937  0.5437
  419MPD2    C2 6303   1.626   3.861  12.397 -0.4874  0.3550  0.3472
  419MPD2    C3 6304   1.619   3.788  12.515  0.2119  0.1640 -0.3217
  419MPD2    C4 6305   1.644   3.655  12.515 -0.1527 -0.0885  0.1223
  419MPD2    C5 6306   1.680   3.600  12.391 -0.0661  0.6849  0.6093
  419MPD2     H 6307   1.603   3.967  12.395  0.1781  0.5591  2.7546
  419MPD2    H1 6308   1.633   3.592  12.602  1.7219  1.1359  1.2566
  419MPD2    H2 6309   1.702   3.611  12.178 -2.0107 -1.3862  0.1585
  419MPD2    H3 6310   1.686   3.492  12.391  2.6604  0.8299  0.8112
  419MPD2     N 6311   1.570   3.852  12.640 -0.2352  0.1241 -0.2684
  419MPD2    H5 6312   1.516   3.937  12.629  0.4642  0.3419 -2.0123
  419MPD2    N1 6313   1.640   3.881  12.164 -0.9339  0.7201  0.4986
  419MPD2    H7 6314   1.594   3.970  12.179  2.0148  2.5106 -0.8967
  420TMC3    C1 6315   1.494   3.883  12.862 -0.2645  0.2635  0.5274
  420TMC3    C2 6316   1.400   3.967  12.819 -0.0239  0.7157 -0.1125
  420TMC3    C3 6317   1.329   4.044  12.909 -0.3506 -0.0592  0.3354
  420TMC3    C4 6318   1.513   3.857  12.995 -0.0727  0.6847 -0.6725
  420TMC3    C5 6319   1.451   3.941  13.084  0.4388 -0.2671 -0.2917
  420TMC3    C6 6320   1.367   4.042  13.041  1.1408  0.1848 -0.7287
  420TMC3     C 6321   1.574   3.802  12.767 -0.6622 -0.7624  0.5434
  420TMC3     O 6322   1.635   3.708  12.809  0.3899  0.4234 -0.3901
  420TMC3     H 6323   1.371   3.983  12.715  0.0393  2.3704  0.1154
  420TMC3    H1 6324   1.553   3.762  13.028 -0.9181  0.7067  0.4112
  420TMC3    H2 6325   1.328   4.110  13.116  1.8171  0.6616 -0.8018
  420TMC3    C7 6326   1.504   3.944  13.220  0.2080  0.0903  0.2602
  420TMC3    C8 6327   1.246   4.148  12.859  0.0110  0.0454 -0.0470
  420TMC3    O1 6328   1.416   3.973  13.306  0.3163 -0.1555  0.4035
  420TMC3    O2 6329   1.294   4.204  12.760 -0.2930  0.1685 -0.6149
  421TMC3    C1 6330   2.757   1.037  14.065 -0.0021  0.7342 -0.0550
  421TMC3    C2 6331   2.807   1.147  14.127 -0.5393  0.8134  0.6590
  421TMC3    C3 6332   2.923   1.139  14.189  0.3203 -0.6059  0.3277
  421TMC3    C4 6333   2.830   0.926  14.046 -1.0110 -0.2396  0.4505
  421TMC3    C5 6334   2.964   0.924  14.089 -0.0587 -0.6884 -0.3936
  421TMC3    C6 6335   2.996   1.027  14.174  0.6001  0.5815 -0.3404
  421TMC3     C 6336   2.612   1.043  14.020  0.6971  0.0814  0.2624
  421TMC3     O 6337   2.547   1.120  14.093 -0.2842  0.4464 -0.4666
  421TMC3     H 6338   2.750   1.239  14.133 -1.8132  0.0055  0.8456
  421TMC3    H1 6339   2.793   0.834  14.001 -1.3133  0.9428 -1.7603
  421TMC3    H2 6340   3.083   1.027  14.239  1.4195 -1.3616 -1.4291
  421TMC3    C7 6341   3.053   0.808  14.077 -0.2719  0.3072  0.3115
  421TMC3    C8 6342   2.994   1.256  14.248 -0.2575 -0.4586  0.2246
  421TMC3    O1 6343   3.159   0.819  14.134 -0.3772  0.7228 -0.0842
  421TMC3    O2 6344   3.081   1.231  14.328  0.1385  0.1651  0.3007
  422TMC3    C1 6345   0.502   1.815  12.383  0.7027 -0.4288  0.4915
  422TMC3    C2 6346   0.509   1.929  12.459  0.0721  0.5477  0.5466
  422TMC3    C3 6347   0.413   1.957  12.553 -0.0283  0.0697  0.7084
  422TMC3    C4 6348   0.400   1.728  12.405 -0.3679 -0.1948  0.0250
  422TMC3    C5 6349   0.327   1.748  12.517 -0.5212 -0.1855  0.0179
  422TMC3    C6 6350   0.323   1.867  12.587 -0.1899 -0.6518  0.3779
  422TMC3     C 6351   0.590   1.809  12.264  0.4945 -0.0711 -0.4652
  422TMC3     O 6352   0.679   1.893  12.258  0.1860 -0.0757 -0.8927
  422TMC3     H 6353   0.586   2.001  12.433  1.1819 -0.6140  0.6817
  422TMC3    H1 6354   0.400   1.631  12.356 -0.4399 -0.3079  0.2521
  422TMC3    H2 6355   0.272   1.859  12.682 -0.9118  0.1653  0.0547
  422TMC3    C7 6356   0.276   1.619  12.571  1.2235 -0.1581  0.0701
  422TMC3    C8 6357   0.460   2.069  12.638 -0.5679  0.3523  0.4073
  422TMC3    O1 6358   0.334   1.521  12.535  0.8522  0.2222 -0.0404
  422TMC3    O2 6359   0.583   2.093  12.638 -0.0610  0.7047  0.1904
  423MPD2     C 6360   2.133   2.989   0.316  0.8085 -0.6353 -0.1986
  423MPD2    C1 6361   2.125   2.862   0.378 -0.8398  0.0464 -0.2893
  423MPD2    C2 6362   2.133   2.748   0.296  0.4787 -0.2412 -0.0397
  423MPD2    C3 6363   2.129   2.762   0.157  0.0276  0.4345  0.1553
  423MPD2    C4 6364   2.127   2.890   0.101 -0.2826 -0.1697  0.2252
  423MPD2    C5 6365   2.138   3.002   0.180 -0.3952 -0.3128 -0.1757
  423MPD2     H 6366   2.126   2.650   0.343 -1.2604 -0.3181 -0.4363
  423MPD2    H1 6367   2.130   2.909  17.711  2.5445 -0.7199  0.2341
  423MPD2    H2 6368   2.144   3.078   0.378  0.4757 -2.1484  2.0593
  423MPD2    H3 6369   2.133   3.098   0.131 -2.2657  0.4407  1.4785
  423MPD2     N 6370   2.137   2.655   0.064 -0.4385  0.1489 -0.0094
  423MPD2    H5 6371   2.128   2.689  17.686 -1.1440 -0.3492 -0.1216
  423MPD2    N1 6372   2.130   2.852   0.520 -0.3977  0.2104 -0.0884
  423MPD2    H7 6373   2.158   2.763   0.559 -0.9593  0.4646  0.9018
  424TMC3    C1 6374   2.092   2.927   0.749 -0.4808  0.2932  0.4109
  424TMC3    C2 6375   2.215   2.868   0.789  0.1149  0.1623 -0.9349
  424TMC3    C3 6376   2.257   2.894   0.915  0.4100 -0.3260  0.2150
  424TMC3    C4 6377   2.009   2.989   0.835 -0.4743 -0.6886 -0.5770
  424TMC3    C5 6378   2.065   3.026   0.956  0.3278  0.1357  0.1443
  424TMC3    C6 6379   2.189   2.977   0.995  0.7244  0.0870  0.4398
  424TMC3     C 6380   2.076   2.950   0.605 -0.4209  0.5967  0.2862
  424TMC3     O 6381   2.000   3.045   0.582 -0.1244  0.3076 -0.0512
  424TMC3     H 6382   2.296   2.843   0.721  0.5155  0.6330 -0.6306
  424TMC3    H1 6383   1.920   3.032   0.791 -0.2820 -0.9601 -1.2341
  424TMC3    H2 6384   2.241   3.008   1.085  0.2431  0.4117  0.6051
  424TMC3    C7 6385   2.015   3.135   1.032 -0.0673  0.1411  0.3516
  424TMC3    C8 6386   2.395   2.875   0.947  0.2043 -0.3079  0.1199
  424TMC3    O1 6387   2.099   3.215   1.073 -0.3308 -0.0670  0.6653
  424TMC3    O2 6388   2.464   2.963   0.998  0.0988 -0.1306 -0.4110
  425MPD2     C 6389   0.984   2.033  17.226 -0.2060 -0.6194 -0.8719
  425MPD2    C1 6390   0.894   1.929  17.221 -0.2582  0.0035 -0.4782
  425MPD2    C2 6391   0.760   1.958  17.253 -0.4803  0.0433 -0.3429
  425MPD2    C3 6392   0.725   2.076  17.309 -0.7184  0.0304  0.2810
  425MPD2    C4 6393   0.817   2.177  17.328  0.2385 -0.8678  0.5326
  425MPD2    C5 6394   0.946   2.155  17.282 -0.4364 -0.3011  0.2351
  425MPD2     H 6395   0.683   1.886  17.228 -0.5709 -0.5063  1.5034
  425MPD2    H1 6396   0.796   2.271  17.377  1.9496 -0.6736  0.8805
  425MPD2    H2 6397   1.084   2.011  17.189  0.1586  1.2528 -1.0048
  425MPD2    H3 6398   1.013   2.239  17.298 -1.5305  0.8722 -1.3090
  425MPD2     N 6399   0.596   2.085  17.359  0.1305 -0.1422 -0.2290
  425MPD2    H5 6400   0.527   2.016  17.330  0.6739 -1.3854  1.4203
  425MPD2    N1 6401   0.929   1.797  17.184  0.4036 -0.0762  0.4862
  425MPD2    H7 6402   1.022   1.789  17.145  0.2742  2.3599 -0.3275
  426TMC3    C1 6403   0.930   1.561  17.178 -0.0766  0.0352 -0.7780
  426TMC3    C2 6404   1.029   1.585  17.095 -0.0216  0.3760 -0.5118
  426TMC3    C3 6405   1.119   1.488  17.082 -0.8483 -0.1874 -0.6135
  426TMC3    C4 6406   0.929   1.462  17.274  0.1481  0.4585 -0.3957
  426TMC3    C5 6407   1.028   1.365  17.262 -0.6060 -0.4882  1.3129
  426TMC3    C6 6408   1.122   1.376  17.164  0.0124  0.0830  0.0312
  426TMC3     C 6409   0.860   1.680  17.215  0.7932  0.3107  1.4307
  426TMC3     O 6410   0.757   1.667  17.275  0.1015  0.0109 -0.5011
  426TMC3     H 6411   1.003   1.652  17.014  0.1728 -1.6756 -2.2769
  426TMC3    H1 6412   0.852   1.462  17.351  1.3688 -0.9703  0.8303
  426TMC3    H2 6413   1.199   1.300  17.149 -0.2543 -0.4988  1.6054
  426TMC3    C7 6414   1.021   1.236  17.323 -0.3534  0.3038 -0.0829
  426TMC3    C8 6415   1.201   1.472  16.959 -0.2324  0.1029 -1.0310
  426TMC3    O1 6416   1.116   1.161  17.304  0.0663  0.0914  0.0353
  426TMC3    O2 6417   1.254   1.363  16.930 -0.3291  0.2517 -0.1668
  427MPD2     C 6418   4.405   4.155  14.693 -0.6394 -0.1598 -0.0954
  427MPD2    C1 6419   4.369   4.151  14.824  0.4802  0.0866  0.2487
  427MPD2    C2 6420   4.244   4.186  14.868  1.0380 -0.0923  0.7998
  427MPD2    C3 6421   4.165   4.245  14.770 -0.6269  0.2991 -0.8425
  427MPD2    C4 6422   4.201   4.245  14.634  0.4466  0.9049  0.0326
  427MPD2    C5 6423   4.324   4.201  14.595 -0.2675  0.9453 -0.2173
  427MPD2     H 6424   4.212   4.172  14.971 -1.5340  0.0245  0.0348
  427MPD2    H1 6425   4.129   4.277  14.560 -0.4382  2.5625  1.5793
  427MPD2    H2 6426   4.500   4.109  14.668 -1.1946 -1.3026 -0.0713
  427MPD2    H3 6427   4.357   4.195  14.491  0.5775 -3.7502  0.3561
  427MPD2     N 6428   4.049   4.319  14.801 -0.3781  0.2130 -0.6422
  427MPD2    H5 6429   3.994   4.358  14.725  2.4976  0.6034 -2.4883
  427MPD2    N1 6430   4.443   4.084  14.925 -0.0100  0.7210 -0.2101
  427MPD2    H7 6431   4.399   4.075  15.016 -0.5274 -1.5946 -0.6823
  428TMC3    C1 6432   4.618   3.993  15.041  0.0336  0.0245 -0.7849
  428TMC3    C2 6433   4.519   3.938  15.119 -0.3405 -0.4564  1.4540
  428TMC3    C3 6434   4.530   3.930  15.254  0.3713  0.9387 -0.0061
  428TMC3    C4 6435   4.726   4.042  15.099 -0.9879  0.9676  0.1695
  428TMC3    C5 6436   4.727   4.049  15.242 -0.7285  0.0042 -0.8042
  428TMC3    C6 6437   4.639   3.980  15.323  0.9522 -0.3311 -0.1147
  428TMC3     C 6438   4.571   4.041  14.919  0.0688 -0.1585  0.8056
  428TMC3     O 6439   4.654   4.056  14.833 -0.5032  0.0264 -0.0890
  428TMC3     H 6440   4.442   3.880  15.069  1.5783 -0.3534 -1.6683
  428TMC3    H1 6441   0.085   4.072  15.043 -0.2992 -0.4647  0.4771
  428TMC3    H2 6442   4.643   3.999  15.430 -0.8624 -1.0058  0.0821
  428TMC3    C7 6443   0.090   4.132  15.303 -0.2142 -0.3815 -0.0466
  428TMC3    C8 6444   4.453   3.827  15.321 -0.1062 -0.2896  0.5116
  428TMC3    O1 6445   0.102   4.125  15.424 -0.2573  0.0653 -0.2560
  428TMC3    O2 6446   4.401   3.748  15.240 -0.5480 -0.0213 -0.0111
  429MPD2     C 6447   0.342   4.101  17.583 -0.1131 -0.6931  0.3585
  429MPD2    C1 6448   0.476   4.063  17.591 -0.1480  0.1788 -0.5029
  429MPD2    C2 6449   0.579   4.160  17.587  0.2390  0.5565  0.8773
  429MPD2    C3 6450   0.544   4.295  17.570  0.1101  0.4146 -0.9524
  429MPD2    C4 6451   0.406   4.330  17.576 -0.3931 -0.1057  0.2371
  429MPD2    C5 6452   0.310   4.229  17.576  0.3259  0.3754 -0.5711
  429MPD2     H 6453   0.681   4.128  17.575  0.4190  0.1121  3.5131
  429MPD2    H1 6454   0.379   4.433  17.559  1.0560 -0.0753 -2.0342
  429MPD2    H2 6455   0.256   4.036  17.589 -1.6339  1.1135 -2.0452
  429MPD2    H3 6456   0.205   4.254  17.589  0.1926  0.7724 -2.4516
  429MPD2     N 6457   0.645   4.383  17.520  0.3624 -0.1136  0.3385
  429MPD2    H5 6458   0.733   4.334  17.508  0.2361 -0.1241 -0.4780
  429MPD2    N1 6459   0.511   3.934  17.601  0.3411  0.4988  0.1712
  429MPD2    H7 6460   0.610   3.928  17.582 -0.0304 -0.5650 -1.4427
  430TMC3    C1 6461   0.749   4.554  17.395  0.7322 -0.1267  0.2895
  430TMC3    C2 6462   0.733   4.672  17.320  0.1024  0.7021 -0.2562
  430TMC3    C3 6463   0.798   4.685  17.209 -0.1264 -0.1852  0.1090
  430TMC3    C4 6464   0.843   4.459  17.361 -0.3759  0.1178  0.1045
  430TMC3    C5 6465   0.910   4.472  17.247  0.1685 -0.7018  0.2899
  430TMC3    C6 6466   0.887   4.584  17.174 -0.3181 -0.5570 -0.1606
  430TMC3     C 6467   0.635   4.516  17.476 -0.7792  0.3683  0.0845
  430TMC3     O 6468   0.547   4.596  17.496  0.2621  0.5163  0.3434
  430TMC3     H 6469   0.654   0.015  17.336 -0.7428 -0.5726  1.2733
  430TMC3    H1 6470   0.857   4.371  17.423  0.1101 -0.0118 -0.1895
  430TMC3    H2 6471   0.934   4.589  17.077 -0.6051 -1.1150 -0.3293
  430TMC3    C7 6472   0.896   4.355  17.168 -0.4833  0.0985 -0.5897
  430TMC3    C8 6473   0.721   4.726  17.094 -0.0359 -0.1628  0.7804
  430TMC3    O1 6474   0.942   4.245  17.206 -0.3560  0.0332 -0.1417
  430TMC3    O2 6475   0.739   4.654  16.998  1.0726  1.0778 -0.1543
  431MPD2     C 6476   1.510   4.636  12.365  0.0142  0.1036  0.5046
  431MPD2    C1 6477   1.596   4.661  12.263 -0.3660 -0.1131  1.1061
  431MPD2    C2 6478   1.602   4.567  12.160  0.0296 -0.2136 -0.5451
  431MPD2    C3 6479   1.524   4.451  12.157 -0.1407 -0.3957  0.6520
  431MPD2    C4 6480   1.434   4.439  12.265  0.2672  0.0271 -0.2894
  431MPD2    C5 6481   1.427   4.536  12.364 -0.0181  0.4366  0.0138
  431MPD2     H 6482   1.670   4.582  12.076  0.8288 -0.1670  0.1082
  431MPD2    H1 6483   1.371   4.353  12.284  1.8418 -1.4401 -1.7864
  431MPD2    H2 6484   1.507   4.703  12.450  0.6660 -0.3721  0.9048
  431MPD2    H3 6485   1.355   4.532  12.445  0.5759  0.0680  0.5297
  431MPD2     N 6486   1.533   4.337  12.066  0.5977 -0.3374 -0.3128
  431MPD2    H5 6487   1.475   4.257  12.089 -0.6461  0.7817  0.4726
  431MPD2    N1 6488   1.677   0.049  12.252  0.3960 -0.3089 -0.6536
  431MPD2    H7 6489   1.760   0.049  12.193  1.5115 -0.8425  0.9137
  432TMC3    C1 6490   1.625   4.185  11.905  0.0410  0.4277 -0.3162
  432TMC3    C2 6491   1.679   4.175  11.783 -0.0659  0.4771 -0.3969
  432TMC3    C3 6492   1.695   4.050  11.725 -0.0082 -0.4604  0.2569
  432TMC3    C4 6493   1.615   4.075  11.986  0.3779 -0.2358  0.7383
  432TMC3    C5 6494   1.657   3.954  11.938 -0.8447  0.2677 -0.1436
  432TMC3    C6 6495   1.692   3.940  11.804 -0.1378 -0.4067  0.5430
  432TMC3     C 6496   1.619   4.324  11.962  0.7255  0.1338 -0.4305
  432TMC3     O 6497   1.695   4.408  11.916  0.4047 -0.2675 -0.5745
  432TMC3     H 6498   1.690   4.269  11.730  0.6001 -0.0942 -1.2558
  432TMC3    H1 6499   1.609   4.102  12.091 -1.7248 -0.6547  0.7231
  432TMC3    H2 6500   1.718   3.842  11.765  1.4366  0.0466  0.4909
  432TMC3    C7 6501   1.679   3.847  12.031  0.0711  0.2061 -0.3253
  432TMC3    C8 6502   1.792   4.050  11.625  0.5275  0.5602  0.2725
  432TMC3    O1 6503   1.721   3.745  11.985  0.2253 -0.5390 -0.0707
  432TMC3    O2 6504   1.798   3.972  11.531 -0.8618 -0.3065  0.1592
  433MPD2     C 6505   0.512   2.746  11.093 -0.2735 -0.1184  0.0554
  433MPD2    C1 6506   0.381   2.705  11.100  0.8597  0.4732 -0.1977
  433MPD2    C2 6507   0.322   2.687  11.221  0.2369 -0.1541 -0.0040
  433MPD2    C3 6508   0.384   2.727  11.336  1.0801 -0.0970 -0.6099
  433MPD2    C4 6509   0.519   2.760  11.331 -0.0697 -0.0142 -0.3126
  433MPD2    C5 6510   0.583   2.767  11.211  0.0754  0.1400  0.6868
  433MPD2     H 6511   0.218   2.658  11.231 -0.3799  1.7063 -1.0810
  433MPD2    H1 6512   0.573   2.782  11.422  0.0291  1.3413 -0.6970
  433MPD2    H2 6513   0.562   2.755  10.997  0.0053 -0.1400  0.1976
  433MPD2    H3 6514   0.689   2.791  11.211  0.5001 -1.7426  0.8955
  433MPD2     N 6515   0.317   2.713  11.456 -0.2762 -0.1471 -0.2304
  433MPD2    H5 6516   0.241   2.647  11.465  2.0107 -2.3293  2.9281
  433MPD2    N1 6517   0.326   2.668  10.975 -0.2220  0.4218 -0.6705
  433MPD2    H7 6518   0.385   2.672  10.892 -2.3976 -1.0300 -2.2979
  434TMC3    C1 6519   0.179   2.537  10.842 -0.1667  0.2544  1.2730
  434TMC3    C2 6520   0.262   2.428  10.859  0.3675 -0.1284  0.0776
  434TMC3    C3 6521   0.209   2.306  10.839  0.1019  0.0208  0.4275
  434TMC3    C4 6522   0.060   2.525  10.786  0.2129 -0.8686 -0.4292
  434TMC3    C5 6523   0.016   2.397  10.758  0.0101 -0.3987  0.1975
  434TMC3    C6 6524   0.087   2.283  10.789  0.3206  0.0121 -0.0091
  434TMC3     C 6525   0.192   2.626  10.953  0.0340  0.0515 -0.7475
  434TMC3     O 6526   0.101   2.609  11.037 -0.5333  0.1209 -0.3997
  434TMC3     H 6527   0.354   2.444  10.915 -0.7815 -0.3539  2.0282
  434TMC3    H1 6528   4.721   2.608  10.773  1.5080  0.6500  2.3414
  434TMC3    H2 6529   0.032   2.192  10.810 -0.2103  0.2713 -0.2870
  434TMC3    C7 6530   4.627   2.378  10.678 -0.4509 -0.6064  0.1303
  434TMC3    C8 6531   0.289   2.191  10.883 -0.5070  0.0891  0.3263
  434TMC3    O1 6532   4.577   2.480  10.631 -0.3934 -0.3026 -0.3947
  434TMC3    O2 6533   0.359   2.221  10.981  0.6699  0.2128  0.0021
  435MPD2     C 6534   1.662   2.826  15.225 -0.3148  0.0770 -0.5260
  435MPD2    C1 6535   1.664   2.776  15.353  0.1569 -0.2744  0.5150
  435MPD2    C2 6536   1.778   2.786  15.427  0.4081  0.0861  0.8338
  435MPD2    C3 6537   1.894   2.851  15.379 -0.0647  0.5927  0.9919
  435MPD2    C4 6538   1.892   2.892  15.250  0.8535 -0.5357 -0.5784
  435MPD2    C5 6539   1.776   2.880  15.177 -0.1723 -0.4140  0.7070
  435MPD2     H 6540   1.792   2.731  15.519  1.2864  1.4963  1.5531
  435MPD2    H1 6541   1.979   2.931  15.198  0.8907 -1.0246 -0.8743
  435MPD2    H2 6542   1.580   2.828  15.155  0.1774  0.4549 -1.0857
  435MPD2    H3 6543   1.774   2.905  15.071  0.0939  0.4207  0.8990
  435MPD2     N 6544   2.006   2.858  15.461 -0.1785 -0.3935  0.0483
  435MPD2    H5 6545   2.010   2.821  15.556  1.0284  0.8677  0.4890
  435MPD2    N1 6546   1.546   2.724  15.415 -0.2564  0.4237 -0.3762
  435MPD2    H7 6547   1.552   2.707  15.515 -2.5340  4.0851  0.3798
  436TMC3    C1 6548   1.243   2.614  15.665 -0.0010 -0.2681 -0.9146
  436TMC3    C2 6549   1.329   2.614  15.563 -0.2284 -0.2303  0.0214
  436TMC3    C3 6550   1.310   2.711  15.468 -0.9739 -0.7488  0.4965
  436TMC3    C4 6551   1.133   2.701  15.679  0.0394  0.0971  0.1984
  436TMC3    C5 6552   1.118   2.790  15.573 -0.0711  0.1712 -0.4827
  436TMC3    C6 6553   1.209   2.799  15.469  0.7343  0.5790 -0.6935
  436TMC3     C 6554   1.301   2.565  15.787  0.1879  0.3593  0.4032
  436TMC3     O 6555   1.361   2.461  15.785 -0.7502 -0.4432  0.1933
  436TMC3     H 6556   1.414   2.547  15.554  0.5079  0.4982  1.5718
  436TMC3    H1 6557   1.068   2.704  15.765 -0.6047 -0.9724 -0.2620
  436TMC3    H2 6558   1.199   2.879  15.395 -0.4418 -1.3006 -2.5720
  436TMC3    C7 6559   1.009   2.886  15.583 -0.2303  0.8527  0.3424
  436TMC3    C8 6560   1.419   2.716  15.364  0.4007  0.1807 -0.2203
  436TMC3    O1 6561   0.930   2.870  15.678 -0.5331 -0.5381  0.0182
  436TMC3    O2 6562   1.365   2.765  15.266 -0.3571 -0.1199  0.3415
  437TMC3    C1 6563   1.269   0.220  11.745 -0.1824  0.5454 -0.2196
  437TMC3    C2 6564   1.331   0.113  11.805  0.9159 -0.7656  0.0886
  437TMC3    C3 6565   1.431   0.136  11.896  0.1190  0.1069  0.3969
  437TMC3    C4 6566   1.319   0.346  11.766 -0.1952  0.3154  0.4340
  437TMC3    C5 6567   1.407   0.370  11.870 -0.2881 -0.0250 -0.1452
  437TMC3    C6 6568   1.462   0.262  11.938 -0.3607 -0.3586 -0.0813
  437TMC3     C 6569   1.199   0.205  11.617  0.1947 -0.4629  0.0328
  437TMC3     O 6570   1.131   0.104  11.591  0.3448  0.1652  0.0447
  437TMC3     H 6571   1.301   0.014  11.774  2.6746 -0.7334 -1.6921
  437TMC3    H1 6572   1.289   0.428  11.703  1.7101  0.5592 -0.1669
  437TMC3    H2 6573   1.517   0.275  12.030 -2.2949  2.6197  0.6710
  437TMC3    C7 6574   1.491   0.484  11.856  0.2061 -0.1866  0.8468
  437TMC3    C8 6575   1.561   0.069  11.877 -0.0648 -0.0968  0.0040
  437TMC3    O1 6576   1.483   0.535  11.745  0.5734 -0.1603 -0.2621
  437TMC3    O2 6577   1.655   0.123  11.929  0.0410  1.0278  0.2999
  438MPD2     C 6578   3.255   0.843  16.695  0.0000  0.0526 -0.1796
  438MPD2    C1 6579   3.353   0.763  16.756 -0.1040  0.0096 -0.3110
  438MPD2    C2 6580   3.329   0.724  16.885  0.2720  0.2843  0.2392
  438MPD2    C3 6581   3.208   0.755  16.944 -1.1350 -0.4852 -0.7273
  438MPD2    C4 6582   3.121   0.838  16.881  0.0763 -0.1030 -0.0526
  438MPD2    C5 6583   3.138   0.880  16.754  0.4542  0.1311  0.3770
  438MPD2     H 6584   3.399   0.665  16.943  0.0899 -1.0659 -0.9291
  438MPD2    H1 6585   3.026   0.864  16.928 -0.3666  0.6905 -1.3926
  438MPD2    H2 6586   3.277   0.879  16.596  0.6257 -1.2294 -0.5117
  438MPD2    H3 6587   3.061   0.935  16.702  3.0861  4.9958  1.6528
  438MPD2     N 6588   3.185   0.716  17.074 -0.0859  0.0783 -0.8431
  438MPD2    H5 6589   3.116   0.773  17.122 -0.1327 -0.3371 -0.4238
  438MPD2    N1 6590   3.478   0.728  16.692  0.0522  0.0422 -0.2196
  438MPD2    H7 6591   3.540   0.669  16.747  0.5241  0.4456 -0.3242
  439TMC3    C1 6592   3.622   0.653  16.514  0.3390 -0.5842  0.0222
  439TMC3    C2 6593   3.615   0.598  16.391  0.0996 -0.0704  0.0758
  439TMC3    C3 6594   3.701   0.493  16.364  0.0535 -0.6193  0.4038
  439TMC3    C4 6595   3.710   0.608  16.604  0.4486  0.2038 -0.0786
  439TMC3    C5 6596   3.791   0.500  16.576  0.6595  0.4046 -0.1780
  439TMC3    C6 6597   3.781   0.443  16.455 -0.4348 -0.4179  0.6837
  439TMC3     C 6598   3.505   0.731  16.557  0.1103  0.2689 -0.1189
  439TMC3     O 6599   3.457   0.778  16.462  0.3502  0.4324 -0.0758
  439TMC3     H 6600   3.529   0.623  16.331 -0.9627 -0.3472  1.4706
  439TMC3    H1 6601   3.715   0.655  16.701 -2.3537 -1.1883  0.7506
  439TMC3    H2 6602   3.845   0.365  16.416 -1.7281 -0.8322 -0.6328
  439TMC3    C7 6603   3.920   0.482  16.639 -0.3312 -0.2559 -0.7904
  439TMC3    C8 6604   3.740   0.474  16.224  0.0326 -0.3768 -0.0244
  439TMC3    O1 6605   3.970   0.370  16.653 -0.1619  0.2047  0.5123
  439TMC3    O2 6606   3.817   0.385  16.201  0.5579  0.1231 -0.0588
  440MPD2     C 6607   2.081   1.358  14.476 -0.1042  0.2408  0.2796
  440MPD2    C1 6608   2.115   1.469  14.558 -0.5627  1.0157 -0.0270
  440MPD2    C2 6609   2.228   1.459  14.634 -0.9627  0.4751 -1.4808
  440MPD2    C3 6610   2.311   1.350  14.627  0.5249  0.3229 -0.2277
  440MPD2    C4 6611   2.272   1.246  14.544 -0.6511 -0.4154  0.0943
  440MPD2    C5 6612   2.159   1.249  14.473 -0.2419 -0.0506  0.0237
  440MPD2     H 6613   2.254   1.543  14.699 -0.2883 -0.3220 -0.7176
  440MPD2    H1 6614   2.339   1.161  14.536  2.3105  1.9236  0.2595
  440MPD2    H2 6615   1.988   1.362  14.420  0.6814 -0.9088 -1.0795
  440MPD2    H3 6616   2.139   1.156  14.421 -1.3020  0.3234 -0.2420
  440MPD2     N 6617   2.419   1.326  14.716 -0.0702 -0.1000 -0.1572
  440MPD2    H5 6618   2.458   1.232  14.714  2.0417  0.8089 -1.5762
  440MPD2    N1 6619   2.034   1.590  14.564 -0.5277  0.2074 -0.2097
  440MPD2    H7 6620   2.052   1.651  14.644 -1.6028 -1.7083  1.4942
  441TMC3    C1 6621   2.574   1.361  14.883 -0.0594 -0.2716 -0.3518
  441TMC3    C2 6622   2.662   1.444  14.943  1.0014 -0.2669 -0.2463
  441TMC3    C3 6623   2.700   1.411  15.071 -0.2184  0.4343  0.2886
  441TMC3    C4 6624   2.533   1.245  14.944 -0.7533 -0.0835  0.7826
  441TMC3    C5 6625   2.588   1.205  15.066 -0.2153 -0.4443 -0.1444
  441TMC3    C6 6626   2.679   1.287  15.126 -0.2287  0.3746  0.6818
  441TMC3     C 6627   2.483   1.424  14.789  0.5314  0.7045  0.0962
  441TMC3     O 6628   2.468   1.543  14.793  0.8924  0.4804  0.3711
  441TMC3     H 6629   2.708   1.529  14.893 -3.7147  1.0333 -2.3502
  441TMC3    H1 6630   2.462   1.180  14.895 -0.4678 -0.6711  1.1473
  441TMC3    H2 6631   2.719   1.260  15.223  0.7601  0.1391  0.2108
  441TMC3    C7 6632   2.539   1.084  15.132 -0.0336  0.7003 -0.2073
  441TMC3    C8 6633   2.675   1.518  15.165  0.9465  0.1733 -0.0937
  441TMC3    O1 6634   2.588   1.063  15.245 -0.4817 -0.2838  0.6735
  441TMC3    O2 6635   2.687   1.488  15.283  0.3337 -0.0436  0.2016
  442MPD2     C 6636   0.820   1.398  16.702  0.5913 -0.0160 -0.0554
  442MPD2    C1 6637   0.702   1.341  16.743 -0.2811 -0.0990  0.8337
  442MPD2    C2 6638   0.650   1.224  16.693  0.4458 -0.1684  0.4419
  442MPD2    C3 6639   0.725   1.168  16.591  0.2296 -1.2345 -0.7018
  442MPD2    C4 6640   0.838   1.230  16.539  0.4852  0.7467  0.1515
  442MPD2    C5 6641   0.889   1.341  16.602 -0.7115 -0.7148 -0.3299
  442MPD2     H 6642   0.560   1.176  16.731  0.7692  1.1098  2.8264
  442MPD2    H1 6643   0.892   1.200  16.450  1.5450  0.6698  0.8313
  442MPD2    H2 6644   0.872   1.485  16.740  1.9683 -0.4970 -0.8708
  442MPD2    H3 6645   0.979   1.384  16.559  0.3669 -0.3462  2.3432
  442MPD2     N 6646   0.694   1.053  16.522 -0.2669 -0.5179  0.3019
  442MPD2    H5 6647   0.754   1.036  16.442 -0.9085  0.8587 -0.4882
  442MPD2    N1 6648   0.624   1.404  16.845  0.6246 -0.1558 -0.1070
  442MPD2    H7 6649   0.542   1.352  16.874  0.1041  0.9084  0.3173
  443TMC3    C1 6650   0.559   1.574  16.993 -0.2887 -0.2655  0.4913
  443TMC3    C2 6651   0.550   1.705  17.018  0.3192 -0.0367 -0.5968
  443TMC3    C3 6652   0.440   1.744  17.086  0.3529 -0.4251 -0.0754
  443TMC3    C4 6653   0.485   1.476  17.061  0.2592  0.7285  0.0682
  443TMC3    C5 6654   0.391   1.522  17.145  0.9461  0.5915 -0.1204
  443TMC3    C6 6655   0.353   1.663  17.154 -0.3460 -0.2180 -0.0627
  443TMC3     C 6656   0.658   1.531  16.898  0.0943 -0.1842  0.0035
  443TMC3     O 6657   0.748   1.610  16.867 -0.0240  0.3650 -0.2728
  443TMC3     H 6658   0.601   1.787  16.968 -0.7197  0.1310 -1.3823
  443TMC3    H1 6659   0.501   1.369  17.063 -0.0370  0.7094  1.5656
  443TMC3    H2 6660   0.270   1.707  17.208  0.6633 -0.4942  1.7120
  443TMC3    C7 6661   0.302   1.431  17.214 -0.2865  0.8027  0.2894
  443TMC3    C8 6662   0.417   1.886  17.086  0.4138 -0.4084 -0.5902
  443TMC3    O1 6663   0.292   1.316  17.179  0.5546 -0.2823 -0.3478
  443TMC3    O2 6664   0.405   1.925  17.201 -0.6084  0.4374 -0.0444
  444MPD2     C 6665   0.870   1.171  17.006 -0.1628 -0.0739 -0.0088
  444MPD2    C1 6666   0.794   1.057  17.018  0.5078  0.4799  0.0995
  444MPD2    C2 6667   0.823   0.942  16.952 -0.0256  0.5573  0.0379
  444MPD2    C3 6668   0.929   0.942  16.862  0.7318  0.1918 -0.3664
  444MPD2    C4 6669   0.995   1.060  16.842  0.6605  0.4605 -0.2935
  444MPD2    C5 6670   0.972   1.177  16.916  0.1096  0.1467  0.8995
  444MPD2     H 6671   0.756   0.858  16.967  0.2899  0.2216 -0.4083
  444MPD2    H1 6672   1.082   1.081  16.780 -0.4304 -0.8806 -2.2567
  444MPD2    H2 6673   0.858   1.261  17.067 -1.5915 -0.8346  0.8318
  444MPD2    H3 6674   1.022   1.273  16.905 -1.4398  0.7263 -1.0547
  444MPD2     N 6675   0.963   0.824  16.789 -0.0830 -0.6019  0.2085
  444MPD2    H5 6676   0.894   0.750  16.798  0.1279 -0.7338  0.6921
  444MPD2    N1 6677   0.692   1.046  17.114  0.3180 -0.4491 -0.0557
  444MPD2    H7 6678   0.639   0.960  17.106 -0.0793 -0.0938 -1.2558
  445TMC3    C1 6679   1.067   0.679  16.647  0.2365  0.2995  0.2401
  445TMC3    C2 6680   0.951   0.630  16.595  0.1115 -0.6454  0.4483
  445TMC3    C3 6681   0.969   0.519  16.513  0.3463  0.4003  0.4308
  445TMC3    C4 6682   1.189   0.624  16.629 -0.3330 -0.0676 -0.3144
  445TMC3    C5 6683   1.203   0.510  16.562 -0.0449  0.2430 -0.5312
  445TMC3    C6 6684   1.089   0.458  16.502 -0.2464  0.2582 -0.3120
  445TMC3     C 6685   1.070   0.806  16.714 -0.1639 -0.1326 -0.0097
  445TMC3     O 6686   1.176   0.869  16.708  0.5280 -1.2734 -0.5233
  445TMC3     H 6687   0.856   0.681  16.588  1.5217  1.8068 -0.7666
  445TMC3    H1 6688   1.276   0.674  16.670 -0.0156 -0.9258  0.0514
  445TMC3    H2 6689   1.094   0.365  16.446  0.8461 -0.0572  0.2988
  445TMC3    C7 6690   1.347   0.476  16.527 -0.1134 -0.6299 -0.2604
  445TMC3    C8 6691   0.853   0.464  16.452 -0.2476 -0.4398 -0.6669
  445TMC3    O1 6692   1.429   0.569  16.539  0.2942 -0.3908 -0.0350
  445TMC3    O2 6693   0.870   0.376  16.366  0.6202 -0.5365 -0.0686
  446MPD2     C 6694   0.106   2.117  11.482 -0.0309 -0.3465 -0.1188
  446MPD2    C1 6695   0.116   2.117  11.348  0.6837 -0.2098  0.6401
  446MPD2    C2 6696   0.215   2.187  11.288 -0.4557  0.5387  0.0497
  446MPD2    C3 6697   0.311   2.262  11.350  0.8608  1.0296  0.0765
  446MPD2    C4 6698   0.300   2.265  11.486  0.6756 -0.0995 -0.5323
  446MPD2    C5 6699   0.190   2.202  11.543 -0.1890 -0.0120  0.4301
  446MPD2     H 6700   0.214   2.168  11.181  2.3051 -0.0775  0.1254
  446MPD2    H1 6701   0.373   2.304  11.557 -0.6202  0.8095  0.3163
  446MPD2    H2 6702   0.030   2.076  11.547  0.3056 -1.0759 -0.1774
  446MPD2    H3 6703   0.189   2.216  11.651  0.1315  0.8361  0.3218
  446MPD2     N 6704   0.423   2.321  11.283  0.1461  0.0987 -0.0428
  446MPD2    H5 6705   0.410   2.321  11.182  1.7314  1.4449 -0.2687
  446MPD2    N1 6706   0.027   2.051  11.267 -0.0995  0.0328  0.2296
  446MPD2    H7 6707   0.054   2.035  11.171 -0.8658 -0.0486  0.0271
  447TMC3    C1 6708   0.638   2.419  11.251 -0.0427  0.1612  0.3472
  447TMC3    C2 6709   0.609   2.424  11.117  0.6169 -0.8464 -0.3257
  447TMC3    C3 6710   0.717   2.448  11.033  0.7051  0.3852 -0.1245
  447TMC3    C4 6711   0.758   2.456  11.304  0.5814  0.0748 -0.9867
  447TMC3    C5 6712   0.858   2.482  11.215 -0.1449  0.4225  0.4027
  447TMC3    C6 6713   0.845   2.468  11.079 -0.2065 -0.3261  0.2441
  447TMC3     C 6714   0.534   2.373  11.337  0.3625 -0.0366 -0.1812
  447TMC3     O 6715   0.564   2.370  11.456 -0.1965 -0.3170  0.3738
  447TMC3     H 6716   0.514   2.403  11.069 -1.2362  0.2448  2.8326
  447TMC3    H1 6717   0.775   2.460  11.411 -0.6895 -1.4333 -0.7410
  447TMC3    H2 6718   0.920   2.500  11.008  1.4741 -1.6368  1.4319
  447TMC3    C7 6719   0.989   2.478  11.265  0.4705 -0.1887  0.0083
  447TMC3    C8 6720   0.690   2.459  10.886  0.0127 -0.9954  0.1218
  447TMC3    O1 6721   1.063   2.419  11.190 -0.0600 -0.3467 -0.4857
  447TMC3    O2 6722   0.575   2.483  10.850  0.3088  0.1865 -0.3589
  448TMC3    C1 6723   3.094   2.090  17.185  0.3248  0.0372  0.1571
  448TMC3    C2 6724   3.038   1.998  17.097  0.2386  0.0534  0.1016
  448TMC3    C3 6725   3.042   1.867  17.141 -0.0051 -0.1191  0.2110
  448TMC3    C4 6726   3.162   2.069  17.294  0.1808  0.1674  0.5222
  448TMC3    C5 6727   3.176   1.934  17.323  0.7799 -0.2249 -0.0730
  448TMC3    C6 6728   3.113   1.830  17.255  0.2194 -0.1014 -0.0990
  448TMC3     C 6729   3.044   2.222  17.185 -0.3508  0.2885  0.1544
  448TMC3     O 6730   3.051   2.273  17.074  0.3455 -0.1338  0.5233
  448TMC3     H 6731   2.974   2.038  17.019 -0.2199 -0.1411  0.3772
  448TMC3    H1 6732   3.213   2.142  17.355  0.4490  1.2813 -1.0647
  448TMC3    H2 6733   3.105   1.726  17.284 -2.3103  0.0757 -0.1151
  448TMC3    C7 6734   3.223   1.898  17.456  0.3160  0.6213 -0.1297
  448TMC3    C8 6735   3.053   1.761  17.044  0.2508  0.3822  0.0796
  448TMC3    O1 6736   3.271   1.990  17.519 -0.3000  0.5896  0.1816
  448TMC3    O2 6737   3.148   1.687  17.069 -0.0105  0.5390 -0.6691
  449MPD2     C 6738   4.281   4.395  13.031  0.1974  0.0381  1.0481
  449MPD2    C1 6739   4.379   4.440  13.123 -0.2311 -0.0882 -0.0986
  449MPD2    C2 6740   4.341   4.513  13.232 -1.1842  0.2925  0.0577
  449MPD2    C3 6741   4.208   4.533  13.257 -0.4679 -0.7920  0.5079
  449MPD2    C4 6742   4.107   4.476  13.182  0.1979  0.6753 -0.0837
  449MPD2    C5 6743   4.148   4.406  13.073 -0.9756  0.3188 -0.2049
  449MPD2     H 6744   4.412   4.566  13.295  0.6513 -0.8257 -1.1000
  449MPD2    H1 6745   4.001   4.499  13.192 -0.0943  0.5457 -2.9448
  449MPD2    H2 6746   4.309   4.343  12.940 -1.9281 -0.4135  0.6536
  449MPD2    H3 6747   4.071   4.368  13.007 -0.6920  1.6472 -1.2871
  449MPD2     N 6748   4.180   4.627  13.358 -0.1180  0.3514  0.4065
  449MPD2    H5 6749   4.264   4.668  13.398  0.5258  0.3205 -0.9096
  449MPD2    N1 6750   4.513   4.441  13.102 -0.0044 -0.2098  0.5517
  449MPD2    H7 6751   4.567   4.473  13.182 -0.7155  0.4384  0.7824
  450TMC3    C1 6752   4.717   4.431  13.005  0.2764  0.4696  0.4500
  450TMC3    C2 6753   0.046   4.497  12.899 -0.0394  0.6714 -0.2220
  450TMC3    C3 6754   0.135   4.598  12.937 -0.0069  0.2694  0.2139
  450TMC3    C4 6755   0.025   4.443  13.132 -0.1143  0.1388 -0.3994
  450TMC3    C5 6756   0.110   4.541  13.165  0.6267 -0.1332  0.1554
  450TMC3    C6 6757   0.174   4.616  13.067  0.0950  0.2353 -0.2009
  450TMC3     C 6758   4.577   4.408  12.983  0.1688 -0.2374  0.0354
  450TMC3     O 6759   4.529   4.385  12.874  0.0030 -0.2973  0.3230
  450TMC3     H 6760   0.000   4.490  12.801  1.7119  0.6439 -1.0253
  450TMC3    H1 6761   4.723   4.375  13.211  1.4895  1.0431  1.0155
  450TMC3    H2 6762   0.230   4.706  13.093 -0.2276 -0.2930  2.3543
  450TMC3    C7 6763   0.046   4.608  13.278 -0.0965  0.2375  0.1400
  450TMC3    C8 6764   0.210   4.654  12.833  1.3095  0.0418  0.6055
  450TMC3    O1 6765   4.655   4.582  13.284 -0.2082 -0.9837  0.1492
  450TMC3    O2 6766   0.176   4.646  12.713  0.5555  0.0974 -0.0088
  451MPD2     C 6767   1.575   3.956   1.329  0.0713 -0.2023 -0.3676
  451MPD2    C1 6768   1.500   3.933   1.211  0.5632 -0.2856 -0.0060
  451MPD2    C2 6769   1.549   3.839   1.120  0.0628 -0.1740 -0.1741
  451MPD2    C3 6770   1.676   3.782   1.126  0.0453  0.1843  0.3873
  451MPD2    C4 6771   1.754   3.827   1.230  0.3358 -0.7837  0.1172
  451MPD2    C5 6772   1.703   3.905   1.328  0.3502  0.0365  0.2270
  451MPD2     H 6773   1.479   3.800   1.046  0.2171  0.4613 -0.6536
  451MPD2    H1 6774   1.860   3.803   1.232  0.3958 -0.3506  2.5689
  451MPD2    H2 6775   1.546   4.015   1.415  0.5098 -1.5134  0.6910
  451MPD2    H3 6776   1.777   3.936   1.401 -0.0434  1.1378  0.1499
  451MPD2     N 6777   1.730   3.694   1.026 -0.6423 -0.3551  0.4043
  451MPD2    H5 6778   1.815   3.654   1.064  0.1056 -0.4133 -1.3430
  451MPD2    N1 6779   1.384   4.012   1.190 -0.3708  0.1958 -0.1863
  451MPD2    H7 6780   1.356   4.082   1.257  2.3616  0.0340  1.1132
  452TMC3    C1 6781   1.721   3.515   0.877  0.7393  0.2703  0.6229
  452TMC3    C2 6782   1.654   3.411   0.823  0.2210 -0.4814 -0.4960
  452TMC3    C3 6783   1.725   3.313   0.750  0.1647  0.5371 -0.1703
  452TMC3    C4 6784   1.855   3.541   0.849  0.0239  0.0364  0.1889
  452TMC3    C5 6785   1.920   3.443   0.777 -0.2234 -1.0441  1.0204
  452TMC3    C6 6786   1.857   3.326   0.734  0.6223  0.0598 -0.3246
  452TMC3     C 6787   1.646   3.619   0.946 -0.6516 -0.4942  0.7660
  452TMC3     O 6788   1.528   3.621   0.919  0.4745 -0.6351 -0.0826
  452TMC3     H 6789   1.546   3.411   0.821  0.1753  2.8290  0.9268
  452TMC3    H1 6790   1.907   3.632   0.877  0.5427 -0.1669 -0.1319
  452TMC3    H2 6791   1.917   3.252   0.684  1.2819 -0.5268  1.3281
  452TMC3    C7 6792   2.025   3.502   0.694  0.1794  0.2140 -0.3831
  452TMC3    C8 6793   1.643   3.217   0.662 -0.6401  0.4296 -0.6511
  452TMC3    O1 6794   2.011   3.626   0.679 -0.2832  0.3718  0.3499
  452TMC3    O2 6795   1.523   3.216   0.679 -0.0504  0.4556  0.1706
  453TMC3    C1 6796   2.587   1.411  11.886 -0.2040  0.9015 -0.2705
  453TMC3    C2 6797   2.548   1.283  11.884 -0.3088 -0.3046 -0.0971
  453TMC3    C3 6798   2.521   1.210  11.774 -0.2213  0.0273 -0.6290
  453TMC3    C4 6799   2.597   1.474  11.764  0.1071 -0.5934 -0.5118
  453TMC3    C5 6800   2.582   1.401  11.652  0.3646 -0.1069 -1.1349
  453TMC3    C6 6801   2.536   1.275  11.653  0.2188 -0.6598 -0.0147
  453TMC3     C 6802   2.697   1.445  11.971 -0.1034  0.1368  0.5019
  453TMC3     O 6803   2.779   1.530  11.928 -0.1201 -0.0971  0.2619
  453TMC3     H 6804   2.547   1.223  11.975 -3.4441 -1.2672 -0.7872
  453TMC3    H1 6805   2.630   1.578  11.768  0.9908 -0.9068  0.4180
  453TMC3    H2 6806   2.497   1.238  11.559 -1.0146 -0.2640  0.3419
  453TMC3    C7 6807   2.610   1.455  11.522 -1.1658 -0.0342  0.5768
  453TMC3    C8 6808   2.437   1.093  11.779 -0.3151 -0.8592 -0.1730
  453TMC3    O1 6809   2.612   1.376  11.428 -0.1033  1.0915  0.1353
  453TMC3    O2 6810   2.401   1.055  11.887  0.6554  0.3462 -0.0596
  454MPD2     C 6811   1.616   0.601  16.071  0.3923 -0.2377  0.3978
  454MPD2    C1 6812   1.557   0.675  15.962 -0.0222  0.0775  0.5412
  454MPD2    C2 6813   1.500   0.803  15.992 -0.2250 -0.2348  0.1279
  454MPD2    C3 6814   1.515   0.859  16.119 -0.5169  0.5766 -0.4063
  454MPD2    C4 6815   1.580   0.793  16.219  0.7762 -0.0438 -0.0046
  454MPD2    C5 6816   1.627   0.664  16.199  0.2017  0.4832 -0.1591
  454MPD2     H 6817   1.430   0.842  15.918  0.5636  2.4282  0.7834
  454MPD2    H1 6818   1.586   0.835  16.319 -1.1012 -1.8085  0.8253
  454MPD2    H2 6819   1.640   0.495  16.068 -0.0123 -0.3221  0.0907
  454MPD2    H3 6820   1.667   0.606  16.281 -0.0636 -0.9997 -1.0841
  454MPD2     N 6821   1.439   0.969  16.164 -0.1646 -0.1586  0.2103
  454MPD2    H5 6822   1.442   0.988  16.264 -1.9525 -1.5102  0.5027
  454MPD2    N1 6823   1.516   0.613  15.843 -0.3899  0.5522 -0.6865
  454MPD2    H7 6824   1.483   0.677  15.772  0.6664  1.3175 -0.4823
  455TMC3    C1 6825   1.254   1.093  16.189  0.2615  0.0438  0.5920
  455TMC3    C2 6826   1.303   1.149  16.305  0.2735  0.6748 -0.3413
  455TMC3    C3 6827   1.237   1.121  16.417 -0.5040  0.1924 -0.3332
  455TMC3    C4 6828   1.150   1.005  16.199 -0.0208  0.3339  0.2018
  455TMC3    C5 6829   1.089   0.975  16.321 -0.1880 -0.2437 -0.4010
  455TMC3    C6 6830   1.135   1.029  16.438  1.1843 -0.5418  0.1250
  455TMC3     C 6831   1.348   1.049  16.094  0.0332  0.0860 -1.0350
  455TMC3     O 6832   1.322   1.040  15.971  0.4160 -0.2388  0.8567
  455TMC3     H 6833   1.393   1.209  16.301  1.5160 -1.2484 -1.3268
  455TMC3    H1 6834   1.118   0.948  16.112  1.2479  0.7106 -0.5193
  455TMC3    H2 6835   1.094   1.008  16.536 -1.9481  1.1932 -0.7982
  455TMC3    C7 6836   1.070   0.835  16.319  0.4012 -0.0321  0.5957
  455TMC3    C8 6837   1.252   1.228  16.515 -1.4486 -0.4487  0.5305
  455TMC3    O1 6838   0.954   0.791  16.339  0.4018 -0.8862  0.3613
  455TMC3    O2 6839   1.230   1.188  16.627  0.0990  0.0647  0.2850
  456MPD2     C 6840   3.866   0.973  16.110  0.2400 -0.8602 -0.0129
  456MPD2    C1 6841   3.887   0.901  16.221  0.0913  0.0292 -0.1544
  456MPD2    C2 6842   3.813   0.918  16.338  0.0848  0.3514 -0.5523
  456MPD2    C3 6843   3.710   1.012  16.342 -0.8290  0.1044 -0.3139
  456MPD2    C4 6844   3.694   1.090  16.224 -0.0513  0.3024 -0.1925
  456MPD2    C5 6845   3.775   1.073  16.116 -0.0092  0.5484  0.2010
  456MPD2     H 6846   3.843   0.873  16.432  0.0642  1.6813  0.0879
  456MPD2    H1 6847   3.615   1.164  16.234 -1.1301 -0.8410 -0.2816
  456MPD2    H2 6848   3.917   0.956  16.016  2.7370 -0.7054  1.3153
  456MPD2    H3 6849   3.760   1.138  16.031 -1.1671  0.2471  0.1832
  456MPD2     N 6850   3.637   1.034  16.462  0.1277 -0.2358  0.1010
  456MPD2    H5 6851   3.667   0.988  16.547 -0.5557 -0.8833 -0.0053
  456MPD2    N1 6852   3.981   0.802  16.207 -0.3771 -0.4497 -0.0363
  456MPD2    H7 6853   4.037   0.802  16.122 -0.7163 -0.3793 -0.2618
  457TMC3    C1 6854   3.473   1.125  16.620  0.1561 -0.0986  0.5691
  457TMC3    C2 6855   3.354   1.191  16.629  0.7117  0.7981  0.3458
  457TMC3    C3 6856   3.303   1.209  16.752 -0.4362  0.0070 -0.0465
  457TMC3    C4 6857   3.543   1.066  16.725 -0.7533  0.4600 -0.0949
  457TMC3    C5 6858   3.486   1.095  16.845  0.1376 -0.5527 -0.2097
  457TMC3    C6 6859   3.362   1.156  16.864 -0.0703  0.2695  0.1992
  457TMC3     C 6860   3.517   1.095  16.486 -0.4727 -0.0027  0.3735
  457TMC3     O 6861   3.439   1.128  16.394  0.6147 -0.1960  0.1736
  457TMC3     H 6862   3.303   1.233  16.544  0.3563  0.5615  0.4449
  457TMC3    H1 6863   3.640   1.017  16.725 -0.2659  1.4354  3.5086
  457TMC3    H2 6864   3.322   1.166  16.964 -0.8835  1.7707 -0.2835
  457TMC3    C7 6865   3.576   1.069  16.965 -0.2943 -0.0168 -0.1127
  457TMC3    C8 6866   3.214   1.324  16.785 -0.6783  0.3074 -0.4001
  457TMC3    O1 6867   3.666   0.986  16.962  0.1468 -0.3243  0.2109
  457TMC3    O2 6868   3.213   1.347  16.902 -0.8547  0.3886 -0.1057
  458MPD2     C 6869   1.895   0.737  12.046  0.4576 -0.0071  0.1948
  458MPD2    C1 6870   1.817   0.701  12.157  0.1411 -0.1882 -0.2179
  458MPD2    C2 6871   1.704   0.624  12.131 -0.5405 -0.1135  0.2886
  458MPD2    C3 6872   1.661   0.601  12.000 -0.6928  0.6882  0.0193
  458MPD2    C4 6873   1.736   0.651  11.893  0.5618 -0.4476  0.1781
  458MPD2    C5 6874   1.855   0.712  11.913 -0.1908  0.0344  0.4323
  458MPD2     H 6875   1.642   0.574  12.204 -0.3277 -1.6172 -0.5411
  458MPD2    H1 6876   1.706   0.638  11.790 -3.1750  1.3508  1.0284
  458MPD2    H2 6877   1.981   0.804  12.057 -2.2186  3.1347  2.1425
  458MPD2    H3 6878   1.915   0.745  11.828  0.0756  1.5500  1.2044
  458MPD2     N 6879   1.554   0.517  11.979  0.9970  0.2854  0.3564
  458MPD2    H5 6880   1.521   0.464  12.059  1.8472 -1.3847 -0.3991
  458MPD2    N1 6881   1.867   0.733  12.286 -0.0934 -0.0357 -0.2239
  458MPD2    H7 6882   1.962   0.770  12.295 -0.3603  0.3723  0.9368
  459TMC3    C1 6883   1.869   0.762  12.518  0.3358 -0.4225 -0.3280
  459TMC3    C2 6884   1.973   0.854  12.509 -0.4679 -0.1202 -0.0667
  459TMC3    C3 6885   2.052   0.880  12.618  0.1248 -0.4021 -0.2999
  459TMC3    C4 6886   1.838   0.716  12.641  0.0412  0.5909  0.3539
  459TMC3    C5 6887   1.915   0.754  12.755  0.1949 -0.0228 -0.1479
  459TMC3    C6 6888   2.031   0.831  12.740  0.0448  0.3861  0.1418
  459TMC3     C 6889   1.796   0.721  12.398  0.6382 -0.2467  0.8291
  459TMC3     O 6890   1.680   0.682  12.406  0.2650 -0.0889 -0.3108
  459TMC3     H 6891   1.992   0.895  12.411 -1.3031  0.6357  0.0886
  459TMC3    H1 6892   1.754   0.648  12.646  1.3198 -0.9338  1.1788
  459TMC3    H2 6893   2.101   0.834  12.823 -1.9341 -1.4123  1.8585
  459TMC3    C7 6894   1.889   0.692  12.883 -0.3216  0.5259  0.1154
  459TMC3    C8 6895   2.178   0.947  12.583  0.2264 -0.0732 -0.2299
  459TMC3    O1 6896   1.978   0.690  12.962 -0.1069 -0.4599  0.1957
  459TMC3    O2 6897   2.195   0.979  12.466 -0.2613 -0.0458 -1.1979
  460MPD2     C 6898   0.867   2.283  10.625 -0.0985 -0.2887 -0.2288
  460MPD2    C1 6899   0.800   2.384  10.686 -0.0189  0.0158 -0.0814
  460MPD2    C2 6900   0.736   2.476  10.607 -0.0183 -0.0347 -0.0842
  460MPD2    C3 6901   0.733   2.460  10.466  0.0202  0.0466 -0.7814
  460MPD2    C4 6902   0.799   2.354  10.414 -0.2509  0.1119  0.4479
  460MPD2    C5 6903   0.867   2.266  10.492 -0.1193 -0.0115 -0.2279
  460MPD2     H 6904   0.709   2.570  10.653  2.5233  0.2344  0.9058
  460MPD2    H1 6905   0.807   2.352  10.306 -0.5683 -1.5699  0.4507
  460MPD2    H2 6906   0.940   2.221  10.677 -0.0634 -0.6287 -0.6879
  460MPD2    H3 6907   0.922   2.185  10.446  1.3989  0.3850  0.8817
  460MPD2     N 6908   0.664   2.554  10.388 -0.1694 -0.8972  0.4372
  460MPD2    H5 6909   0.623   2.636  10.431 -2.9224 -1.6994 -0.6224
  460MPD2    N1 6910   0.793   2.394  10.827 -0.5490  0.0729 -0.4249
  460MPD2    H7 6911   0.862   2.345  10.882 -0.8547  0.5076  0.3377
  461TMC3    C1 6912   0.510   2.629  10.214  0.5184 -0.0281  0.1119
  461TMC3    C2 6913   0.392   2.568  10.180 -0.0742  0.0035 -0.3283
  461TMC3    C3 6914   0.289   2.637  10.125  0.3278 -0.0946  0.5285
  461TMC3    C4 6915   0.518   2.757  10.223  0.8141 -0.3890  0.3201
  461TMC3    C5 6916   0.409   2.825  10.177 -0.0580 -0.2266  0.1994
  461TMC3    C6 6917   0.297   2.772  10.117  0.1130 -0.2232 -0.6990
  461TMC3     C 6918   0.610   2.534  10.261 -0.4906  0.2980 -0.2969
  461TMC3     O 6919   0.621   2.432  10.185  0.0300  0.2370  0.5295
  461TMC3     H 6920   0.395   2.460  10.171  0.9139 -0.0683  0.8607
  461TMC3    H1 6921   0.611   2.806  10.252  0.2016 -0.1531  1.8648
  461TMC3    H2 6922   0.208   2.830  10.096  0.4820  1.0406  1.2113
  461TMC3    C7 6923   0.392   2.966  10.202  0.6378  0.1706 -0.2075
  461TMC3    C8 6924   0.167   2.590  10.067 -0.6147  0.4892 -0.4444
  461TMC3    O1 6925   0.339   3.024  10.112 -0.2865 -0.3204 -0.1467
  461TMC3    O2 6926   0.106   2.661   9.987 -0.6640 -0.2649 -0.3611
  462TMC3    C1 6927   1.325   3.782   0.429 -0.5027  0.1384  0.4399
  462TMC3    C2 6928   1.438   3.718   0.475 -0.2875  0.1620  0.3557
  462TMC3    C3 6929   1.432   3.584   0.454  0.5205 -0.3532 -0.7196
  462TMC3    C4 6930   1.215   3.729   0.372 -0.2313  0.0286  0.2937
  462TMC3    C5 6931   1.213   3.590   0.372  0.1413 -0.2827 -0.0372
  462TMC3    C6 6932   1.325   3.516   0.402  0.4518  0.1812 -0.3267
  462TMC3     C 6933   1.316   3.936   0.420  0.2714  0.2060 -0.0613
  462TMC3     O 6934   1.273   3.979   0.315  0.5843  0.5849 -0.1799
  462TMC3     H 6935   1.529   3.766   0.509  0.1387 -0.7510  0.5009
  462TMC3    H1 6936   1.126   3.789   0.356 -2.1056 -2.4867  1.2018
  462TMC3    H2 6937   1.324   3.408   0.412  1.0303  0.1286 -0.8485
  462TMC3    C7 6938   1.090   3.527   0.321  0.0733 -1.1601  0.0810
  462TMC3    C8 6939   1.559   3.521   0.438 -0.1588  1.1278  0.5331
  462TMC3    O1 6940   1.089   3.410   0.307 -0.6166 -0.9554  0.9596
  462TMC3    O2 6941   1.653   3.569   0.500 -0.3266  0.3123 -0.0158
  463MPD2     C 6942   2.456   1.733   1.338  0.2998 -0.4509  0.3627
  463MPD2    C1 6943   2.363   1.811   1.279 -0.4537 -0.8810 -0.0556
  463MPD2    C2 6944   2.389   1.946   1.255  0.0145 -0.0549 -0.2475
  463MPD2    C3 6945   2.500   2.003   1.309  0.5669  0.7837  0.2108
  463MPD2    C4 6946   2.595   1.921   1.369 -0.0236 -0.0453 -0.2354
  463MPD2    C5 6947   2.565   1.791   1.391 -0.6197 -0.1503  0.2260
  463MPD2     H 6948   2.323   2.004   1.192 -1.6666 -0.4442  1.1489
  463MPD2    H1 6949   2.682   1.960   1.422 -0.6455  0.1665  0.6352
  463MPD2    H2 6950   2.452   1.625   1.337 -2.5862 -0.3127 -1.5292
  463MPD2    H3 6951   2.640   1.729   1.438 -1.2856  0.0224  1.4960
  463MPD2     N 6952   2.538   2.139   1.307 -0.0590  0.0890 -0.4142
  463MPD2    H5 6953   2.621   2.163   1.361 -1.4132  1.3010  1.1260
  463MPD2    N1 6954   2.228   1.760   1.239  0.3133  0.2812  0.0140
  463MPD2    H7 6955   2.161   1.824   1.197 -0.1008 -0.6563 -0.7593
  464TMC3    C1 6956   2.045   1.621   1.206 -0.2135 -0.2458  0.1227
  464TMC3    C2 6957   1.964   1.729   1.221  0.3053  0.0986 -0.2627
  464TMC3    C3 6958   1.838   1.709   1.165  0.2765 -0.1599 -0.4182
  464TMC3    C4 6959   2.008   1.497   1.160  0.2134  1.2134  0.0130
  464TMC3    C5 6960   1.878   1.476   1.121  0.5244  0.4414 -0.1191
  464TMC3    C6 6961   1.798   1.582   1.119  0.1121  0.7835  0.0346
  464TMC3     C 6962   2.179   1.634   1.245  0.4217 -0.2146  0.1411
  464TMC3     O 6963   2.244   1.532   1.273 -0.5224 -0.5752 -0.0339
  464TMC3     H 6964   1.987   1.808   1.292  0.2724  0.6957 -0.9111
  464TMC3    H1 6965   2.077   1.414   1.155 -0.2783  0.7362  1.1443
  464TMC3    H2 6966   1.692   1.565   1.106  0.5518 -0.7908 -1.5276
  464TMC3    C7 6967   1.852   1.353   1.045  0.0145 -0.3832  0.5852
  464TMC3    C8 6968   1.726   1.795   1.216 -0.1272 -0.1909 -0.8362
  464TMC3    O1 6969   1.951   1.292   0.999 -0.0550  0.7169  0.7955
  464TMC3    O2 6970   1.617   1.780   1.160 -0.6923  0.5568 -0.2438
  465MPD2     C 6971   2.798   1.106  16.900 -0.2886  0.4116  0.5910
  465MPD2    C1 6972   2.671   1.056  16.914  0.2973 -0.4107 -0.1264
  465MPD2    C2 6973   2.576   1.082  16.819 -0.1403  0.6975 -0.5199
  465MPD2    C3 6974   2.606   1.159  16.708  0.8430  0.5914 -0.9251
  465MPD2    C4 6975   2.737   1.215  16.695 -0.4551 -0.6744  0.0846
  465MPD2    C5 6976   2.830   1.186  16.796  0.3874 -0.2783  0.0594
  465MPD2     H 6977   2.477   1.040  16.825  0.6070 -0.7549  1.4467
  465MPD2    H1 6978   2.771   1.279  16.615 -1.1098  2.4476  2.3059
  465MPD2    H2 6979   2.878   1.106  16.973  0.0503  2.1825  0.2231
  465MPD2    H3 6980   2.927   1.234  16.799 -0.8875  2.1809  1.1049
  465MPD2     N 6981   2.505   1.153  16.612 -0.0742  0.0625  0.5916
  465MPD2    H5 6982   2.415   1.114  16.638 -1.2370  1.4190 -1.3889
  465MPD2    N1 6983   2.641   0.971  17.026  0.4313  0.2194 -0.1128
  465MPD2    H7 6984   2.541   0.956  17.035  1.0186 -2.5099  1.5718
  466TMC3    C1 6985   2.170   1.167  16.406  0.1942 -0.2401  0.0151
  466TMC3    C2 6986   2.153   1.270  16.323 -0.1569  0.3439  0.5190
  466TMC3    C3 6987   2.260   1.348  16.284 -0.0046  0.5367 -0.0281
  466TMC3    C4 6988   2.299   1.134  16.445  0.4086  0.1665  0.6732
  466TMC3    C5 6989   2.409   1.208  16.404 -0.0759 -0.2585 -0.2802
  466TMC3    C6 6990   2.385   1.315  16.323 -0.1261  0.1670  0.4772
  466TMC3     C 6991   2.094   1.182  16.521 -0.3981  0.1869 -0.3266
  466TMC3     O 6992   2.102   1.088  16.599  0.2773  0.0305  0.5710
  466TMC3     H 6993   2.058   1.285  16.271  0.3967  0.0893 -0.5705
  466TMC3    H1 6994   2.312   1.033  16.481 -1.7192 -0.8147 -1.3312
  466TMC3    H2 6995   2.467   1.372  16.281  1.8921 -3.9044 -1.1018
  466TMC3    C7 6996   2.525   1.210  16.486  0.2539 -0.8770  0.7848
  466TMC3    C8 6997   2.236   1.480  16.232 -0.3088 -0.9240  0.4686
  466TMC3    O1 6998   2.621   1.267  16.434  0.3123 -0.6767  0.4190
  466TMC3    O2 6999   2.133   1.494  16.169 -0.6779  0.8609  0.6643
  467TMC3    C1 7000   3.712   4.459  13.942 -0.8087  0.0558 -0.5966
  467TMC3    C2 7001   3.663   4.580  13.910  0.0446  0.5776 -0.5113
  467TMC3    C3 7002   3.536   4.588  13.867  0.0747  0.1047 -0.7888
  467TMC3    C4 7003   3.638   4.340  13.943  0.3894 -0.0702  0.0614
  467TMC3    C5 7004   3.505   4.360  13.915  0.6555  0.4325  0.4743
  467TMC3    C6 7005   3.452   4.481  13.868 -0.0735  0.1143  0.1939
  467TMC3     C 7006   3.854   4.456  13.931 -0.4280  0.5136 -0.6061
  467TMC3     O 7007   3.922   4.533  13.997 -0.3314  0.4174  0.0554
  467TMC3     H 7008   3.742   4.655  13.905 -0.6287  1.3964  1.0359
  467TMC3    H1 7009   3.676   4.251  13.992 -2.9427 -0.4584  1.9555
  467TMC3    H2 7010   3.345   4.493  13.853 -0.0285  2.7305  1.8701
  467TMC3    C7 7011   3.411   4.262  13.961  0.4277  0.3161 -0.1963
  467TMC3    C8 7012   3.522   4.688  13.759 -0.4781  1.0059 -0.4271
  467TMC3    O1 7013   3.454   4.155  13.999 -0.0901 -0.2255 -0.3778
  467TMC3    O2 7014   3.586   0.065  13.773  0.2616  0.1586 -0.0350
  468MPD2     C 7015   2.274   2.484  10.853  0.4873  0.7439  0.6085
  468MPD2    C1 7016   2.404   2.450  10.828 -0.4168  0.4532 -0.1591
  468MPD2    C2 7017   2.440   2.322  10.847  0.0128 -0.3794 -0.0625
  468MPD2    C3 7018   2.359   2.219  10.884  0.2899  0.3239 -0.5115
  468MPD2    C4 7019   2.229   2.257  10.924 -0.0965 -0.1686 -0.2331
  468MPD2    C5 7020   2.190   2.388  10.899  0.4117 -0.2720  0.1693
  468MPD2     H 7021   2.536   2.296  10.801  0.6423  1.7801  0.0596
  468MPD2    H1 7022   2.154   2.186  10.956  0.5163 -0.5299  0.4103
  468MPD2    H2 7023   2.238   2.587  10.852  0.9713  0.9123  0.5038
  468MPD2    H3 7024   2.084   2.412  10.898  0.7609  1.2780 -0.8518
  468MPD2     N 7025   2.390   2.081  10.896 -0.1151 -0.2789 -0.6154
  468MPD2    H5 7026   2.314   2.025  10.933 -0.7793  0.3907 -0.9656
  468MPD2    N1 7027   2.499   2.540  10.789  0.2950 -0.0869  0.3048
  468MPD2    H7 7028   2.585   2.490  10.768 -0.0583 -0.8439  0.6331
  469TMC3    C1 7029   2.619   2.741  10.766  0.2877  0.4777 -0.0786
  469TMC3    C2 7030   2.735   2.665  10.781  0.3368 -0.3164 -1.0510
  469TMC3    C3 7031   2.841   2.725  10.843  0.6092 -0.7889 -0.0017
  469TMC3    C4 7032   2.623   2.875  10.788  0.1361 -0.4383 -0.2799
  469TMC3    C5 7033   2.738   2.931  10.819 -0.8476  0.4334 -0.5280
  469TMC3    C6 7034   2.851   2.862  10.859 -0.4198 -0.9260 -0.3211
  469TMC3     C 7035   2.490   2.674  10.786  0.4002 -0.3380 -0.3332
  469TMC3     O 7036   2.392   2.747  10.782  0.7672 -0.2754 -0.1120
  469TMC3     H 7037   2.737   2.557  10.773  0.2632 -0.3709 -0.2595
  469TMC3    H1 7038   2.531   2.927  10.763  1.5072  0.7792 -2.7963
  469TMC3    H2 7039   2.950   2.905  10.874 -0.1838 -0.8245 -2.1776
  469TMC3    C7 7040   2.738   3.074  10.835 -0.1075  0.8401 -0.0649
  469TMC3    C8 7041   2.936   2.637  10.903 -0.2712  0.1711 -0.0912
  469TMC3    O1 7042   2.651   3.135  10.773 -0.6088  0.0451  0.5754
  469TMC3    O2 7043   2.940   2.523  10.859  0.0402  0.3986  0.4755
  470TMC3    C1 7044   0.600   3.366   0.746 -0.6747 -0.5812 -0.0999
  470TMC3    C2 7045   0.527   3.448   0.664 -0.1143  0.0022  0.3131
  470TMC3    C3 7046   0.598   3.545   0.583 -0.0092  0.4767  0.3653
  470TMC3    C4 7047   0.731   3.376   0.742 -0.4261 -0.2130  0.1277
  470TMC3    C5 7048   0.795   3.470   0.667 -0.8302  0.2958 -0.0169
  470TMC3    C6 7049   0.736   3.545   0.579 -0.0446  0.1906 -0.2670
  470TMC3     C 7050   0.562   3.365   0.889  0.2942  0.1867  0.3184
  470TMC3     O 7051   0.651   3.372   0.978 -0.3684  0.0993  0.3305
  470TMC3     H 7052   0.419   3.440   0.665 -0.1196  0.0519  0.0529
  470TMC3    H1 7053   0.792   3.313   0.805  1.7849  2.1673  0.3616
  470TMC3    H2 7054   0.779   3.624   0.518 -0.5049  1.5229  1.1250
  470TMC3    C7 7055   0.914   3.524   0.729 -1.0191  0.0724 -0.4818
  470TMC3    C8 7056   0.533   3.674   0.592  0.2800 -1.0015  0.3389
  470TMC3    O1 7057   0.982   3.589   0.651  0.0666  0.2352 -0.0607
  470TMC3    O2 7058   0.423   3.669   0.646  0.3831 -0.4715 -0.2706
  471MPD2     C 7059   0.288   0.148  16.896 -0.3085 -0.1525  0.0780
  471MPD2    C1 7060   0.356   0.030  16.870  0.1697  0.4615  0.4416
  471MPD2    C2 7061   0.470   0.007  16.950  0.1447 -0.3347 -0.2629
  471MPD2    C3 7062   0.509   0.104  17.039 -0.1863 -0.8008  0.0980
  471MPD2    C4 7063   0.432   0.212  17.062  0.1118 -0.2206  0.0151
  471MPD2    C5 7064   0.323   0.234  16.991  0.3091 -0.1112 -0.1486
  471MPD2     H 7065   0.532   4.653  16.916 -1.1143 -0.4226 -2.3348
  471MPD2    H1 7066   0.454   0.281  17.143  2.0636  0.0287 -0.7165
  471MPD2    H2 7067   0.201   0.183  16.842  1.1353  1.4089 -1.2218
  471MPD2    H3 7068   0.257   0.318  17.010 -1.0946 -0.8694 -1.7323
  471MPD2     N 7069   0.621   0.087  17.122  0.3039  0.5681 -0.0642
  471MPD2    H5 7070   0.640   0.153  17.197  1.5212  0.9574 -0.7091
  471MPD2    N1 7071   0.323   4.671  16.763  0.0505 -0.1774  0.2764
  471MPD2    H7 7072   0.381   4.588  16.756 -2.1830 -2.0679  4.5851
  472TMC3    C1 7073   0.205   4.560  16.597  0.1023  0.3341 -0.0152
  472TMC3    C2 7074   0.220   4.586  16.465 -0.5193 -0.5635  1.1832
  472TMC3    C3 7075   0.273   4.491  16.388  0.0520 -0.6134  0.0776
  472TMC3    C4 7076   0.222   4.435  16.646 -0.4193 -0.4365  0.0464
  472TMC3    C5 7077   0.263   4.337  16.565  0.9267  0.2554  0.3723
  472TMC3    C6 7078   0.294   4.358  16.434  0.6302  0.9267 -0.2850
  472TMC3     C 7079   0.209   4.673  16.683 -0.3577 -0.3857  1.3210
  472TMC3     O 7080   0.143   0.045  16.647 -0.2600 -0.1659  0.3828
  472TMC3     H 7081   0.220   4.686  16.426  2.3360  0.0502  2.7469
  472TMC3    H1 7082   0.215   4.415  16.753 -0.1271 -0.4570  0.0609
  472TMC3    H2 7083   0.328   4.276  16.371 -1.2838 -0.0848  0.0088
  472TMC3    C7 7084   0.243   4.201  16.612  0.1893  0.0861 -0.4776
  472TMC3    C8 7085   0.335   4.527  16.261 -0.3988 -0.2695  0.1295
  472TMC3    O1 7086   0.229   4.192  16.736 -0.2109  0.2252 -0.0720
  472TMC3    O2 7087   0.459   4.517  16.261 -0.4520  0.6112 -0.0415
  473MPD2     C 7088   0.353   1.700  13.770  0.3500 -0.3395 -0.1974
  473MPD2    C1 7089   0.284   1.793  13.691  0.4847 -0.0539 -0.6576
  473MPD2    C2 7090   0.250   1.909  13.744  0.0243 -0.1910 -0.4724
  473MPD2    C3 7091   0.261   1.937  13.880  0.8936  0.4574  0.3158
  473MPD2    C4 7092   0.337   1.848  13.952  0.1766 -0.4534  0.0272
  473MPD2    C5 7093   0.376   1.729  13.901 -0.1825 -0.3521 -0.2765
  473MPD2     H 7094   0.214   1.989  13.679 -1.2639  0.6558  1.3054
  473MPD2    H1 7095   0.348   1.854  14.059  2.2314 -0.1558 -0.1965
  473MPD2    H2 7096   0.384   1.604  13.732  0.7682 -2.1728  4.8011
  473MPD2    H3 7097   0.413   1.648  13.962 -1.1144 -0.0133  0.7439
  473MPD2     N 7098   0.225   2.060  13.937  0.6095  0.6375 -0.4524
  473MPD2    H5 7099   0.252   2.069  14.035 -1.5110 -0.0621  0.2037
  473MPD2    N1 7100   0.245   1.763  13.555 -0.1981 -0.2207 -0.0377
  473MPD2    H7 7101   0.189   1.835  13.510 -0.2301  0.0894  0.5025
  474TMC3    C1 7102   0.126   2.269  13.971 -0.3448 -0.2277  0.0422
  474TMC3    C2 7103   0.134   2.386  13.900 -0.1464  0.0895 -0.6408
  474TMC3    C3 7104   0.212   2.491  13.945  0.5073 -0.0757 -0.1015
  474TMC3    C4 7105   0.196   2.259  14.086 -0.0884 -0.1106 -0.2040
  474TMC3    C5 7106   0.279   2.357  14.126  0.2039 -0.9336  1.0903
  474TMC3    C6 7107   0.297   2.474  14.055 -0.9560  0.1016  0.5371
  474TMC3     C 7108   0.145   2.158  13.881  0.1159  0.2282 -0.5609
  474TMC3     O 7109   0.093   2.163  13.769  0.4801 -0.8028  0.0366
  474TMC3     H 7110   0.067   2.397  13.815 -0.6027 -1.1378 -0.4424
  474TMC3    H1 7111   0.182   2.173  14.150  1.5087  1.1901  1.9074
  474TMC3    H2 7112   0.374   2.545  14.081 -0.5685  0.4460 -1.5031
  474TMC3    C7 7113   0.404   2.307  14.182 -0.4996 -0.1449  0.2702
  474TMC3    C8 7114   0.244   2.596  13.851  0.2430 -0.3327  0.1223
  474TMC3    O1 7115   0.442   2.196  14.139  0.2521 -0.2794  0.0703
  474TMC3    O2 7116   0.177   2.591  13.749  0.4006  0.2631  0.0217
  475MPD2     C 7117   4.288   0.160  10.650  0.6338 -0.5165 -0.1111
  475MPD2    C1 7118   4.295   0.269  10.570 -0.0404  0.0414 -0.0356
  475MPD2    C2 7119   4.193   0.362  10.569 -0.2671 -0.0070  0.7868
  475MPD2    C3 7120   4.086   0.339  10.663 -0.6470  0.3471  0.9604
  475MPD2    C4 7121   4.087   0.228  10.751 -0.4302 -0.2658 -0.6632
  475MPD2    C5 7122   4.188   0.142  10.739  0.6158 -0.0203 -0.0049
  475MPD2     H 7123   4.192   0.454  10.510  1.9892 -1.6267 -1.7401
  475MPD2    H1 7124   4.006   0.198  10.817  0.3322 -0.5690  0.1369
  475MPD2    H2 7125   4.366   0.086  10.654  1.8545  0.6606 -2.4856
  475MPD2    H3 7126   4.192   0.058  10.808  1.7685 -0.9537 -1.2150
  475MPD2     N 7127   3.985   0.435  10.664  0.2506  0.0449  0.9267
  475MPD2    H5 7128   3.985   0.498  10.584  2.5261  0.0125  0.9190
  475MPD2    N1 7129   4.412   0.276  10.492  0.2112  0.1287 -0.0214
  475MPD2    H7 7130   4.481   0.204  10.512 -1.0500 -0.8844  0.7028
  476TMC3    C1 7131   4.581   0.394  10.365  0.4170 -0.6325  0.4835
  476TMC3    C2 7132   4.578   0.515  10.305  0.0743  0.6604 -0.3341
  476TMC3    C3 7133   4.626   0.624  10.372  0.3784 -0.3290 -0.5594
  476TMC3    C4 7134   4.652   0.373  10.483  0.3580 -0.0092  0.3410
  476TMC3    C5 7135   4.667   0.487  10.558  0.5304  0.2590 -0.7598
  476TMC3    C6 7136   4.664   0.615  10.502  0.6353 -0.2275 -0.8521
  476TMC3     C 7137   4.443   0.372  10.399 -0.7874 -0.0389  0.1627
  476TMC3     O 7138   4.365   0.454  10.356 -0.4193  0.1690 -0.5889
  476TMC3     H 7139   4.523   0.527  10.213  0.4247 -2.5061 -0.9369
  476TMC3    H1 7140   4.648   0.274  10.528  0.9834 -0.7549 -1.2304
  476TMC3    H2 7141   4.666   0.706  10.561  0.0535 -1.7478  1.5212
  476TMC3    C7 7142   4.607   0.472  10.693 -0.5892  0.7107 -1.2502
  476TMC3    C8 7143   4.550   0.745  10.351  0.3966 -0.3344 -0.3550
  476TMC3    O1 7144   4.632   0.369  10.750 -0.4664 -0.4636 -0.0352
  476TMC3    O2 7145   4.592   0.852  10.390  0.0699  0.2408 -0.0036
  477MPD2     C 7146   0.867   1.428  11.371 -0.2061  0.3858 -0.3044
  477MPD2    C1 7147   0.764   1.408  11.456 -0.0798 -0.4651 -0.7158
  477MPD2    C2 7148   0.798   1.360  11.582 -0.7663 -0.5634 -0.2374
  477MPD2    C3 7149   0.929   1.343  11.615 -0.6435 -0.3298 -0.1252
  477MPD2    C4 7150   1.027   1.370  11.532 -0.5783  0.0073 -0.0921
  477MPD2    C5 7151   0.999   1.414  11.412 -0.8550  0.1351  0.6074
  477MPD2     H 7152   0.725   1.342  11.660 -0.7431 -2.2900 -0.6056
  477MPD2    H1 7153   1.131   1.377  11.563 -0.1353  0.1799 -1.5799
  477MPD2    H2 7154   0.848   1.465  11.270 -2.2869  1.3655  0.4383
  477MPD2    H3 7155   1.073   1.432  11.335 -1.5144  2.1994  0.4531
  477MPD2     N 7156   0.944   1.313  11.749  0.2950 -0.3890  0.0495
  477MPD2    H5 7157   0.855   1.291  11.791  1.4074  0.4851  2.9201
  477MPD2    N1 7158   0.634   1.446  11.407  0.3462 -0.3150  0.1069
  477MPD2    H7 7159   0.636   1.499  11.320 -0.7801  1.3415  1.0804
  478TMC3    C1 7160   0.416   1.525  11.451  0.6165  0.0949  0.0183
  478TMC3    C2 7161   0.381   1.583  11.568  0.0330 -0.5464  0.0139
  478TMC3    C3 7162   0.383   1.718  11.586  0.4344  0.5266  0.3457
  478TMC3    C4 7163   0.440   1.600  11.339  0.3203 -0.4342 -0.2315
  478TMC3    C5 7164   0.433   1.735  11.360 -0.7453  0.1296 -0.1883
  478TMC3    C6 7165   0.406   1.802  11.477 -0.0483  0.2187 -0.1165
  478TMC3     C 7166   0.519   1.428  11.476  0.0788  0.5530 -0.5874
  478TMC3     O 7167   0.505   1.357  11.574 -0.0217 -0.1175  0.2616
  478TMC3     H 7168   0.348   1.523  11.653  2.1549  0.0623  1.2609
  478TMC3    H1 7169   0.450   1.548  11.244 -0.0059  1.6451 -1.4088
  478TMC3    H2 7170   0.394   1.909  11.490 -2.6653 -0.0455 -0.4027
  478TMC3    C7 7171   0.420   1.816  11.245 -0.1282  0.6581  0.0502
  478TMC3    C8 7172   0.383   1.763  11.716  0.6850 -0.2598 -0.6127
  478TMC3    O1 7173   0.392   1.933  11.263  0.3772 -0.4570  0.1406
  478TMC3    O2 7174   0.334   1.692  11.805  0.0137  0.3685 -0.2606
  479MPD2     C 7175   0.297   4.400  15.177  0.0082  0.2641 -0.2191
  479MPD2    C1 7176   0.250   4.317  15.272 -0.4010  0.5974  0.0319
  479MPD2    C2 7177   0.281   4.345  15.410 -0.0953 -0.2827  0.2729
  479MPD2    C3 7178   0.352   4.458  15.443 -0.4221  0.6045 -0.7847
  479MPD2    C4 7179   0.406   4.528  15.342 -0.1814 -0.1098  0.1171
  479MPD2    C5 7180   0.380   4.500  15.213 -0.5876  0.4680  0.1701
  479MPD2     H 7181   0.257   4.272  15.487 -0.9008  1.4916  1.7016
  479MPD2    H1 7182   0.473   4.613  15.354 -0.5592  0.4378 -1.6556
  479MPD2    H2 7183   0.280   4.382  15.072 -1.0261 -0.4881  0.0798
  479MPD2    H3 7184   0.423   4.568  15.140  2.2611 -1.4071  0.0924
  479MPD2     N 7185   0.358   4.513  15.573 -0.5563 -0.3493  0.4977
  479MPD2    H5 7186   0.426   4.588  15.583 -0.8850  0.1032 -0.5549
  479MPD2    N1 7187   0.158   4.221  15.225  0.2192 -0.0598 -0.3463
  479MPD2    H7 7188   0.142   4.227  15.125  1.6927  0.4480 -0.5437
  480TMC3    C1 7189   4.690   4.333  15.781  0.3239 -0.2591  0.3773
  480TMC3    C2 7190   4.608   4.341  15.667  1.0681  0.0102  0.3315
  480TMC3    C3 7191   4.665   4.410  15.559 -0.0380  0.2892 -0.5553
  480TMC3    C4 7192   0.089   4.384  15.781 -0.3653  0.9612 -0.4495
  480TMC3    C5 7193   0.135   4.456  15.669 -0.3411 -0.0341  0.4128
  480TMC3    C6 7194   0.062   4.467  15.562 -0.2708 -0.6883  0.5908
  480TMC3     C 7195   4.681   4.213  15.857  0.1193 -0.0664  0.2444
  480TMC3     O 7196   0.058   4.158  15.873 -0.3509  0.0855 -0.2608
  480TMC3     H 7197   4.509   4.297  15.667  1.3412 -0.5971  0.0683
  480TMC3    H1 7198   0.149   4.381  15.871  0.6082  0.1035 -1.1340
  480TMC3    H2 7199   0.110   4.521  15.481  1.0099  0.8111  2.3547
  480TMC3    C7 7200   0.276   4.497  15.684  0.3589  0.0011  0.5681
  480TMC3    C8 7201   4.571   4.439  15.447 -0.5697 -0.5575  0.0277
  480TMC3    O1 7202   0.306   4.534  15.798  0.2399 -0.1715 -0.2882
  480TMC3    O2 7203   4.461   4.390  15.471 -0.2658  0.0227  0.3606
  481MPD2     C 7204   1.799   3.909  14.480  0.0595  0.1320 -0.1484
  481MPD2    C1 7205   1.697   3.814  14.454 -0.6548 -0.0472  0.2702
  481MPD2    C2 7206   1.633   3.761  14.562  0.8255  0.1082  0.0674
  481MPD2    C3 7207   1.678   3.786  14.690  0.0258  0.1946 -0.5283
  481MPD2    C4 7208   1.782   3.871  14.712 -0.3080  0.1489 -0.4448
  481MPD2    C5 7209   1.843   3.922  14.606 -0.1304 -0.3276  0.9133
  481MPD2     H 7210   1.540   3.706  14.560  0.4791  0.7830 -1.9215
  481MPD2    H1 7211   1.824   3.890  14.810 -0.6022 -0.6065 -0.1657
  481MPD2    H2 7212   1.850   3.957  14.398  0.4976  0.5547  0.3713
  481MPD2    H3 7213   1.932   3.984  14.613  1.5213 -2.8072  1.9769
  481MPD2     N 7214   1.623   3.729  14.805 -0.1350  0.7595 -0.0297
  481MPD2    H5 7215   1.671   3.723  14.894  0.2995 -1.5794 -0.4324
  481MPD2    N1 7216   1.650   3.800  14.322  0.4336  0.2042 -0.1323
  481MPD2    H7 7217   1.699   3.858  14.254  2.3159  0.1970  1.2209
  482TMC3    C1 7218   1.512   3.729  14.144 -0.0622  0.5987  0.1296
  482TMC3    C2 7219   1.394   3.669  14.105  0.5684  0.5446 -0.8693
  482TMC3    C3 7220   1.364   3.667  13.974  0.1577 -0.0362  0.0706
  482TMC3    C4 7221   1.603   3.771  14.058  0.1642  0.3136 -0.0518
  482TMC3    C5 7222   1.567   3.777  13.925 -0.1050 -0.2561  0.2251
  482TMC3    C6 7223   1.449   3.723  13.883  0.4692  0.4080  0.1895
  482TMC3     C 7224   1.553   3.706  14.282 -0.8106 -0.2035  0.2737
  482TMC3     O 7225   1.489   3.624  14.347 -0.2586  0.1430 -0.4654
  482TMC3     H 7226   1.330   3.623  14.179  1.2508  1.5465  0.3393
  482TMC3    H1 7227   1.707   3.786  14.083  0.0901 -1.9748  1.6493
  482TMC3    H2 7228   1.422   3.704  13.780 -0.1042  1.6799  0.1054
  482TMC3    C7 7229   1.679   3.786  13.829 -0.3509 -0.2241  0.7483
  482TMC3    C8 7230   1.255   3.579  13.933 -0.5363 -0.4144  0.2006
  482TMC3    O1 7231   1.789   3.776  13.875  0.4912 -0.0477 -0.2962
  482TMC3    O2 7232   1.226   3.497  14.017 -0.0988  0.0536 -0.0290
  483TMC3    C1 7233   4.538   2.455   1.194 -0.8461  0.4559  0.6517
  483TMC3    C2 7234   4.584   2.583   1.199 -0.4210 -0.2273  0.4625
  483TMC3    C3 7235   4.721   2.594   1.214 -0.0147  0.2857  0.0629
  483TMC3    C4 7236   4.607   2.342   1.230 -0.0091  0.2209 -0.1505
  483TMC3    C5 7237   0.010   2.356   1.264 -1.1082 -0.6560  0.5848
  483TMC3    C6 7238   0.068   2.483   1.259 -0.3776 -0.2967  0.1924
  483TMC3     C 7239   4.394   2.449   1.162 -0.3045 -0.0681 -0.2067
  483TMC3     O 7240   4.324   2.543   1.191  0.2647 -0.1513  0.1886
  483TMC3     H 7241   4.530   2.670   1.163  2.6213  0.7732 -1.7352
  483TMC3    H1 7242   4.561   2.244   1.223  2.5543 -1.0603  1.1453
  483TMC3    H2 7243   0.174   2.500   1.273 -0.3463 -0.4680  0.1648
  483TMC3    C7 7244   0.082   2.244   1.319 -0.0908 -0.3589  0.0453
  483TMC3    C8 7245   0.076   2.687   1.134 -0.7658 -0.2862  0.6050
  483TMC3    O1 7246   0.025   2.137   1.313 -0.6443  0.5399 -0.1762
  483TMC3    O2 7247   0.191   2.661   1.108 -0.1635  0.2866 -0.3739
  484MPD2     C 7248   2.443   1.059  12.819  0.1447  0.6542 -0.0816
  484MPD2    C1 7249   2.388   1.017  12.697 -0.5650 -0.0376 -0.0838
  484MPD2    C2 7250   2.476   0.999  12.590  0.0226 -0.4390 -0.1620
  484MPD2    C3 7251   2.607   1.031  12.612 -0.1068  0.3126  0.1591
  484MPD2    C4 7252   2.654   1.094  12.730 -0.1101 -0.5119  0.1632
  484MPD2    C5 7253   2.568   1.103  12.829  0.0502  0.2167 -0.1494
  484MPD2     H 7254   2.441   0.961  12.495  0.5640 -1.2420 -0.0424
  484MPD2    H1 7255   2.757   1.119  12.755 -0.6142  1.1600  0.6161
  484MPD2    H2 7256   2.375   1.080  12.900 -0.3912 -0.5040 -0.2267
  484MPD2    H3 7257   2.599   1.145  12.925  0.4715 -0.7917  0.1569
  484MPD2     N 7258   2.707   0.993  12.520  0.0997  0.1764 -0.0096
  484MPD2    H5 7259   2.805   0.994  12.549  0.2527 -1.6047 -0.4568
  484MPD2    N1 7260   2.245   0.988  12.691  0.5543 -0.3150  0.1221
  484MPD2    H7 7261   2.199   0.990  12.782  2.5602 -0.2082  1.1541
  485TMC3    C1 7262   2.804   0.931  12.313  0.0897 -0.2883  0.4636
  485TMC3    C2 7263   2.917   0.908  12.378  0.0191 -0.0737  1.3104
  485TMC3    C3 7264   3.034   0.931  12.305  0.0923  0.1167  0.2202
  485TMC3    C4 7265   2.793   0.977  12.184 -0.0836 -0.1313 -0.1691
  485TMC3    C5 7266   2.912   0.991  12.117 -0.7657  0.3728 -0.1540
  485TMC3    C6 7267   3.036   0.989  12.181 -0.7552 -0.8168  0.1623
  485TMC3     C 7268   2.686   0.943  12.392  0.6108 -0.0509 -0.1819
  485TMC3     O 7269   2.585   0.947  12.323  0.2662 -0.0386  0.0923
  485TMC3     H 7270   2.914   0.839  12.462 -1.9791 -3.5082 -1.5893
  485TMC3    H1 7271   2.702   0.994  12.129  0.3909  1.7264 -0.3670
  485TMC3    H2 7272   3.127   1.020  12.131 -0.9825  1.3743  1.1169
  485TMC3    C7 7273   2.926   0.899  12.011  1.3192 -0.4213 -0.8068
  485TMC3    C8 7274   3.140   0.837  12.329  1.0808  0.5325  0.3078
  485TMC3    O1 7275   3.035   0.860  11.977  0.4492  0.5647 -0.0368
  485TMC3    O2 7276   3.175   0.806  12.441  0.3890 -0.5771 -0.1328
  486MPD2     C 7277   3.955   4.042  12.839 -0.2610  0.6668 -0.0414
  486MPD2    C1 7278   4.052   4.073  12.747  0.2103 -0.6023 -0.1156
  486MPD2    C2 7279   4.059   4.197  12.692  0.3673 -0.0632  0.3042
  486MPD2    C3 7280   3.981   4.303  12.744 -0.0377  0.0773 -0.5811
  486MPD2    C4 7281   3.906   4.269  12.855  0.1783 -0.1577  0.1558
  486MPD2    C5 7282   3.880   4.140  12.893  1.1992 -0.3303 -0.0576
  486MPD2     H 7283   4.121   4.226  12.608  1.3366 -1.6453  0.4823
  486MPD2    H1 7284   3.857   4.347  12.911  0.8785  0.0372  0.4989
  486MPD2    H2 7285   3.935   3.940  12.870  0.3954  0.2947 -0.8712
  486MPD2    H3 7286   3.811   4.129  12.976  1.6272 -2.2280  0.0489
  486MPD2     N 7287   3.997   4.438  12.693  0.3111 -0.2181  0.4794
  486MPD2    H5 7288   4.053   4.446  12.609 -0.0178 -0.1429  0.2686
  486MPD2    N1 7289   4.129   3.963  12.703 -0.7049 -0.6168 -0.4313
  486MPD2    H7 7290   4.097   3.871  12.731  1.8136 -0.7360  2.1655
  487TMC3    C1 7291   4.300   3.826  12.618  0.0883 -0.4020 -0.0769
  487TMC3    C2 7292   4.208   3.725  12.633 -0.1731  0.0306  0.0344
  487TMC3    C3 7293   4.253   3.610  12.697  0.5187 -0.6584  0.3459
  487TMC3    C4 7294   4.431   3.813  12.661 -0.2004  0.1111 -0.3312
  487TMC3    C5 7295   4.476   3.690  12.706  0.5414  0.1617 -0.6188
  487TMC3    C6 7296   4.385   3.586  12.713 -0.1715  0.3882 -1.0121
  487TMC3     C 7297   4.249   3.959  12.639 -0.4931  1.5694  0.3294
  487TMC3     O 7298   4.332   4.048  12.620  0.2043  0.2983 -0.0165
  487TMC3     H 7299   4.102   3.730  12.610 -0.5048 -1.1266  1.3034
  487TMC3    H1 7300   4.506   3.890  12.648  1.3434 -1.4611 -0.7183
  487TMC3    H2 7301   4.424   3.505  12.774 -0.6941 -0.3740 -1.6928
  487TMC3    C7 7302   4.566   3.698  12.820 -0.4777 -0.2385 -0.2869
  487TMC3    C8 7303   4.174   3.575  12.813 -0.1075  0.5370 -0.0618
  487TMC3    O1 7304   4.558   3.809  12.868  0.1089 -0.3637  0.4886
  487TMC3    O2 7305   4.076   3.641  12.838  0.5072 -0.7625 -0.2882
  488MPD2     C 7306   0.033   0.882  16.656 -0.2830  0.3066 -0.5065
  488MPD2    C1 7307   0.124   0.952  16.739  0.5604  0.1026  0.6694
  488MPD2    C2 7308   0.104   0.934  16.872  0.5608  0.1500 -0.0455
  488MPD2    C3 7309   0.019   0.850  16.928  0.0271  0.0548  0.5921
  488MPD2    C4 7310   4.661   0.790  16.848  0.3263  0.2712 -0.3987
  488MPD2    C5 7311   4.669   0.801  16.713 -0.3502  0.1957  0.4714
  488MPD2     H 7312   0.167   0.978  16.948  0.0761  1.1926 -0.2585
  488MPD2    H1 7313   4.589   0.714  16.878  0.9253  0.2592  0.9969
  488MPD2    H2 7314   0.037   0.886  16.548 -1.1211 -0.7183 -0.5783
  488MPD2    H3 7315   4.601   0.746  16.648  0.1351 -0.6312  0.6675
  488MPD2     N 7316   0.005   0.852  17.069 -0.2511  0.3857  0.2470
  488MPD2    H5 7317   0.080   0.898  17.119  1.3264  0.3878 -2.1053
  488MPD2    N1 7318   0.223   1.047  16.696 -0.2177  0.4992  0.1762
  488MPD2    H7 7319   0.258   1.112  16.766  0.8051 -0.6008  0.6699
  489TMC3    C1 7320   4.654   0.782  17.288 -0.0099  0.0611  0.7107
  489TMC3    C2 7321   0.021   0.854  17.346 -0.5517  0.2089  1.0031
  489TMC3    C3 7322   0.007   0.886  17.476  0.0077  0.4198  0.0502
  489TMC3    C4 7323   4.541   0.737  17.348  0.4527  0.2082 -0.2226
  489TMC3    C5 7324   4.528   0.777  17.481  0.1590 -0.4498  1.0814
  489TMC3    C6 7325   4.615   0.867  17.539 -0.2212 -0.1182 -0.4818
  489TMC3     C 7326   4.634   0.791  17.146 -0.1872 -0.4419 -0.6413
  489TMC3     O 7327   4.555   0.711  17.095  0.2308 -0.3223 -0.0629
  489TMC3     H 7328   0.109   0.884  17.290 -1.8575  2.1775 -0.0031
  489TMC3    H1 7329   4.471   0.675  17.293  0.0374  2.0199 -1.7541
  489TMC3    H2 7330   4.604   0.900  17.641 -0.1360  0.1942 -0.5745
  489TMC3    C7 7331   4.477   0.671  17.561  0.1820  0.1156 -0.0655
  489TMC3    C8 7332   0.091   1.001  17.499  0.6769  0.0756  0.4198
  489TMC3    O1 7333   4.522   0.668  17.677 -0.1762  0.3044  0.0640
  489TMC3    O2 7334   0.205   1.002  17.451 -0.0705 -0.0950  0.5510
  490MPD2     C 7335   0.911   0.383  17.383  0.0318 -0.4177  0.0162
  490MPD2    C1 7336   0.860   0.405  17.512  0.0480 -1.0836 -0.9794
  490MPD2    C2 7337   0.926   0.492  17.594  0.2388 -0.7398  0.5069
  490MPD2    C3 7338   1.050   0.542  17.558  0.3232  0.1017 -1.1087
  490MPD2    C4 7339   1.102   0.513  17.434  0.6074  0.4948  1.0336
  490MPD2    C5 7340   1.033   0.434  17.345  0.6030 -0.3877  0.1010
  490MPD2     H 7341   0.889   0.507  17.695 -2.1159  3.0675 -0.9241
  490MPD2    H1 7342   1.182   0.571  17.389  0.3350  0.9843  1.1894
  490MPD2    H2 7343   0.874   0.313  17.308  0.2499 -0.6009  0.0811
  490MPD2    H3 7344   1.072   0.419  17.245 -0.6533 -1.8288 -0.1772
  490MPD2     N 7345   1.116   0.651  17.622  0.4710  0.3895 -0.1190
  490MPD2    H5 7346   1.188   0.698  17.570  0.6151 -0.4323 -0.6579
  490MPD2    N1 7347   0.736   0.350  17.551  0.0364  0.0906  0.3247
  490MPD2    H7 7348   0.706   0.371  17.646 -3.6899 -1.0669 -0.5977
  491TMC3    C1 7349   0.530   0.226  17.527 -0.2517  0.0879  0.1004
  491TMC3    C2 7350   0.505   0.207  17.662 -0.5205  0.2548 -0.3194
  491TMC3    C3 7351   0.396   0.143  17.698  1.6662  0.4201  0.2145
  491TMC3    C4 7352   0.447   0.169  17.433 -0.4780 -0.1010  0.0574
  491TMC3    C5 7353   0.334   0.105  17.479  1.1256 -0.3942  0.2381
  491TMC3    C6 7354   0.307   0.095  17.612 -0.1322  0.1658  0.4553
  491TMC3     C 7355   0.648   0.290  17.467 -0.9140 -0.6328 -0.2147
  491TMC3     O 7356   0.659   0.273  17.343 -0.2971  0.6603 -0.6692
  491TMC3     H 7357   0.569   0.234   0.028 -1.6931 -0.4038  0.7973
  491TMC3    H1 7358   0.449   0.200  17.330 -0.7308  0.4730  0.2277
  491TMC3    H2 7359   0.213   0.051  17.644 -0.5266 -1.2764 -2.6849
  491TMC3    C7 7360   0.249   0.036  17.383 -0.1141 -0.6643  0.1820
  491TMC3    C8 7361   0.391   0.114   0.119  0.4864 -0.4897  0.3752
  491TMC3    O1 7362   0.145   0.091  17.343 -0.0494 -0.2167  0.0765
  491TMC3    O2 7363   0.286   0.134   0.175  0.0196  0.5412  0.4996
  492MPD2     C 7364   0.748   0.408  11.905  0.3502  0.5452 -0.9477
  492MPD2    C1 7365   0.703   0.321  11.807  0.0252 -0.5122  0.2835
  492MPD2    C2 7366   0.652   0.202  11.843 -0.3673 -0.3668  0.8129
  492MPD2    C3 7367   0.654   0.156  11.973  0.2889 -0.0255  0.2571
  492MPD2    C4 7368   0.695   0.245  12.069  0.8375 -0.3475  0.0884
  492MPD2    C5 7369   0.725   0.376  12.037 -1.0488  0.4655  0.4747
  492MPD2     H 7370   0.602   0.145  11.766  1.7878 -0.3722 -0.5799
  492MPD2    H1 7371   0.687   0.224  12.175  0.0088 -1.1196 -0.1309
  492MPD2    H2 7372   0.795   0.504  11.890 -0.8035  1.3162  0.3867
  492MPD2    H3 7373   0.743   0.453  12.111  1.0024 -0.4660  0.9528
  492MPD2     N 7374   0.623   0.020  12.012  0.1444  0.3656  0.3379
  492MPD2    H5 7375   0.627   0.015  12.113 -1.4586  3.7945  0.5744
  492MPD2    N1 7376   0.718   0.375  11.677 -0.0730 -0.2168 -0.1416
  492MPD2    H7 7377   0.750   0.471  11.669  0.5506 -0.1765  2.9295
  493TMC3    C1 7378   0.718   0.384  11.440  0.3919  0.7539 -0.0692
  493TMC3    C2 7379   0.811   0.485  11.440 -0.3614 -0.0244  0.0333
  493TMC3    C3 7380   0.838   0.532  11.313  0.0989  0.0971  0.4595
  493TMC3    C4 7381   0.685   0.317  11.325 -0.6918 -0.5436 -0.5258
  493TMC3    C5 7382   0.725   0.369  11.205  0.4069  0.1230 -0.2225
  493TMC3    C6 7383   0.800   0.478  11.196 -0.7536 -0.2261 -0.5138
  493TMC3     C 7384   0.696   0.305  11.556 -0.7839  0.5325 -0.2321
  493TMC3     O 7385   0.649   0.190  11.549  0.0295 -0.3389  0.3709
  493TMC3     H 7386   0.838   0.539  11.530  1.6848  1.3775 -1.4050
  493TMC3    H1 7387   0.609   0.240  11.330 -1.4571  0.2611  0.2351
  493TMC3    H2 7388   0.857   0.503  11.107  0.9995  1.2658  1.0412
  493TMC3    C7 7389   0.707   0.287  11.089  0.1391 -0.4156 -0.2554
  493TMC3    C8 7390   0.942   0.630  11.305 -0.1518  0.2113  0.5391
  493TMC3    O1 7391   0.711   0.332  10.976 -0.4837  0.0453 -0.7331
  493TMC3    O2 7392   1.014   0.648  11.403  0.0945  0.1396  0.7458
  494TMC3    C1 7393   1.069   2.226   0.322  0.3049 -0.4644  0.0349
  494TMC3    C2 7394   1.034   2.106   0.271  0.3420 -0.3489  0.1150
  494TMC3    C3 7395   1.128   2.043   0.194 -0.0298 -0.3702 -0.4756
  494TMC3    C4 7396   1.182   2.288   0.287  0.0701 -0.4028 -0.1717
  494TMC3    C5 7397   1.263   2.234   0.195  0.0331 -0.1399 -0.2463
  494TMC3    C6 7398   1.242   2.107   0.151  0.5470 -0.9833  0.7533
  494TMC3     C 7399   1.005   2.274   0.443 -0.0353 -0.5787 -0.0706
  494TMC3     O 7400   1.074   2.326   0.526  0.0357  0.3111 -0.5515
  494TMC3     H 7401   0.949   2.054   0.313 -2.5091  1.9166 -2.8430
  494TMC3    H1 7402   1.206   2.381   0.335  1.8357 -0.6847 -0.5273
  494TMC3    H2 7403   1.312   2.055   0.087  0.0990 -1.5962  0.7617
  494TMC3    C7 7404   1.367   2.312   0.138  0.1372  0.3572  0.4240
  494TMC3    C8 7405   1.117   1.902   0.184 -0.5319  0.1023 -0.4883
  494TMC3    O1 7406   1.406   2.273   0.030 -0.2221 -0.6277  0.5902
  494TMC3    O2 7407   1.011   1.851   0.157 -0.0279  0.2926  0.8423
  495TMC3    C1 7408   0.282   4.330  14.560 -0.3166 -0.6960  0.2048
  495TMC3    C2 7409   0.226   4.417  14.468 -0.3704  0.0900  0.5710
  495TMC3    C3 7410   0.113   4.483  14.498 -0.6779  0.2161  0.6530
  495TMC3    C4 7411   0.223   4.294  14.677  0.1693 -0.1544  0.0870
  495TMC3    C5 7412   0.104   4.366  14.704 -0.0700 -0.0240  0.3830
  495TMC3    C6 7413   0.053   4.457  14.618  0.5156  0.3152  0.0246
  495TMC3     C 7414   0.317   4.211  14.490  0.0416 -0.4322  0.6775
  495TMC3     O 7415   0.419   4.208  14.421 -0.5285  0.4561  1.0998
  495TMC3     H 7416   0.291   4.435  14.383 -1.7701  2.9879  0.0848
  495TMC3    H1 7417   0.271   4.226  14.746  0.9848 -0.7726 -1.0854
  495TMC3    H2 7418   4.707   4.529  14.649 -0.1446  0.6389 -2.2984
  495TMC3    C7 7419   0.046   4.350  14.836  0.6104 -0.7536  0.0720
  495TMC3    C8 7420   0.028   4.497  14.378  0.3716 -0.5749  0.7175
  495TMC3    O1 7421   0.119   4.300  14.923  0.8863 -0.0654 -0.1227
  495TMC3    O2 7422   4.645   4.530  14.395  0.1937 -0.0344 -0.2738
  496MPD2     C 7423   2.469   0.219  15.624 -0.2610 -0.3256 -0.0552
  496MPD2    C1 7424   2.401   0.163  15.519  0.8479  0.3702  0.0904
  496MPD2    C2 7425   2.277   0.102  15.543  0.1035 -0.3661  0.1726
  496MPD2    C3 7426   2.228   0.108  15.677 -0.6570  0.1364  0.7157
  496MPD2    C4 7427   2.292   0.179  15.771 -0.1568  0.4297 -0.1502
  496MPD2    C5 7428   2.423   0.221  15.751  0.1698  0.0731 -0.5978
  496MPD2     H 7429   2.210   0.066  15.465 -1.6753  0.8464  1.1298
  496MPD2    H1 7430   2.247   0.193  15.868  1.0956 -1.6475  0.7227
  496MPD2    H2 7431   2.557   0.282  15.613 -0.6049  0.3055  0.7682
  496MPD2    H3 7432   2.475   0.279  15.827 -0.8093  0.8828 -0.5400
  496MPD2     N 7433   2.102   0.049  15.715 -0.1175  0.0709  0.1950
  496MPD2    H5 7434   2.076   0.077  15.809 -0.9951  1.4360 -0.4494
  496MPD2    N1 7435   2.466   0.177  15.392  0.5632  0.6413  0.5719
  496MPD2    H7 7436   2.554   0.227  15.393  0.8069  0.2354 -0.5003
  497TMC3    C1 7437   1.876   4.705  15.686 -0.2199  0.1635 -0.5444
  497TMC3    C2 7438   1.778   4.721  15.592 -0.4210 -0.0424  0.2160
  497TMC3    C3 7439   1.657   4.688  15.638 -0.6249 -1.4051 -0.0568
  497TMC3    C4 7440   1.866   4.663  15.809  0.2540  0.1486 -0.1142
  497TMC3    C5 7441   1.740   4.635  15.848  0.3032  0.8088  0.2491
  497TMC3    C6 7442   1.630   4.650  15.768  0.2490 -0.1957 -0.2939
  497TMC3     C 7443   2.005   4.721  15.627  0.1137 -0.3220 -0.3136
  497TMC3     O 7444   2.019   4.678  15.510 -0.0126 -0.0424 -0.4071
  497TMC3     H 7445   1.793   0.020  15.488  1.4524  0.0388  0.5073
  497TMC3    H1 7446   1.955   4.634  15.864 -0.5988 -0.4940  0.9205
  497TMC3    H2 7447   1.534   4.623  15.808  0.0894 -1.6327 -1.6316
  497TMC3    C7 7448   1.714   4.584  15.976  0.3646 -0.8214  0.2142
  497TMC3    C8 7449   1.557   4.654  15.540  0.4511 -0.0116  0.2206
  497TMC3    O1 7450   1.613   4.523  15.997 -0.3401  0.4767 -0.1461
  497TMC3    O2 7451   1.576   4.696  15.425  0.3852  0.7538  0.1941
  498MPD2     C 7452   3.424   0.091   9.315 -0.4997 -0.1657  0.2854
  498MPD2    C1 7453   3.336   0.182   9.367  0.0108  0.2055  0.0348
  498MPD2    C2 7454   3.211   0.140   9.410  0.0004 -0.6714  0.1105
  498MPD2    C3 7455   3.169   0.011   9.420  0.3670 -0.1760  0.7006
  498MPD2    C4 7456   3.259   4.652   9.362  0.3991 -0.1956  0.5530
  498MPD2    C5 7457   3.383   4.689   9.318 -0.5708 -0.3839 -0.9818
  498MPD2     H 7458   3.141   0.215   9.444  1.1360  1.3118 -1.8457
  498MPD2    H1 7459   3.240   4.545   9.361  1.7386 -0.4166 -1.2175
  498MPD2    H2 7460   3.518   0.111   9.265 -0.2018  1.0199  1.3512
  498MPD2    H3 7461   3.453   4.617   9.277 -1.7287 -1.5278 -0.9384
  498MPD2     N 7462   3.038   4.709   9.461 -0.4518  0.1698  0.5500
  498MPD2    H5 7463   2.976   0.060   9.465 -1.2123 -0.4202  0.7075
  498MPD2    N1 7464   3.356   0.322   9.368  0.1257  0.0137  0.2358
  498MPD2    H7 7465   3.280   0.380   9.401 -0.2921 -0.1920 -0.3617
  499TMC3    C1 7466   3.474   0.517   9.350  0.5431 -0.0611  0.1661
  499TMC3    C2 7467   3.572   0.579   9.420  0.1954  0.4088 -0.1236
  499TMC3    C3 7468   3.559   0.713   9.455 -0.6858  0.3929 -0.1788
  499TMC3    C4 7469   3.360   0.579   9.315  0.3238 -0.1193 -0.3367
  499TMC3    C5 7470   3.368   0.713   9.333 -0.4228 -0.1624  0.3476
  499TMC3    C6 7471   3.461   0.789   9.401  0.3791  0.3763  0.9767
  499TMC3     C 7472   3.478   0.378   9.339 -0.4801  0.3484  0.2297
  499TMC3     O 7473   3.588   0.323   9.335  0.4514  0.1174  0.0940
  499TMC3     H 7474   3.645   0.518   9.472  0.2653  0.9907  0.4750
  499TMC3    H1 7475   3.296   0.532   9.242  1.4335 -3.7919  1.0484
  499TMC3    H2 7476   3.459   0.896   9.417  0.3621  0.5031  0.1348
  499TMC3    C7 7477   3.239   0.781   9.336 -0.5459  0.1952 -0.1876
  499TMC3    C8 7478   3.662   0.763   9.547  0.1696  1.1483  0.1645
  499TMC3    O1 7479   3.246   0.906   9.326 -0.2562  0.0436  0.0286
  499TMC3    O2 7480   3.689   0.881   9.530 -0.2770  0.2826  0.1563
  500MPD2     C 7481   4.255   1.271  10.058  0.6415  0.0741 -0.2359
  500MPD2    C1 7482   4.223   1.372  10.148  0.3359  0.5030 -0.6405
  500MPD2    C2 7483   4.094   1.427  10.149 -0.1919 -1.0412 -0.4080
  500MPD2    C3 7484   3.996   1.382  10.059  0.1606 -0.5314  0.0933
  500MPD2    C4 7485   4.030   1.293   9.963 -0.2554  0.2966  0.4285
  500MPD2    C5 7486   4.158   1.235   9.962  0.2044 -0.3410 -0.4066
  500MPD2     H 7487   4.079   1.507  10.221  3.3534  0.9271 -1.8607
  500MPD2    H1 7488   3.959   1.262   9.887 -0.5627  1.4942  0.2285
  500MPD2    H2 7489   4.345   1.211  10.063  0.0297 -0.6765  1.7668
  500MPD2    H3 7490   4.183   1.157   9.891  1.3658  0.4769 -0.9053
  500MPD2     N 7491   3.867   1.434  10.053  0.5892  0.7443  0.1953
  500MPD2    H5 7492   3.806   1.391   9.984 -0.6414  2.4398  0.2244
  500MPD2    N1 7493   4.322   1.418  10.245 -0.1519  0.4794  0.5841
  500MPD2    H7 7494   4.298   1.488  10.315 -0.0816  1.3639 -0.2813
  501TMC3    C1 7495   4.526   1.450  10.364 -0.1714 -0.3142  0.0100
  501TMC3    C2 7496   4.528   1.581  10.336  0.1538  0.7548  0.6519
  501TMC3    C3 7497   4.633   1.647  10.392  0.5446  0.3985  0.1926
  501TMC3    C4 7498   4.621   1.379  10.430 -0.2538 -0.2150 -0.2176
  501TMC3    C5 7499   4.729   1.452  10.483  0.3991  0.5359  0.1070
  501TMC3    C6 7500   0.008   1.585  10.462  0.2256  0.3455 -0.2160
  501TMC3     C 7501   4.445   1.366  10.272  0.3626 -0.2181 -0.3683
  501TMC3     O 7502   4.508   1.277  10.219 -0.2921  0.2261 -0.0120
  501TMC3     H 7503   4.443   1.627  10.287  1.7175  0.4559 -2.3521
  501TMC3    H1 7504   4.620   1.272  10.448 -0.1939 -0.1192  0.3487
  501TMC3    H2 7505   0.086   1.644  10.508 -1.3276  1.0197  1.5330
  501TMC3    C7 7506   0.060   1.409  10.611 -0.2805 -0.2099  0.0533
  501TMC3    C8 7507   4.630   1.791  10.413 -0.4062  0.0346  0.0601
  501TMC3    O1 7508   4.713   1.365  10.693  0.5540  0.0627  0.2922
  501TMC3    O2 7509   4.725   1.848  10.471  0.5100  0.0864 -0.2774
  502TMC3    C1 7510   4.674   0.492  14.898 -0.6000 -0.0518  0.5342
  502TMC3    C2 7511   4.653   0.625  14.899  0.7515  0.0861 -0.3747
  502TMC3    C3 7512   4.521   0.669  14.896  0.8509  0.0001  0.0357
  502TMC3    C4 7513   4.577   0.399  14.907 -0.0241 -0.7980  0.2742
  502TMC3    C5 7514   4.452   0.446  14.913 -0.0628  0.2091  0.6593
  502TMC3    C6 7515   4.417   0.581  14.919  0.1651 -0.2202  0.7215
  502TMC3     C 7516   0.043   0.458  14.992  0.5262  0.1590 -0.1001
  502TMC3     O 7517   0.150   0.523  14.986  0.2839  0.1867  0.1737
  502TMC3     H 7518   0.001   0.699  14.917 -0.0798  0.8992 -0.1961
  502TMC3    H1 7519   4.608   0.295  14.900  1.7923 -0.1058 -2.1586
  502TMC3    H2 7520   4.314   0.608  14.940  0.2085 -0.1480  0.8372
  502TMC3    C7 7521   4.366   0.358  14.996 -0.4548 -0.8584  0.1677
  502TMC3    C8 7522   4.492   0.815  14.870 -0.5765  0.3490  0.2638
  502TMC3    O1 7523   4.425   0.266  15.047 -0.0816 -0.4800  0.9787
  502TMC3    O2 7524   4.589   0.883  14.892  0.0658  0.4238 -0.1642
  503MPD2     C 7525   1.525   1.141  16.734 -0.2094 -0.5404  0.0495
  503MPD2    C1 7526   1.639   1.175  16.800 -0.4616  0.3656 -0.4707
  503MPD2    C2 7527   1.702   1.077  16.884  0.0848 -0.3012 -0.0320
  503MPD2    C3 7528   1.650   0.948  16.891  0.4603 -0.3597  0.1569
  503MPD2    C4 7529   1.540   0.917  16.826  0.1381 -0.4231 -0.3928
  503MPD2    C5 7530   1.480   1.016  16.751  0.3687  0.3275 -0.2922
  503MPD2     H 7531   1.786   1.106  16.946  0.3690 -1.7656  0.2684
  503MPD2    H1 7532   1.494   0.819  16.827 -1.9870  0.5825 -0.3107
  503MPD2    H2 7533   1.468   1.211  16.675  3.1595  1.1782 -1.1395
  503MPD2    H3 7534   1.385   0.991  16.704  0.1836  1.3613 -0.4712
  503MPD2     N 7535   1.716   0.859  16.979 -0.3890  0.1059  0.0004
  503MPD2    H5 7536   1.790   0.904  17.031 -0.8449 -2.1512  2.5741
  503MPD2    N1 7537   1.683   1.307  16.800  0.0672 -0.6730 -0.4059
  503MPD2    H7 7538   1.751   1.339  16.869 -0.9793  2.7800 -0.9430
  504TMC3    C1 7539   1.785   0.677  17.102  0.3307  0.0002  0.6147
  504TMC3    C2 7540   1.740   0.609  17.213  0.1566 -0.7528 -0.0891
  504TMC3    C3 7541   1.828   0.552  17.291  0.3244  0.1610  0.1314
  504TMC3    C4 7542   1.916   0.687  17.060 -0.7421 -0.2108 -0.5745
  504TMC3    C5 7543   2.003   0.637  17.150 -0.0312 -0.3543 -0.6575
  504TMC3    C6 7544   1.962   0.568  17.263  0.1143  0.5599  0.0422
  504TMC3     C 7545   1.685   0.728  17.012 -0.2609 -0.0478  0.2088
  504TMC3     O 7546   1.590   0.658  16.979 -0.0437 -0.1956  0.1695
  504TMC3     H 7547   1.635   0.591  17.236 -0.1462  0.3302 -0.6229
  504TMC3    H1 7548   1.947   0.739  16.970  2.5892 -1.7236 -0.2676
  504TMC3    H2 7549   2.035   0.533  17.336  1.1275  0.4747 -1.0090
  504TMC3    C7 7550   2.133   0.614  17.087 -0.0122  0.1053  0.1642
  504TMC3    C8 7551   1.765   0.487  17.401 -0.0850 -0.4829  0.7711
  504TMC3    O1 7552   2.172   0.691  17.003  0.6758  0.4948 -0.2426
  504TMC3    O2 7553   1.656   0.439  17.386  0.2916  0.2419  0.6825
  505MPD2     C 7554   2.669   0.284  10.512 -1.0543  0.4670  0.3645
  505MPD2    C1 7555   2.548   0.218  10.521 -0.1306 -0.3614  0.0198
  505MPD2    C2 7556   2.541   0.083  10.557  0.3754  0.2057  0.2115
  505MPD2    C3 7557   2.660   0.012  10.590 -0.4792 -0.1847  0.2038
  505MPD2    C4 7558   2.785   0.080  10.575 -0.3522 -0.0538 -0.3331
  505MPD2    C5 7559   2.791   0.213  10.538 -0.3894  0.4786 -0.3149
  505MPD2     H 7560   2.446   0.034  10.545  0.8689 -0.4192 -1.1441
  505MPD2    H1 7561   2.881   0.030  10.583  0.7034  1.7408 -2.1138
  505MPD2    H2 7562   2.665   0.389  10.488  1.8074  0.3427 -0.6087
  505MPD2    H3 7563   2.884   0.268  10.533  0.7813 -1.5230 -0.8042
  505MPD2     N 7564   2.661   4.600  10.622 -0.5292 -0.8871  0.5245
  505MPD2    H5 7565   2.751   4.556  10.638 -1.0720 -1.2958  2.5281
  505MPD2    N1 7566   2.433   0.293  10.487  0.0615  0.0648  0.0673
  505MPD2    H7 7567   2.455   0.383  10.445 -1.3967  1.6617  2.7316
  506TMC3    C1 7568   2.201   0.323  10.456  0.0297 -0.5418  1.0386
  506TMC3    C2 7569   2.225   0.359  10.323  0.0148 -0.4616  0.0881
  506TMC3    C3 7570   2.114   0.369  10.238 -0.4561  0.3028 -0.1945
  506TMC3    C4 7571   2.076   0.282  10.495  0.4522 -0.3263 -0.0914
  506TMC3    C5 7572   1.976   0.279  10.408 -1.0901 -0.5829  0.1760
  506TMC3    C6 7573   1.987   0.338  10.285  0.2921 -0.2010  0.6471
  506TMC3     C 7574   2.303   0.248  10.518  0.1257 -0.5062  0.5065
  506TMC3     O 7575   2.262   0.150  10.574  0.4949  0.0342  0.0891
  506TMC3     H 7576   2.325   0.368  10.282  0.8911  0.4222  2.3981
  506TMC3    H1 7577   2.064   0.243  10.595 -1.0306  0.0553 -0.1067
  506TMC3    H2 7578   1.893   0.345  10.233  2.2148  3.7806 -2.2886
  506TMC3    C7 7579   1.924   0.151  10.409 -0.0700 -0.0566  0.4723
  506TMC3    C8 7580   2.137   0.375  10.096  0.5930  0.0893  0.6455
  506TMC3    O1 7581   1.841   0.138  10.321  0.2046 -0.0444 -0.0982
  506TMC3    O2 7582   2.043   0.418  10.035 -0.4357 -0.4929 -0.0476
  507TMC3    C1 7583   2.941   1.165  15.391 -0.2134  0.7738  0.6399
  507TMC3    C2 7584   2.905   1.034  15.359 -0.0084 -0.7566  0.4129
  507TMC3    C3 7585   2.959   0.986  15.243  0.3488  0.8535  0.2306
  507TMC3    C4 7586   3.030   1.240  15.315 -0.0089  0.5051  0.1487
  507TMC3    C5 7587   3.076   1.189  15.200  0.3378  0.2290 -0.2618
  507TMC3    C6 7588   3.054   1.059  15.178 -0.4066  0.4351 -0.3115
  507TMC3     C 7589   2.881   1.230  15.504  0.6564 -0.2861  0.0013
  507TMC3     O 7590   2.768   1.191  15.534  0.3236  0.0410 -0.0850
  507TMC3     H 7591   2.826   0.980  15.410  0.0638 -1.1840  0.0790
  507TMC3    H1 7592   3.065   1.333  15.358  1.2231  0.1121 -0.0197
  507TMC3    H2 7593   3.104   1.017  15.092 -0.6448  0.4108 -0.4371
  507TMC3    C7 7594   3.049   1.270  15.089 -0.0793 -0.7889  0.5302
  507TMC3    C8 7595   2.867   0.908  15.157  0.1136 -0.8209  0.3153
  507TMC3    O1 7596   3.007   1.218  14.986 -0.0191  0.4985 -0.0916
  507TMC3    O2 7597   2.795   0.828  15.210 -0.3008 -0.3109  0.2103
  508MPD2     C 7598   3.706   2.816  15.664  0.9638  0.0755  0.1217
  508MPD2    C1 7599   3.727   2.928  15.734 -0.1164  1.0289 -0.1798
  508MPD2    C2 7600   3.738   3.043  15.663  0.6859 -0.2274 -0.5094
  508MPD2    C3 7601   3.724   3.052  15.525 -0.3692 -0.0233  0.7508
  508MPD2    C4 7602   3.716   2.936  15.455 -0.3080 -0.5572  0.3611
  508MPD2    C5 7603   3.708   2.821  15.526  0.4641 -1.2831 -0.3300
  508MPD2     H 7604   3.772   3.122  15.730 -0.0599 -1.8084  1.7418
  508MPD2    H1 7605   3.687   2.934  15.351  1.8597 -0.2900 -0.2604
  508MPD2    H2 7606   3.701   2.723  15.720  2.1822  1.2389  2.1942
  508MPD2    H3 7607   3.681   2.730  15.472 -0.5351 -0.8634 -0.5313
  508MPD2     N 7608   3.756   3.177  15.472  0.3812  0.3325  0.6948
  508MPD2    H5 7609   3.746   3.254  15.537 -2.4007  0.1630  0.4743
  508MPD2    N1 7610   3.733   2.918  15.876  0.4268  0.6365 -0.0413
  508MPD2    H7 7611   3.735   2.823  15.913 -0.7496 -0.0833 -1.8279
  509TMC3    C1 7612   3.759   3.529  15.219  0.6609 -0.4768  0.8723
  509TMC3    C2 7613   3.806   3.600  15.329  0.4349 -0.0926 -0.5203
  509TMC3    C3 7614   3.865   3.528  15.427  0.6293 -0.4155 -0.1749
  509TMC3    C4 7615   3.769   3.391  15.217  0.3210  0.5697  0.3162
  509TMC3    C5 7616   3.844   3.327  15.309  0.3306 -0.2588 -0.3492
  509TMC3    C6 7617   3.890   3.393  15.421  0.3345 -0.5230  0.1460
  509TMC3     C 7618   3.700   3.602  15.110  0.5898  0.9017  0.5100
  509TMC3     O 7619   3.685   3.535  15.003 -0.0434  0.0673 -0.0392
  509TMC3     H 7620   3.809   3.709  15.329 -1.6831 -0.0451 -1.5954
  509TMC3    H1 7621   3.725   3.345  15.129  1.0549 -1.9654  1.2882
  509TMC3    H2 7622   3.946   3.336  15.495  1.3595 -0.7293 -0.7922
  509TMC3    C7 7623   3.780   3.200  15.334 -0.2370 -0.3308 -0.0829
  509TMC3    C8 7624   3.909   3.592  15.558  0.3554 -0.2926  0.1095
  509TMC3    O1 7625   3.761   3.133  15.234 -0.6593 -0.3738  0.1781
  509TMC3    O2 7626   3.962   3.522  15.645  0.3317 -0.3037  0.5551
  510MPD2     C 7627   1.260   0.102  14.777 -0.1081 -0.2436 -0.1885
  510MPD2    C1 7628   1.298   4.697  14.764 -0.3021  0.1842 -0.5577
  510MPD2    C2 7629   1.404   4.671  14.673  0.1458 -0.4966  0.4806
  510MPD2    C3 7630   1.460   0.044  14.591  0.5136  1.2829 -0.1422
  510MPD2    C4 7631   1.404   0.168  14.600  0.3062  0.1256  0.1594
  510MPD2    C5 7632   1.309   0.201  14.693 -0.4397  0.4534  0.5498
  510MPD2     H 7633   1.443   4.570  14.666  2.3351  0.2968  1.1433
  510MPD2    H1 7634   1.437   0.252  14.539  0.8240 -1.3422 -1.5927
  510MPD2    H2 7635   1.194   0.125  14.861  1.5675  2.3321  0.4277
  510MPD2    H3 7636   1.279   0.305  14.701  0.5306  0.6911  1.0735
  510MPD2     N 7637   1.562   0.008  14.500  0.1713  0.4383 -0.0302
  510MPD2    H5 7638   1.588   4.641  14.517 -0.1767  0.2000 -0.8604
  510MPD2    N1 7639   1.222   4.605  14.844 -0.6006  0.2707  0.2173
  510MPD2    H7 7640   1.149   4.643  14.903 -0.4431  0.6514  0.1665
  511TMC3    C1 7641   1.140   4.400  14.923  0.0738 -0.3153  0.5909
  511TMC3    C2 7642   1.038   4.463  14.994 -0.8285 -0.1495  0.1946
  511TMC3    C3 7643   0.929   4.391  15.048 -0.8688 -0.3201 -0.4944
  511TMC3    C4 7644   1.130   4.268  14.905 -0.8177  0.4244 -0.4913
  511TMC3    C5 7645   1.021   4.197  14.956  0.6829 -1.0863  0.7392
  511TMC3    C6 7646   0.928   4.258  15.029 -0.3883  0.0005  0.2755
  511TMC3     C 7647   1.234   4.468  14.831  0.4267 -0.1785 -0.1717
  511TMC3     O 7648   1.308   4.397  14.760 -0.2171  0.0437 -0.2697
  511TMC3     H 7649   1.043   4.569  15.019  0.4903 -0.1542 -0.0641
  511TMC3    H1 7650   1.204   4.212  14.848  1.1699 -0.9936  3.4562
  511TMC3    H2 7651   0.839   4.206  15.062 -0.9276  0.0814 -1.0368
  511TMC3    C7 7652   0.994   4.074  14.887 -0.1769  0.3908  0.1042
  511TMC3    C8 7653   0.875   4.440  15.175  0.5884 -0.1961 -0.2916
  511TMC3    O1 7654   1.059   4.041  14.792  0.6189  0.2167 -0.4187
  511TMC3    O2 7655   0.877   4.562  15.189 -0.6525  0.1701 -0.7923
  512TMC3    C1 7656   0.455   3.875  13.414 -0.0694  0.0416 -0.4248
  512TMC3    C2 7657   0.518   3.830  13.529 -0.0464 -0.5997 -0.3655
  512TMC3    C3 7658   0.585   3.714  13.520  0.0222 -0.0324  0.5968
  512TMC3    C4 7659   0.465   3.811  13.295 -0.0425  0.6370  0.2435
  512TMC3    C5 7660   0.538   3.698  13.295 -0.1515  0.2817  0.1319
  512TMC3    C6 7661   0.592   3.640  13.408  0.1096  0.4506 -0.3714
  512TMC3     C 7662   0.372   3.986  13.426 -0.2996  0.1816 -0.4837
  512TMC3     O 7663   0.406   4.068  13.506  0.6989 -0.4751 -0.5693
  512TMC3     H 7664   0.501   3.882  13.623 -0.4352 -0.5144 -0.4862
  512TMC3    H1 7665   0.427   3.852  13.202  0.0389  2.6581  1.0887
  512TMC3    H2 7666   0.655   3.552  13.413  0.3339  0.7629  2.9275
  512TMC3    C7 7667   0.593   3.662  13.168 -0.0434 -0.5957 -0.1796
  512TMC3    C8 7668   0.673   3.693  13.632 -0.4236 -0.3744 -0.2521
  512TMC3    O1 7669   0.600   3.757  13.090  0.0753 -0.5544 -0.1459
  512TMC3    O2 7670   0.714   3.579  13.659  0.1140  0.3141  0.3462
  513MPD2     C 7671   2.356   4.450  13.239 -0.2072 -0.7726  0.1112
  513MPD2    C1 7672   2.456   4.533  13.209  0.7419 -0.8598  1.0019
  513MPD2    C2 7673   2.542   4.583  13.312  0.1331  0.0807 -0.7969
  513MPD2    C3 7674   2.527   4.547  13.441  0.1493  0.7234  0.2982
  513MPD2    C4 7675   2.438   4.441  13.462 -0.2071 -1.2219  0.5767
  513MPD2    C5 7676   2.350   4.402  13.371  0.6290  0.0003 -0.9014
  513MPD2     H 7677   2.627   4.649  13.301  1.7071 -2.0099 -1.1439
  513MPD2    H1 7678   2.410   4.410  13.563  0.3942 -0.0145  1.1098
  513MPD2    H2 7679   2.287   4.407  13.168  2.1581 -3.1000 -0.8180
  513MPD2    H3 7680   2.273   4.334  13.406  1.5405 -0.3391  0.4794
  513MPD2     N 7681   2.620   4.600  13.532  0.0390 -0.4602 -0.0691
  513MPD2    H5 7682   2.690   4.667  13.501 -2.3968  1.6658 -0.9919
  513MPD2    N1 7683   2.480   4.553  13.073  0.0967  0.3864  0.1515
  513MPD2    H7 7684   2.411   4.516  13.009  1.5418 -3.0473  0.5961
  514TMC3    C1 7685   2.605   4.626  12.886 -0.2089 -0.2792 -0.1759
  514TMC3    C2 7686   2.507   4.695  12.822  0.1923 -0.3427 -0.0739
  514TMC3    C3 7687   2.534   0.053  12.724 -0.0847  0.1860  0.0768
  514TMC3    C4 7688   2.736   4.644  12.853  0.2125  0.5666  1.3045
  514TMC3    C5 7689   2.767   0.009  12.754 -0.2715 -0.0203 -0.5159
  514TMC3    C6 7690   2.663   0.078  12.691 -0.8521  0.2520 -0.3845
  514TMC3     C 7691   2.593   4.617  13.030  0.8932  0.3985 -0.2342
  514TMC3     O 7692   2.693   4.654  13.094 -0.0334 -0.1867 -0.4447
  514TMC3     H 7693   2.408   4.663  12.854 -0.2178  1.9759  1.0177
  514TMC3    H1 7694   2.818   4.589  12.898  1.2660 -0.1664 -1.5216
  514TMC3    H2 7695   2.690   0.145  12.610  0.4344 -1.0799 -1.0668
  514TMC3    C7 7696   2.868   0.093  12.808 -0.3851 -0.4460  0.4172
  514TMC3    C8 7697   2.432   0.085  12.622 -0.1313  0.2177 -0.2879
  514TMC3    O1 7698   2.912   0.182  12.740 -0.1969  0.1161 -0.1781
  514TMC3    O2 7699   2.320   0.109  12.663  0.4898  0.4669  0.0254
  515MPD2     C 7700   0.767   0.698  14.382 -0.1192  0.8603 -0.7941
  515MPD2    C1 7701   0.660   0.621  14.436  0.1746  0.6409  0.7465
  515MPD2    C2 7702   0.639   0.616  14.572  0.5192  0.6403 -0.7599
  515MPD2    C3 7703   0.721   0.689  14.658 -0.3780 -0.4209  0.4619
  515MPD2    C4 7704   0.827   0.756  14.605 -0.2406  0.1477 -0.5676
  515MPD2    C5 7705   0.848   0.762  14.468 -0.4995  0.5759  0.0793
  515MPD2     H 7706   0.550   0.568  14.612 -0.0257  2.2673 -0.0111
  515MPD2    H1 7707   0.899   0.800  14.674 -0.5071  0.4824 -0.5058
  515MPD2    H2 7708   0.771   0.714  14.275  0.9399 -2.5494 -1.2503
  515MPD2    H3 7709   0.933   0.810  14.422  2.0382 -2.2816  1.8274
  515MPD2     N 7710   0.704   0.673  14.794  0.2585 -1.0836 -0.0424
  515MPD2    H5 7711   0.786   0.696  14.850  0.5755  0.4137 -1.1127
  515MPD2    N1 7712   0.571   0.550  14.353  0.3245  0.2394 -0.1388
  515MPD2    H7 7713   0.508   0.493  14.410 -2.1540  1.6894 -1.4072
  516TMC3    C1 7714   0.447   0.476  14.172  0.6905  0.2627  0.0928
  516TMC3    C2 7715   0.371   0.516  14.066 -0.5257 -0.4769 -0.1638
  516TMC3    C3 7716   0.265   0.444  14.032 -0.1424  0.6291  0.1329
  516TMC3    C4 7717   0.407   0.360  14.232  0.1860 -0.3298  0.2462
  516TMC3    C5 7718   0.301   0.280  14.193  0.1816  0.4037  0.2164
  516TMC3    C6 7719   0.221   0.329  14.096 -0.4906  0.2699 -0.5869
  516TMC3     C 7720   0.556   0.555  14.216  0.0108 -0.3203 -0.2884
  516TMC3     O 7721   0.605   0.638  14.141  0.3582  0.3874 -0.0678
  516TMC3     H 7722   0.399   0.608  14.015 -1.5389  1.5261  2.9130
  516TMC3    H1 7723   0.473   0.326  14.311  0.2431 -0.5607  0.0979
  516TMC3    H2 7724   0.128   0.286  14.061 -0.3210  0.9960 -1.9090
  516TMC3    C7 7725   0.253   0.175  14.278 -0.7082 -0.1300 -0.6009
  516TMC3    C8 7726   0.161   0.526  13.971  0.8313  0.0574 -0.0358
  516TMC3    O1 7727   0.336   0.128  14.357  0.3430  0.0344  0.1117
  516TMC3    O2 7728   0.047   0.532  14.017  0.3908  0.0733 -0.2580
  517MPD2     C 7729   4.687   2.472   0.125  0.1721  0.1736  0.5519
  517MPD2    C1 7730   0.093   2.484   0.102 -0.2494 -0.2030 -0.1181
  517MPD2    C2 7731   0.155   2.604   0.139 -0.2973 -0.0933 -0.0658
  517MPD2    C3 7732   0.079   2.703   0.209 -0.6082  0.3291  0.2765
  517MPD2    C4 7733   4.671   2.688   0.220  0.3508  0.3084  0.5238
  517MPD2    C5 7734   4.610   2.565   0.188  0.2036  0.4300  0.2858
  517MPD2     H 7735   0.260   2.619   0.116 -0.0124 -0.2914  1.1309
  517MPD2    H1 7736   4.606   2.762   0.265  0.9230  1.7292 -1.0046
  517MPD2    H2 7737   4.627   2.388   0.092 -0.8406  0.9275  0.4670
  517MPD2    H3 7738   4.504   2.544   0.195  0.1251  0.8004  0.1989
  517MPD2     N 7739   0.134   2.822   0.252  0.2436  0.4552 -0.2745
  517MPD2    H5 7740   0.072   2.878   0.310  0.4267  0.5080 -0.1299
  517MPD2    N1 7741   0.174   2.386   0.038  0.2000 -0.5387 -0.4853
  517MPD2    H7 7742   0.271   2.411   0.023  0.7035 -1.3443  1.5062
  518TMC3    C1 7743   0.227   2.174  17.636  0.0663 -0.6806  1.4082
  518TMC3    C2 7744   0.196   2.036  17.639 -1.0369  0.0982  0.1907
  518TMC3    C3 7745   0.286   1.952  17.569  0.3308  0.0418 -0.3626
  518TMC3    C4 7746   0.338   2.222  17.565 -0.3665  0.4780 -0.2317
  518TMC3    C5 7747   0.426   2.139  17.504  0.0520  0.8881  0.4294
  518TMC3    C6 7748   0.394   2.005  17.498  0.3023  0.4934  0.3695
  518TMC3     C 7749   0.134   2.258  17.705  1.2633  0.2010  0.0965
  518TMC3     O 7750   0.028   2.203   0.002  0.0673  0.6164  0.6150
  518TMC3     H 7751   0.109   1.999  17.693 -0.7576  0.9695  1.2268
  518TMC3    H1 7752   0.372   2.325  17.575 -2.5133  1.1357  0.1436
  518TMC3    H2 7753   0.461   1.931  17.456 -0.8807 -0.2402 -0.2425
  518TMC3    C7 7754   0.541   2.190  17.430 -0.6854 -0.3566 -0.0406
  518TMC3    C8 7755   0.303   1.808  17.593 -0.1152 -0.2451  0.5833
  518TMC3    O1 7756   0.586   2.301  17.461 -0.2147  0.2092  0.5380
  518TMC3    O2 7757   0.341   1.752  17.490  0.0480  0.2802 -0.1836
  519MPD2     C 7758   1.402   0.641  13.987 -0.6315  1.0500  0.0641
  519MPD2    C1 7759   1.527   0.690  14.027 -0.1132 -0.5305  0.7696
  519MPD2    C2 7760   1.608   0.609  14.103  0.0994  0.7660  0.1374
  519MPD2    C3 7761   1.570   0.479  14.122  0.4317  0.2006  0.1591
  519MPD2    C4 7762   1.445   0.433  14.094  0.4047 -0.0826  0.0277
  519MPD2    C5 7763   1.361   0.523  14.032 -0.3033 -0.1884  0.8812
  519MPD2     H 7764   1.705   0.642  14.138  0.7012 -2.2346  1.2768
  519MPD2    H1 7765   1.408   0.334  14.119 -1.7349  0.1857 -2.0546
  519MPD2    H2 7766   1.341   0.694  13.914  1.5174 -0.0875 -2.5686
  519MPD2    H3 7767   1.259   0.493  14.013  0.2306 -1.1272 -0.5383
  519MPD2     N 7768   1.656   0.388  14.182 -0.1428 -0.3793  0.2515
  519MPD2    H5 7769   1.612   0.313  14.235 -1.0386  0.3482  0.5429
  519MPD2    N1 7770   1.565   0.819  13.995  0.1387  0.1251  0.8788
  519MPD2    H7 7771   1.496   0.885  13.960  1.2920  1.3550  0.9135
  520TMC3    C1 7772   1.869   0.456  14.076  0.2420  0.4263 -0.3783
  520TMC3    C2 7773   1.836   0.479  13.944 -0.2239 -0.7147 -0.3072
  520TMC3    C3 7774   1.929   0.538  13.864  0.6677 -0.2120  0.1804
  520TMC3    C4 7775   1.996   0.492  14.115 -0.0489 -0.4729  0.9195
  520TMC3    C5 7776   2.084   0.565  14.038 -0.2119 -0.0299 -0.2220
  520TMC3    C6 7777   2.053   0.580  13.909 -0.4616  0.2397 -0.4968
  520TMC3     C 7778   1.795   0.376  14.162 -0.0516 -0.1651  0.6559
  520TMC3     O 7779   1.867   0.298  14.222 -0.1284  0.4566 -0.0876
  520TMC3     H 7780   1.756   0.416  13.908 -0.0449 -0.6765 -0.7788
  520TMC3    H1 7781   2.020   0.481  14.220 -0.4662 -2.9370  0.7400
  520TMC3    H2 7782   2.108   0.656  13.856  0.1462  0.9436  1.1371
  520TMC3    C7 7783   2.219   0.535  14.071 -0.2872  0.8818  0.6658
  520TMC3    C8 7784   1.899   0.573  13.731  1.1258  0.5085  0.2502
  520TMC3    O1 7785   2.248   0.568  14.184 -0.6049  0.2879  0.3954
  520TMC3    O2 7786   1.986   0.621  13.658  0.1499 -0.0964  0.2490
  521MPD2     C 7787   2.519   3.837  17.119  0.2274  0.9377 -0.0575
  521MPD2    C1 7788   2.586   3.725  17.152  1.0123 -1.1529 -0.3831
  521MPD2    C2 7789   2.723   3.722  17.120  0.3263 -0.1243 -0.5653
  521MPD2    C3 7790   2.781   3.811  17.029 -0.1981 -0.3544 -1.1642
  521MPD2    C4 7791   2.701   3.917  16.991 -0.1888  0.1436  0.0704
  521MPD2    C5 7792   2.573   3.926  17.033 -0.3039  0.3682  0.5432
  521MPD2     H 7793   2.789   3.643  17.153 -0.0846  0.6228  2.0460
  521MPD2    H1 7794   2.726   3.996  16.921 -1.6235 -0.3727 -1.0147
  521MPD2    H2 7795   2.417   3.858  17.150  0.7592  2.5091  0.6074
  521MPD2    H3 7796   2.517   4.015  17.003  0.2353  0.1262 -1.1849
  521MPD2     N 7797   2.908   3.778  16.976  0.3591  0.5040 -0.4134
  521MPD2    H5 7798   2.951   3.691  17.007  0.8857  0.2704 -1.7855
  521MPD2    N1 7799   2.513   3.628  17.223  0.0424  0.0046  0.6317
  521MPD2    H7 7800   2.418   3.650  17.249 -0.6451 -0.1778 -1.7986
  522TMC3    C1 7801   3.066   3.772  16.805  0.2289 -0.3235  0.7587
  522TMC3    C2 7802   3.126   3.660  16.859  0.5727  0.2161  0.1751
  522TMC3    C3 7803   3.203   3.582  16.778 -0.2506  0.4668  0.0363
  522TMC3    C4 7804   3.075   3.800  16.671  0.0980  0.4893 -0.4776
  522TMC3    C5 7805   3.153   3.718  16.597 -0.0493 -0.7890  0.3299
  522TMC3    C6 7806   3.214   3.606  16.645  0.0883 -0.3343  0.6547
  522TMC3     C 7807   2.961   3.845  16.873 -1.0889 -0.1314 -0.1548
  522TMC3     O 7808   2.949   3.958  16.833 -0.3773 -0.1436  0.0438
  522TMC3     H 7809   3.129   3.639  16.965 -0.0629 -0.1723  0.1146
  522TMC3    H1 7810   3.020   3.883  16.629 -2.2042 -1.3012 -1.0254
  522TMC3    H2 7811   3.260   3.538  16.574 -0.7129  2.8151 -2.9529
  522TMC3    C7 7812   3.136   3.713  16.457  0.0152  0.3306 -0.2109
  522TMC3    C8 7813   3.277   3.476  16.839  0.5212  0.2100 -0.1862
  522TMC3    O1 7814   3.234   3.696  16.387  0.3558 -0.0464  0.1606
  522TMC3    O2 7815   3.239   3.433  16.949 -0.0049 -0.4491  0.2976
  523MPD2     C 7816   0.510   3.189  10.474 -0.6767 -0.3690  0.2583
  523MPD2    C1 7817   0.437   3.148  10.368  0.6122 -0.0536 -0.2088
  523MPD2    C2 7818   0.342   3.240  10.316  0.0969  0.7504 -0.0641
  523MPD2    C3 7819   0.335   3.366  10.369  0.4316 -0.1791 -0.2310
  523MPD2    C4 7820   0.419   3.413  10.469 -0.5286 -0.0570  0.0601
  523MPD2    C5 7821   0.507   3.318  10.515  0.1300  0.3816 -0.5235
  523MPD2     H 7822   0.283   3.210  10.230  1.9797 -0.0226 -1.0822
  523MPD2    H1 7823   0.412   3.513  10.510  0.3587 -0.8095  2.0682
  523MPD2    H2 7824   0.576   3.117  10.522 -0.8518 -0.1309  0.8523
  523MPD2    H3 7825   0.580   3.350  10.588 -0.0621 -0.5487  0.0802
  523MPD2     N 7826   0.228   3.452  10.334 -0.1696 -0.2009  0.1193
  523MPD2    H5 7827   0.230   3.542  10.380  0.2772 -0.4923  0.6721
  523MPD2    N1 7828   0.457   3.015  10.317 -0.2212 -1.1093  0.2983
  523MPD2    H7 7829   0.509   2.946  10.371 -0.5042  0.4727  2.5470
  524TMC3    C1 7830   0.015   3.512  10.238  0.3878 -0.8099 -0.5331
  524TMC3    C2 7831   4.632   3.468  10.175  0.2203 -0.0195 -0.6106
  524TMC3    C3 7832   4.554   3.563  10.106 -0.1214  0.1427  0.0124
  524TMC3    C4 7833   0.063   3.639  10.225  0.2225 -0.0781 -0.6082
  524TMC3    C5 7834   4.707   3.726  10.162  0.7929 -0.1810  0.0948
  524TMC3    C6 7835   4.587   3.695  10.100 -0.0738  0.4772  0.5630
  524TMC3     C 7836   0.117   3.415  10.261  0.1774 -0.0727 -0.4390
  524TMC3     O 7837   0.088   3.301  10.228 -0.0979 -0.6211 -0.2911
  524TMC3     H 7838   4.599   3.366  10.190  0.5160 -0.0268 -0.0239
  524TMC3    H1 7839   0.157   3.670  10.270 -0.7282  0.9792  0.6650
  524TMC3    H2 7840   4.530   3.775  10.053 -0.0113  0.3617  0.2877
  524TMC3    C7 7841   0.003   3.868  10.179  0.4947 -0.0936 -0.3026
  524TMC3    C8 7842   4.421   3.520  10.084  0.5378 -0.3819  0.7048
  524TMC3    O1 7843   0.047   3.910  10.282 -0.2053  0.1391  0.4828
  524TMC3    O2 7844   4.404   3.400  10.062 -0.0533 -0.8601 -0.4249
  525MPD2     C 7845   3.331   0.406  14.480  0.3674  0.0617 -0.3955
  525MPD2    C1 7846   3.448   0.418  14.555 -0.2726  0.1367  0.2849
  525MPD2    C2 7847   3.540   0.509  14.523 -0.8103 -0.4382  0.3358
  525MPD2    C3 7848   3.509   0.607  14.429  0.1039 -1.0891  0.5502
  525MPD2    C4 7849   3.383   0.607  14.368  0.4833  0.4282  0.3475
  525MPD2    C5 7850   3.298   0.506  14.389 -0.0867 -0.4504  0.0250
  525MPD2     H 7851   3.629   0.525  14.583 -2.0181  0.1356  1.9656
  525MPD2    H1 7852   3.354   0.694  14.310  0.1017  0.2374  0.2530
  525MPD2    H2 7853   3.261   0.325  14.495  1.1848 -0.7712 -1.0702
  525MPD2    H3 7854   3.196   0.517  14.356 -0.7007  0.2500  2.1731
  525MPD2     N 7855   3.588   0.713  14.396  0.5005 -0.0488 -0.0107
  525MPD2    H5 7856   3.539   0.787  14.347  0.3110  0.5313  1.0333
  525MPD2    N1 7857   3.482   0.326  14.659  0.0177 -0.3724 -0.2433
  525MPD2    H7 7858   3.570   0.347  14.705 -0.3261 -3.9547  1.9955
  526TMC3    C1 7859   3.466   0.183  14.840  0.0262 -0.0041 -0.9778
  526TMC3    C2 7860   3.387   0.148  14.941 -0.4687 -0.2286  0.0112
  526TMC3    C3 7861   3.449   0.124  15.062 -0.2265  0.5858 -0.1327
  526TMC3    C4 7862   3.600   0.177  14.837 -0.3026 -0.1390 -0.1840
  526TMC3    C5 7863   3.656   0.148  14.957 -0.5733 -0.2831 -0.1999
  526TMC3    C6 7864   3.585   0.141  15.070  0.1285 -0.0172 -0.6698
  526TMC3     C 7865   3.403   0.226  14.719 -0.1914 -0.5283 -0.3595
  526TMC3     O 7866   3.289   0.191  14.691 -0.1287  0.8110 -0.1408
  526TMC3     H 7867   3.283   0.175  14.931 -0.8142 -0.2501  3.3891
  526TMC3    H1 7868   3.662   0.200  14.750  0.9578 -2.3905  0.0950
  526TMC3    H2 7869   3.623   0.116  15.169  0.8562 -0.9580 -1.1929
  526TMC3    C7 7870   3.792   0.099  14.953 -0.6805  0.2207  0.0290
  526TMC3    C8 7871   3.371   0.180  15.174  0.0664 -0.5030  0.0008
  526TMC3    O1 7872   3.840   0.071  15.065 -0.5341  0.2070  0.1219
  526TMC3    O2 7873   3.433   0.255  15.248  0.1153  0.1427  0.3497
  527MPD2     C 7874   1.645   3.425   1.246  0.3586 -0.6060 -0.6061
  527MPD2    C1 7875   1.587   3.312   1.189  0.4477  0.4629 -0.3820
  527MPD2    C2 7876   1.676   3.227   1.124  0.5305  0.0035 -0.5527
  527MPD2    C3 7877   1.808   3.243   1.110  0.1308  0.0282  0.0756
  527MPD2    C4 7878   1.867   3.354   1.174  0.3856 -0.1049  0.2558
  527MPD2    C5 7879   1.784   3.432   1.252  0.1774 -0.2963 -0.0450
  527MPD2     H 7880   1.637   3.130   1.094  0.0606 -0.6662  2.2345
  527MPD2    H1 7881   1.974   3.369   1.180  0.0595  1.4052  2.1329
  527MPD2    H2 7882   1.594   3.505   1.300  1.9969  0.4732 -0.6492
  527MPD2    H3 7883   1.835   3.508   1.310 -0.6730  0.6470 -0.5397
  527MPD2     N 7884   1.877   3.141   1.039 -0.4097  0.0933 -0.1918
  527MPD2    H5 7885   1.824   3.063   1.002 -1.7733  0.5379  0.8445
  527MPD2    N1 7886   1.448   3.293   1.180  0.5261  0.0549  0.1687
  527MPD2    H7 7887   1.417   3.221   1.116  0.6306  0.5400 -0.4255
  528TMC3    C1 7888   1.220   3.310   1.251  0.3115  1.0379 -0.0843
  528TMC3    C2 7889   1.181   3.261   1.134 -0.4480 -0.1010  0.4410
  528TMC3    C3 7890   1.047   3.225   1.120 -0.8481  0.0741 -0.8119
  528TMC3    C4 7891   1.128   3.334   1.355  0.3070 -0.1184  0.7684
  528TMC3    C5 7892   0.999   3.297   1.339  0.0449  0.2028 -0.7237
  528TMC3    C6 7893   0.953   3.239   1.222  0.0008 -0.2090 -0.5300
  528TMC3     C 7894   1.352   3.354   1.264 -1.0309  0.4471 -0.0019
  528TMC3     O 7895   1.378   3.431   1.357  0.1288 -0.1171  0.4866
  528TMC3     H 7896   1.250   3.243   1.053  1.3115 -0.6180  2.0500
  528TMC3    H1 7897   1.170   3.378   1.445  0.7330 -0.2774  0.6446
  528TMC3    H2 7898   0.852   3.200   1.217  0.7288 -1.9252 -1.8956
  528TMC3    C7 7899   0.912   3.304   1.457 -0.7570 -0.2413 -0.3136
  528TMC3    C8 7900   1.005   3.160   0.989  0.1152 -0.1260 -0.0171
  528TMC3    O1 7901   0.789   3.303   1.443  0.0973  0.2861  0.0830
  528TMC3    O2 7902   1.089   3.148   0.902 -0.3226 -0.1799 -0.1519
  529MPD2     C 7903   3.047   1.937   0.769 -0.0007  0.3433 -0.2921
  529MPD2    C1 7904   3.039   1.805   0.759  0.3547  0.6056 -0.8307
  529MPD2    C2 7905   2.933   1.740   0.697 -0.9212 -0.7723 -0.1460
  529MPD2    C3 7906   2.833   1.817   0.643  0.3198 -0.2960  0.2599
  529MPD2    C4 7907   2.847   1.953   0.647  0.1888  0.0058  0.6774
  529MPD2    C5 7908   2.947   2.008   0.712  0.2502 -0.7360  0.1206
  529MPD2     H 7909   2.932   1.633   0.685 -2.7540 -0.4102 -3.1804
  529MPD2    H1 7910   2.764   2.010   0.607  1.3899  0.6616 -0.8436
  529MPD2    H2 7911   3.128   1.986   0.821  0.0808 -1.4963  1.3587
  529MPD2    H3 7912   2.961   2.116   0.717  2.4890 -1.1547  2.5190
  529MPD2     N 7913   2.731   1.771   0.563  0.5142 -0.2584 -0.6981
  529MPD2    H5 7914   2.678   1.838   0.509 -0.7544 -0.3387  0.4264
  529MPD2    N1 7915   3.124   1.713   0.816 -0.7265 -0.4002  0.4770
  529MPD2    H7 7916   3.100   1.615   0.813  1.3937 -0.9772  2.3696
  530TMC3    C1 7917   3.318   1.626   0.920 -1.3999  0.6736  0.3686
  530TMC3    C2 7918   3.426   1.644   1.007 -0.0426 -0.2198 -0.3136
  530TMC3    C3 7919   3.536   1.560   1.003  0.4985 -0.3130  0.0501
  530TMC3    C4 7920   3.323   1.513   0.839 -0.0437 -0.0954 -0.4787
  530TMC3    C5 7921   3.438   1.441   0.835 -0.1865 -0.2566  0.0924
  530TMC3    C6 7922   3.539   1.452   0.921 -0.0620  0.6118  0.4142
  530TMC3     C 7923   3.247   1.743   0.867  0.6521  0.1303  0.0864
  530TMC3     O 7924   3.313   1.845   0.867  0.3744  0.1384  0.0803
  530TMC3     H 7925   3.428   1.738   1.062 -1.9067  1.0043 -2.3269
  530TMC3    H1 7926   3.245   1.503   0.764 -0.2596  0.2041 -0.2985
  530TMC3    H2 7927   3.636   1.418   0.888 -0.4269  0.3782 -0.4149
  530TMC3    C7 7928   3.434   1.326   0.750 -0.0296  0.1516  0.2646
  530TMC3    C8 7929   3.654   1.613   1.072  0.0536 -0.2162  0.1530
  530TMC3    O1 7930   3.368   1.324   0.649  0.1571 -0.0873  0.0015
  530TMC3    O2 7931   3.664   1.736   1.094  0.0033  0.9995  0.0208
  531MPD2     C 7932   3.186   0.201  13.208  0.2477  0.6087  0.0800
  531MPD2    C1 7933   3.067   0.147  13.264 -0.6012 -0.1656  0.2705
  531MPD2    C2 7934   2.973   0.113  13.168 -0.6314  0.2524 -0.3322
  531MPD2    C3 7935   2.991   0.124  13.032  0.0364  0.2293  0.3797
  531MPD2    C4 7936   3.102   0.168  12.982 -0.6374  0.1241  0.0999
  531MPD2    C5 7937   3.192   0.221  13.069 -0.7510  0.9066  0.2870
  531MPD2     H 7938   2.881   0.063  13.196 -0.7961  0.6056 -0.2476
  531MPD2    H1 7939   3.121   0.176  12.876 -1.8627 -0.1418 -0.1428
  531MPD2    H2 7940   3.265   0.253  13.261  1.1347 -2.3997  1.6514
  531MPD2    H3 7941   3.281   0.276  13.040 -0.0481 -0.5210 -0.2558
  531MPD2     N 7942   2.887   0.074  12.947 -0.2487 -0.0632  0.0458
  531MPD2    H5 7943   2.812   0.020  12.990  1.5676 -2.4329  0.2203
  531MPD2    N1 7944   3.044   0.131  13.403 -0.4812 -0.6030  0.2930
  531MPD2    H7 7945   3.125   0.137  13.464 -0.6842  1.4413  0.3832
  532TMC3    C1 7946   2.938   0.027  13.594  0.0740  0.1782  0.5973
  532TMC3    C2 7947   2.808   0.004  13.639 -0.8136 -0.1518  1.3020
  532TMC3    C3 7948   2.775   4.611  13.694  0.2295  0.3244 -0.1753
  532TMC3    C4 7949   3.042   4.662  13.617 -0.0641 -0.0788 -0.4147
  532TMC3    C5 7950   2.997   4.538  13.662  0.6600  0.2801 -0.5246
  532TMC3    C6 7951   2.869   4.512  13.698  0.7844  0.5505  0.1127
  532TMC3     C 7952   2.931   0.095  13.462 -0.2293  0.0832 -0.0970
  532TMC3     O 7953   2.815   0.077  13.424 -0.2320  0.0129  0.2131
  532TMC3     H 7954   2.726   0.073  13.622  1.0614  0.9020 -3.2901
  532TMC3    H1 7955   3.140   4.674  13.571 -0.5775  0.1132 -1.4460
  532TMC3    H2 7956   2.841   4.411  13.728 -1.8534  1.3352  0.2910
  532TMC3    C7 7957   3.097   4.438  13.676  0.3579  0.5796 -0.3402
  532TMC3    C8 7958   2.642   4.555  13.656 -0.3211  0.1887 -0.1247
  532TMC3    O1 7959   3.209   4.482  13.667 -0.4936  0.7851 -0.4130
  532TMC3    O2 7960   2.598   4.459  13.718  0.4356 -0.1588 -0.6214
  533TMC3    C1 7961   3.744   0.894  14.401  0.1197  0.2677  0.0172
  533TMC3    C2 7962   3.875   0.919  14.406 -0.5292 -0.3046  0.2865
  533TMC3    C3 7963   3.911   1.047  14.430  0.0551 -0.0684  0.1966
  533TMC3    C4 7964   3.644   0.977  14.439  0.3722  0.5078  0.8968
  533TMC3    C5 7965   3.679   1.101  14.471  0.3990  0.0115  0.3150
  533TMC3    C6 7966   3.810   1.145  14.452 -0.7754  0.6483  0.4709
  533TMC3     C 7967   3.711   0.751  14.433  0.5396  0.5159 -0.2798
  533TMC3     O 7968   3.799   0.690  14.493  0.3347 -0.0355  0.0182
  533TMC3     H 7969   3.941   0.840  14.373  1.7708  0.3632  3.3165
  533TMC3    H1 7970   3.543   0.944  14.459  0.6181  0.5574  2.2128
  533TMC3    H2 7971   3.840   1.249  14.460 -0.6434  0.5950  0.6470
  533TMC3    C7 7972   3.615   1.141  14.596 -0.4468  0.1375 -0.2164
  533TMC3    C8 7973   4.048   1.100  14.408  0.1139  0.1068  0.3254
  533TMC3    O1 7974   3.517   1.086  14.637 -0.4234 -0.2947  0.1875
  533TMC3    O2 7975   4.065   1.220  14.383 -0.3905 -0.0405 -0.1923
  534MPD2     C 7976   1.750   1.145   0.869  0.5036 -0.1922 -0.7761
  534MPD2    C1 7977   1.679   1.257   0.902  0.2229 -0.0851  0.4217
  534MPD2    C2 7978   1.561   1.287   0.837 -0.4578  0.0849 -0.3826
  534MPD2    C3 7979   1.494   1.196   0.756  0.3248  0.0196 -0.0906
  534MPD2    C4 7980   1.558   1.078   0.735  0.2930  0.2843 -0.3072
  534MPD2    C5 7981   1.693   1.063   0.778 -1.0409 -0.4627 -0.3189
  534MPD2     H 7982   1.512   1.378   0.869 -1.8702 -0.2038 -1.7412
  534MPD2    H1 7983   1.515   1.010   0.662 -1.9654 -1.2027  2.4318
  534MPD2    H2 7984   1.847   1.114   0.905  1.6321  0.8552 -2.9152
  534MPD2    H3 7985   1.742   0.966   0.771 -0.1988 -0.1265  1.0874
  534MPD2     N 7986   1.359   1.215   0.702 -0.1912 -0.7985 -0.5741
  534MPD2    H5 7987   1.320   1.138   0.648  0.6663  0.1931 -2.6061
  534MPD2    N1 7988   1.727   1.351   1.001 -0.8382 -0.4547  0.2130
  534MPD2    H7 7989   1.669   1.427   1.036 -0.5067 -0.8498  1.5881
  535TMC3    C1 7990   1.169   1.336   0.648  0.4218 -0.2862 -1.1419
  535TMC3    C2 7991   1.085   1.241   0.700  0.9928  0.1952  0.9246
  535TMC3    C3 7992   0.951   1.274   0.707 -0.1647  0.1684  0.2540
  535TMC3    C4 7993   1.127   1.463   0.616  0.3955 -0.0746  0.0108
  535TMC3    C5 7994   0.989   1.490   0.623  0.3418  0.0447 -0.4081
  535TMC3    C6 7995   0.897   1.397   0.663 -0.3677 -0.6538  0.0017
  535TMC3     C 7996   1.299   1.336   0.694  0.0048 -1.1635  0.5489
  535TMC3     O 7997   1.348   1.445   0.723 -0.0055  0.4523 -0.5527
  535TMC3     H 7998   1.114   1.145   0.740  1.7028  0.1349  0.2525
  535TMC3    H1 7999   1.194   1.538   0.576 -0.8772  0.7871 -0.4941
  535TMC3    H2 8000   0.790   1.408   0.669  0.0928  1.7898  3.9417
  535TMC3    C7 8001   0.945   1.587   0.528  0.6815 -0.1807  0.2336
  535TMC3    C8 8002   0.864   1.197   0.780 -0.0981  0.0870 -0.2085
  535TMC3    O1 8003   1.028   1.647   0.464  0.3136  0.3847  0.0053
  535TMC3    O2 8004   0.749   1.206   0.745  0.5571 -0.2109 -0.3538
  536MPD2     C 8005   0.043   0.233  16.387  0.1205  0.4248 -1.5576
  536MPD2    C1 8006   4.653   0.168  16.384  0.6246 -0.1157  0.4463
  536MPD2    C2 8007   4.574   0.175  16.264 -0.0233 -0.0330  1.1819
  536MPD2    C3 8008   4.627   0.246  16.155 -0.5697  0.1630 -0.1369
  536MPD2    C4 8009   0.017   0.313  16.166  0.0006  0.1751  0.1972
  536MPD2    C5 8010   0.088   0.299  16.279  0.8086 -0.0582  0.0673
  536MPD2     H 8011   4.480   0.120  16.265  0.0398 -0.1482 -0.2370
  536MPD2    H1 8012   0.064   0.349  16.076  0.3343  1.8156  1.0342
  536MPD2    H2 8013   0.102   0.231  16.478  1.1237 -1.0479 -2.2446
  536MPD2    H3 8014   0.188   0.340  16.274  0.1283  1.7506  1.1838
  536MPD2     N 8015   4.551   0.269  16.040  0.2289 -0.1817 -0.7854
  536MPD2    H5 8016   4.596   0.328  15.970  0.1942 -0.0446 -0.6917
  536MPD2    N1 8017   4.610   0.088  16.489 -0.3657  0.0830 -0.0488
  536MPD2    H7 8018   4.654   0.102  16.579 -1.9226 -1.9564  1.0414
  537TMC3    C1 8019   4.516   4.636  16.611  0.1213  1.2239 -0.2839
  537TMC3    C2 8020   4.584   4.681  16.722 -0.7727 -0.2959 -0.2713
  537TMC3    C3 8021   4.582   4.603  16.831 -0.3375  0.0268  0.9780
  537TMC3    C4 8022   4.446   4.519  16.611 -0.0452 -0.2875 -0.6421
  537TMC3    C5 8023   4.456   4.436  16.721  1.3115  0.2614 -0.5818
  537TMC3    C6 8024   4.525   4.474  16.831  0.5576  0.1851  0.3292
  537TMC3     C 8025   4.498   0.002  16.498  0.7030  0.0653  0.3064
  537TMC3     O 8026   4.399   4.719  16.422 -0.3984  0.3455 -0.7130
  537TMC3     H 8027   4.620   0.053  16.741  1.5980 -1.4944  1.6014
  537TMC3    H1 8028   4.390   4.502  16.519 -2.3504  0.3858  0.6308
  537TMC3    H2 8029   4.513   4.432  16.930  1.2386  1.0276  0.7678
  537TMC3    C7 8030   4.361   4.325  16.734 -0.6348  0.8155  0.3512
  537TMC3    C8 8031   4.694   4.641  16.922  0.6834 -0.0067 -0.3279
  537TMC3    O1 8032   4.283   4.315  16.642  0.5150  0.2503  0.8643
  537TMC3    O2 8033   4.725   0.028  16.949 -0.0513  0.1264 -0.0591
  538TMC3    C1 8034   1.333   2.522  10.797 -0.5105 -0.0467  0.5380
  538TMC3    C2 8035   1.288   2.500  10.669 -0.5653  0.2312  0.1899
  538TMC3    C3 8036   1.162   2.543  10.637 -0.1558 -0.6285 -0.2343
  538TMC3    C4 8037   1.254   2.585  10.887 -0.3796 -0.4151 -0.3917
  538TMC3    C5 8038   1.129   2.636  10.848  0.3463 -0.1476 -0.0890
  538TMC3    C6 8039   1.073   2.602  10.727 -0.7240 -0.7867 -0.2084
  538TMC3     C 8040   1.472   2.505  10.824  0.5965  0.0442 -0.2894
  538TMC3     O 8041   1.535   2.417  10.762 -0.0923  0.3454  0.3336
  538TMC3     H 8042   1.353   2.448  10.599 -0.1506  1.3230 -0.2404
  538TMC3    H1 8043   1.298   2.616  10.982 -1.6881 -0.9347  0.3861
  538TMC3    H2 8044   0.975   2.638  10.700 -1.2722 -0.3237  2.4187
  538TMC3    C7 8045   1.038   2.711  10.930  0.2183 -0.8783  0.4331
  538TMC3    C8 8046   1.119   2.521  10.504 -0.7232 -0.2400  1.1733
  538TMC3    O1 8047   0.921   2.723  10.888 -0.5066  0.0889  0.0168
  538TMC3    O2 8048   1.168   2.421  10.449 -0.8718  0.1910  0.6225
  539MPD2     C 8049   0.367   1.908  11.982 -0.1689 -0.1787  0.0286
  539MPD2    C1 8050   0.380   1.969  11.861 -0.8834  0.8468  0.1632
  539MPD2    C2 8051   0.365   2.105  11.846  0.1250 -0.7761  0.0706
  539MPD2    C3 8052   0.335   2.180  11.964 -0.0527  0.0896  0.1064
  539MPD2    C4 8053   0.322   2.117  12.090 -0.1252  0.1726  0.2206
  539MPD2    C5 8054   0.350   1.981  12.096  0.2536  0.1901  0.4807
  539MPD2     H 8055   0.374   2.138  11.743  1.4407 -1.2511  0.0308
  539MPD2    H1 8056   0.299   2.161  12.187  0.4349  0.2423  0.3246
  539MPD2    H2 8057   0.399   1.805  11.996 -0.3384 -0.4465 -1.5767
  539MPD2    H3 8058   0.353   1.927  12.190 -3.1274 -0.7144  0.0590
  539MPD2     N 8059   0.302   2.314  11.948 -0.4170  0.1276 -0.5248
  539MPD2    H5 8060   0.243   2.357  12.019 -0.9365  1.2011 -1.6143
  539MPD2    N1 8061   0.401   1.899  11.738 -0.5659 -0.0807  0.3083
  539MPD2    H7 8062   0.434   1.967  11.671  0.6883 -3.1827 -2.2057
  540TMC3    C1 8063   0.278   2.512  11.824  0.2563  0.2169  0.7861
  540TMC3    C2 8064   0.303   2.567  11.701 -0.2357  0.1042 -0.4789
  540TMC3    C3 8065   0.302   2.711  11.691 -0.2665  0.6117 -0.0706
  540TMC3    C4 8066   0.258   2.588  11.937  0.1926  0.4564  0.6673
  540TMC3    C5 8067   0.275   2.725  11.925 -0.1693  0.0269  0.2391
  540TMC3    C6 8068   0.297   2.789  11.805  0.2766 -0.1728  0.2999
  540TMC3     C 8069   0.350   2.385  11.840  0.3002 -0.6228 -0.6401
  540TMC3     O 8070   0.446   2.362  11.765  0.0291  0.7084 -0.2261
  540TMC3     H 8071   0.359   2.514  11.625 -2.0631 -0.4994 -1.3805
  540TMC3    H1 8072   0.247   2.544  12.035 -5.3536 -1.1458 -0.6739
  540TMC3    H2 8073   0.288   2.896  11.798 -0.3363 -0.3658 -1.6634
  540TMC3    C7 8074   0.184   2.792  12.016 -0.3960  0.2188 -0.4980
  540TMC3    C8 8075   0.364   2.769  11.573  0.0570 -0.0267  0.1865
  540TMC3    O1 8076   0.079   2.739  12.043  0.1388 -0.5246 -0.2558
  540TMC3    O2 8077   0.449   2.855  11.595  0.1274  0.0906 -0.4367
  541MPD2     C 8078   3.477   4.103  13.328 -0.4053 -0.8440 -0.0511
  541MPD2    C1 8079   3.511   4.006  13.234  0.3335  0.1665 -0.4670
  541MPD2    C2 8080   3.545   4.048  13.110  1.1445 -0.3782  0.8293
  541MPD2    C3 8081   3.524   4.179  13.067 -0.1285  0.3994  0.0249
  541MPD2    C4 8082   3.490   4.275  13.161  0.6743  0.3446 -0.1733
  541MPD2    C5 8083   3.468   4.232  13.290  0.2744  1.5912  0.2500
  541MPD2     H 8084   3.578   3.972  13.041  0.4582  2.0171 -2.1192
  541MPD2    H1 8085   3.474   4.381  13.146  0.9305  0.3622 -0.3208
  541MPD2    H2 8086   3.449   4.075  13.429  1.8708  1.0704  1.1195
  541MPD2    H3 8087   3.426   4.302  13.361 -0.6690  0.0919  1.1804
  541MPD2     N 8088   3.546   4.218  12.935  0.6804 -1.2388 -0.2025
  541MPD2    H5 8089   3.526   4.316  12.916  0.9283 -1.4428 -1.4925
  541MPD2    N1 8090   3.521   3.870  13.283 -0.5436 -0.3965 -0.2347
  541MPD2    H7 8091   3.530   3.860  13.383 -2.7316 -0.8699 -0.0952
  542TMC3    C1 8092   3.609   4.211  12.702  0.3763 -0.0027  0.7390
  542TMC3    C2 8093   3.656   4.148  12.587 -0.4289  0.3478  0.5867
  542TMC3    C3 8094   3.705   4.228  12.484  0.0565  0.3715  0.0025
  542TMC3    C4 8095   3.604   4.349  12.703  0.7916  0.4863  0.4212
  542TMC3    C5 8096   3.650   4.420  12.593 -0.9301  0.2565 -0.1405
  542TMC3    C6 8097   3.711   4.363  12.491 -0.3266  0.1870 -0.1697
  542TMC3     C 8098   3.583   4.139  12.827 -0.6575 -0.5975 -0.8363
  542TMC3     O 8099   3.604   4.018  12.817  0.5345  0.0805 -0.2609
  542TMC3     H 8100   3.654   4.040  12.584 -0.6877  0.3814 -0.4799
  542TMC3    H1 8101   3.564   4.398  12.790 -1.1201  0.5472 -0.4816
  542TMC3    H2 8102   3.752   4.419  12.408 -1.3187  0.2068 -0.6506
  542TMC3    C7 8103   3.636   4.564  12.614 -0.7967 -0.0517  0.4456
  542TMC3    C8 8104   3.709   4.171  12.345  0.7303  0.9466 -0.4930
  542TMC3    O1 8105   3.621   4.605  12.726 -0.1724  0.0787 -0.2817
  542TMC3    O2 8106   3.747   4.239  12.248 -0.4821  0.0310  0.1363
  543TMC3    C1 8107   3.193   0.599  17.279  0.0557  0.2423  0.5744
  543TMC3    C2 8108   3.249   0.496  17.352  0.1662 -0.3263  0.0541
  543TMC3    C3 8109   3.214   0.487  17.482 -0.6963 -0.1617 -0.3754
  543TMC3    C4 8110   3.102   0.690  17.331  0.4429 -0.0531 -0.3806
  543TMC3    C5 8111   3.069   0.673  17.467 -0.2013  0.6064 -0.3182
  543TMC3    C6 8112   3.128   0.574  17.550 -0.4511  0.4388 -0.2633
  543TMC3     C 8113   3.231   0.601  17.138  0.3158 -0.0123  0.0460
  543TMC3     O 8114   3.302   0.512  17.092 -0.3983  0.1133 -0.3266
  543TMC3     H 8115   3.320   0.426  17.311  1.7227  0.8301  0.7629
  543TMC3    H1 8116   3.054   0.769  17.274  0.3090  0.4195  0.3892
  543TMC3    H2 8117   3.087   0.573  17.650  0.2707 -4.6566 -0.0299
  543TMC3    C7 8118   2.994   0.776  17.538  0.6814  0.9102  0.2524
  543TMC3    C8 8119   3.244   0.360  17.538 -0.0796  0.2274 -1.0409
  543TMC3    O1 8120   2.944   0.743  17.646 -0.1141 -0.3093 -0.3273
  543TMC3    O2 8121   3.292   0.271  17.461 -0.0050 -0.1245  0.4168
  544MPD2     C 8122   3.258   0.047   0.221 -0.4753  0.2260  0.4480
  544MPD2    C1 8123   3.255   0.018   0.084  0.0147  0.6723 -0.4081
  544MPD2    C2 8124   3.249   0.123  17.708 -0.0868 -0.2904 -0.9809
  544MPD2    C3 8125   3.243   0.257   0.037  0.2296 -0.2233 -0.7200
  544MPD2    C4 8126   3.259   0.283   0.172  0.1318  0.0900 -0.8523
  544MPD2    C5 8127   3.251   0.180   0.260 -0.2059  0.8182 -0.0512
  544MPD2     H 8128   3.223   0.095  17.607 -0.4739  2.2681 -1.5865
  544MPD2    H1 8129   3.253   0.384   0.210 -1.5558  0.2659 -1.5624
  544MPD2    H2 8130   3.275   4.706   0.303  0.1266 -1.0396 -0.7639
  544MPD2    H3 8131   3.264   0.206   0.364  2.0446 -0.7145  0.0540
  544MPD2     N 8132   3.222   0.365  17.670 -0.5491 -0.3503 -0.1352
  544MPD2    H5 8133   3.201   0.455  17.711  1.8517 -0.9264  2.4201
  544MPD2    N1 8134   3.263   4.615   0.042 -0.2206  0.2056 -0.1438
  544MPD2    H7 8135   3.258   4.547   0.117  1.0109 -0.3915 -0.5943
  545TMC3    C1 8136   3.257   4.417  17.609  0.3241 -0.3396 -0.1748
  545TMC3    C2 8137   3.366   4.356  17.660 -0.5028 -0.0330  0.3455
  545TMC3    C3 8138   3.390   4.227  17.626  0.7955 -0.1528 -0.7293
  545TMC3    C4 8139   3.163   4.359  17.528  0.1937 -0.1583  0.3808
  545TMC3    C5 8140   3.198   4.232  17.492  0.2718  0.3501 -0.1697
  545TMC3    C6 8141   3.306   4.167  17.544 -0.2646 -0.4400  0.3167
  545TMC3     C 8142   3.245   4.565  17.630  0.4875 -0.0664 -0.5062
  545TMC3     O 8143   3.224   4.617  17.521  0.6496  0.0968  0.0361
  545TMC3     H 8144   3.443   4.400   0.007  0.1142 -0.0968 -0.3556
  545TMC3    H1 8145   3.071   4.407  17.497 -0.6161 -0.8042  1.7722
  545TMC3    H2 8146   3.342   4.081  17.487 -0.5395 -0.5372  0.2894
  545TMC3    C7 8147   3.077   4.156  17.456  0.3916 -0.3527  0.0846
  545TMC3    C8 8148   3.508   4.153  17.669 -0.2041 -0.2055  0.9703
  545TMC3    O1 8149   2.983   4.219  17.412 -0.5727  0.6216  0.2987
  545TMC3    O2 8150   3.529   4.046  17.609  0.1612  0.1283  0.1388
  546MPD2     C 8151   0.128   0.376  17.578 -0.4632 -0.0394 -0.4412
  546MPD2    C1 8152   0.134   0.433  17.456 -0.2063  0.0560 -0.0814
  546MPD2    C2 8153   0.218   0.541  17.431  0.1120  0.3147  0.7016
  546MPD2    C3 8154   0.293   0.593  17.536  0.8236 -0.7420  0.1190
  546MPD2    C4 8155   0.290   0.529  17.659  0.4757 -0.5311 -0.0430
  546MPD2    C5 8156   0.213   0.413  17.672  0.3540  1.0582 -0.1859
  546MPD2     H 8157   0.224   0.576  17.328  0.6901 -0.6541  0.4078
  546MPD2    H1 8158   0.347   0.564   0.027 -2.4381  2.5535  0.6794
  546MPD2    H2 8159   0.067   0.288  17.596  2.7997 -1.4093  3.9764
  546MPD2    H3 8160   0.207   0.352   0.044  1.5845  0.3860 -0.5507
  546MPD2     N 8161   0.383   0.703  17.521  0.5352 -0.0813 -0.7534
  546MPD2    H5 8162   0.423   0.731  17.610 -0.7548 -1.2530  0.1964
  546MPD2    N1 8163   0.044   0.377  17.362  0.1856  0.4936 -0.5344
  546MPD2    H7 8164   4.722   0.297  17.396 -0.2831  0.9307 -0.2197
  547TMC3    C1 8165   4.652   0.330  17.169 -0.1773 -0.0110  0.1382
  547TMC3    C2 8166   4.595   0.375  17.059  0.2379 -0.1585 -0.9764
  547TMC3    C3 8167   4.485   0.311  17.019  0.6925 -0.1930  0.0309
  547TMC3    C4 8168   4.610   0.216  17.240  0.3888 -0.1724 -1.1455
  547TMC3    C5 8169   4.505   0.152  17.188 -0.2194 -0.1960 -0.4122
  547TMC3    C6 8170   4.442   0.194  17.075 -0.8411 -0.5065  0.2479
  547TMC3     C 8171   0.023   0.415  17.228 -0.7525 -0.3483  0.2377
  547TMC3     O 8172   0.074   0.508  17.168  0.2410 -0.2602 -0.3177
  547TMC3     H 8173   4.633   0.460  17.004  1.7940  0.4944  1.1256
  547TMC3    H1 8174   4.665   0.169  17.321  1.5586 -0.0778 -1.8785
  547TMC3    H2 8175   4.357   0.140  17.034  0.0330  0.2509 -2.5583
  547TMC3    C7 8176   4.471   0.020  17.228  0.3820 -0.1961  0.0931
  547TMC3    C8 8177   4.390   0.370  16.927 -0.9095  0.2296 -0.1450
  547TMC3    O1 8178   4.366   4.695  17.190  0.8059 -0.3741 -0.6045
  547TMC3    O2 8179   4.312   0.301  16.863 -0.1154 -0.2231  0.4350
  548MPD2     C 8180   4.536   0.962  12.333  0.2596  0.3673  0.6677
  548MPD2    C1 8181   4.505   0.901  12.451 -0.1843 -0.4323  0.6331
  548MPD2    C2 8182   4.521   0.763  12.461  0.3377  0.7994 -0.1101
  548MPD2    C3 8183   4.578   0.693  12.356 -0.0983  0.0853  0.9265
  548MPD2    C4 8184   4.612   0.753  12.231  0.5045  0.9636 -0.3143
  548MPD2    C5 8185   4.592   0.891  12.226  0.3981 -0.5063  0.2352
  548MPD2     H 8186   4.490   0.701  12.544  0.0987  2.6038  1.1351
  548MPD2    H1 8187   4.640   0.700  12.141 -0.4677 -0.8202  0.4464
  548MPD2    H2 8188   4.536   1.068  12.312 -1.4185  0.1411 -0.5173
  548MPD2    H3 8189   4.606   0.950  12.136 -0.0261 -0.8911 -0.0820
  548MPD2     N 8190   4.606   0.555  12.383 -0.1924  0.0372 -0.2023
  548MPD2    H5 8191   4.574   0.512  12.469  1.5734 -0.4890  0.1861
  548MPD2    N1 8192   4.462   0.983  12.555  0.5303  0.0334  0.2760
  548MPD2    H7 8193   4.448   1.082  12.540  1.8261  0.1939  0.0753
  549TMC3    C1 8194   4.379   1.011  12.774  0.5051 -0.2026  0.1949
  549TMC3    C2 8195   4.302   1.103  12.713  0.1745  0.6101  0.4600
  549TMC3    C3 8196   4.165   1.088  12.735  0.2100 -0.5652  0.3599
  549TMC3    C4 8197   4.326   0.923  12.865 -0.4726 -0.8162 -0.2539
  549TMC3    C5 8198   4.189   0.920  12.889  0.3046 -0.0497  0.2539
  549TMC3    C6 8199   4.100   0.998  12.814  0.4697  0.0541  0.1619
  549TMC3     C 8200   4.466   0.941  12.682 -0.0230 -0.2731 -0.5517
  549TMC3     O 8201   4.521   0.841  12.722  0.6537 -0.0833  0.1485
  549TMC3     H 8202   4.345   1.173  12.643  1.4900  1.0222  1.6807
  549TMC3    H1 8203   4.381   0.837  12.902 -2.9624 -1.1945  2.6139
  549TMC3    H2 8204   3.993   0.994  12.828  0.4574  0.8675  0.2794
  549TMC3    C7 8205   4.127   0.797  12.942  1.0263 -0.0624  0.1898
  549TMC3    C8 8206   4.080   1.179  12.654 -0.2997  0.2150 -0.6254
  549TMC3    O1 8207   4.020   0.766  12.885 -0.2701 -0.4561 -0.0375
  549TMC3    O2 8208   3.975   1.131  12.618 -0.0074  0.2197 -0.3232
  550TMC3    C1 8209   3.392   4.013  12.091  0.0567  0.1081  0.8353
  550TMC3    C2 8210   3.410   4.067  12.214 -0.2627  0.6409  0.4426
  550TMC3    C3 8211   3.403   4.204  12.222  0.4299 -0.2187  0.6000
  550TMC3    C4 8212   3.346   4.085  11.985 -0.4635 -0.1793  0.1705
  550TMC3    C5 8213   3.343   4.219  12.002 -0.0813  0.3295 -0.2460
  550TMC3    C6 8214   3.379   4.285  12.111  0.2766 -0.8850  0.2823
  550TMC3     C 8215   3.386   3.864  12.097  0.0408 -0.0100 -0.2078
  550TMC3     O 8216   3.366   3.811  12.205  0.8282 -0.5504  0.1073
  550TMC3     H 8217   3.436   4.008  12.301 -0.0975  0.8975  0.5650
  550TMC3    H1 8218   3.302   4.024  11.907  1.2078 -0.2049 -0.7465
  550TMC3    H2 8219   3.370   4.393  12.119  0.3250 -0.8416 -0.2640
  550TMC3    C7 8220   3.273   4.307  11.906 -0.3623  0.3071  0.6033
  550TMC3    C8 8221   3.345   4.261  12.349  0.0292 -0.1727 -0.1960
  550TMC3    O1 8222   3.294   4.428  11.910  0.2982 -0.7968 -0.5693
  550TMC3    O2 8223   3.364   4.206  12.456  0.3788 -0.1897  0.8672
  551TMC3    C1 8224   1.007   1.658  13.135 -0.6137  0.0423  0.2729
  551TMC3    C2 8225   1.118   1.623  13.072 -0.1666  0.6909  0.3352
  551TMC3    C3 8226   1.228   1.704  13.098 -0.0958  0.0268 -0.4671
  551TMC3    C4 8227   0.997   1.749  13.229  0.6505 -0.7652 -0.6317
  551TMC3    C5 8228   1.100   1.818  13.258  0.2034  0.3942 -0.4068
  551TMC3    C6 8229   1.221   1.800  13.192 -1.2120  0.8831 -0.5274
  551TMC3     C 8230   0.885   1.597  13.081 -0.2955  0.4823  0.4307
  551TMC3     O 8231   0.896   1.498  13.008 -0.4135  0.2005 -0.2208
  551TMC3     H 8232   1.117   1.556  12.987 -2.5218  0.6530  0.4049
  551TMC3    H1 8233   0.905   1.762  13.286  1.1581 -0.4699  0.1191
  551TMC3    H2 8234   1.297   1.873  13.219 -0.5384  0.7111 -1.9672
  551TMC3    C7 8235   1.098   1.873  13.391 -0.0157 -0.0906  0.2931
  551TMC3    C8 8236   1.291   1.743  12.977  0.3651 -0.6915  0.0804
  551TMC3    O1 8237   1.183   1.829  13.463  0.0403  0.1488  0.1968
  551TMC3    O2 8238   1.236   1.724  12.870 -0.3777 -0.3107 -0.1176
  552MPD2     C 8239   2.581   4.177  14.319  0.1006 -0.6761  0.0942
  552MPD2    C1 8240   2.566   4.045  14.341 -0.2844  1.2232 -1.3598
  552MPD2    C2 8241   2.674   3.966  14.380  0.4461  0.1209  0.4571
  552MPD2    C3 8242   2.800   4.022  14.389 -0.7165 -0.4256  0.5493
  552MPD2    C4 8243   2.814   4.153  14.347  0.5278  0.7478 -0.1842
  552MPD2    C5 8244   2.702   4.233  14.317  0.6105 -0.7474  0.1650
  552MPD2     H 8245   2.649   3.863  14.402 -1.1297  0.8400  2.1017
  552MPD2    H1 8246   2.907   4.209  14.346  0.5818  0.6697  0.5089
  552MPD2    H2 8247   2.497   4.236  14.283  0.1094 -0.0789  1.0670
  552MPD2    H3 8248   2.714   4.337  14.289  1.2207 -0.9089 -0.1706
  552MPD2     N 8249   2.918   3.956  14.418 -0.2292  0.4582  0.1745
  552MPD2    H5 8250   3.006   4.007  14.418  0.8360 -1.3765 -0.1966
  552MPD2    N1 8251   2.439   3.974  14.312  0.1546  0.6113 -0.2256
  552MPD2    H7 8252   2.442   3.873  14.326  2.2071  0.3905 -2.1050
  553TMC3    C1 8253   2.206   3.941  14.223  0.0906  0.3046  0.1745
  553TMC3    C2 8254   2.157   3.950  14.097 -0.3041 -0.7901  0.0058
  553TMC3    C3 8255   2.084   3.841  14.054  0.4631 -0.2079  0.0358
  553TMC3    C4 8256   2.187   3.836  14.308  0.5884 -0.4640  0.3368
  553TMC3    C5 8257   2.107   3.732  14.267 -0.6664 -0.1133 -1.0796
  553TMC3    C6 8258   2.062   3.733  14.136 -0.1152 -0.4607  0.2556
  553TMC3     C 8259   2.321   4.032  14.251  0.4934 -0.4169 -0.0872
  553TMC3     O 8260   2.312   4.143  14.206 -0.5282  0.1658 -0.3873
  553TMC3     H 8261   2.193   4.034  14.037 -0.4525  0.5071  1.7433
  553TMC3    H1 8262   2.244   3.831  14.401  0.8183  1.9373  0.3088
  553TMC3    H2 8263   2.020   3.636  14.111  0.2798 -0.3281 -0.9517
  553TMC3    C7 8264   2.153   3.605  14.312 -0.3676 -0.1969  0.2123
  553TMC3    C8 8265   2.129   3.796  13.928  0.6827  0.4789 -0.5619
  553TMC3    O1 8266   2.073   3.515  14.342  0.4795  0.3463  0.2046
  553TMC3    O2 8267   2.240   3.843  13.910  0.0197  0.3168  0.2514
  554TMC3    C1 8268   4.207   2.686  11.835  0.4367 -0.3785  0.4300
  554TMC3    C2 8269   4.161   2.696  11.711  1.0527  0.1173  0.0874
  554TMC3    C3 8270   4.225   2.768  11.618  0.0597  0.1611 -0.1730
  554TMC3    C4 8271   4.324   2.741  11.877 -0.0130 -0.6937 -0.8401
  554TMC3    C5 8272   4.392   2.810  11.783  0.4583 -0.4503 -0.0226
  554TMC3    C6 8273   4.346   2.824  11.654 -0.1996  0.0960  0.0881
  554TMC3     C 8274   4.173   2.564  11.900 -0.2602 -0.1718 -0.3295
  554TMC3     O 8275   4.060   2.533  11.873  0.3679 -0.9559 -0.3439
  554TMC3     H 8276   4.062   2.656  11.692  0.0381  1.0503  3.4377
  554TMC3    H1 8277   4.349   2.756  11.982 -1.5124  0.8968 -0.7063
  554TMC3    H2 8278   4.384   2.901  11.587 -0.0741 -0.3351 -0.3342
  554TMC3    C7 8279   4.495   2.898  11.822  0.4492 -0.1167 -0.3027
  554TMC3    C8 8280   4.192   2.770  11.479 -0.3761  0.2625 -0.1850
  554TMC3    O1 8281   4.498   2.947  11.934  0.3846  0.5268 -0.0987
  554TMC3    O2 8282   4.276   2.821  11.403 -0.5587  0.2376  0.7741
  555TMC3    C1 8283   3.391   2.722  14.928  0.2822  0.0860  0.0029
  555TMC3    C2 8284   3.332   2.800  15.026  1.0564 -0.3343 -0.0347
  555TMC3    C3 8285   3.357   2.751  15.155 -0.1122  0.5541 -0.1019
  555TMC3    C4 8286   3.473   2.616  14.950 -0.4363 -0.1368  0.5223
  555TMC3    C5 8287   3.482   2.572  15.078 -0.1067  0.7113 -0.6087
  555TMC3    C6 8288   3.423   2.633  15.183  0.1852  0.0515 -0.5536
  555TMC3     C 8289   3.401   2.773  14.791 -0.4166 -0.0065  0.8712
  555TMC3     O 8290   3.501   2.748  14.724 -0.4154  0.4003 -0.3073
  555TMC3     H 8291   3.302   2.901  15.002  0.4877 -0.5103 -0.0767
  555TMC3    H1 8292   3.499   2.551  14.867 -3.9597  1.9270 -2.1575
  555TMC3    H2 8293   3.425   2.583  15.279  1.5150 -0.8305 -1.0366
  555TMC3    C7 8294   3.533   2.446  15.114 -0.0488  0.0633  0.0098
  555TMC3    C8 8295   3.332   2.847  15.267  0.3248  0.6036  0.4490
  555TMC3    O1 8296   3.470   2.387  15.202 -0.4134 -0.2042  0.9835
  555TMC3    O2 8297   3.305   2.961  15.240 -0.2174 -0.6281 -0.3772
  556MPD2     C 8298   1.052   3.843  10.509 -0.5413 -0.9179  0.0779
  556MPD2    C1 8299   1.056   3.728  10.580 -0.7510  0.3295  0.3251
  556MPD2    C2 8300   0.986   3.624  10.529  0.4449 -0.0284 -0.3821
  556MPD2    C3 8301   0.917   3.632  10.411  0.0512  0.1678  0.3851
  556MPD2    C4 8302   0.925   3.745  10.333  0.6752  0.0069 -0.2324
  556MPD2    C5 8303   1.000   3.851  10.387  0.2541 -0.1168  0.5471
  556MPD2     H 8304   0.983   3.530  10.583  2.0459  0.7748  1.1135
  556MPD2    H1 8305   0.879   3.757  10.236  0.1986 -0.1609 -0.0259
  556MPD2    H2 8306   1.089   3.935  10.553  0.2683 -0.7908 -0.8550
  556MPD2    H3 8307   0.998   3.944  10.331 -0.8081  0.3366  1.3365
  556MPD2     N 8308   0.839   3.512  10.371 -0.0084  0.9463 -0.6752
  556MPD2    H5 8309   0.834   3.434  10.435 -1.1523 -0.1280 -2.0712
  556MPD2    N1 8310   1.114   3.721  10.708 -0.4123  0.7608 -0.8823
  556MPD2    H7 8311   1.100   3.639  10.766  1.0730 -1.0524 -3.0823
  557TMC3    C1 8312   0.711   3.371  10.220  0.8778 -0.9727 -0.0886
  557TMC3    C2 8313   0.638   3.365  10.100 -0.1000  0.1871 -0.2214
  557TMC3    C3 8314   0.611   3.251  10.038  0.2271 -0.0007 -0.6972
  557TMC3    C4 8315   0.766   3.253  10.260  0.0758  0.3428  0.6783
  557TMC3    C5 8316   0.738   3.131  10.203  0.1715 -0.4207 -0.2253
  557TMC3    C6 8317   0.664   3.134  10.083 -0.0142  0.3000 -1.2266
  557TMC3     C 8318   0.767   3.500  10.251 -0.1031  0.4642  0.3436
  557TMC3     O 8319   0.748   3.582  10.162 -0.4548 -0.4317 -0.3615
  557TMC3     H 8320   0.589   3.454  10.062 -0.5822 -0.3884 -0.9446
  557TMC3    H1 8321   0.842   3.252  10.338  0.5520  1.6726  0.2224
  557TMC3    H2 8322   0.621   3.039  10.054 -2.5624  0.8578  0.7693
  557TMC3    C7 8323   0.815   3.019  10.251  0.0475  0.1116  0.6909
  557TMC3    C8 8324   0.547   3.263   9.908  0.2449 -0.0688  1.0048
  557TMC3    O1 8325   0.828   3.015  10.373  0.0354 -0.6876  0.5261
  557TMC3    O2 8326   0.525   3.377   9.873 -0.3622  0.2847 -0.4349
  558TMC3    C1 8327   3.673   1.554  10.136  0.0977 -0.3006  0.4210
  558TMC3    C2 8328   3.601   1.539  10.250  0.1748 -0.0517  0.6115
  558TMC3    C3 8329   3.466   1.538  10.246  0.9377  0.3261  0.2417
  558TMC3    C4 8330   3.621   1.587  10.022 -0.1233  0.0277  0.3361
  558TMC3    C5 8331   3.482   1.594  10.009 -0.2951  0.7711 -0.0331
  558TMC3    C6 8332   3.409   1.560  10.119 -0.7257  0.3128 -0.0267
  558TMC3     C 8333   3.814   1.525  10.142  0.1509 -0.1383 -0.1018
  558TMC3     O 8334   3.861   1.584  10.240  0.2026  0.1501  0.0968
  558TMC3     H 8335   3.652   1.527  10.345 -0.4192  1.9235  1.1727
  558TMC3    H1 8336   3.682   1.592   9.933 -0.9578  2.6107 -0.0676
  558TMC3    H2 8337   3.302   1.548  10.106 -1.1850  1.6487  2.4358
  558TMC3    C7 8338   3.435   1.654   9.892  1.0875  0.6061 -0.3908
  558TMC3    C8 8339   3.388   1.461  10.338  0.4149 -0.3035  0.1559
  558TMC3    O1 8340   3.517   1.717   9.828  0.2082 -0.2047 -0.8790
  558TMC3    O2 8341   3.268   1.459  10.324 -0.4523  0.3248 -0.1023
  559MPD2     C 8342   4.032   2.347  10.606 -0.6685 -0.6771 -0.2832
  559MPD2    C1 8343   3.961   2.247  10.673 -0.4492 -0.3178 -0.4558
  559MPD2    C2 8344   4.028   2.167  10.764  0.1447 -0.8372  0.1410
  559MPD2    C3 8345   4.160   2.195  10.800  0.1797  0.0517 -0.0969
  559MPD2    C4 8346   4.235   2.289  10.733  0.7914 -0.3921  0.3045
  559MPD2    C5 8347   4.170   2.358  10.634 -0.0188  0.4120  0.3369
  559MPD2     H 8348   3.976   2.090  10.820 -0.0339 -0.3055  0.7081
  559MPD2    H1 8349   4.342   2.302  10.749  0.5190  1.0527  0.9221
  559MPD2    H2 8350   3.987   2.407  10.528  1.3777  0.9906 -0.1799
  559MPD2    H3 8351   4.226   2.434  10.581 -1.1137  0.5097 -0.7038
  559MPD2     N 8352   4.219   2.120  10.904  0.0404 -0.6634 -0.3189
  559MPD2    H5 8353   4.166   2.039  10.934 -1.5993  1.0849  1.5474
  559MPD2    N1 8354   3.823   2.227  10.641  0.7901 -0.3766 -0.6032
  559MPD2    H7 8355   3.775   2.295  10.583 -0.6727 -2.4970 -1.8448
  560TMC3    C1 8356   4.397   2.029  11.038 -0.4338 -0.0649  0.0040
  560TMC3    C2 8357   4.324   1.912  11.052  0.0274  0.4017 -0.2561
  560TMC3    C3 8358   4.381   1.813  11.127  0.0438 -0.0110 -0.1821
  560TMC3    C4 8359   4.517   2.046  11.107  0.2687  0.3230 -0.4511
  560TMC3    C5 8360   4.561   1.954  11.190 -0.4596 -0.8261  0.8500
  560TMC3    C6 8361   4.493   1.833  11.204  0.2911  0.6029 -0.1972
  560TMC3     C 8362   4.350   2.137  10.956  0.2235  0.1897  0.0057
  560TMC3     O 8363   4.420   2.235  10.963  0.0652 -0.0200 -0.5283
  560TMC3     H 8364   4.230   1.892  11.002 -1.1194 -0.5533  2.2806
  560TMC3    H1 8365   4.568   2.141  11.100  0.0641  0.3685 -1.3911
  560TMC3    H2 8366   4.530   1.750  11.262 -0.2554 -0.0972 -0.8595
  560TMC3    C7 8367   4.637   1.996  11.310 -0.8563  0.6604 -0.6402
  560TMC3    C8 8368   4.331   1.685  11.103  0.0337  0.2878  0.2759
  560TMC3    O1 8369   4.587   1.976  11.420 -0.3293 -1.1286 -0.3143
  560TMC3    O2 8370   4.210   1.677  11.072  0.5811 -0.2390  0.6903
  561TMC3    C1 8371   1.967   1.132  11.664 -0.5886 -0.1783 -0.5425
  561TMC3    C2 8372   1.952   1.073  11.787  0.0808 -0.3399 -0.4595
  561TMC3    C3 8373   2.033   1.125  11.881 -0.4921 -0.7062  0.2261
  561TMC3    C4 8374   2.045   1.240  11.637  0.7550  0.5076  0.0615
  561TMC3    C5 8375   2.134   1.275  11.733  0.1679  0.1195  0.4178
  561TMC3    C6 8376   2.130   1.223  11.861 -0.1782 -0.2247  0.4081
  561TMC3     C 8377   1.946   1.038  11.559  0.0121 -0.8094  0.4253
  561TMC3     O 8378   1.947   0.919  11.597  0.3719 -0.1964 -0.3527
  561TMC3     H 8379   1.880   0.992  11.791 -1.5562  1.1972  1.0117
  561TMC3    H1 8380   2.053   1.286  11.540 -1.7883  1.6880  0.4032
  561TMC3    H2 8381   2.180   1.259  11.950  0.6388  2.5901 -1.2027
  561TMC3    C7 8382   2.194   1.403  11.721 -0.4180 -0.4361 -0.2154
  561TMC3    C8 8383   1.979   1.099  12.011  0.4875 -0.2430  0.4239
  561TMC3    O1 8384   2.191   1.471  11.823  0.1927 -0.5180  0.4014
  561TMC3    O2 8385   2.048   1.107  12.110  0.3337  0.1072  0.2833
  562TMC3    C1 8386   3.131   3.104  16.486 -0.0087 -0.0914 -0.1171
  562TMC3    C2 8387   3.175   3.193  16.398  0.1102 -0.4441 -0.3209
  562TMC3    C3 8388   3.213   3.141  16.274 -0.1750  0.4814 -0.5276
  562TMC3    C4 8389   3.131   2.973  16.471  0.2859 -0.2858  0.2751
  562TMC3    C5 8390   3.174   2.930  16.346  0.5788 -0.2656 -0.1390
  562TMC3    C6 8391   3.202   3.010  16.247 -0.2639  1.0781 -0.0717
  562TMC3     C 8392   3.066   3.164  16.606 -0.2469 -0.2016 -0.0515
  562TMC3     O 8393   3.068   3.095  16.710  0.7452  0.4807  0.1148
  562TMC3     H 8394   3.204   3.291  16.433 -0.8184 -0.0195 -0.7436
  562TMC3    H1 8395   3.074   2.915  16.542  0.9610  0.9753  1.8316
  562TMC3    H2 8396   3.240   2.968  16.155 -0.2255  1.4037 -0.2034
  562TMC3    C7 8397   3.115   2.803  16.303 -0.1180  0.0756 -0.0176
  562TMC3    C8 8398   3.255   3.228  16.172 -0.5924  0.4064 -0.1102
  562TMC3    O1 8399   3.133   2.780  16.185  0.2305  0.1692 -0.1584
  562TMC3    O2 8400   3.265   3.342  16.216 -0.0132 -0.0786  0.3053
  563MPD2     C 8401   0.942   4.083  15.864 -0.0756  0.4738  0.0725
  563MPD2    C1 8402   0.940   3.999  15.971 -0.2601  0.4183  0.1792
  563MPD2    C2 8403   1.001   3.874  15.959  0.1239  0.6256 -0.2451
  563MPD2    C3 8404   1.071   3.849  15.837 -0.0233  0.7701  0.9632
  563MPD2    C4 8405   1.064   3.931  15.730  0.3739  0.0393  0.0973
  563MPD2    C5 8406   0.998   4.052  15.744  0.2344  0.2085  0.0385
  563MPD2     H 8407   1.001   3.801  16.039 -0.6775 -1.3594 -2.0657
  563MPD2    H1 8408   1.113   3.902  15.638 -1.1499  1.8161 -1.2968
  563MPD2    H2 8409   0.894   4.180  15.874 -1.4750 -0.2413  0.4059
  563MPD2    H3 8410   0.994   4.121  15.661  0.3238  0.6992  0.4443
  563MPD2     N 8411   1.140   3.724  15.834  0.2051  0.2370 -0.8658
  563MPD2    H5 8412   1.122   3.669  15.917  1.4878 -0.8646 -1.3103
  563MPD2    N1 8413   0.877   4.042  16.089  0.5690 -0.0333 -0.1413
  563MPD2    H7 8414   0.819   4.124  16.082 -2.6634 -2.2690  0.2943
  564TMC3    C1 8415   0.847   4.062  16.324  0.1094  0.2187 -0.3137
  564TMC3    C2 8416   0.710   4.064  16.311 -0.3225  0.3619 -0.0752
  564TMC3    C3 8417   0.642   4.019  16.420  0.6927  0.3651 -0.5363
  564TMC3    C4 8418   0.909   4.051  16.442 -0.1307  0.2342  0.4731
  564TMC3    C5 8419   0.844   3.993  16.543  0.1228 -0.2660 -0.2120
  564TMC3    C6 8420   0.704   3.997  16.541  0.3288 -0.2330 -0.1273
  564TMC3     C 8421   0.916   3.996  16.209 -0.5960  0.2675  0.0670
  564TMC3     O 8422   1.022   3.941  16.229  0.0400 -0.6312 -0.2349
  564TMC3     H 8423   0.676   4.075  16.209 -0.0294 -0.2533 -0.2362
  564TMC3    H1 8424   1.017   4.054  16.452 -0.0966 -1.0625  0.4047
  564TMC3    H2 8425   0.643   3.973  16.627 -1.4105  0.1407 -1.2401
  564TMC3    C7 8426   0.903   3.857  16.561 -0.5240  0.2437  0.0438
  564TMC3    C8 8427   0.529   3.932  16.389 -0.9067  0.1468  0.6793
  564TMC3    O1 8428   1.021   3.843  16.538 -0.0891  0.4439  0.2655
  564TMC3    O2 8429   0.517   3.841  16.471  0.3716  0.2846 -0.1271
  565TMC3    C1 8430   1.074   0.470   9.849  0.5462  1.1407  0.1121
  565TMC3    C2 8431   1.094   0.418   9.972  0.3458 -0.3520 -0.2895
  565TMC3    C3 8432   1.018   0.310  10.012  0.1042  0.2200 -0.2056
  565TMC3    C4 8433   0.967   0.436   9.775 -0.4551 -0.2136  0.4338
  565TMC3    C5 8434   0.887   0.336   9.822 -0.1102 -0.1166  0.1944
  565TMC3    C6 8435   0.914   0.265   9.936 -0.8499  0.2649  0.0563
  565TMC3     C 8436   1.147   0.593   9.814 -0.3761 -0.1390  0.7502
  565TMC3     O 8437   1.086   0.674   9.745  0.4228 -0.6511  0.3906
  565TMC3     H 8438   1.177   0.457  10.031  0.0747 -0.1809 -0.0217
  565TMC3    H1 8439   0.940   0.485   9.682  1.8877 -0.6156 -0.4636
  565TMC3    H2 8440   0.850   0.188   9.977 -1.5387  0.3900 -0.7683
  565TMC3    C7 8441   0.766   0.301   9.752  0.0060  0.5424 -0.1134
  565TMC3    C8 8442   1.054   0.236  10.129  0.1225  0.2458 -0.0319
  565TMC3    O1 8443   0.715   0.196   9.783  0.0405  0.2406 -0.0128
  565TMC3    O2 8444   1.012   0.122  10.134  0.2672 -0.2672  0.0975
  566MPD2     C 8445   2.826   2.351  14.074  0.3578  0.0804  0.3059
  566MPD2    C1 8446   2.923   2.395  13.986  0.4199  0.5100 -0.0673
  566MPD2    C2 8447   2.934   2.332  13.860 -0.6040 -0.3233 -0.2399
  566MPD2    C3 8448   2.849   2.221  13.826  0.8729  0.4067 -0.4636
  566MPD2    C4 8449   2.756   2.176  13.921 -0.3973  0.3180 -0.5274
  566MPD2    C5 8450   2.744   2.247  14.037  0.8827  0.0223  0.1413
  566MPD2     H 8451   3.005   2.361  13.783 -1.5438 -1.9729 -1.7395
  566MPD2    H1 8452   2.710   2.078  13.909  0.6332 -0.1625 -0.5094
  566MPD2    H2 8453   2.825   2.389  14.175 -0.1763 -0.7816  0.6245
  566MPD2    H3 8454   2.685   2.209  14.119  0.7934  1.3832  0.7136
  566MPD2     N 8455   2.866   2.163  13.694 -0.4534  0.4358  0.2003
  566MPD2    H5 8456   2.928   2.205  13.626 -0.8012 -1.5388 -1.3630
  566MPD2    N1 8457   3.001   2.504  14.033 -0.2498 -0.4294 -0.1421
  566MPD2    H7 8458   2.987   2.517  14.132  2.8979  1.8550  0.0037
  567TMC3    C1 8459   3.220   2.593  14.016 -0.0440 -0.0384  0.3257
  567TMC3    C2 8460   3.329   2.576  13.931  0.6718 -0.0969 -0.2610
  567TMC3    C3 8461   3.441   2.521  13.979  0.3708 -0.0697 -0.4423
  567TMC3    C4 8462   3.233   2.562  14.148  0.8540  0.2255 -0.6718
  567TMC3    C5 8463   3.352   2.518  14.196 -0.2606  0.9101  0.3130
  567TMC3    C6 8464   3.458   2.487  14.111  0.0819  0.1901 -0.6031
  567TMC3     C 8465   3.098   2.568  13.950 -0.3753  0.0269  0.2004
  567TMC3     O 8466   3.098   2.580  13.831 -0.1900 -0.4131  0.2754
  567TMC3     H 8467   3.319   2.592  13.824 -1.8953 -0.5470 -0.0815
  567TMC3    H1 8468   3.147   2.576  14.213 -0.1314 -0.2347 -1.8727
  567TMC3    H2 8469   3.554   2.446  14.139  0.5695  1.7305 -0.0064
  567TMC3    C7 8470   3.383   2.515  14.341  0.0226 -0.3835 -0.3505
  567TMC3    C8 8471   3.537   2.461  13.879  0.7206 -0.3691 -0.0083
  567TMC3    O1 8472   3.503   2.511  14.358  0.0301  0.0849 -0.0666
  567TMC3    O2 8473   3.540   2.520  13.769 -0.0078 -0.7629 -0.3376
  568MPD2     C 8474   0.548   2.475  16.138  0.8982 -0.8610 -0.2507
  568MPD2    C1 8475   0.586   2.557  16.241 -0.3536  0.8565 -0.3079
  568MPD2    C2 8476   0.520   2.678  16.261 -0.0017  0.5977  0.1263
  568MPD2    C3 8477   0.426   2.727  16.169  0.3236  0.0326 -0.4249
  568MPD2    C4 8478   0.404   2.649  16.052  0.0552 -0.3364  0.0971
  568MPD2    C5 8479   0.459   2.521  16.043 -0.0944 -0.1222 -0.6721
  568MPD2     H 8480   0.551   2.741  16.343  0.0930  2.1215 -1.0729
  568MPD2    H1 8481   0.330   2.680  15.979  1.0337 -1.0744 -1.2278
  568MPD2    H2 8482   0.592   2.376  16.126 -0.4179 -1.3071 -1.4015
  568MPD2    H3 8483   0.432   2.453  15.962 -0.9683 -0.0823 -0.4180
  568MPD2     N 8484   0.373   2.856  16.191  0.0618  0.0794 -0.2225
  568MPD2    H5 8485   0.384   2.901  16.281  0.1189  1.7650 -1.0713
  568MPD2    N1 8486   0.679   2.498  16.331  0.2870  0.3116 -0.2318
  568MPD2    H7 8487   0.707   2.404  16.306 -2.8724 -1.0908  1.4829
  569TMC3    C1 8488   0.227   3.040  16.166  0.2608  0.2925  0.9271
  569TMC3    C2 8489   0.208   3.033  16.303 -0.2796 -0.0921  0.4848
  569TMC3    C3 8490   0.211   3.148  16.372  0.0473 -0.7986 -0.0936
  569TMC3    C4 8491   0.229   3.163  16.104  0.3616 -0.6101  0.9419
  569TMC3    C5 8492   0.237   3.279  16.182  0.0835  0.0596 -0.3476
  569TMC3    C6 8493   0.225   3.271  16.318  0.3405 -0.0289  0.3354
  569TMC3     C 8494   0.294   2.926  16.100 -0.3101  0.0311  0.0590
  569TMC3     O 8495   0.296   2.912  15.980  0.3854  1.0649  0.1450
  569TMC3     H 8496   0.202   2.932  16.342 -1.1682 -0.2531 -0.0734
  569TMC3    H1 8497   0.241   3.169  15.996  1.2630  2.3294  1.2014
  569TMC3    H2 8498   0.219   3.365  16.371  1.3187  1.9657 -3.1165
  569TMC3    C7 8499   0.261   3.406  16.116  0.2623 -0.1563  0.4112
  569TMC3    C8 8500   0.211   3.129  16.521 -0.4330  0.3007  1.0871
  569TMC3    O1 8501   0.228   3.412  16.000  0.3814 -0.1874  0.5469
  569TMC3    O2 8502   0.178   3.012  16.549  0.2552  0.1761  0.0379
  570TMC3    C1 8503   0.327   1.184  16.535  0.5198 -0.2396 -0.0222
  570TMC3    C2 8504   0.388   1.182  16.416 -0.1108 -0.2891 -0.3259
  570TMC3    C3 8505   0.425   1.301  16.370 -0.3588 -0.3077  0.1588
  570TMC3    C4 8506   0.302   1.300  16.612 -0.1456  0.1927  0.0688
  570TMC3    C5 8507   0.346   1.419  16.558 -0.1663  0.4644  0.0590
  570TMC3    C6 8508   0.408   1.420  16.436  0.5075  0.1723 -0.4641
  570TMC3     C 8509   0.256   1.061  16.560 -0.1359  0.5464 -0.4169
  570TMC3     O 8510   0.231   0.993  16.464 -0.1333 -0.4906 -0.4280
  570TMC3     H 8511   0.409   1.093  16.359  2.0068  1.2870 -2.0240
  570TMC3    H1 8512   0.238   1.304  16.700  1.3151 -2.9784  1.2997
  570TMC3    H2 8513   0.460   1.506  16.396  0.0350  1.4713  1.6923
  570TMC3    C7 8514   0.354   1.533  16.648  0.7648  0.5063  0.4977
  570TMC3    C8 8515   0.506   1.305  16.251  0.3909  0.1116  0.1242
  570TMC3    O1 8516   0.345   1.501  16.766 -0.0386  0.0253 -0.0624
  570TMC3    O2 8517   0.585   1.398  16.240  0.1452  0.3751  0.5076
  571MPD2     C 8518   3.038   2.725   0.704  0.2459  0.3210 -0.1551
  571MPD2    C1 8519   2.924   2.774   0.648  0.8111  0.0849  0.1503
  571MPD2    C2 8520   2.916   2.912   0.638  0.3964 -0.1734  0.4634
  571MPD2    C3 8521   3.013   2.993   0.683 -0.0125 -0.0270 -0.5421
  571MPD2    C4 8522   3.130   2.942   0.739 -0.2217 -0.0888  0.4793
  571MPD2    C5 8523   3.133   2.810   0.753  0.0689  0.1062  0.1921
  571MPD2     H 8524   2.840   2.961   0.577  0.3723  2.5166  2.6252
  571MPD2    H1 8525   3.217   3.000   0.770  0.1668 -0.4915  0.1296
  571MPD2    H2 8526   3.047   2.617   0.704  0.8477  0.3710 -2.2761
  571MPD2    H3 8527   3.230   2.782   0.793  0.3886  0.2200 -0.4964
  571MPD2     N 8528   2.997   3.126   0.669 -0.1638  0.5779 -0.4413
  571MPD2    H5 8529   3.067   3.183   0.716  0.4181 -0.6183  0.1364
  571MPD2    N1 8530   2.820   2.688   0.596  0.6084 -0.0936 -0.2261
  571MPD2    H7 8531   2.842   2.589   0.600 -0.4979 -0.4150 -2.2675
  572TMC3    C1 8532   2.957   3.337   0.582 -0.0969  0.4298 -0.0791
  572TMC3    C2 8533   2.972   3.379   0.713  0.6154  0.0010  0.1044
  572TMC3    C3 8534   3.028   3.498   0.709  0.5407  0.2307 -0.4518
  572TMC3    C4 8535   2.963   3.412   0.474  0.1702 -0.2898  0.6648
  572TMC3    C5 8536   3.016   3.537   0.477  0.2763  0.2583  0.0140
  572TMC3    C6 8537   3.052   3.579   0.605 -0.2112 -0.1416  0.7012
  572TMC3     C 8538   2.927   3.192   0.571 -0.7712 -0.2770 -0.0437
  572TMC3     O 8539   2.891   3.146   0.463 -0.1540 -0.0263  0.2434
  572TMC3     H 8540   2.959   3.315   0.799  0.3445  1.1253  0.9012
  572TMC3    H1 8541   2.935   3.373   0.376 -1.9808 -1.2890  1.6840
  572TMC3    H2 8542   3.101   3.675   0.620 -0.2298  0.1879 -1.2673
  572TMC3    C7 8543   3.012   3.627   0.362 -0.6811 -0.4028 -0.1525
  572TMC3    C8 8544   3.044   3.564   0.834 -0.9123  0.7626 -0.1773
  572TMC3    O1 8545   2.917   3.625   0.285  0.2609  0.3256  0.3655
  572TMC3    O2 8546   3.131   3.651   0.847 -1.1139 -0.0891 -0.3480
  573MPD2     C 8547   3.514   3.220   0.577 -0.2640 -0.3249 -0.2971
  573MPD2    C1 8548   3.452   3.333   0.527 -0.1231  0.4449  0.6275
  573MPD2    C2 8549   3.355   3.330   0.436  0.0246  0.0489 -0.4832
  573MPD2    C3 8550   3.306   3.206   0.398  0.1913  1.1281 -0.6247
  573MPD2    C4 8551   3.346   3.090   0.468 -0.0718  0.3975 -0.7110
  573MPD2    C5 8552   3.454   3.097   0.549  0.0588 -0.6137 -0.1140
  573MPD2     H 8553   3.327   3.414   0.375 -2.4894  0.8136  1.7257
  573MPD2    H1 8554   3.302   2.997   0.434 -0.3581  0.3038 -0.0941
  573MPD2    H2 8555   3.589   3.220   0.655  0.0670 -0.3756 -0.6162
  573MPD2    H3 8556   3.504   3.015   0.599  2.4443  2.8357  3.1956
  573MPD2     N 8557   3.200   3.194   0.300 -0.4760 -0.0400 -0.1160
  573MPD2    H5 8558   3.132   3.123   0.324 -1.2789  0.4309 -0.9602
  573MPD2    N1 8559   3.509   3.455   0.566 -0.0901 -0.1773 -0.2393
  573MPD2    H7 8560   3.593   3.452   0.623 -0.2110  0.6630 -0.0174
  574TMC3    C1 8561   3.053   3.265   0.138 -0.1489 -0.4441 -0.1075
  574TMC3    C2 8562   3.017   3.382   0.073  0.6841  0.0755 -0.7982
  574TMC3    C3 8563   2.913   3.376  17.705  0.0103  0.9353  0.1061
  574TMC3    C4 8564   3.008   3.147   0.096 -0.0220  0.4055 -0.2068
  574TMC3    C5 8565   2.908   3.145   0.007  0.8960 -0.3033 -0.5734
  574TMC3    C6 8566   2.854   3.253  17.666 -0.1996  0.3011  0.2579
  574TMC3     C 8567   3.184   3.277   0.191  0.4931  0.0653  0.2396
  574TMC3     O 8568   3.255   3.368   0.144 -0.0552  0.2196 -0.0121
  574TMC3     H 8569   3.047   3.479   0.109 -0.5044  0.4724 -0.8695
  574TMC3    H1 8570   3.051   3.059   0.141 -0.3992 -0.1293 -0.9059
  574TMC3    H2 8571   2.759   3.256  17.615  0.2798  0.5351 -0.6347
  574TMC3    C7 8572   2.839   3.012  17.694 -0.1560  0.2181 -0.6303
  574TMC3    C8 8573   2.863   3.496  17.650 -0.3049  0.6850 -0.2636
  574TMC3    O1 8574   2.891   2.913   0.030 -0.8939  0.4760  0.5600
  574TMC3    O2 8575   2.746   3.493  17.633 -0.2004  0.5265  0.0314
  575TMC3    C1 8576   1.340   4.439  10.806 -0.2369 -0.0163  0.0131
  575TMC3    C2 8577   1.263   4.327  10.808  0.1072  0.2947 -0.3815
  575TMC3    C3 8578   1.149   4.327  10.735  0.5127  0.3735 -0.5875
  575TMC3    C4 8579   1.307   4.552  10.738 -0.0093 -0.9588 -0.0114
  575TMC3    C5 8580   1.198   4.539  10.660 -0.6866 -0.9524  0.1058
  575TMC3    C6 8581   1.119   4.427  10.652  0.0418  0.6027 -0.9452
  575TMC3     C 8582   1.475   4.420  10.869  0.2589  0.0448  0.4280
  575TMC3     O 8583   1.517   4.303  10.883 -0.4476  0.5837  0.3506
  575TMC3     H 8584   1.296   4.240  10.863  0.0568 -0.4563 -1.5404
  575TMC3    H1 8585   1.376   4.635  10.740  0.7033 -1.5353 -0.7152
  575TMC3    H2 8586   1.034   4.421  10.586 -1.8375  2.6574  1.2409
  575TMC3    C7 8587   1.167   4.645  10.572  0.1838  0.0710  0.2947
  575TMC3    C8 8588   1.073   4.200  10.728 -0.4861 -0.1212  0.7378
  575TMC3    O1 8589   1.136   4.610  10.459 -0.2571  0.1746  0.7813
  575TMC3    O2 8590   1.003   4.180  10.631  0.2580 -0.2667 -0.2443
  576MPD2     C 8591   0.723   1.493  12.465  0.4749 -0.4771 -0.0747
  576MPD2    C1 8592   0.840   1.544  12.419  0.3574 -0.5428  0.1043
  576MPD2    C2 8593   0.897   1.648  12.479 -0.1098  0.8148  0.2843
  576MPD2    C3 8594   0.848   1.715  12.588  0.3704  0.1613 -0.0859
  576MPD2    C4 8595   0.720   1.669  12.629 -0.0518 -0.7570 -0.3549
  576MPD2    C5 8596   0.667   1.555  12.572  0.3326 -0.0061  0.3690
  576MPD2     H 8597   0.990   1.689  12.441  0.3358 -0.1771  0.3120
  576MPD2    H1 8598   0.676   1.719  12.715 -0.0508 -0.1715 -0.6916
  576MPD2    H2 8599   0.681   1.399  12.430 -0.3144 -0.1271 -0.0666
  576MPD2    H3 8600   0.571   1.521  12.608  1.5882 -2.0563  1.7798
  576MPD2     N 8601   0.905   1.832  12.633  0.1199  0.3795  0.3328
  576MPD2    H5 8602   0.987   1.857  12.580 -0.2883 -0.1345 -0.5281
  576MPD2    N1 8603   0.913   1.474  12.320  0.4939 -0.3263  0.0832
  576MPD2    H7 8604   1.004   1.504  12.287 -2.0661  4.3451 -2.8454
  577TMC3    C1 8605   0.954   1.311  12.157 -0.1050 -0.1810  0.1922
  577TMC3    C2 8606   1.055   1.253  12.226 -0.4164  0.3092 -0.4891
  577TMC3    C3 8607   1.156   1.195  12.152 -0.2355  0.7689 -0.5018
  577TMC3    C4 8608   0.943   1.324  12.020  0.1104  0.3685  0.0172
  577TMC3    C5 8609   1.051   1.269  11.955 -0.8032  0.2948 -0.4961
  577TMC3    C6 8610   1.159   1.210  12.015  0.1659 -0.1773 -0.6707
  577TMC3     C 8611   0.854   1.370  12.241 -0.0824  1.0623  0.2799
  577TMC3     O 8612   0.743   1.326  12.225  0.5995  0.3824  0.8602
  577TMC3     H 8613   1.046   1.244  12.334 -1.6897  2.4056 -0.4224
  577TMC3    H1 8614   0.870   1.394  11.981 -1.2316 -0.9324  0.1584
  577TMC3    H2 8615   1.242   1.174  11.956  0.6114  0.5870 -0.5179
  577TMC3    C7 8616   1.059   1.289  11.816  0.4115  0.0659  0.3880
  577TMC3    C8 8617   1.283   1.157  12.229 -0.7352 -0.6218  0.3333
  577TMC3    O1 8618   1.167   1.280  11.761  0.0144 -0.2833 -0.0230
  577TMC3    O2 8619   1.266   1.097  12.335  0.4366 -0.0125  0.0376
  578MPD2     C 8620   4.541   1.604   1.136 -0.3757 -0.4896 -0.6387
  578MPD2    C1 8621   4.478   1.524   1.043 -0.0635 -0.2697  0.8080
  578MPD2    C2 8622   4.539   1.401   1.014 -0.2693 -0.5658 -0.6409
  578MPD2    C3 8623   4.660   1.372   1.063  0.4100 -0.0251  0.5351
  578MPD2    C4 8624   4.721   1.458   1.153 -0.8506  0.3988  0.3830
  578MPD2    C5 8625   4.656   1.568   1.199  0.0187  0.1169 -0.0945
  578MPD2     H 8626   4.491   1.331   0.946  0.2984 -1.7736  0.1988
  578MPD2    H1 8627   0.092   1.454   1.196  0.1543  1.7700 -1.8302
  578MPD2    H2 8628   4.508   1.706   1.149  1.5781 -0.0212  0.7868
  578MPD2    H3 8629   4.709   1.642   1.258 -2.5066  0.7363  1.4335
  578MPD2     N 8630   4.717   1.253   1.016 -0.5480 -0.0043  0.3332
  578MPD2    H5 8631   4.664   1.203   0.946 -0.1992  1.4139 -0.9548
  578MPD2    N1 8632   4.366   1.577   0.977  0.2203 -0.2623  0.4355
  578MPD2    H7 8633   4.338   1.673   0.994 -0.5681 -0.5187  0.5823
  579TMC3    C1 8634   0.155   1.092   0.958 -0.4008  0.2159  0.4463
  579TMC3    C2 8635   0.256   1.011   0.995  0.2701  0.2584 -0.2626
  579TMC3    C3 8636   0.307   0.923   0.906 -0.3746  0.2742 -1.0545
  579TMC3    C4 8637   0.114   1.101   0.827  0.5043 -0.0667 -0.6501
  579TMC3    C5 8638   0.180   1.023   0.739  0.2701 -0.2782  0.1658
  579TMC3    C6 8639   0.276   0.927   0.773  0.1750  0.0609  0.5314
  579TMC3     C 8640   0.105   1.195   1.054  0.8560  0.1614 -0.3125
  579TMC3     O 8641   0.171   1.220   1.156  0.0784  0.2547  0.0026
  579TMC3     H 8642   0.286   1.010   1.099  1.5995  2.1650 -0.6268
  579TMC3    H1 8643   0.054   1.180   0.786  0.5515  0.0362 -0.5210
  579TMC3    H2 8644   0.322   0.865   0.698  2.2376 -0.6920  2.4119
  579TMC3    C7 8645   0.120   1.004   0.605 -0.2420 -0.5542 -0.5418
  579TMC3    C8 8646   0.452   0.898   0.907  0.4498 -0.9707  0.3093
  579TMC3    O1 8647   0.190   0.954   0.518  0.3921  0.2858 -0.5297
  579TMC3    O2 8648   0.507   0.862   0.805 -0.5083 -0.5758 -0.5788
  580TMC3    C1 8649   3.988   1.058  12.290 -0.1880  0.2109 -0.1503
  580TMC3    C2 8650   4.092   1.133  12.242  0.0347  0.0161  0.2242
  580TMC3    C3 8651   4.209   1.071  12.205  0.9406  0.8979  1.0915
  580TMC3    C4 8652   4.000   0.925  12.279  0.2846 -0.6196  0.9575
  580TMC3    C5 8653   4.120   0.863  12.242  0.2631  0.3477 -0.1498
  580TMC3    C6 8654   4.231   0.934  12.207  0.3198  0.0795  0.1069
  580TMC3     C 8655   3.870   1.112  12.222 -0.0217  0.1882  0.5438
  580TMC3     O 8656   3.811   1.207  12.273 -0.1009  0.1357 -0.0013
  580TMC3     H 8657   4.071   1.238  12.231  1.0059  0.3763  1.7239
  580TMC3    H1 8658   3.910   0.875  12.312 -1.5108  2.7009  0.9937
  580TMC3    H2 8659   4.325   0.885  12.186  0.1268 -0.8460  1.3992
  580TMC3    C7 8660   4.120   0.722  12.255  0.2813  0.0823  0.5998
  580TMC3    C8 8661   4.256   1.152  12.086  0.3610  0.7018  0.2519
  580TMC3    O1 8662   4.050   0.678  12.346 -0.0322  0.2456  0.0267
  580TMC3    O2 8663   4.242   1.275  12.090  0.0011 -0.1958  0.0744
  581MPD2     C 8664   1.977   0.315  14.625  0.6093  0.3601 -0.2167
  581MPD2    C1 8665   1.946   0.375  14.740  0.1493  0.0654 -0.4050
  581MPD2    C2 8666   1.820   0.440  14.751 -0.4531 -0.0968 -0.0417
  581MPD2    C3 8667   1.741   0.446  14.640 -0.1003  0.0030 -0.3270
  581MPD2    C4 8668   1.776   0.384  14.521  0.4620 -0.2075  0.0311
  581MPD2    C5 8669   1.897   0.314  14.515  0.5487 -0.2852 -0.2963
  581MPD2     H 8670   1.796   0.480  14.849  1.3686  2.0224 -0.4538
  581MPD2    H1 8671   1.709   0.387  14.436  1.1087  2.9676 -0.3618
  581MPD2    H2 8672   2.069   0.261  14.609 -0.0070 -1.5115  2.5619
  581MPD2    H3 8673   1.922   0.258  14.425  0.1664  1.9847 -1.8122
  581MPD2     N 8674   1.623   0.526  14.633  0.2034 -0.1711  0.2079
  581MPD2    H5 8675   1.581   0.542  14.543  0.5665 -0.8509 -0.0816
  581MPD2    N1 8676   2.032   0.360  14.844 -0.5751 -0.7838 -0.2589
  581MPD2    H7 8677   2.097   0.282  14.832  1.2547  0.4585  1.3967
  582TMC3    C1 8678   2.075   0.315  15.071  0.5572  0.7796  0.4494
  582TMC3    C2 8679   2.100   0.379  15.188  0.5188  0.3817 -0.0725
  582TMC3    C3 8680   2.064   0.319  15.302  0.5298  0.2648  0.0104
  582TMC3    C4 8681   2.015   0.187  15.072  0.3699 -0.4181  0.0415
  582TMC3    C5 8682   1.965   0.136  15.184  0.1479  0.4578  0.1140
  582TMC3    C6 8683   1.997   0.198  15.304  0.1148  0.2238  0.0317
  582TMC3     C 8684   2.023   0.411  14.973 -0.1882 -0.8431  0.7863
  582TMC3     O 8685   1.956   0.499  15.015 -0.0522 -0.1055 -0.2127
  582TMC3     H 8686   2.145   0.477  15.186 -1.6902  1.4197  0.7203
  582TMC3    H1 8687   1.972   0.143  14.982 -1.9310 -0.1130  1.0190
  582TMC3    H2 8688   1.971   0.153  15.400  1.1250  1.5231  0.9184
  582TMC3    C7 8689   1.820   0.111  15.165  0.1577  0.4749 -0.0070
  582TMC3    C8 8690   2.103   0.374  15.431  0.2289 -0.2771  0.0730
  582TMC3    O1 8691   1.783   0.043  15.070 -0.1465 -0.0345 -0.1821
  582TMC3    O2 8692   2.029   0.353  15.525 -0.5834 -0.5614  0.4194
  583MPD2     C 8693   2.001   1.985  16.732  0.4866 -0.5918  0.7535
  583MPD2    C1 8694   1.933   2.098  16.696 -0.1115 -0.2966  0.5686
  583MPD2    C2 8695   1.883   2.179  16.792 -0.2557  0.1288 -0.2423
  583MPD2    C3 8696   1.910   2.152  16.927  0.4207 -0.9366 -0.0232
  583MPD2    C4 8697   1.972   2.038  16.967  1.0667 -0.3577 -0.3917
  583MPD2    C5 8698   2.016   1.955  16.864  0.4809  0.7795  0.7400
  583MPD2     H 8699   1.832   2.270  16.765  0.4318  0.7642  0.5832
  583MPD2    H1 8700   1.997   2.012  17.070 -0.5371  2.5494  0.7394
  583MPD2    H2 8701   2.047   1.912  16.667 -2.3271 -3.8014  2.2912
  583MPD2    H3 8702   2.076   1.867  16.883  0.9147  1.1116  0.9142
  583MPD2     N 8703   1.863   2.259  17.008  0.1745 -1.0428 -0.1790
  583MPD2    H5 8704   1.797   2.326  16.969  2.1539  0.3512 -1.1700
  583MPD2    N1 8705   1.901   2.136  16.564 -0.4324  0.5845 -0.0854
  583MPD2    H7 8706   1.861   2.229  16.555  0.2144  1.0255  1.6351
  584TMC3    C1 8707   1.807   2.366  17.211  0.0207  0.1012  0.3775
  584TMC3    C2 8708   1.785   2.485  17.152 -0.2271  0.1084  0.2704
  584TMC3    C3 8709   1.755   2.593  17.235 -0.1823 -1.0930  0.5488
  584TMC3    C4 8710   1.809   2.352  17.345 -0.3159  0.2063  1.0238
  584TMC3    C5 8711   1.784   2.462  17.415  0.3321  0.3330 -0.5958
  584TMC3    C6 8712   1.754   2.586  17.364  0.5114 -0.0656 -0.0330
  584TMC3     C 8713   1.889   2.266  17.144  0.1281 -0.8333  0.3462
  584TMC3     O 8714   1.976   2.213  17.213  1.3368  0.1869  0.1845
  584TMC3     H 8715   1.788   2.495  17.044  2.3816  1.8458  0.4918
  584TMC3    H1 8716   1.820   2.257  17.397 -0.4517 -0.5013 -0.2519
  584TMC3    H2 8717   1.730   2.671  17.426 -0.7988 -0.9364  0.6596
  584TMC3    C7 8718   1.791   2.440  17.554  0.3404  0.5380 -0.1061
  584TMC3    C8 8719   1.742   2.728  17.170 -0.7427  0.3992  0.5810
  584TMC3    O1 8720   1.786   2.328  17.604  0.4242  0.6077 -0.2774
  584TMC3    O2 8721   1.711   2.727  17.052  0.0885 -0.8377  0.3789
  585MPD2     C 8722   0.731   1.448   0.241  0.2040  0.1698 -0.3857
  585MPD2    C1 8723   0.798   1.452   0.125 -0.2810  0.4958  0.3179
  585MPD2    C2 8724   0.893   1.357   0.093  0.2894  0.8671  0.8145
  585MPD2    C3 8725   0.917   1.256   0.184  0.2847  0.4677 -0.0336
  585MPD2    C4 8726   0.847   1.252   0.304 -0.3658  0.2565 -0.8642
  585MPD2    C5 8727   0.753   1.351   0.329  0.1033  0.2518 -0.5874
  585MPD2     H 8728   0.952   1.358   0.001  1.5389  3.0651  1.6298
  585MPD2    H1 8729   0.854   1.180   0.385  0.4999  0.1656 -1.0297
  585MPD2    H2 8730   0.658   1.522   0.271  1.4459  0.9595  0.7055
  585MPD2    H3 8731   0.687   1.342   0.415 -0.2823 -1.9432 -1.1353
  585MPD2     N 8732   1.002   1.150   0.148  0.2848 -0.3329 -0.0691
  585MPD2    H5 8733   1.008   1.068   0.208 -1.8022 -0.0911  0.4536
  585MPD2    N1 8734   0.766   1.560   0.038  0.2137  0.1624 -0.2966
  585MPD2    H7 8735   0.696   1.625   0.073 -0.5721  0.6581 -2.7937
  586TMC3    C1 8736   1.143   1.020   0.012  0.1851 -0.1188 -0.1506
  586TMC3    C2 8737   1.254   1.019  17.643 -0.4335 -0.1982  0.1096
  586TMC3    C3 8738   1.330   0.902  17.639 -0.4762  0.4198  0.9024
  586TMC3    C4 8739   1.113   0.909   0.093  0.1689  0.0349  0.3489
  586TMC3    C5 8740   1.183   0.798   0.075 -0.5901 -0.3728 -0.0024
  586TMC3    C6 8741   1.298   0.796   0.006 -0.3122 -0.0980 -0.0704
  586TMC3     C 8742   1.090   1.153   0.042  0.5687  0.3754 -0.3059
  586TMC3     O 8743   1.126   1.249  17.690  0.0462 -0.5956  0.0484
  586TMC3     H 8744   1.288   1.102  17.582 -0.9442 -2.6361 -3.5158
  586TMC3    H1 8745   1.022   0.897   0.150  0.1490 -0.2274  0.2620
  586TMC3    H2 8746   1.362   0.709   0.001 -1.1262 -0.5791 -2.3009
  586TMC3    C7 8747   1.095   0.685   0.038 -0.1134 -0.4910  0.2053
  586TMC3    C8 8748   1.383   0.859  17.514 -0.5653  0.3304  0.6825
  586TMC3    O1 8749   1.030   0.624   0.123 -0.0525  0.1642  0.0165
  586TMC3    O2 8750   1.450   0.758  17.519 -0.4157  0.1301 -0.5247
  587TMC3    C1 8751   3.060   4.446  17.005 -0.5978 -0.8455  0.1722
  587TMC3    C2 8752   3.108   4.531  16.908 -0.1810 -0.2332 -0.0964
  587TMC3    C3 8753   3.221   4.495  16.832 -0.3028  0.1597 -0.2009
  587TMC3    C4 8754   3.133   4.339  17.039  0.0608  0.3546 -0.1761
  587TMC3    C5 8755   3.237   4.298  16.959  0.6020  0.6144 -0.0096
  587TMC3    C6 8756   3.295   4.381  16.867 -0.9072  0.0566 -0.5160
  587TMC3     C 8757   2.963   4.490  17.098 -0.7776  0.4645  0.7802
  587TMC3     O 8758   2.992   4.490  17.218  0.3805 -0.9627 -0.1228
  587TMC3     H 8759   3.037   4.605  16.873  1.1078  0.7101 -0.6832
  587TMC3    H1 8760   3.117   4.291  17.135  0.3654 -0.0028 -0.3015
  587TMC3    H2 8761   3.378   4.355  16.803 -0.3217  0.1049  0.2281
  587TMC3    C7 8762   3.297   4.170  16.982 -0.4561 -0.8149 -0.7654
  587TMC3    C8 8763   3.264   4.582  16.723 -0.7701  0.0425 -0.4985
  587TMC3    O1 8764   3.400   4.151  16.924 -0.5245 -0.1741 -0.1431
  587TMC3    O2 8765   3.337   4.528  16.643 -0.1201 -0.3614 -0.0671
  588TMC3    C1 8766   0.254   1.445   9.802 -0.0275 -0.1930 -0.4427
  588TMC3    C2 8767   0.298   1.318   9.818  0.1618 -0.6940  0.3502
  588TMC3    C3 8768   0.426   1.299   9.870  0.4244 -0.5123 -0.4933
  588TMC3    C4 8769   0.335   1.555   9.838  0.3824 -0.0257 -1.0549
  588TMC3    C5 8770   0.454   1.530   9.896 -0.0676 -0.4342 -0.9947
  588TMC3    C6 8771   0.499   1.403   9.915 -0.6554 -0.2994  0.1186
  588TMC3     C 8772   0.135   1.476   9.733 -0.1316 -0.4490 -0.6099
  588TMC3     O 8773   0.041   1.401   9.730 -0.5465 -0.0256  0.0789
  588TMC3     H 8774   0.241   1.242   9.767 -0.3256  0.5906 -1.0018
  588TMC3    H1 8775   0.300   1.658   9.836  0.2614 -0.0103  1.4024
  588TMC3    H2 8776   0.604   1.395   9.941 -0.8633  0.1486  1.1396
  588TMC3    C7 8777   0.521   1.634   9.967 -0.0665  0.3640 -0.0157
  588TMC3    C8 8778   0.449   1.168   9.913  0.9009  0.2484  0.2867
  588TMC3    O1 8779   0.586   1.607  10.066  0.5956 -0.0608  0.2003
  588TMC3    O2 8780   0.377   1.074   9.875  0.3117  0.3802  0.1318
  589TMC3    C1 8781   4.691   4.249   0.995  0.1839  0.3328  0.1077
  589TMC3    C2 8782   0.032   4.277   1.109 -0.6629  0.3239  0.3310
  589TMC3    C3 8783   0.157   4.234   1.122 -0.1179 -0.3708  0.1587
  589TMC3    C4 8784   0.023   4.185   0.896  0.1997 -0.2570  0.1535
  589TMC3    C5 8785   0.148   4.135   0.917 -0.2892 -1.0948 -0.5206
  589TMC3    C6 8786   0.221   4.160   1.031  0.0139  0.2359 -0.4394
  589TMC3     C 8787   4.579   4.327   0.952 -0.1750  0.9514 -0.2110
  589TMC3     O 8788   4.534   4.316   0.842 -0.0423 -0.1520  0.1310
  589TMC3     H 8789   4.728   4.356   1.176 -0.4836 -0.5842  1.4956
  589TMC3    H1 8790   4.711   4.169   0.797  0.7174 -0.1802 -0.0736
  589TMC3    H2 8791   0.314   4.109   1.051  0.5563  1.8197  0.9906
  589TMC3    C7 8792   0.218   4.079   0.805 -0.9596 -0.3363 -0.3238
  589TMC3    C8 8793   0.235   4.282   1.232  0.0812  0.1876 -0.0856
  589TMC3    O1 8794   0.162   4.000   0.728  0.3100 -0.5149  0.1294
  589TMC3    O2 8795   0.185   4.297   1.341  0.5955  0.2581 -0.1830
  590MPD2     C 8796   4.215   2.975  16.625 -0.0455  0.2258  0.0572
  590MPD2    C1 8797   4.193   2.970  16.490 -0.5866  0.1266 -0.2759
  590MPD2    C2 8798   4.293   3.017  16.408 -0.0625 -0.4676  0.3134
  590MPD2    C3 8799   4.408   3.074  16.453  0.8871  0.5544  0.1748
  590MPD2    C4 8800   4.422   3.087  16.589 -0.0017 -0.3050 -0.4688
  590MPD2    C5 8801   4.328   3.038  16.672 -0.7787  0.6046 -0.5600
  590MPD2     H 8802   4.273   3.009  16.302 -0.7912 -2.4313  0.5979
  590MPD2    H1 8803   4.507   3.142  16.627 -0.6006  0.7237 -0.5905
  590MPD2    H2 8804   4.138   2.932  16.689  0.4906 -0.1291  0.4635
  590MPD2    H3 8805   4.345   3.049  16.779 -0.6222  0.2754 -0.5505
  590MPD2     N 8806   4.486   3.143  16.352  0.2805 -0.5389 -0.2784
  590MPD2    H5 8807   4.451   3.141  16.257  1.0505  0.1220 -0.5757
  590MPD2    N1 8808   4.060   2.922  16.443  0.1115  0.1774  0.0917
  590MPD2    H7 8809   3.986   2.906  16.510  1.5326  2.4460  2.2185
  591TMC3    C1 8810   4.627   3.303  16.257  0.0528  0.0841 -0.4297
  591TMC3    C2 8811   4.626   3.246  16.137 -0.1041 -0.5957 -0.3853
  591TMC3    C3 8812   4.657   3.327  16.035 -0.2166 -0.2636  0.2682
  591TMC3    C4 8813   4.633   3.434  16.276 -0.3647 -0.9043 -0.9541
  591TMC3    C5 8814   4.653   3.517  16.162  0.0892  0.6853  0.7886
  591TMC3    C6 8815   4.670   3.461  16.040 -0.4714  0.3948 -0.1880
  591TMC3     C 8816   4.586   3.228  16.376 -0.1892 -0.0661  0.2444
  591TMC3     O 8817   4.625   3.273  16.481 -0.0527  0.1972 -0.1935
  591TMC3     H 8818   4.611   3.139  16.123 -0.3897 -0.3434 -2.0008
  591TMC3    H1 8819   4.621   3.486  16.369 -1.6614 -2.1136 -0.4448
  591TMC3    H2 8820   4.684   3.515  15.947 -1.4405  1.0504  0.0394
  591TMC3    C7 8821   4.579   3.636  16.159 -0.7557 -0.0074 -0.2736
  591TMC3    C8 8822   4.668   3.253  15.911  0.1327  1.3766  0.2938
  591TMC3    O1 8823   4.506   3.658  16.258 -0.0141  0.2456  0.0826
  591TMC3    O2 8824   4.623   3.141  15.899 -0.1896  1.0062 -0.3794
  592MPD2     C 8825   0.325   4.499  11.487  0.2381  0.2128 -0.1549
  592MPD2    C1 8826   0.260   4.538  11.598  0.0254 -0.3638  0.6195
  592MPD2    C2 8827   0.197   4.451  11.681 -0.5038 -0.0871 -0.8113
  592MPD2    C3 8828   0.179   4.313  11.643  0.3998 -0.7277 -0.2810
  592MPD2    C4 8829   0.249   4.274  11.529 -0.0071 -0.6440  1.0441
  592MPD2    C5 8830   0.320   4.367  11.456 -0.3691 -0.6433 -0.0843
  592MPD2     H 8831   0.144   4.481  11.770 -1.9438 -2.6462 -0.8241
  592MPD2    H1 8832   0.231   4.177  11.485 -2.6122 -0.1327  1.0152
  592MPD2    H2 8833   0.376   4.576  11.431 -1.8063  1.2631 -0.5908
  592MPD2    H3 8834   0.366   4.326  11.367 -1.4673 -1.4935 -0.2608
  592MPD2     N 8835   0.107   4.232  11.733 -0.9615 -0.3613  0.4459
  592MPD2    H5 8836   0.057   4.280  11.807  0.8072 -1.2205  2.2334
  592MPD2    N1 8837   0.283   4.675  11.646 -0.3868 -0.5841 -0.0404
  592MPD2    H7 8838   0.332   0.002  11.578 -1.1880 -0.4097 -0.4709
  593TMC3    C1 8839   0.290   0.126  11.778  0.3640  0.4244  0.2274
  593TMC3    C2 8840   0.298   0.164  11.908  0.0210  0.4665 -0.2344
  593TMC3    C3 8841   0.292   0.298  11.933 -0.1482 -0.0885  0.0094
  593TMC3    C4 8842   0.275   0.217  11.681 -0.2159 -0.1636  0.3736
  593TMC3    C5 8843   0.279   0.347  11.712 -0.0175  0.5238 -0.4376
  593TMC3    C6 8844   0.286   0.398  11.840  0.3359 -0.0768  0.6655
  593TMC3     C 8845   0.242   4.721  11.766  1.2198 -0.4201  0.3185
  593TMC3     O 8846   0.189   4.671  11.862  0.0581  0.3787  0.0374
  593TMC3     H 8847   0.297   0.089  11.987 -0.3151 -1.1950 -1.8293
  593TMC3    H1 8848   0.237   0.187  11.584  0.6307  1.5428 -0.4984
  593TMC3    H2 8849   0.266   0.501  11.867 -0.9526 -0.2702  0.4769
  593TMC3    C7 8850   0.331   0.444  11.615  0.7094  1.1230 -0.6810
  593TMC3    C8 8851   0.297   0.339  12.076  0.3636 -0.4940  0.3519
  593TMC3    O1 8852   0.379   0.544  11.666 -0.5799 -0.0736 -0.5181
  593TMC3    O2 8853   0.257   0.254  12.155 -0.0870  0.2749 -0.3682
  594MPD2     C 8854   3.677   3.684  14.210 -0.1899  0.9038  0.2540
  594MPD2    C1 8855   3.619   3.783  14.279 -0.5156  0.5159 -0.0086
  594MPD2    C2 8856   3.673   3.910  14.282  0.5107 -1.0622  0.0903
  594MPD2    C3 8857   3.790   3.941  14.211 -0.0522 -0.3960  0.7179
  594MPD2    C4 8858   3.835   3.839  14.123  0.4852 -0.0209 -0.3381
  594MPD2    C5 8859   3.784   3.713  14.133  0.0111 -0.3334 -0.2176
  594MPD2     H 8860   3.631   3.992  14.339  0.5451  0.6263 -2.2759
  594MPD2    H1 8861   3.924   3.845  14.062  0.3940 -0.4070 -0.5127
  594MPD2    H2 8862   3.619   3.594  14.194  0.5839  0.4032  0.2779
  594MPD2    H3 8863   3.830   3.641  14.067 -0.1365 -0.2865 -0.3714
  594MPD2     N 8864   3.853   4.067  14.232  0.1542 -0.2476 -0.6330
  594MPD2    H5 8865   3.834   4.118  14.318 -0.7872  0.1760 -1.0974
  594MPD2    N1 8866   3.492   3.749  14.345 -0.1216 -0.6122  0.1799
  594MPD2    H7 8867   3.481   3.648  14.356  0.2622 -0.7754 -0.9146
  595TMC3    C1 8868   4.169   4.393  14.148 -0.3354  0.1299  0.1082
  595TMC3    C2 8869   4.104   4.278  14.101  0.4159 -0.8882 -0.2349
  595TMC3    C3 8870   4.007   4.234  14.187 -0.8864 -0.6619  0.0329
  595TMC3    C4 8871   4.149   4.459  14.260  0.2888 -0.1188  0.3111
  595TMC3    C5 8872   4.051   4.411  14.344  0.1924  0.0558  0.2882
  595TMC3    C6 8873   3.984   4.299  14.307 -0.6258  0.8238  0.9908
  595TMC3     C 8874   4.298   4.436  14.099  0.5803 -0.1312  0.0213
  595TMC3     O 8875   4.342   4.551  14.121 -0.2590  0.0837  0.6643
  595TMC3     H 8876   4.118   4.223  14.009 -0.4713 -0.8472 -0.3920
  595TMC3    H1 8877   4.208   4.539  14.301 -3.6730  2.6462  0.6396
  595TMC3    H2 8878   3.915   4.253  14.377 -0.8457 -0.2258  0.0983
  595TMC3    C7 8879   4.005   4.489  14.458  0.0202 -0.3665  1.0728
  595TMC3    C8 8880   3.935   4.118  14.139  0.1278 -0.4690 -0.1628
  595TMC3    O1 8881   3.906   4.442  14.517 -0.0581  0.1462  0.0382
  595TMC3    O2 8882   3.939   4.081  14.021  0.3965 -0.5473 -0.3455
  596MPD2     C 8883   2.526   2.184  16.141  0.3507  0.7063  0.2631
  596MPD2    C1 8884   2.543   2.319  16.122  0.0636  0.3783  0.0897
  596MPD2    C2 8885   2.582   2.357  15.995 -0.1089  0.7840 -0.5654
  596MPD2    C3 8886   2.590   2.263  15.889 -0.1555 -0.1326 -0.0418
  596MPD2    C4 8887   2.576   2.127  15.921 -0.0323 -0.1287  0.5073
  596MPD2    C5 8888   2.542   2.092  16.041 -0.2856  0.4251 -0.3527
  596MPD2     H 8889   2.594   2.461  15.967 -1.5496  1.3768  1.0501
  596MPD2    H1 8890   2.574   2.050  15.844 -3.2990  0.9836 -0.4840
  596MPD2    H2 8891   2.504   2.141  16.237  1.2486  2.2682  1.1768
  596MPD2    H3 8892   2.536   1.985  16.061  0.0637  0.6114  0.8100
  596MPD2     N 8893   2.620   2.299  15.755 -0.7163 -0.0501  0.0089
  596MPD2    H5 8894   2.627   2.221  15.690  1.8109 -0.3996  0.6993
  596MPD2    N1 8895   2.523   2.420  16.218 -0.2615 -0.3188 -0.6733
  596MPD2    H7 8896   2.553   2.510  16.183 -0.7070  0.3586  0.6410
  597TMC3    C1 8897   2.510   2.504  16.441  0.3815  0.1584  0.5302
  597TMC3    C2 8898   2.583   2.615  16.403  0.5290  0.0946 -0.1297
  597TMC3    C3 8899   2.633   2.702  16.499 -0.1714 -0.7243  0.5296
  597TMC3    C4 8900   2.492   2.480  16.573 -0.2139 -0.1103 -0.3003
  597TMC3    C5 8901   2.524   2.579  16.667  0.0667 -0.4036  0.5616
  597TMC3    C6 8902   2.594   2.691  16.627  0.9842 -0.5231 -0.1839
  597TMC3     C 8903   2.484   2.391  16.351  0.3355  0.1191 -0.5098
  597TMC3     O 8904   2.439   2.286  16.403 -0.2479 -0.1209 -0.5202
  597TMC3     H 8905   2.608   2.629  16.299  0.3865  0.0893 -0.1652
  597TMC3    H1 8906   2.445   2.385  16.599 -0.3229 -0.2939 -1.1690
  597TMC3    H2 8907   2.636   2.760  16.698 -0.0792  0.4569 -0.4993
  597TMC3    C7 8908   2.459   2.553  16.794  0.0367  0.3009  0.2615
  597TMC3    C8 8909   2.671   2.845  16.462  0.3087  0.0037  0.0973
  597TMC3    O1 8910   2.457   2.442  16.843 -0.5876  0.4502  0.1409
  597TMC3    O2 8911   2.636   2.931  16.546 -0.0239 -0.1034  0.0760
  598TMC3    C1 8912   0.500   3.507  15.433 -0.3107 -1.0499 -0.6595
  598TMC3    C2 8913   0.500   3.371  15.458 -0.1106  0.2545  0.6942
  598TMC3    C3 8914   0.508   3.290  15.350 -0.2815  0.1201  1.0024
  598TMC3    C4 8915   0.500   3.557  15.307  0.5070 -0.2833 -0.1634
  598TMC3    C5 8916   0.504   3.472  15.201  0.2170 -0.0391 -0.3576
  598TMC3    C6 8917   0.494   3.335  15.219 -0.0994  0.1568 -1.0251
  598TMC3     C 8918   0.536   3.605  15.535 -0.8052  0.3000 -0.1453
  598TMC3     O 8919   0.561   3.721  15.502  0.0499  0.1014 -0.5118
  598TMC3     H 8920   0.519   3.328  15.556 -2.4824 -2.1664  0.0978
  598TMC3    H1 8921   0.489   3.665  15.296 -0.0490 -0.0506  2.6579
  598TMC3    H2 8922   0.516   3.270  15.135  1.7409 -0.2467 -0.2297
  598TMC3    C7 8923   0.531   3.537  15.076  0.0258  0.3619 -0.5744
  598TMC3    C8 8924   0.534   3.147  15.370  0.5044  0.6674 -0.0495
  598TMC3    O1 8925   0.495   3.481  14.972  0.2070 -0.2852 -0.0100
  598TMC3    O2 8926   0.570   3.080  15.276  0.4697  0.4338  0.8321
  599MPD2     C 8927   1.064   0.956  15.816  0.1761 -0.0545 -0.5897
  599MPD2    C1 8928   1.024   0.822  15.827 -0.5149  0.0544 -0.1639
  599MPD2    C2 8929   0.912   0.782  15.903  0.9660 -0.0034 -0.0834
  599MPD2    C3 8930   0.848   0.888  15.973  0.1339 -0.8443  0.4542
  599MPD2    C4 8931   0.890   1.018  15.955 -0.4797  1.0127 -0.1857
  599MPD2    C5 8932   0.993   1.053  15.878 -0.0715 -0.6506  0.3612
  599MPD2     H 8933   0.885   0.680  15.927  0.5952  0.3434  0.9952
  599MPD2    H1 8934   0.839   1.100  16.006 -0.2054  0.5125  0.8893
  599MPD2    H2 8935   1.152   0.984  15.759  0.8061  0.3988  0.6202
  599MPD2    H3 8936   1.016   1.158  15.885  1.6841 -1.1045  1.3010
  599MPD2     N 8937   0.758   0.860  16.083 -0.2025  0.4936 -0.4436
  599MPD2    H5 8938   0.733   0.941  16.140  2.3321 -0.0652  1.4634
  599MPD2    N1 8939   1.103   0.719  15.770 -0.5014 -1.0057 -0.3981
  599MPD2    H7 8940   1.190   0.750  15.727 -0.6409 -1.2248 -0.8387
  600TMC3    C1 8941   0.633   0.757  16.250  0.0032 -0.1523 -0.3359
  600TMC3    C2 8942   0.521   0.676  16.257 -0.8074  0.2135 -0.0399
  600TMC3    C3 8943   0.453   0.671  16.375  0.7452 -0.0829  0.0998
  600TMC3    C4 8944   0.656   0.859  16.336 -0.2650 -0.4852 -0.2531
  600TMC3    C5 8945   0.587   0.849  16.452 -0.3849  0.1845  0.5873
  600TMC3    C6 8946   0.490   0.754  16.476  0.3791  0.1883 -0.8352
  600TMC3     C 8947   0.715   0.740  16.131  0.3126  0.3564  0.0675
  600TMC3     O 8948   0.723   0.623  16.089  0.1062 -0.1324 -0.3769
  600TMC3     H 8949   0.506   0.608  16.174  1.9113  0.0385 -0.3914
  600TMC3    H1 8950   0.746   0.918  16.325  0.3534 -1.1303  1.2313
  600TMC3    H2 8951   0.421   0.760  16.560 -1.0227  0.7272 -2.0255
  600TMC3    C7 8952   0.602   0.957  16.555 -0.0886 -0.7697  0.4601
  600TMC3    C8 8953   0.316   0.630  16.370 -0.5438  0.8070 -0.7474
  600TMC3    O1 8954   0.521   0.942  16.651  0.4999  0.3419  0.2783
  600TMC3    O2 8955   0.262   0.636  16.263  0.0213  0.3978  0.4979
  601MPD2     C 8956   3.213   4.074   0.208  0.3090  0.2995  0.0831
  601MPD2    C1 8957   3.084   4.026   0.175 -0.6651 -0.0587  0.8168
  601MPD2    C2 8958   3.063   3.892   0.213  0.0600 -0.0857  0.5850
  601MPD2    C3 8959   3.163   3.814   0.276 -0.0407  0.6536  0.4374
  601MPD2    C4 8960   3.286   3.879   0.303  0.6923  0.7359 -0.0673
  601MPD2    C5 8961   3.308   4.008   0.273 -0.1486  0.9566  0.7676
  601MPD2     H 8962   2.968   3.840   0.213  0.6889 -1.2113 -3.5179
  601MPD2    H1 8963   3.360   3.832   0.367 -0.2581  1.1224  1.3244
  601MPD2    H2 8964   3.244   4.176   0.191  0.9434  0.1195  0.1658
  601MPD2    H3 8965   3.407   4.049   0.289  0.2650  0.1766  0.1775
  601MPD2     N 8966   3.132   3.701   0.353  0.1770  0.0021  0.2671
  601MPD2    H5 8967   3.205   3.674   0.419 -0.9841  0.0254  1.5699
  601MPD2    N1 8968   2.979   4.105   0.119  0.6194  0.3390  0.0547
  601MPD2    H7 8969   2.890   4.061   0.101  0.6655  0.5989 -0.8188
  602TMC3    C1 8970   2.887   4.300   0.008 -0.2428 -0.2107 -0.9544
  602TMC3    C2 8971   2.882   4.437  17.713  0.3449 -0.1065  0.7966
  602TMC3    C3 8972   2.790   4.485  17.620  0.2995  0.4167  0.6702
  602TMC3    C4 8973   2.790   4.218  17.673  0.1796 -0.7605  0.5917
  602TMC3    C5 8974   2.696   4.272  17.581  0.0422  0.2231  0.2597
  602TMC3    C6 8975   2.702   4.405  17.554 -0.0687  0.0517 -0.5934
  602TMC3     C 8976   2.997   4.237   0.079 -0.3182  0.4985  0.3614
  602TMC3     O 8977   3.089   4.318   0.103 -0.5262  0.1026 -0.1657
  602TMC3     H 8978   2.936   4.502   0.063  1.8398 -1.2728  0.7168
  602TMC3    H1 8979   2.793   4.110  17.683 -1.5580 -0.7059  1.7292
  602TMC3    H2 8980   2.637   4.441  17.474  0.0587  1.1825 -0.1899
  602TMC3    C7 8981   2.585   4.182  17.544  0.6777  0.2699 -0.0009
  602TMC3    C8 8982   2.758   4.621  17.629 -0.2964  0.0118  0.2078
  602TMC3    O1 8983   2.590   4.066  17.576  0.3069  0.1484  0.3988
  602TMC3    O2 8984   2.852   4.696  17.647 -0.3622  0.5480  0.5895
  603TMC3    C1 8985   0.773   4.206  11.212  0.2449 -0.3967 -0.2969
  603TMC3    C2 8986   0.822   4.171  11.331 -0.5720  0.1433  0.6984
  603TMC3    C3 8987   0.919   4.244  11.383  0.8110  0.7106  0.1798
  603TMC3    C4 8988   0.811   4.316  11.147 -0.0374 -0.1654 -0.9073
  603TMC3    C5 8989   0.924   4.379  11.195  0.1170 -0.1334  0.1079
  603TMC3    C6 8990   0.962   4.358  11.325 -0.1145 -0.3474  0.2592
  603TMC3     C 8991   0.659   4.131  11.160  0.0649 -0.4681  0.7671
  603TMC3     O 8992   0.632   4.135  11.039 -0.6460  0.0473  0.2849
  603TMC3     H 8993   0.786   4.089  11.391  1.9176 -1.3426  0.1291
  603TMC3    H1 8994   0.755   4.334  11.056  2.7755  2.3445 -2.1523
  603TMC3    H2 8995   1.048   4.413  11.361 -0.6404  0.9664 -0.4614
  603TMC3    C7 8996   0.960   4.505  11.133  0.0598  0.0779 -0.9425
  603TMC3    C8 8997   0.990   4.194  11.492  0.5425 -0.1791 -0.2616
  603TMC3    O1 8998   1.045   4.572  11.181  0.1329  0.6880 -0.0753
  603TMC3    O2 8999   0.992   4.072  11.500  0.2361  0.7095  0.0737
  604MPD2     C 9000   1.397   2.607  16.289 -0.1156 -0.5752 -0.1033
  604MPD2    C1 9001   1.347   2.725  16.249 -0.4008  0.1456  0.4016
  604MPD2    C2 9002   1.308   2.749  16.116 -0.3091 -0.0407 -0.7714
  604MPD2    C3 9003   1.321   2.645  16.023  0.2385 -0.0678 -0.0626
  604MPD2    C4 9004   1.367   2.522  16.071 -0.2516  0.4681  0.1424
  604MPD2    C5 9005   1.398   2.506  16.201 -0.3213  0.1629 -0.0382
  604MPD2     H 9006   1.258   2.841  16.087 -0.1267  0.4711  0.5329
  604MPD2    H1 9007   1.364   2.429  16.015  0.8556  0.1133  0.6785
  604MPD2    H2 9008   1.432   2.592  16.390 -2.5967 -0.0636  0.8345
  604MPD2    H3 9009   1.412   2.407  16.241  0.5646  0.7901  1.2011
  604MPD2     N 9010   1.276   2.660  15.888 -0.0017  0.3539  0.0894
  604MPD2    H5 9011   1.232   2.745  15.855  0.9911  0.8788  0.0988
  604MPD2    N1 9012   1.345   2.830  16.339 -0.4575 -0.6610  0.4920
  604MPD2    H7 9013   1.398   2.808  16.423  1.2718  1.0876 -0.1412
  605TMC3    C1 9014   1.318   3.043  16.434 -0.3552 -0.7331 -0.1836
  605TMC3    C2 9015   1.450   3.063  16.439  0.1800 -0.3956  0.4509
  605TMC3    C3 9016   1.497   3.189  16.492 -0.2107  0.0998  0.1529
  605TMC3    C4 9017   1.229   3.138  16.464 -0.3025  0.5058  0.1942
  605TMC3    C5 9018   1.275   3.264  16.503  0.2501  0.1239  0.0452
  605TMC3    C6 9019   1.411   3.288  16.529 -0.2709  0.1013  0.2134
  605TMC3     C 9020   1.276   2.946  16.329 -0.6079  0.2699  0.3988
  605TMC3     O 9021   1.203   2.991  16.241 -0.5645 -0.8293  0.1436
  605TMC3     H 9022   1.523   2.987  16.416  0.3744 -0.1080  0.1148
  605TMC3    H1 9023   1.125   3.114  16.449 -0.4869  1.2199  0.3583
  605TMC3    H2 9024   1.432   3.381  16.580  0.7254  0.0104 -0.0321
  605TMC3    C7 9025   1.183   3.370  16.531 -0.0603  0.2284  0.2033
  605TMC3    C8 9026   1.640   3.190  16.512 -0.3612  0.1184  0.3131
  605TMC3    O1 9027   1.217   3.488  16.535 -0.3737 -0.8193 -0.2978
  605TMC3    O2 9028   1.707   3.130  16.437  0.2244 -0.1324  0.3396
  606TMC3    C1 9029   2.713   2.349  17.071  0.3394 -0.6982 -0.0508
  606TMC3    C2 9030   2.695   2.380  17.205  0.6029  0.2088 -0.0533
  606TMC3    C3 9031   2.674   2.269  17.285 -1.0980  0.6535 -0.0698
  606TMC3    C4 9032   2.715   2.219  17.023  0.1521  0.2764 -0.3840
  606TMC3    C5 9033   2.705   2.114  17.108 -0.4570 -0.4858 -0.4769
  606TMC3    C6 9034   2.682   2.137  17.241 -0.5346  0.0891 -0.4579
  606TMC3     C 9035   2.756   2.458  16.985  0.0705 -0.2328 -0.0127
  606TMC3     O 9036   2.814   2.417  16.883  0.2856  0.3434  0.2964
  606TMC3     H 9037   2.699   2.476  17.257  0.9634 -0.2682  0.7959
  606TMC3    H1 9038   2.729   2.203  16.917 -0.7684  3.1676 -0.9487
  606TMC3    H2 9039   2.671   2.053  17.309  0.2248 -0.8570 -1.4962
  606TMC3    C7 9040   2.695   1.986  17.034 -0.2076  0.0070  0.2958
  606TMC3    C8 9041   2.599   2.281  17.406 -0.1235 -0.3628 -0.1507
  606TMC3    O1 9042   2.776   1.969  16.944 -0.0936  0.5578  0.2027
  606TMC3    O2 9043   2.546   2.392  17.421 -0.4483 -0.1563 -0.2166
  607MPD2     C 9044   0.324   3.923  11.911 -0.8392 -0.3870 -0.1441
  607MPD2    C1 9045   0.300   3.992  12.018  0.5489  0.1833  0.5605
  607MPD2    C2 9046   0.221   3.946  12.123  0.1223  0.2001  0.2009
  607MPD2    C3 9047   0.188   3.807  12.131  0.3366  0.3062  0.4746
  607MPD2    C4 9048   0.219   3.724  12.022  0.2035  0.2774  0.2352
  607MPD2    C5 9049   0.293   3.786  11.918 -0.0660  0.6577 -0.1729
  607MPD2     H 9050   0.175   4.013  12.195  3.4122  3.1742 -0.4144
  607MPD2    H1 9051   0.193   3.619  12.029 -3.0828  1.1725  1.4145
  607MPD2    H2 9052   0.377   3.969  11.828 -1.3649 -1.7205 -1.2260
  607MPD2    H3 9053   0.331   3.727  11.836  0.1133 -2.4063  2.1085
  607MPD2     N 9054   0.130   3.763  12.246  0.0714 -0.1399  0.3838
  607MPD2    H5 9055   0.120   3.838  12.314  0.6945  2.0569 -1.9643
  607MPD2    N1 9056   0.355   4.125  12.029 -0.1102  0.0754  0.6854
  607MPD2    H7 9057   0.334   4.179  12.112 -1.1896  0.4858  0.1409
  608TMC3    C1 9058   0.500   4.303  12.012 -0.1251 -0.4820 -0.3103
  608TMC3    C2 9059   0.514   4.297  12.146  0.1392 -0.0860 -0.0856
  608TMC3    C3 9060   0.557   4.410  12.216  0.7771  0.3813  0.6093
  608TMC3    C4 9061   0.522   4.417  11.949 -0.7027  0.1827 -0.9674
  608TMC3    C5 9062   0.561   4.528  12.017  0.1020  0.3690 -0.9119
  608TMC3    C6 9063   0.592   4.527  12.150 -0.2752 -0.0952 -0.7603
  608TMC3     C 9064   0.432   4.201  11.942  0.1295 -0.2693 -0.1707
  608TMC3     O 9065   0.446   4.182  11.823 -0.1329  0.1984 -0.9157
  608TMC3     H 9066   0.508   4.202  12.197  2.2890 -1.1099 -1.7535
  608TMC3    H1 9067   0.500   4.417  11.843 -2.3434  1.0456 -0.6270
  608TMC3    H2 9068   0.623   4.612  12.209  0.8128  0.2620 -1.8532
  608TMC3    C7 9069   0.600   4.644  11.935  0.2884 -0.0334 -0.7941
  608TMC3    C8 9070   0.531   4.418  12.353 -0.2291  0.4699  0.1217
  608TMC3    O1 9071   0.591   4.637  11.812  0.5771 -0.0356 -0.1617
  608TMC3    O2 9072   0.600   4.490  12.430 -0.2595  0.4121  0.1872
  609TMC3    C1 9073   2.834   4.510   9.175  0.2954 -0.2831  0.1003
  609TMC3    C2 9074   2.884   4.630   9.153  0.2139  0.4296  0.5080
  609TMC3    C3 9075   3.007   4.635   9.086  0.3313 -0.4310  0.1896
  609TMC3    C4 9076   2.880   4.394   9.114  0.4334  0.2558  0.4945
  609TMC3    C5 9077   3.007   4.408   9.051 -0.2164  0.0127  0.6231
  609TMC3    C6 9078   3.070   4.528   9.037  0.2370 -0.4040 -0.4274
  609TMC3     C 9079   2.703   4.502   9.231 -0.6565  0.2214 -0.4073
  609TMC3     O 9080   2.640   4.607   9.225  0.6042  0.5534  0.4148
  609TMC3     H 9081   2.831   4.718   9.187 -0.7229 -0.9124  2.5160
  609TMC3    H1 9082   2.830   4.301   9.139  0.6389  0.8402  3.0636
  609TMC3    H2 9083   3.170   4.526   8.995  1.1424  1.7557  1.6270
  609TMC3    C7 9084   3.081   4.292   9.017  0.0279 -0.7890 -0.0463
  609TMC3    C8 9085   3.062   0.038   9.085  0.1881 -0.0827 -0.4707
  609TMC3    O1 9086   3.200   4.286   9.035  0.1369  0.3223  0.3265
  609TMC3    O2 9087   2.991   0.132   9.120 -0.2767 -0.2518  0.6910
  610TMC3    C1 9088   1.023   4.595  12.172  0.1347  0.5089  0.3981
  610TMC3    C2 9089   0.970   4.492  12.099  0.6318  0.0166 -0.2127
  610TMC3    C3 9090   0.918   4.381  12.159 -0.8616  0.6598 -0.2107
  610TMC3    C4 9091   1.021   4.595  12.306  0.0524 -0.3405 -0.6171
  610TMC3    C5 9092   0.956   4.480  12.357 -0.8055  0.0896  0.0986
  610TMC3    C6 9093   0.897   4.376  12.289  0.2166  0.3621  0.3088
  610TMC3     C 9094   1.082   4.707  12.103  0.4634  0.2720 -0.0807
  610TMC3     O 9095   1.060   4.715  11.981  0.2040  0.0546 -0.1796
  610TMC3     H 9096   0.977   4.482  11.991 -1.6297 -2.0708 -0.1771
  610TMC3    H1 9097   1.063   4.663  12.380  0.7230  0.9801 -2.2304
  610TMC3    H2 9098   0.867   4.285  12.341 -2.6412  0.7008 -0.7446
  610TMC3    C7 9099   0.984   4.449  12.497  0.2430  0.0770 -0.2780
  610TMC3    C8 9100   0.860   4.281  12.068 -0.8668  0.6044  0.0123
  610TMC3    O1 9101   1.095   4.480  12.545  0.2530  0.5633 -0.6636
  610TMC3    O2 9102   0.818   4.322  11.961 -0.1450 -0.0597  0.0341
  611MPD2     C 9103   0.136   4.678   9.745  0.5518  0.3054  0.2667
  611MPD2    C1 9104   0.121   4.726   9.874  0.3281  0.3563  0.6143
  611MPD2    C2 9105   0.228   0.017   9.958  0.2827 -0.0945  0.8283
  611MPD2    C3 9106   0.358   4.719   9.900 -0.2067  0.4406  0.3249
  611MPD2    C4 9107   0.374   4.682   9.770 -0.0755  0.1163  0.3460
  611MPD2    C5 9108   0.265   4.662   9.692  0.4193  0.1042  0.2796
  611MPD2     H 9109   0.218   0.057  10.058  0.2002 -0.2726  0.8931
  611MPD2    H1 9110   0.474   4.667   9.732  0.7405 -0.6617  2.8004
  611MPD2    H2 9111   0.049   4.676   9.679 -0.2922  0.8252  1.3697
  611MPD2    H3 9112   0.267   4.656   9.583 -1.0985  0.1088  0.2528
  611MPD2     N 9113   0.474   4.715   9.980 -0.6415  0.4474  0.2831
  611MPD2    H5 9114   0.555   4.668   9.939 -0.2490  1.7022 -0.3698
  611MPD2    N1 9115   4.721   0.022   9.909 -0.1927 -0.2966 -0.2600
  611MPD2    H7 9116   4.658   4.716   9.838  0.5142 -0.7628 -0.6554
  612TMC3    C1 9117   0.621   0.019  10.174  0.5491  0.4113 -0.6205
  612TMC3    C2 9118   0.637   0.060  10.298 -0.4117  0.4993  0.4040
  612TMC3    C3 9119   0.739   0.019  10.370 -0.6395 -0.4362 -0.0199
  612TMC3    C4 9120   0.702   4.649  10.120  0.1142  1.0026  0.3160
  612TMC3    C5 9121   0.807   4.608  10.194 -0.1158 -0.8031 -0.0881
  612TMC3    C6 9122   0.833   4.670  10.316 -0.3860  0.1952  0.3218
  612TMC3     C 9123   0.490   0.035  10.110 -0.3213  0.0310  0.0362
  612TMC3     O 9124   0.413   0.109  10.172 -0.4430 -0.3320 -0.3576
  612TMC3     H 9125   0.583   0.146  10.336 -0.8773  0.1400  0.5534
  612TMC3    H1 9126   0.684   4.600  10.024 -0.6657  0.1161  0.9149
  612TMC3    H2 9127   0.906   4.624  10.382  0.7192 -0.9927 -1.7415
  612TMC3    C7 9128   0.895   4.488  10.159  0.1765  0.4030 -0.5180
  612TMC3    C8 9129   0.759   0.070  10.501  0.5985  0.5761  0.4018
  612TMC3    O1 9130   0.860   4.424  10.059 -1.1083 -0.3220  0.5660
  612TMC3    O2 9131   0.724   0.184  10.529 -0.1247  0.6152 -0.2557
  613MPD2     C 9132   3.333   2.682  16.706 -0.2367 -0.4336  0.1164
  613MPD2    C1 9133   3.385   2.568  16.651  0.0202  0.0419 -0.2506
  613MPD2    C2 9134   3.359   2.448  16.710  0.3365  0.0844 -0.0069
  613MPD2    C3 9135   3.264   2.437  16.809 -0.0551 -0.1648 -0.3692
  613MPD2    C4 9136   3.215   2.552  16.865  0.3946  0.2843 -0.1833
  613MPD2    C5 9137   3.257   2.671  16.818 -0.7098  0.0743 -0.4055
  613MPD2     H 9138   3.402   2.358  16.668 -1.1408 -0.5291 -0.1935
  613MPD2    H1 9139   3.135   2.546  16.937  1.0508  1.8258  0.6791
  613MPD2    H2 9140   3.366   2.779  16.670  1.8026 -1.5984 -1.1599
  613MPD2    H3 9141   3.223   2.759  16.872 -1.0527  0.0825 -0.6392
  613MPD2     N 9142   3.209   2.317  16.849 -0.1814  0.1017  0.1946
  613MPD2    H5 9143   3.143   2.314  16.926 -0.0906 -3.0214  0.1885
  613MPD2    N1 9144   3.463   2.563  16.534  0.5709  0.1379  0.3200
  613MPD2    H7 9145   3.500   2.474  16.503  1.6625  0.6629  0.1187
  614TMC3    C1 9146   3.503   2.635  16.309  0.0342  0.6340 -0.3873
  614TMC3    C2 9147   3.513   2.503  16.280 -0.3222  0.3332 -0.2077
  614TMC3    C3 9148   3.461   2.464  16.158 -0.1770  0.0142  0.5329
  614TMC3    C4 9149   3.457   2.728  16.220 -0.1161 -0.8284  0.2135
  614TMC3    C5 9150   3.421   2.686  16.094 -0.1470 -0.4889 -0.4632
  614TMC3    C6 9151   3.428   2.553  16.060 -0.4295  0.1608 -0.3288
  614TMC3     C 9152   3.489   2.670  16.451  0.8465 -0.2179  0.1211
  614TMC3     O 9153   3.482   2.788  16.475 -0.4384  0.5348 -0.7134
  614TMC3     H 9154   3.553   2.424  16.341 -1.6449  0.9635  1.4673
  614TMC3    H1 9155   3.423   2.825  16.256  1.2638  1.2251 -3.9716
  614TMC3    H2 9156   3.393   2.504  15.970  0.7558  1.8088 -1.6885
  614TMC3    C7 9157   3.414   2.788  15.988  0.1906  0.0136 -0.6687
  614TMC3    C8 9158   3.388   2.334  16.162 -0.0460  0.3035  0.4160
  614TMC3    O1 9159   3.428   2.898  16.041  0.1007 -0.1307 -0.0905
  614TMC3    O2 9160   3.438   2.246  16.233 -0.3028 -0.0555  0.1608
  615MPD2     C 9161   3.467   3.415  15.438 -0.5838 -0.1844 -0.1896
  615MPD2    C1 9162   3.485   3.543  15.480 -0.5391  0.2634  0.7369
  615MPD2    C2 9163   3.424   3.643  15.415 -0.4341 -0.4205  0.1527
  615MPD2    C3 9164   3.347   3.609  15.310 -1.1568  0.2252 -0.2044
  615MPD2    C4 9165   3.324   3.481  15.273  0.1725  0.4143 -0.0847
  615MPD2    C5 9166   3.397   3.380  15.327  0.9109 -0.6048 -0.0923
  615MPD2     H 9167   3.430   3.745  15.451 -1.2108 -0.1847 -0.3901
  615MPD2    H1 9168   3.261   3.451  15.189  1.1474  1.0360 -1.0392
  615MPD2    H2 9169   3.499   3.332  15.500 -0.2301  0.4403  0.4709
  615MPD2    H3 9170   3.376   3.276  15.307 -0.4490 -0.2601 -0.5214
  615MPD2     N 9171   3.277   3.711  15.244  0.4655 -0.6220  0.0758
  615MPD2    H5 9172   3.196   3.692  15.186  1.1369  1.4880 -1.5481
  615MPD2    N1 9173   3.551   3.573  15.596  0.8436 -0.8014 -0.3030
  615MPD2    H7 9174   3.534   3.668  15.626  1.4500  0.3032 -3.4243
  616TMC3    C1 9175   3.641   3.542  15.818  0.2390 -0.3121 -0.4462
  616TMC3    C2 9176   3.631   3.674  15.849  0.2531 -0.2472  0.7667
  616TMC3    C3 9177   3.665   3.716  15.973 -0.4518  0.1728 -0.2774
  616TMC3    C4 9178   3.705   3.453  15.905 -0.4937  0.1394  0.0155
  616TMC3    C5 9179   3.726   3.500  16.032 -0.2856 -0.0985 -0.1158
  616TMC3    C6 9180   3.712   3.627  16.070  0.4049 -0.3933  0.9583
  616TMC3     C 9181   3.620   3.489  15.680  0.3007 -0.2738  0.5929
  616TMC3     O 9182   3.663   3.378  15.657  0.1067 -0.4472 -0.0823
  616TMC3     H 9183   3.606   3.748  15.774 -1.1676 -1.8800 -0.3932
  616TMC3    H1 9184   3.739   3.351  15.887  1.6077  0.4527  2.1891
  616TMC3    H2 9185   3.740   3.651  16.172 -0.1325  0.1212  0.9824
  616TMC3    C7 9186   3.824   3.418  16.104  0.4536  0.5718  0.2596
  616TMC3    C8 9187   3.689   3.860  15.984 -0.4191 -0.2165  0.1969
  616TMC3    O1 9188   3.926   3.389  16.040  0.1991 -0.0459  0.1288
  616TMC3    O2 9189   3.650   3.934  15.898 -0.4668  0.3326 -0.4853
  617MPD2     C 9190   1.834   1.445  13.315 -0.8316 -0.2681  0.1372
  617MPD2    C1 9191   1.874   1.476  13.447  0.1671  0.5751 -0.1274
  617MPD2    C2 9192   1.778   1.490  13.549 -0.3604 -0.9245  0.5030
  617MPD2    C3 9193   1.645   1.482  13.516 -0.6787 -0.7952  0.0900
  617MPD2    C4 9194   1.606   1.453  13.386  0.3464 -0.2033  0.9433
  617MPD2    C5 9195   1.700   1.428  13.290 -0.0020 -0.2314 -0.5211
  617MPD2     H 9196   1.814   1.511  13.649 -1.2475 -0.6774  0.7772
  617MPD2    H1 9197   1.503   1.440  13.356  0.5218  2.5902 -0.8207
  617MPD2    H2 9198   1.910   1.449  13.239 -1.6655 -0.5212 -0.7055
  617MPD2    H3 9199   1.685   1.395  13.188 -3.0550  0.2709 -0.2398
  617MPD2     N 9200   1.538   1.484  13.608 -0.0768 -0.4798 -0.4059
  617MPD2    H5 9201   1.449   1.454  13.569  1.1991 -3.2993 -1.1068
  617MPD2    N1 9202   2.016   1.479  13.467 -0.2337 -0.1500  0.4084
  617MPD2    H7 9203   2.070   1.457  13.385  0.2137  0.0675  0.6442
  618TMC3    C1 9204   2.209   1.536  13.586  0.2377  0.5875  0.0706
  618TMC3    C2 9205   2.257   1.412  13.565 -0.1541  0.2637  0.0035
  618TMC3    C3 9206   2.357   1.371  13.652 -0.2566 -0.3423 -0.2170
  618TMC3    C4 9207   2.279   1.632  13.642 -0.9172  0.2185 -0.2346
  618TMC3    C5 9208   2.398   1.605  13.695  0.7887 -0.1048  0.5514
  618TMC3    C6 9209   2.434   1.476  13.714  0.5887  0.6172 -0.3515
  618TMC3     C 9210   2.076   1.559  13.567 -0.7846 -0.6110  0.0127
  618TMC3     O 9211   2.026   1.633  13.648 -0.0230 -0.5508  0.1312
  618TMC3     H 9212   2.205   1.333  13.511 -2.3391 -0.3540  3.0128
  618TMC3    H1 9213   2.247   1.736  13.646  1.4513  0.8661  2.3837
  618TMC3    H2 9214   2.496   1.454  13.801 -0.2840  2.2063  0.6618
  618TMC3    C7 9215   2.464   1.698  13.780 -0.0417 -0.2518  0.0867
  618TMC3    C8 9216   2.421   1.246  13.640 -0.1976 -0.0386  1.2122
  618TMC3    O1 9217   2.393   1.783  13.833 -0.6361 -0.0410 -0.2217
  618TMC3    O2 9218   2.361   1.152  13.589 -0.2735 -0.0479 -0.1348
  619MPD2     C 9219   2.937   2.997  13.867  0.1337  0.5126 -0.4300
  619MPD2    C1 9220   2.825   3.050  13.811  0.3726 -0.6001  0.0852
  619MPD2    C2 9221   2.710   2.976  13.810 -0.6715 -0.4130 -0.2163
  619MPD2    C3 9222   2.695   2.848  13.858 -0.3912 -0.2440  0.1881
  619MPD2    C4 9223   2.816   2.795  13.915  0.4586 -0.5381 -0.2882
  619MPD2    C5 9224   2.931   2.870  13.915  0.1615 -0.2239 -0.0016
  619MPD2     H 9225   2.628   3.031  13.764 -1.0223 -0.3567  0.4788
  619MPD2    H1 9226   2.810   2.694  13.955 -3.5048  0.0159  0.5734
  619MPD2    H2 9227   3.036   3.040  13.866  0.0300  0.7142 -1.5752
  619MPD2    H3 9228   3.023   2.823  13.947 -0.9223 -0.7762  2.3089
  619MPD2     N 9229   2.568   2.779  13.870  0.2120  0.2088  0.2205
  619MPD2    H5 9230   2.561   2.682  13.901 -1.0652  0.1606 -0.2268
  619MPD2    N1 9231   2.814   3.182  13.765 -0.1291 -0.1874  0.6846
  619MPD2    H7 9232   2.716   3.197  13.739  0.5668 -0.8003 -2.3413
  620TMC3    C1 9233   2.866   3.407  13.715  0.4042 -0.5036 -0.0033
  620TMC3    C2 9234   2.736   3.436  13.706  0.4961 -0.3383  0.7086
  620TMC3    C3 9235   2.704   3.562  13.683  0.4422  0.0800 -0.4240
  620TMC3    C4 9236   2.970   3.497  13.703 -0.1723 -0.3689 -0.1990
  620TMC3    C5 9237   2.931   3.623  13.688  0.9276  0.2186  0.3670
  620TMC3    C6 9238   2.796   3.663  13.689  0.9923  0.4549  0.5277
  620TMC3     C 9239   2.911   3.276  13.761 -0.2461 -0.0076 -0.0793
  620TMC3     O 9240   3.027   3.258  13.794  0.0309  0.0272  0.4770
  620TMC3     H 9241   2.663   3.357  13.723 -1.6160  0.9560 -2.5426
  620TMC3    H1 9242   3.073   3.464  13.709  0.0131  0.3325  0.3994
  620TMC3    H2 9243   2.771   3.767  13.674 -1.4474 -0.0118  1.4687
  620TMC3    C7 9244   3.039   3.707  13.649 -0.3757  0.0298 -0.6001
  620TMC3    C8 9245   2.563   3.603  13.690 -0.2191 -0.2520 -0.2792
  620TMC3    O1 9246   3.143   3.658  13.614 -0.1683  0.3458 -0.5860
  620TMC3    O2 9247   2.536   3.725  13.694  0.6428 -0.4416 -0.5916
  621MPD2     C 9248   2.733   3.394   9.255 -0.2574 -0.1599 -0.2166
  621MPD2    C1 9249   2.691   3.491   9.341  0.4567  0.0964  0.4388
  621MPD2    C2 9250   2.787   3.551   9.426  0.5457 -0.3481  0.0204
  621MPD2    C3 9251   2.915   3.506   9.426 -0.1606  0.4482  0.0365
  621MPD2    C4 9252   2.956   3.401   9.347 -0.6833 -0.1860  0.2904
  621MPD2    C5 9253   2.861   3.347   9.264 -0.0352  0.0709 -0.6226
  621MPD2     H 9254   2.765   3.625   9.501  2.0531  0.0777  0.0450
  621MPD2    H1 9255   3.051   3.348   9.352 -1.3648 -1.3673  0.7621
  621MPD2    H2 9256   2.666   3.353   9.181 -0.3287 -3.3311  1.6020
  621MPD2    H3 9257   2.893   3.268   9.198  0.3727  1.7026 -2.3911
  621MPD2     N 9258   2.992   3.570   9.523 -0.3993 -0.0632  0.0971
  621MPD2    H5 9259   2.960   3.658   9.562 -1.2377 -0.1802 -0.3289
  621MPD2    N1 9260   2.562   3.548   9.336 -0.4068  0.5840 -0.6579
  621MPD2    H7 9261   2.526   3.603   9.413  0.1667 -0.4126  0.3237
  622TMC3    C1 9262   2.346   3.598   9.267 -0.4342  0.4863 -0.3584
  622TMC3    C2 9263   2.300   3.588   9.399 -0.0491 -1.3135  0.4189
  622TMC3    C3 9264   2.184   3.649   9.437 -0.1653  0.5658  0.6033
  622TMC3    C4 9265   2.267   3.665   9.178 -0.3065  0.0376  0.4550
  622TMC3    C5 9266   2.145   3.717   9.217 -1.1414  0.0016 -0.3459
  622TMC3    C6 9267   2.102   3.719   9.345  0.3995 -0.1971  0.3447
  622TMC3     C 9268   2.474   3.535   9.232  0.0463 -0.0602  0.0855
  622TMC3     O 9269   2.495   3.514   9.114 -0.0683 -0.8459  0.2125
  622TMC3     H 9270   2.355   3.538   9.477  2.1278  1.9489  0.9435
  622TMC3    H1 9271   2.303   3.676   9.076 -1.0955  1.5058  0.3399
  622TMC3    H2 9272   2.016   3.775   9.380 -0.3726 -1.1613 -0.0044
  622TMC3    C7 9273   2.096   3.805   9.122  0.4269 -0.4844  0.0388
  622TMC3    C8 9274   2.143   3.613   9.569 -0.2215 -0.1038  0.2858
  622TMC3    O1 9275   2.173   3.857   9.044  0.3026 -0.4184 -0.7199
  622TMC3    O2 9276   2.209   3.529   9.626  0.0075  0.6201 -0.4942
  623MPD2     C 9277   1.845   3.543  15.514 -0.3320  0.2517 -0.2966
  623MPD2    C1 9278   1.802   3.473  15.622  0.1958  0.2151  0.0092
  623MPD2    C2 9279   1.892   3.438  15.725 -0.0224  1.0909 -0.2869
  623MPD2    C3 9280   2.025   3.471  15.714 -0.4434 -0.2439  0.7260
  623MPD2    C4 9281   2.071   3.536  15.602  0.6687 -0.1005  0.5294
  623MPD2    C5 9282   1.978   3.569  15.505 -0.3748 -0.5045 -0.3139
  623MPD2     H 9283   1.855   3.394  15.816 -1.4439 -0.7539 -1.7608
  623MPD2    H1 9284   2.167   3.586  15.590 -0.0388  1.0102 -0.5390
  623MPD2    H2 9285   1.783   3.591  15.440 -0.7086  0.4366  0.1375
  623MPD2    H3 9286   2.019   3.617  15.417 -3.5208 -1.0520 -2.0723
  623MPD2     N 9287   2.100   3.464  15.829  0.6730  0.4200  0.0379
  623MPD2    H5 9288   2.066   3.409  15.907 -1.0567  0.1087 -0.9342
  623MPD2    N1 9289   1.667   3.460  15.642  0.3714 -0.2879 -0.4391
  623MPD2    H7 9290   1.609   3.514  15.579  3.9434  0.0554 -3.4512
  624TMC3    C1 9291   2.392   3.575  16.178 -0.2976  0.3902  0.2047
  624TMC3    C2 9292   2.312   3.513  16.270  0.1189  0.2342 -0.4430
  624TMC3    C3 9293   2.200   3.451  16.224 -0.5356  0.4822  0.4598
  624TMC3    C4 9294   2.364   3.566  16.048  0.3692 -0.1007 -0.1495
  624TMC3    C5 9295   2.249   3.506  16.001  0.3227  0.0059 -0.3843
  624TMC3    C6 9296   2.164   3.448  16.095 -0.6378  0.5068 -0.1886
  624TMC3     C 9297   2.527   3.608  16.224  0.1337 -0.0658 -0.0494
  624TMC3     O 9298   2.529   3.623  16.346  0.1615 -0.3425 -0.1469
  624TMC3     H 9299   2.337   3.508  16.375 -2.0949 -2.2093 -0.0263
  624TMC3    H1 9300   2.425   3.621  15.977 -0.1001 -0.4062 -0.7835
  624TMC3    H2 9301   2.063   3.420  16.066 -0.2380 -1.4857  0.4224
  624TMC3    C7 9302   2.219   3.521  15.861 -0.2884 -0.0660  1.0616
  624TMC3    C8 9303   2.093   3.393  16.312 -0.2731  0.5088  0.2217
  624TMC3    O1 9304   2.289   3.609  15.804  0.3434 -0.4298  0.2071
  624TMC3    O2 9305   2.013   3.315  16.256  0.0147  0.8454 -0.2589
  625MPD2     C 9306   2.526   0.067   0.626 -1.1835  0.6705 -0.3305
  625MPD2    C1 9307   2.538   0.201   0.652 -0.3912  0.8068 -0.3792
  625MPD2    C2 9308   2.639   0.251   0.725 -0.0513 -0.4626 -0.0680
  625MPD2    C3 9309   2.742   0.162   0.774  0.3073  0.1360 -0.3001
  625MPD2    C4 9310   2.731   0.025   0.737  0.2104  0.7429 -0.8682
  625MPD2    C5 9311   2.619   4.711   0.671 -0.0495 -0.8500 -0.3019
  625MPD2     H 9312   2.652   0.357   0.743 -2.7623 -0.4157  1.5804
  625MPD2    H1 9313   2.800   4.673   0.758  0.4977  0.6689 -2.1238
  625MPD2    H2 9314   2.435   0.029   0.582 -0.5050 -1.6091  0.2447
  625MPD2    H3 9315   2.609   4.611   0.632  0.5612 -0.9863 -0.1150
  625MPD2     N 9316   2.856   0.219   0.833 -0.2482  0.5029 -0.8314
  625MPD2    H5 9317   2.853   0.316   0.863 -1.8763  0.3107 -0.3775
  625MPD2    N1 9318   2.438   0.293   0.618 -0.3668  0.6203  0.0552
  625MPD2    H7 9319   2.450   0.387   0.655  2.2375 -0.5346  2.1496
  626TMC3    C1 9320   2.252   0.398   0.528  0.4708 -0.2972  0.0632
  626TMC3    C2 9321   2.172   0.408   0.416 -0.0816 -0.0629  0.3850
  626TMC3    C3 9322   2.108   0.527   0.396 -0.8034 -0.7528  0.1157
  626TMC3    C4 9323   2.250   0.487   0.629 -0.5131  0.4591  0.3156
  626TMC3    C5 9324   2.177   0.596   0.611 -0.4241  0.5352  0.1581
  626TMC3    C6 9325   2.100   0.629   0.494  0.4495  0.0710 -0.0484
  626TMC3     C 9326   2.325   0.270   0.544  0.4025  0.4115  0.6458
  626TMC3     O 9327   2.286   0.174   0.477 -0.2039  0.5503  0.0617
  626TMC3     H 9328   2.171   0.329   0.342  0.4087  1.0001 -0.7422
  626TMC3    H1 9329   2.297   0.470   0.725 -0.7382  0.3602  0.4077
  626TMC3    H2 9330   2.043   0.720   0.479  1.1785  0.2782 -1.5492
  626TMC3    C7 9331   2.129   0.653   0.738  0.2902 -0.1376 -0.7196
  626TMC3    C8 9332   2.028   0.544   0.274 -0.2348  0.3200 -0.1960
  626TMC3    O1 9333   2.203   0.661   0.836  0.4207 -0.7173 -0.2790
  626TMC3    O2 9334   2.025   0.656   0.220  0.1547  0.2881 -0.8844
  627MPD2     C 9335   1.064   0.550  14.180  0.6086 -0.1909 -0.0238
  627MPD2    C1 9336   1.076   0.505  14.309  0.6307 -0.6193  0.3061
  627MPD2    C2 9337   0.991   0.406  14.356  0.5933 -0.1057 -0.2545
  627MPD2    C3 9338   0.893   0.355  14.271 -0.4491 -0.8822  0.0185
  627MPD2    C4 9339   0.883   0.400  14.144  0.0935  0.5042  0.1855
  627MPD2    C5 9340   0.974   0.490  14.090 -0.1482  0.7420  0.1767
  627MPD2     H 9341   1.004   0.371  14.458 -0.9056  0.9980  0.3138
  627MPD2    H1 9342   0.805   0.366  14.077 -0.1398 -1.3646  1.4115
  627MPD2    H2 9343   1.130   0.625  14.138 -1.3368  0.3058 -2.1487
  627MPD2    H3 9344   0.969   0.516  13.985 -0.3336 -0.5109 -0.1310
  627MPD2     N 9345   0.823   0.240  14.316 -0.0338  0.7163  0.7738
  627MPD2    H5 9346   0.844   0.204  14.408 -0.6550  1.2789  1.1431
  627MPD2    N1 9347   1.173   0.561  14.397  0.1267 -0.1782 -0.7634
  627MPD2    H7 9348   1.172   0.534  14.494 -1.5024  2.1680 -0.1217
  628TMC3    C1 9349   1.321   0.702  14.486 -0.7900  0.4841 -0.0559
  628TMC3    C2 9350   1.402   0.616  14.558 -0.2650 -0.3145  0.0371
  628TMC3    C3 9351   1.459   0.670  14.675 -0.9010  0.1554 -0.2570
  628TMC3    C4 9352   1.301   0.831  14.523  0.1564  0.5805  0.2957
  628TMC3    C5 9353   1.359   0.880  14.636 -0.1608 -1.6192  0.3652
  628TMC3    C6 9354   1.442   0.798  14.710  0.1261  0.3729  0.2399
  628TMC3     C 9355   1.261   0.662  14.364  0.2956  0.0756  0.0047
  628TMC3     O 9356   1.259   0.741  14.271  0.4092 -0.3946  0.0984
  628TMC3     H 9357   1.402   0.512  14.528 -1.5550 -0.5541  0.8864
  628TMC3    H1 9358   1.244   0.894  14.456 -0.3544 -1.4981 -1.2277
  628TMC3    H2 9359   1.516   0.845  14.774  2.4081 -1.2871 -1.2287
  628TMC3    C7 9360   1.336   1.022  14.669  0.3699  0.5971 -0.3041
  628TMC3    C8 9361   1.576   0.605  14.734  0.3467 -0.1721  0.3033
  628TMC3    O1 9362   1.365   1.055  14.783  0.7845 -0.4449  0.3893
  628TMC3    O2 9363   1.639   0.658  14.827  0.3958 -0.2761  0.2173
  629MPD2     C 9364   3.990   4.235  16.130 -0.4157 -0.1789 -0.1431
  629MPD2    C1 9365   4.014   4.130  16.204  0.2743 -0.6551 -0.5050
  629MPD2    C2 9366   3.912   4.033  16.212  0.5748 -0.3255 -0.1968
  629MPD2    C3 9367   3.823   4.018  16.113 -0.8634  0.1526 -0.8750
  629MPD2    C4 9368   3.811   4.126  16.028 -0.7817  0.1107  0.1619
  629MPD2    C5 9369   3.889   4.232  16.044  0.6770  0.4866 -0.6931
  629MPD2     H 9370   3.915   3.961  16.293 -2.9378  0.2243  0.4129
  629MPD2    H1 9371   3.734   4.127  15.951 -0.4990 -1.4265 -0.1521
  629MPD2    H2 9372   4.049   4.326  16.131 -2.1174  0.9033 -0.1281
  629MPD2    H3 9373   3.869   4.319  15.982 -1.8615 -0.1061 -0.6996
  629MPD2     N 9374   3.756   3.895  16.099  0.0561 -0.0392  0.5365
  629MPD2    H5 9375   3.791   3.821  16.159  0.7693  1.5808  2.1107
  629MPD2    N1 9376   4.127   4.134  16.291 -0.2162  0.4410 -0.1892
  629MPD2    H7 9377   4.193   4.209  16.275 -0.2187  0.0439 -2.0823
  630TMC3    C1 9378   4.311   4.041  16.406  0.2062  0.0550 -0.3586
  630TMC3    C2 9379   4.392   4.133  16.345 -0.8250  0.0428  0.6692
  630TMC3    C3 9380   4.512   4.155  16.400  0.4972  0.6052 -0.1283
  630TMC3    C4 9381   4.354   3.967  16.515  0.4344  0.1471 -0.4133
  630TMC3    C5 9382   4.475   4.000  16.568  0.1176 -0.1658 -0.4222
  630TMC3    C6 9383   4.555   4.090  16.517  0.3919 -0.1347  0.0007
  630TMC3     C 9384   4.162   4.034  16.375 -1.3189  0.8855 -0.1727
  630TMC3     O 9385   4.103   3.939  16.419  0.2450 -0.4342  0.1574
  630TMC3     H 9386   4.372   4.182  16.251  2.4850 -1.2613 -0.7096
  630TMC3    H1 9387   4.287   3.903  16.570 -0.4172  0.0718 -1.5311
  630TMC3    H2 9388   4.658   4.105  16.548  0.5788 -2.1976  0.3382
  630TMC3    C7 9389   4.539   3.906  16.665 -0.4784  0.8254  0.0616
  630TMC3    C8 9390   4.610   4.246  16.335 -0.1348  0.6683  0.0668
  630TMC3    O1 9391   4.609   3.955  16.755 -0.2942 -0.1116  0.7184
  630TMC3    O2 9392   0.000   4.204  16.341  0.1349 -0.2224  0.3290
  631MPD2     C 9393   3.068   4.695  14.849  0.5536 -0.1430 -0.5045
  631MPD2    C1 9394   2.967   4.652  14.929  0.4586 -0.0757 -0.2141
  631MPD2    C2 9395   2.961   4.516  14.974 -0.4184 -0.7765 -0.4357
  631MPD2    C3 9396   3.066   4.440  14.928  0.0683  0.3710 -0.3423
  631MPD2    C4 9397   3.170   4.486  14.844  0.4970 -0.8398  0.6851
  631MPD2    C5 9398   3.164   4.617  14.804 -0.1572 -0.2326 -0.6352
  631MPD2     H 9399   2.874   4.480  15.028 -0.1954 -0.8542 -0.1261
  631MPD2    H1 9400   3.265   4.437  14.827  1.5262 -0.0336  4.1314
  631MPD2    H2 9401   3.067   0.069  14.819 -0.4225  0.0179  0.0809
  631MPD2    H3 9402   3.242   4.659  14.741  0.0401  0.1535 -0.1342
  631MPD2     N 9403   3.069   4.310  14.980  0.6911  0.1545 -0.0507
  631MPD2    H5 9404   2.982   4.288  15.027  0.1937  2.0022 -0.1261
  631MPD2    N1 9405   2.872   0.022  14.964 -0.2765 -0.2421  0.3156
  631MPD2    H7 9406   2.876   0.111  14.914  1.3358 -0.1262  0.6680
  632TMC3    C1 9407   2.676   0.109  15.038  0.1888  0.5990  0.0579
  632TMC3    C2 9408   2.616   0.135  15.161 -0.4238 -0.2837  0.0464
  632TMC3    C3 9409   2.484   0.184  15.159  0.6275 -0.5313  0.7163
  632TMC3    C4 9410   2.603   0.128  14.914 -0.2611  0.9090 -0.0524
  632TMC3    C5 9411   2.472   0.156  14.922  0.0011 -0.0545 -0.6829
  632TMC3    C6 9412   2.414   0.188  15.040 -0.2555  0.4216 -0.1184
  632TMC3     C 9413   2.758   4.728  15.043 -0.2363 -0.5471 -0.0373
  632TMC3     O 9414   2.723   4.641  15.118  0.5072 -0.7960 -0.6231
  632TMC3     H 9415   2.649   0.089  15.254  1.0866  1.6318  0.4564
  632TMC3    H1 9416   2.658   0.099  14.825  0.6391 -1.3247  1.2205
  632TMC3    H2 9417   2.318   0.239  15.039 -1.0077 -0.9872  0.2635
  632TMC3    C7 9418   2.409   0.213  14.801 -0.6638 -0.8084  0.3199
  632TMC3    C8 9419   2.411   0.140  15.272 -0.4214 -0.1327  0.6859
  632TMC3    O1 9420   2.316   0.288  14.820 -0.3240 -0.2340 -0.1442
  632TMC3    O2 9421   2.301   0.091  15.258 -0.2029 -0.1744  0.6166
  633MPD2     C 9422   2.331   2.044  17.351  0.0925  0.0882  0.4302
  633MPD2    C1 9423   2.292   1.974  17.236  0.4658 -1.0603  0.4398
  633MPD2    C2 9424   2.265   1.839  17.249  0.6963 -0.1773 -0.4861
  633MPD2    C3 9425   2.262   1.782  17.374  0.1682  0.0538 -0.4936
  633MPD2    C4 9426   2.301   1.849  17.485 -0.3637  0.5291  0.3596
  633MPD2    C5 9427   2.333   1.979  17.470  0.4039  0.2873  0.6650
  633MPD2     H 9428   2.254   1.779  17.159  1.3988 -3.2891  1.5111
  633MPD2    H1 9429   2.298   1.807  17.584 -0.6627  3.6300  1.6552
  633MPD2    H2 9430   2.364   2.148  17.349 -1.9637  0.6863 -3.3879
  633MPD2    H3 9431   2.353   2.035  17.561 -2.3753  0.5021  1.1240
  633MPD2     N 9432   2.225   1.653  17.398  0.1440  0.3172 -0.3133
  633MPD2    H5 9433   2.230   1.612  17.490 -2.4802  1.3375  0.2841
  633MPD2    N1 9434   2.276   2.036  17.111 -0.2011 -0.8196  0.3905
  633MPD2    H7 9435   2.251   1.979  17.030  0.9033  0.3840 -0.8074
  634TMC3    C1 9436   2.279   2.194  16.937 -0.0640  0.7984  0.7864
  634TMC3    C2 9437   2.333   2.101  16.851 -0.1297 -0.7462  0.4097
  634TMC3    C3 9438   2.325   2.124  16.719 -0.0684  0.4017  0.2210
  634TMC3    C4 9439   2.207   2.303  16.891 -0.5163 -1.2998  0.9919
  634TMC3    C5 9440   2.197   2.325  16.754  0.2250  0.3200 -0.1323
  634TMC3    C6 9441   2.256   2.233  16.676 -0.3611 -0.1599  0.3368
  634TMC3     C 9442   2.290   2.168  17.077  0.2127 -0.4556  0.6123
  634TMC3     O 9443   2.310   2.262  17.154  0.9118 -0.7578 -0.0579
  634TMC3     H 9444   2.383   2.009  16.878 -2.1631 -1.3025  2.3239
  634TMC3    H1 9445   2.158   2.375  16.955  0.1243  1.1532 -1.2708
  634TMC3    H2 9446   2.251   2.242  16.568  0.1432 -0.1965  0.3073
  634TMC3    C7 9447   2.119   2.426  16.686  0.2299  0.1907  0.4975
  634TMC3    C8 9448   2.358   2.010  16.635 -0.8470 -0.6118  0.2900
  634TMC3    O1 9449   2.108   2.405  16.564  0.3853 -0.6195 -0.3402
  634TMC3    O2 9450   2.365   1.904  16.688 -0.6050  0.0089 -0.2200
  635TMC3    C1 9451   2.621   2.610   0.515  0.7055 -0.6532 -0.4433
  635TMC3    C2 9452   2.491   2.608   0.543  0.0478  0.7755  0.3863
  635TMC3    C3 9453   2.416   2.494   0.524  0.7533 -0.4081  0.7376
  635TMC3    C4 9454   2.687   2.506   0.460 -0.1056  0.4652  0.1487
  635TMC3    C5 9455   2.605   2.400   0.439  0.4288  1.0508 -0.3414
  635TMC3    C6 9456   2.471   2.386   0.465  0.0441  0.2548  0.1786
  635TMC3     C 9457   2.693   2.723   0.564 -0.4036 -0.3628 -0.5137
  635TMC3     O 9458   2.634   2.828   0.580 -0.5120  0.4073  0.1979
  635TMC3     H 9459   2.446   2.693   0.593  1.3503  1.3767  0.5449
  635TMC3    H1 9460   2.792   2.509   0.433 -0.3348  1.5877 -0.6016
  635TMC3    H2 9461   2.422   2.293   0.440  0.1240  0.3837 -0.4704
  635TMC3    C7 9462   2.675   2.280   0.401  0.2114  0.0565  0.0630
  635TMC3    C8 9463   2.276   2.489   0.575 -0.1418 -0.4585  0.0850
  635TMC3    O1 9464   2.650   2.178   0.470 -0.1365  0.2055 -0.6875
  635TMC3    O2 9465   2.229   2.598   0.607  0.1599  0.1701 -0.2121
  636MPD2     C 9466   2.923   2.580  16.271  0.2267 -0.4503 -0.0823
  636MPD2    C1 9467   2.984   2.612  16.392  0.5353 -0.5457  0.6348
  636MPD2    C2 9468   2.963   2.523  16.501 -0.0238 -0.0033  0.0067
  636MPD2    C3 9469   2.891   2.409  16.486 -0.1722 -0.4748 -0.0156
  636MPD2    C4 9470   2.827   2.381  16.366  0.2456 -0.2061 -0.0444
  636MPD2    C5 9471   2.843   2.467  16.260  0.4160  0.5911  0.8462
  636MPD2     H 9472   3.015   2.548  16.593  0.4464  1.7128 -0.7316
  636MPD2    H1 9473   2.772   2.289  16.348  1.4961 -0.8391 -0.5935
  636MPD2    H2 9474   2.949   2.639  16.184  2.3908 -1.5245 -0.1686
  636MPD2    H3 9475   2.797   2.438  16.166 -0.7129 -0.7221  1.8244
  636MPD2     N 9476   2.901   2.319  16.591 -0.6982  1.1342 -0.8281
  636MPD2    H5 9477   2.964   2.340  16.667 -2.1906  0.5183  0.5689
  636MPD2    N1 9478   3.070   2.726  16.406 -0.0245  0.1531 -0.4643
  636MPD2    H7 9479   3.114   2.741  16.497  0.4774 -0.1089 -0.6638
  637TMC3    C1 9480   2.922   2.095  16.677 -0.0494  0.1738  0.2591
  637TMC3    C2 9481   3.010   2.151  16.763  0.2750 -0.1327 -0.5910
  637TMC3    C3 9482   3.139   2.102  16.774 -0.4991  0.4246  0.2987
  637TMC3    C4 9483   2.957   1.995  16.591  0.1858  0.0203 -0.0543
  637TMC3    C5 9484   3.085   1.942  16.596 -0.2912 -0.9367  0.2588
  637TMC3    C6 9485   3.172   2.000  16.687  0.6427  0.4934  0.2462
  637TMC3     C 9486   2.847   2.194  16.593  0.4156  0.8446  0.2594
  637TMC3     O 9487   2.762   2.147  16.517  0.2549 -0.5473  0.0393
  637TMC3     H 9488   2.979   2.223  16.839  0.8224 -1.6894  1.0966
  637TMC3    H1 9489   2.884   1.948  16.526  1.4550  1.2382 -2.4070
  637TMC3    H2 9490   3.269   1.954  16.705  0.2352  0.2103  1.7302
  637TMC3    C7 9491   3.143   1.971  16.464 -0.4331  0.7625  0.1755
  637TMC3    C8 9492   3.251   2.190  16.806 -0.1074 -0.5588  0.3135
  637TMC3    O1 9493   3.262   2.000  16.463 -0.2873 -0.1769  0.0317
  637TMC3    O2 9494   3.356   2.163  16.751  0.3239 -0.4559  0.1588
  638MPD2     C 9495   3.807   1.309  14.868 -0.1369  0.2463  0.0497
  638MPD2    C1 9496   3.712   1.225  14.808  0.0300 -0.8741  0.1422
  638MPD2    C2 9497   3.638   1.137  14.886  0.4636  0.2827 -0.3211
  638MPD2    C3 9498   3.676   1.130  15.019 -0.4746  0.2943  0.0113
  638MPD2    C4 9499   3.765   1.214  15.075  0.4387 -0.5726 -0.7455
  638MPD2    C5 9500   3.834   1.306  14.999 -0.9184  0.2456 -0.0867
  638MPD2     H 9501   3.583   1.054  14.843 -3.1729  1.5959  1.7285
  638MPD2    H1 9502   3.782   1.217  15.182  1.3797  1.1018 -0.9559
  638MPD2    H2 9503   3.861   1.379  14.804  0.3675  0.7697  1.0425
  638MPD2    H3 9504   3.909   1.367  15.048 -0.3731 -0.6683  0.2052
  638MPD2     N 9505   3.620   1.034  15.109  0.4296 -0.4439 -0.7691
  638MPD2    H5 9506   3.663   1.026  15.201  4.7017  0.8457 -2.6683
  638MPD2    N1 9507   3.702   1.221  14.666  0.1958 -0.1362  0.3806
  638MPD2    H7 9508   3.770   1.270  14.608  0.5674 -0.3626  0.6299
  639TMC3    C1 9509   3.509   0.833  15.164 -0.3996 -0.1858  0.8152
  639TMC3    C2 9510   3.409   0.748  15.128 -0.5320  0.1540  0.2647
  639TMC3    C3 9511   3.434   0.610  15.128  0.4236  0.4117 -0.4837
  639TMC3    C4 9512   3.630   0.770  15.195 -0.0887  0.5379  0.1455
  639TMC3    C5 9513   3.648   0.637  15.196  0.4683 -0.7232 -0.5844
  639TMC3    C6 9514   3.546   0.552  15.164 -0.3924 -0.8818 -0.0189
  639TMC3     C 9515   3.515   0.952  15.074  0.2943 -0.4220 -0.2722
  639TMC3     O 9516   3.431   0.967  14.988  0.5280  0.2153 -0.1222
  639TMC3     H 9517   3.314   0.781  15.089 -0.3461 -0.4266 -0.6728
  639TMC3    H1 9518   3.715   0.826  15.232 -0.8318  1.2185  0.8521
  639TMC3    H2 9519   3.564   0.445  15.161 -0.0403 -0.7973 -0.9363
  639TMC3    C7 9520   3.775   0.584  15.172 -0.4885 -0.3279  0.1432
  639TMC3    C8 9521   3.353   0.540  15.038  0.0940  0.1922 -0.5104
  639TMC3    O1 9522   3.855   0.661  15.119 -0.4098 -0.1411  0.0607
  639TMC3    O2 9523   3.404   0.479  14.948  0.1594 -0.3909 -0.5424
  640MPD2     C 9524   3.913   4.650   9.910 -0.3886 -0.4698 -0.3114
  640MPD2    C1 9525   3.839   0.002   9.830  0.4803 -0.8007 -0.3415
  640MPD2    C2 9526   3.777   0.107   9.899 -0.3110 -0.1453 -0.0312
  640MPD2    C3 9527   3.784   0.124  10.037  0.5270 -0.6951  0.1349
  640MPD2    C4 9528   3.850   0.026  10.111 -0.4153 -0.7817  0.1900
  640MPD2    C5 9529   3.901   4.652  10.048 -0.3404  0.3870  0.5443
  640MPD2     H 9530   3.739   0.191   9.843 -2.6023 -1.5389 -0.5999
  640MPD2    H1 9531   3.870   0.031  10.217 -3.3465 -0.2685  0.7312
  640MPD2    H2 9532   3.974   4.571   9.868 -0.8291  0.3262 -2.4432
  640MPD2    H3 9533   3.949   4.577  10.110  2.1699  0.0450 -1.7951
  640MPD2     N 9534   3.728   0.233  10.106  0.0756  0.1957 -0.1478
  640MPD2    H5 9535   3.740   0.243  10.206 -0.6106  1.4241 -0.1894
  640MPD2    N1 9536   3.848   4.713   9.688 -0.0981 -0.0893 -0.1101
  640MPD2    H7 9537   3.913   4.643   9.653 -1.6751 -0.9971 -1.1883
  641TMC3    C1 9538   3.811   0.021   9.467 -0.9563 -0.8001  0.0649
  641TMC3    C2 9539   3.838   4.613   9.444 -0.5434  0.3060 -0.2468
  641TMC3    C3 9540   3.876   4.569   9.325  0.0088  0.2195  0.4033
  641TMC3    C4 9541   3.828   0.113   9.368  0.1695 -0.2984  0.2594
  641TMC3    C5 9542   3.853   0.068   9.243  0.7610  0.2083 -0.7668
  641TMC3    C6 9543   3.875   4.656   9.221 -0.4012 -0.3668  0.1596
  641TMC3     C 9544   3.779   0.059   9.600  0.0338  0.4733 -0.2626
  641TMC3     O 9545   3.700   0.153   9.615 -0.5410 -0.5546 -0.0048
  641TMC3     H 9546   3.823   4.542   9.524  2.6706 -1.3535 -1.1025
  641TMC3    H1 9547   3.800   0.216   9.389 -0.6278 -1.1197  3.2641
  641TMC3    H2 9548   3.900   4.617   9.123  0.4503 -0.2301  0.3215
  641TMC3    C7 9549   3.862   0.147   9.126 -0.1643  0.2014 -0.4055
  641TMC3    C8 9550   3.884   4.429   9.308  0.1087 -0.7282 -0.3684
  641TMC3    O1 9551   3.922   0.098   9.033 -0.0698  0.0649 -0.1551
  641TMC3    O2 9552   3.854   4.389   9.196 -0.8501  0.5728  0.1375
  642TMC3    C1 9553   4.702   0.347  12.363  0.2797 -0.2344  0.1885
  642TMC3    C2 9554   0.014   0.354  12.500 -0.2791 -0.3373 -0.6215
  642TMC3    C3 9555   0.041   0.241  12.572  0.1143 -0.6486  0.0518
  642TMC3    C4 9556   4.697   0.224  12.301  0.0553  0.0518 -0.7606
  642TMC3    C5 9557   4.719   0.109  12.377 -0.0246  0.5597 -0.6167
  642TMC3    C6 9558   0.026   0.118  12.513  0.3809  0.7771  0.5998
  642TMC3     C 9559   4.675   0.473  12.300 -0.4544  0.1562  0.8791
  642TMC3     O 9560   4.706   0.481  12.183  0.2652 -0.4479 -0.1165
  642TMC3     H 9561   0.035   0.454  12.537  0.1948 -0.8330  0.4583
  642TMC3    H1 9562   4.656   0.216  12.201 -1.6049  1.5822 -0.1955
  642TMC3    H2 9563   0.079   0.038  12.562 -0.3609  0.6941  1.2585
  642TMC3    C7 9564   4.685   4.710  12.325 -0.4801  0.4891 -0.5926
  642TMC3    C8 9565   0.067   0.251  12.716 -0.4872 -0.8571 -0.5190
  642TMC3    O1 9566   4.669   4.700  12.205 -0.0892 -0.1871 -0.2873
  642TMC3    O2 9567   0.127   0.351  12.751 -0.3488  0.1822 -0.5129
  643TMC3    C1 9568   4.079   4.540   0.236  0.6432  0.2171 -0.0140
  643TMC3    C2 9569   3.965   4.511   0.171  0.0052  1.1956 -0.1216
  643TMC3    C3 9570   3.968   4.443   0.053 -0.1372 -0.1792  0.0535
  643TMC3    C4 9571   4.197   4.482   0.196 -0.3329 -0.6809 -0.1389
  643TMC3    C5 9572   4.192   4.412   0.077 -0.4461  0.4889 -0.1553
  643TMC3    C6 9573   4.083   4.392  17.713 -0.6230  0.1216 -0.1472
  643TMC3     C 9574   4.088   4.669   0.304  0.2033  1.0315  0.3537
  643TMC3     O 9575   3.994   0.013   0.286  0.0658 -0.1434  0.0060
  643TMC3     H 9576   3.877   4.564   0.204 -1.7519 -1.0331 -1.2416
  643TMC3    H1 9577   4.293   4.512   0.237 -0.1352 -1.0975 -0.2920
  643TMC3    H2 9578   4.095   4.340  17.619  1.4065  2.6122 -1.2865
  643TMC3    C7 9579   4.322   4.395   0.016 -0.1484 -0.6629 -0.4281
  643TMC3    C8 9580   3.912   4.517  17.663 -0.1869  0.4331 -0.5331
  643TMC3    O1 9581   4.411   4.382   0.099 -0.0663  0.2219 -0.4340
  643TMC3    O2 9582   3.905   4.459  17.554 -0.2573  0.4665  0.0273
  644MPD2     C 9583   4.118   0.175   9.684 -0.3147  0.0592  0.4452
  644MPD2    C1 9584   4.149   0.126   9.561  0.0440 -0.4362  0.2669
  644MPD2    C2 9585   4.145   0.205   9.451  0.6674 -0.6682 -0.3121
  644MPD2    C3 9586   4.084   0.330   9.458 -0.0982  0.4030 -0.1229
  644MPD2    C4 9587   4.035   0.369   9.578  0.1856 -0.0253 -0.2480
  644MPD2    C5 9588   4.052   0.295   9.689  0.1340 -0.1661 -0.2393
  644MPD2     H 9589   4.170   0.163   9.355  1.8407 -1.0004  0.1430
  644MPD2    H1 9590   3.986   0.463   9.601 -0.5632  0.0548 -2.1571
  644MPD2    H2 9591   4.131   0.123   9.778  0.1277  3.0320  2.0485
  644MPD2    H3 9592   4.022   0.335   9.785  0.0904 -0.2167 -0.2320
  644MPD2     N 9593   4.085   0.410   9.341  1.3857 -0.1564  0.7590
  644MPD2    H5 9594   4.147   0.377   9.268 -1.6113 -0.4877 -1.6131
  644MPD2    N1 9595   4.222   0.010   9.562  0.0766  0.9225  0.0833
  644MPD2    H7 9596   4.252   4.700   9.651 -1.8534 -1.4815 -0.3284
  645TMC3    C1 9597   4.047   0.586   9.193 -0.7410 -0.0939  0.1891
  645TMC3    C2 9598   4.169   0.550   9.124  0.2635 -0.3877 -0.0220
  645TMC3    C3 9599   4.187   0.615   9.001  0.0220 -0.6875 -0.1080
  645TMC3    C4 9600   3.964   0.688   9.158 -0.5285  0.0342  0.0199
  645TMC3    C5 9601   3.997   0.765   9.046 -0.2724  0.4988  0.3885
  645TMC3    C6 9602   4.103   0.718   8.967  0.0701 -0.4726 -0.4087
  645TMC3     C 9603   4.023   0.525   9.325 -0.2163 -0.2555 -0.2829
  645TMC3     O 9604   3.967   0.600   9.404 -0.8237  0.1229 -0.3764
  645TMC3     H 9605   4.251   0.488   9.158  0.2557  0.2660  1.1723
  645TMC3    H1 9606   3.881   0.719   9.219  0.8590 -0.0908  1.9697
  645TMC3    H2 9607   4.127   0.776   8.879 -1.6356 -0.4442 -0.8555
  645TMC3    C7 9608   3.918   0.871   9.007  0.2441  0.0854 -0.8004
  645TMC3    C8 9609   4.283   0.572   8.898  1.0673  0.3192 -0.0556
  645TMC3    O1 9610   3.929   0.904   8.891  0.0013  0.0083 -0.1814
  645TMC3    O2 9611   4.318   0.652   8.812  0.1886 -0.6220 -0.6065
  646MPD2     C 9612   3.632   4.548  14.385  0.1153 -0.3560  0.4610
  646MPD2    C1 9613   3.580   4.578  14.506  0.0805 -0.6856 -0.0034
  646MPD2    C2 9614   3.470   4.657  14.518 -0.4498  0.1850 -0.2478
  646MPD2    C3 9615   3.407   4.702  14.406  0.2761 -0.0050  0.3292
  646MPD2    C4 9616   3.460   4.669  14.282  0.1895  0.3234  0.0979
  646MPD2    C5 9617   3.561   4.589  14.269 -1.0036 -0.2552  0.1174
  646MPD2     H 9618   3.434   4.684  14.616 -1.4729  1.4327 -0.9681
  646MPD2    H1 9619   3.419   4.707  14.189  0.4032  0.6784  0.1493
  646MPD2    H2 9620   3.724   4.494  14.370  1.2602  1.3066  1.5937
  646MPD2    H3 9621   3.602   4.585  14.168  1.0948 -1.6231  1.0301
  646MPD2     N 9622   3.295   0.052  14.429 -0.0436 -0.3729  0.0798
  646MPD2    H5 9623   3.270   0.081  14.523 -2.7409 -0.7865 -0.5320
  646MPD2    N1 9624   3.642   4.516  14.618 -0.4908 -0.5906  0.0237
  646MPD2    H7 9625   3.720   4.457  14.596  0.3855  0.6734 -0.2693
  647TMC3    C1 9626   3.671   4.441  14.841 -0.4558  0.6356  1.7111
  647TMC3    C2 9627   3.607   4.425  14.962  0.4958 -0.2501 -0.4767
  647TMC3    C3 9628   3.679   4.387  15.067 -0.6857 -0.5864  0.0621
  647TMC3    C4 9629   3.809   4.448  14.832 -0.9008  0.6648  0.1865
  647TMC3    C5 9630   3.879   4.415  14.939  0.5810 -0.6260  0.1182
  647TMC3    C6 9631   3.815   4.390  15.057 -0.2433  0.2887  0.4718
  647TMC3     C 9632   3.595   4.528  14.749  0.8107  0.6059 -0.0798
  647TMC3     O 9633   3.515   4.610  14.797  0.5907 -0.1604  0.1157
  647TMC3     H 9634   3.500   4.438  14.963  0.6100  1.1624 -3.4578
  647TMC3    H1 9635   3.867   4.466  14.743 -1.8215  0.0228 -0.5405
  647TMC3    H2 9636   3.874   4.361  15.143 -0.3639  0.1051  0.4922
  647TMC3    C7 9637   4.009   4.347  14.929  0.0760 -0.4193  0.1897
  647TMC3    C8 9638   3.643   4.259  15.115  0.8632 -0.1755 -0.3003
  647TMC3    O1 9639   4.063   4.325  15.039  0.0100 -0.0216 -0.0221
  647TMC3    O2 9640   3.685   4.211  15.221 -0.6462 -0.2754 -0.2389
  648TMC3    C1 9641   2.627   2.415  15.568  0.2845 -0.8601  0.9254
  648TMC3    C2 9642   2.700   2.307  15.525 -0.0085  0.5117  0.0880
  648TMC3    C3 9643   2.654   2.230  15.425  0.1584  0.1849  0.5399
  648TMC3    C4 9644   2.507   2.439  15.513 -0.5713 -0.4101  0.1746
  648TMC3    C5 9645   2.459   2.348  15.420  0.2741 -0.6287 -0.9327
  648TMC3    C6 9646   2.535   2.247  15.378  0.0979  0.6705  0.5114
  648TMC3     C 9647   2.613   2.428  15.705 -0.3233  0.3668 -0.2868
  648TMC3     O 9648   2.570   2.534  15.758 -0.1446 -0.4689 -0.2805
  648TMC3     H 9649   2.800   2.292  15.563  0.0184  2.8592  0.9533
  648TMC3    H1 9650   2.452   2.526  15.546 -2.4647 -0.8820 -1.7905
  648TMC3    H2 9651   2.501   2.181  15.299 -0.3604  0.2255  1.0794
  648TMC3    C7 9652   2.316   2.315  15.430  0.7304  0.1287  0.2767
  648TMC3    C8 9653   2.696   2.108  15.485 -0.1543  0.0270 -0.3261
  648TMC3    O1 9654   2.272   2.231  15.351 -0.0637 -0.3833 -0.4693
  648TMC3    O2 9655   2.631   2.075  15.584  0.3607 -0.5255  0.2188
  649TMC3    C1 9656   1.518   2.810  13.079  1.1461  0.2729 -0.5168
  649TMC3    C2 9657   1.603   2.901  13.136  0.1781 -0.0778  0.0803
  649TMC3    C3 9658   1.611   2.910  13.272 -0.3063 -0.6016  0.3465
  649TMC3    C4 9659   1.433   2.734  13.162  0.4034  0.3413  0.2076
  649TMC3    C5 9660   1.453   2.751  13.300 -0.0768 -0.4656  0.3348
  649TMC3    C6 9661   1.542   2.833  13.358  0.3688 -0.0804 -0.4793
  649TMC3     C 9662   1.461   2.873  12.961  0.4849 -0.2184  0.8244
  649TMC3     O 9663   1.499   2.987  12.925 -0.4521 -0.0427 -0.2874
  649TMC3     H 9664   1.661   2.967  13.072  0.8329  0.2040  0.9632
  649TMC3    H1 9665   1.373   2.650  13.128  1.4487  0.0666 -0.9922
  649TMC3    H2 9666   1.535   2.860  13.463 -1.0235  1.6192 -0.9983
  649TMC3    C7 9667   1.381   2.661  13.386  0.3811  0.1880 -0.3836
  649TMC3    C8 9668   1.633   3.044  13.326 -0.5509 -0.1109 -0.0345
  649TMC3    O1 9669   1.398   2.676  13.504  0.4186 -0.2723  0.0676
  649TMC3    O2 9670   1.650   3.054  13.445  0.1563  0.5029 -0.0725
  650TMC3    C1 9671   3.983   4.682  12.691  0.8650  0.3956  0.2332
  650TMC3    C2 9672   3.966   0.064  12.768  0.5466  0.1738 -0.1790
  650TMC3    C3 9673   4.000   0.182  12.700 -0.2549 -0.2672  0.5371
  650TMC3    C4 9674   4.024   4.687  12.555 -0.0175  0.0631 -0.2005
  650TMC3    C5 9675   4.046   0.076  12.501 -1.0960  0.8114  0.1557
  650TMC3    C6 9676   4.039   0.192  12.570  0.2354 -0.4958  0.1955
  650TMC3     C 9677   3.944   4.552  12.755  0.4889  0.6516  0.9742
  650TMC3     O 9678   3.890   4.560  12.862  0.3371  0.2063 -0.1820
  650TMC3     H 9679   3.932   0.062  12.871  2.4442 -1.0655  0.4324
  650TMC3    H1 9680   4.052   4.601  12.495 -1.4773 -1.3176  1.0804
  650TMC3    H2 9681   4.061   0.292  12.532 -2.1902 -0.1274 -0.1974
  650TMC3    C7 9682   4.129   0.088  12.377 -0.2902 -0.2148 -0.3055
  650TMC3    C8 9683   4.040   0.297  12.773  0.3554  0.1842 -0.4534
  650TMC3    O1 9684   4.197   4.719  12.345 -0.9012 -0.0553  0.0462
  650TMC3    O2 9685   4.025   0.405  12.720 -0.0607  0.6040  0.2234
  651MPD2     C 9686   2.991   1.527  10.667 -0.0958  0.0814  0.5340
  651MPD2    C1 9687   2.949   1.653  10.686  0.2322 -0.5959 -0.0206
  651MPD2    C2 9688   3.032   1.757  10.669 -0.4433 -0.3395 -0.4158
  651MPD2    C3 9689   3.155   1.740  10.613 -0.4075  0.0728  0.1171
  651MPD2    C4 9690   3.201   1.615  10.585  0.5395  0.9458  0.6607
  651MPD2    C5 9691   3.116   1.518  10.616 -0.1196 -0.0020  0.5972
  651MPD2     H 9692   3.004   1.855  10.705  0.4064  0.2526 -1.3432
  651MPD2    H1 9693   3.295   1.587  10.538  0.7867  0.3390  1.5243
  651MPD2    H2 9694   2.927   1.440  10.674 -0.0567 -0.0091 -0.2197
  651MPD2    H3 9695   3.149   1.418  10.588  2.2203  1.1286 -0.6519
  651MPD2     N 9696   3.225   1.866  10.600 -0.6387  0.2038 -0.4272
  651MPD2    H5 9697   3.185   1.951  10.637 -0.7699 -0.1858  0.3293
  651MPD2    N1 9698   2.830   1.687  10.755 -0.5534  0.6458 -0.0848
  651MPD2    H7 9699   2.833   1.780  10.795 -1.3193  0.1273  1.1699
  652TMC3    C1 9700   3.604   2.122  10.664  0.3764 -0.4374  0.0913
  652TMC3    C2 9701   3.547   2.005  10.640 -0.5097  0.0870 -0.1592
  652TMC3    C3 9702   3.412   2.003  10.612  0.2028 -0.2840 -0.3259
  652TMC3    C4 9703   3.532   2.238  10.650  0.2740 -0.3160  0.0690
  652TMC3    C5 9704   3.398   2.226  10.608 -0.7018  0.3049  0.1306
  652TMC3    C6 9705   3.335   2.109  10.588 -0.1354  0.6554 -0.4234
  652TMC3     C 9706   3.745   2.129  10.695 -0.0889 -0.2019  0.5168
  652TMC3     O 9707   3.774   2.031  10.760  0.1495  0.1863 -0.1819
  652TMC3     H 9708   3.611   1.918  10.645  1.3371  1.4291 -0.4143
  652TMC3    H1 9709   3.570   2.333  10.684 -0.4060  1.0340 -2.9599
  652TMC3    H2 9710   3.233   2.106  10.550  0.5842 -2.2329 -2.1165
  652TMC3    C7 9711   3.313   2.339  10.584 -0.0090 -0.1321 -0.5563
  652TMC3    C8 9712   3.359   1.873  10.573  0.2063 -0.2548 -0.3925
  652TMC3    O1 9713   3.193   2.320  10.570 -0.2089 -0.1058  0.2646
  652TMC3    O2 9714   3.449   1.794  10.544 -0.0795 -0.8191 -0.0221
  653MPD2     C 9715   1.965   1.843  17.549  0.3367  0.2452  0.6258
  653MPD2    C1 9716   1.945   1.946  17.459  0.6715 -0.5507 -0.3596
  653MPD2    C2 9717   1.884   1.914  17.333 -1.5070 -0.0889  0.5870
  653MPD2    C3 9718   1.824   1.787  17.305 -0.2276  0.2131  0.3207
  653MPD2    C4 9719   1.830   1.688  17.404 -0.1328 -0.8430 -0.1098
  653MPD2    C5 9720   1.903   1.720  17.523 -0.0931  0.0327  0.6322
  653MPD2     H 9721   1.876   1.996  17.263  2.7688 -0.8459 -0.7593
  653MPD2    H1 9722   1.809   1.583  17.383 -1.8065 -0.2863 -1.2010
  653MPD2    H2 9723   2.009   1.858  17.646  0.4196  1.7041  0.3547
  653MPD2    H3 9724   1.914   1.654  17.608 -0.0537  0.7281  1.1684
  653MPD2     N 9725   1.763   1.768  17.175  0.1267  0.1763  0.1093
  653MPD2    H5 9726   1.758   1.847  17.112 -3.3320  1.3739  1.8414
  653MPD2    N1 9727   2.004   2.072  17.469  0.2203  0.0118  0.0654
  653MPD2    H7 9728   2.011   2.127  17.384 -2.1517 -0.6838 -0.5665
  654TMC3    C1 9729   1.657   1.659  16.988 -0.2661 -0.3841 -0.3155
  654TMC3    C2 9730   1.642   1.776  16.926  0.4721 -0.5381  0.1756
  654TMC3    C3 9731   1.606   1.773  16.799 -0.3453  0.4982  0.6288
  654TMC3    C4 9732   1.654   1.538  16.928  0.1616  0.2478  0.3837
  654TMC3    C5 9733   1.637   1.540  16.795 -0.0918 -0.0714 -0.0696
  654TMC3    C6 9734   1.601   1.654  16.727 -0.5707 -1.0167 -0.4387
  654TMC3     C 9735   1.715   1.647  17.125 -0.1343  0.8646 -0.7722
  654TMC3     O 9736   1.715   1.536  17.179 -0.0285 -0.5885 -0.3772
  654TMC3     H 9737   1.650   1.874  16.973  0.6872 -0.2837 -0.3942
  654TMC3    H1 9738   1.677   1.441  16.971 -0.2359 -0.9828 -2.1991
  654TMC3    H2 9739   1.584   1.647  16.621  0.1710 -0.3982 -0.5950
  654TMC3    C7 9740   1.625   1.410  16.728 -0.2169  0.0402  0.0520
  654TMC3    C8 9741   1.549   1.889  16.743  0.7332 -0.3712 -1.2021
  654TMC3    O1 9742   1.579   1.410  16.616 -0.1283  0.3817 -0.4726
  654TMC3    O2 9743   1.489   1.966  16.816 -0.4332 -0.0340  0.2970
  655MPD2     C 9744   2.856   2.745  15.438  0.3199  0.3355 -0.0338
  655MPD2    C1 9745   2.734   2.700  15.389 -0.1242 -0.9371 -0.7925
  655MPD2    C2 9746   2.724   2.591  15.301  0.0354  0.3555  0.0809
  655MPD2    C3 9747   2.836   2.525  15.259  0.3954  0.0402  0.0387
  655MPD2    C4 9748   2.958   2.565  15.311  0.6295 -0.4869 -0.4564
  655MPD2    C5 9749   2.964   2.672  15.397  0.5788 -0.3851  0.4209
  655MPD2     H 9750   2.628   2.564  15.261 -0.4593  1.5414  0.4697
  655MPD2    H1 9751   3.045   2.510  15.278 -0.8627 -2.8951 -0.3699
  655MPD2    H2 9752   2.866   2.831  15.504 -0.8772  0.9788 -0.6935
  655MPD2    H3 9753   3.063   2.700  15.432  0.5246 -0.3263  0.5250
  655MPD2     N 9754   2.837   2.411  15.166 -0.5889 -0.0703  0.5446
  655MPD2    H5 9755   2.927   2.365  15.158  0.6425  2.3902  0.1315
  655MPD2    N1 9756   2.612   2.754  15.434  0.1339 -0.8729 -0.4454
  655MPD2    H7 9757   2.528   2.711  15.397  0.6621 -1.9444 -0.3757
  656TMC3    C1 9758   2.457   2.849  15.577 -0.3892 -0.3680 -0.6358
  656TMC3    C2 9759   2.431   2.833  15.707  0.0939 -0.5086  0.5855
  656TMC3    C3 9760   2.296   2.826  15.741 -0.6711  0.4822  0.6118
  656TMC3    C4 9761   2.361   2.849  15.480  0.0254 -0.2337 -0.2242
  656TMC3    C5 9762   2.233   2.873  15.519  0.6816  0.5441  0.3423
  656TMC3    C6 9763   2.198   2.840  15.650  0.1042 -0.9576  0.3354
  656TMC3     C 9764   2.598   2.829  15.551  0.0245  0.4518  0.2645
  656TMC3     O 9765   2.678   2.869  15.635 -0.3693  0.4618  0.0161
  656TMC3     H 9766   2.515   2.834  15.774 -1.2579  1.7316  2.2650
  656TMC3    H1 9767   2.379   2.853  15.373 -2.1533 -1.1963 -0.6429
  656TMC3    H2 9768   2.098   2.844  15.692  0.3073 -1.3164  0.8571
  656TMC3    C7 9769   2.134   2.896  15.422 -0.2206  0.1905  0.0013
  656TMC3    C8 9770   2.256   2.786  15.872 -0.7977  0.3500  0.3058
  656TMC3    O1 9771   2.181   2.935  15.317  0.0358  0.1160  0.8261
  656TMC3    O2 9772   2.151   2.722  15.873  0.0220 -0.4027  0.7555
  657TMC3    C1 9773   1.854   1.738  14.513  0.2451  0.0337  0.8179
  657TMC3    C2 9774   1.827   1.768  14.646  0.2788 -0.0066 -0.0369
  657TMC3    C3 9775   1.762   1.888  14.684 -0.2589 -0.4753 -0.1067
  657TMC3    C4 9776   1.808   1.822  14.415  0.3032  0.0782  1.0132
  657TMC3    C5 9777   1.752   1.940  14.454 -0.1348 -0.0600 -0.5207
  657TMC3    C6 9778   1.727   1.977  14.588  0.1938  0.1499 -0.3253
  657TMC3     C 9779   1.934   1.622  14.473 -0.0823 -0.8888  0.5861
  657TMC3     O 9780   1.928   1.592  14.352  0.4147 -0.4700  0.6413
  657TMC3     H 9781   1.884   1.714  14.721 -2.7263 -3.3839 -0.2076
  657TMC3    H1 9782   1.837   1.793  14.314  0.3668  1.1793  0.7139
  657TMC3    H2 9783   1.674   2.070  14.603  1.3920  0.4252  2.1434
  657TMC3    C7 9784   1.734   2.039  14.352  0.1580 -0.5566  0.9129
  657TMC3    C8 9785   1.776   1.946  14.821 -0.0098 -0.1616 -0.3958
  657TMC3    O1 9786   1.761   2.154  14.386  0.4140  0.2161 -0.5856
  657TMC3    O2 9787   1.732   2.061  14.837 -0.5505  0.1040 -0.4493
  658MPD2     C 9788   3.321   2.253  14.779  0.5662  1.1055  0.6914
  658MPD2    C1 9789   3.200   2.280  14.734  0.5050  0.4000  0.0227
  658MPD2    C2 9790   3.187   2.357  14.617  0.1158  0.1948 -1.4259
  658MPD2    C3 9791   3.300   2.401  14.548 -0.1253 -0.3560 -0.5248
  658MPD2    C4 9792   3.424   2.384  14.604 -0.2084 -0.2081 -0.5888
  658MPD2    C5 9793   3.429   2.311  14.722  0.5585  0.1692 -0.2496
  658MPD2     H 9794   3.089   2.383  14.581  0.3241  2.3848 -0.3931
  658MPD2    H1 9795   3.520   2.415  14.562  0.4857  0.7333  1.6877
  658MPD2    H2 9796   3.328   2.195  14.871 -1.0785 -0.2094 -0.0146
  658MPD2    H3 9797   3.529   2.309  14.765 -0.7431  0.4284  2.8123
  658MPD2     N 9798   3.282   2.466  14.421 -0.4361 -0.3851  0.4123
  658MPD2    H5 9799   3.185   2.472  14.391  0.9236  3.3234 -3.3308
  658MPD2    N1 9800   3.087   2.235  14.807 -0.6537  0.8463 -0.3176
  658MPD2    H7 9801   3.106   2.183  14.892 -2.3621  0.3323 -0.2464
  659TMC3    C1 9802   2.874   2.168  14.843  0.0645  0.9094 -0.6651
  659TMC3    C2 9803   2.869   2.238  14.965  0.1012 -0.1097 -0.2600
  659TMC3    C3 9804   2.755   2.231  15.039  1.0736 -0.3863  0.0961
  659TMC3    C4 9805   2.769   2.093  14.807  0.3949 -0.7820 -0.4554
  659TMC3    C5 9806   2.653   2.086  14.880  0.0085 -0.0127 -0.2949
  659TMC3    C6 9807   2.649   2.154  14.999 -0.2531  0.3141 -0.5154
  659TMC3     C 9808   2.965   2.217  14.749 -0.6336  0.1398 -0.2894
  659TMC3     O 9809   2.933   2.241  14.632 -0.3382  0.4272 -0.0634
  659TMC3     H 9810   2.945   2.315  14.973  0.2308 -0.5451  2.6253
  659TMC3    H1 9811   2.761   2.064  14.702 -0.2012  0.2668 -0.6911
  659TMC3    H2 9812   2.560   2.170  15.059  0.0159 -3.0803  0.7631
  659TMC3    C7 9813   2.536   2.105  14.800  0.7695  0.5498 -0.2147
  659TMC3    C8 9814   2.723   2.348  15.119  0.0546  0.1784 -0.0069
  659TMC3    O1 9815   2.474   2.210  14.805 -0.3597 -0.6281 -0.2035
  659TMC3    O2 9816   2.605   2.385  15.126 -0.2427  0.0081  0.5305
  660MPD2     C 9817   1.446   0.540  12.625  0.2432 -1.1151 -0.1336
  660MPD2    C1 9818   1.308   0.542  12.654  0.0821  0.1083  0.2222
  660MPD2    C2 9819   1.254   0.431  12.715  0.1698 -0.3799 -0.2961
  660MPD2    C3 9820   1.329   0.320  12.741 -0.2173  0.2921  0.0924
  660MPD2    C4 9821   1.460   0.309  12.706 -0.2030 -0.3667  0.3818
  660MPD2    C5 9822   1.515   0.419  12.650 -0.6221 -0.6151  0.7929
  660MPD2     H 9823   1.149   0.417  12.740  0.2171 -1.7469 -0.8697
  660MPD2    H1 9824   1.532   0.232  12.731 -0.5663 -0.6900  0.4364
  660MPD2    H2 9825   1.491   0.625  12.575 -1.3640  0.4154  0.9797
  660MPD2    H3 9826   1.621   0.411  12.630 -0.8091  1.6416 -1.0221
  660MPD2     N 9827   1.261   0.216  12.810 -0.2986  0.5040  0.0009
  660MPD2    H5 9828   1.167   0.238  12.840  0.1391 -0.0237  1.7778
  660MPD2    N1 9829   1.238   0.661  12.611 -0.1896 -0.6224  0.0151
  660MPD2    H7 9830   1.288   0.735  12.564 -1.2880 -0.4704 -0.9258
  661TMC3    C1 9831   1.043   0.788  12.554 -0.0408 -0.2621  1.0049
  661TMC3    C2 9832   1.105   0.823  12.434 -0.1036  0.1803 -0.3293
  661TMC3    C3 9833   1.014   0.847  12.328  0.8626 -0.1966  0.2821
  661TMC3    C4 9834   0.912   0.803  12.571  0.1634  0.3458 -0.6433
  661TMC3    C5 9835   0.825   0.837  12.471  0.4155 -0.2182  0.4087
  661TMC3    C6 9836   0.877   0.845  12.342 -0.0685  0.0887 -0.2142
  661TMC3     C 9837   1.109   0.685  12.632 -0.7358  0.4021  0.7445
  661TMC3     O 9838   1.029   0.619  12.703  0.5539 -0.5294 -0.0572
  661TMC3     H 9839   1.212   0.835  12.421  0.3055 -1.6812  1.3708
  661TMC3    H1 9840   0.881   0.780  12.672  0.7779 -1.3690 -0.8478
  661TMC3    H2 9841   0.813   0.857  12.254  0.7547 -0.8269 -0.9363
  661TMC3    C7 9842   0.688   0.790  12.504 -0.4300  0.1847 -0.3615
  661TMC3    C8 9843   1.065   0.875  12.187  0.6021  0.0559  0.0816
  661TMC3    O1 9844   0.657   0.776  12.622 -0.2491 -0.3723  0.2288
  661TMC3    O2 9845   0.980   0.911  12.107 -0.1119 -0.2632  0.8318
  662MPD2     C 9846   1.280   0.729  17.035  0.5344  0.8065 -0.4325
  662MPD2    C1 9847   1.316   0.651  17.140 -0.1197 -0.3158 -0.6154
  662MPD2    C2 9848   1.331   0.712  17.263  0.5233 -0.1655  0.5094
  662MPD2    C3 9849   1.311   0.853  17.279  0.2341 -0.0804 -0.2938
  662MPD2    C4 9850   1.284   0.930  17.167  0.3747 -0.3781  0.1046
  662MPD2    C5 9851   1.282   0.867  17.049 -0.5518 -0.7064  0.2512
  662MPD2     H 9852   1.361   0.649  17.346 -0.2730 -1.5737 -0.2503
  662MPD2    H1 9853   1.265   1.036  17.176 -2.4046 -1.0050  1.7226
  662MPD2    H2 9854   1.254   0.685  16.940 -2.5013 -1.5469  1.4951
  662MPD2    H3 9855   1.247   0.923  16.963 -0.0606  0.2800  0.7056
  662MPD2     N 9856   1.314   0.915  17.405 -0.3694 -0.8883  0.2618
  662MPD2    H5 9857   1.277   1.009  17.412  0.5285 -0.5506  0.5130
  662MPD2    N1 9858   1.340   0.509  17.138  0.2916 -0.0963 -0.4939
  662MPD2    H7 9859   1.373   0.468  17.225 -0.4346  0.7804  0.1989
  663TMC3    C1 9860   1.351   0.302  17.050 -0.0892  0.3396 -0.5184
  663TMC3    C2 9861   1.440   0.258  17.137  0.0369  0.1052  0.1677
  663TMC3    C3 9862   1.516   0.146  17.109 -0.1254 -0.3162  0.3349
  663TMC3    C4 9863   1.313   0.216  16.950  0.3769 -0.5012  0.0765
  663TMC3    C5 9864   1.358   0.093  16.954  0.1069 -0.3205 -1.2283
  663TMC3    C6 9865   1.460   0.045  17.031  0.7275  0.1402  0.0677
  663TMC3     C 9866   1.339   0.437  17.018  0.1198  0.4364  0.5643
  663TMC3     O 9867   1.297   0.472  16.909  0.1468 -0.7587 -0.4626
  663TMC3     H 9868   1.491   0.332  17.199 -1.3589  2.1501 -1.1082
  663TMC3    H1 9869   1.232   0.249  16.886  1.5210 -1.1433 -1.7088
  663TMC3    H2 9870   1.517   4.682  17.023  2.0689  0.9496  0.2026
  663TMC3    C7 9871   1.286   4.716  16.886 -0.2428  0.5779 -0.3153
  663TMC3    C8 9872   1.568   0.090  17.225  0.4995 -0.3117 -0.4625
  663TMC3    O1 9873   1.219   0.020  16.789 -0.1992 -0.3744  0.3472
  663TMC3    O2 9874   1.652   4.726  17.211 -0.8134 -0.0366 -0.0232
  664MPD2     C 9875   4.036   3.421  17.671 -0.3995 -0.7383  0.7265
  664MPD2    C1 9876   4.174   3.410  17.673  0.0288 -0.3304 -0.4520
  664MPD2    C2 9877   4.239   3.325   0.043  0.0219  0.1760 -0.7220
  664MPD2    C3 9878   4.164   3.247   0.132 -0.0422 -0.2105 -0.2171
  664MPD2    C4 9879   4.027   3.260   0.129  0.0346  0.2123 -0.2681
  664MPD2    C5 9880   3.963   3.339   0.039 -0.4024 -0.3874  0.2357
  664MPD2     H 9881   4.347   3.318   0.050  0.0784  0.1088 -1.7713
  664MPD2    H1 9882   3.955   3.203   0.187 -1.0633  3.3081  1.3825
  664MPD2    H2 9883   3.978   3.481  17.601 -0.7320 -2.5879 -0.5940
  664MPD2    H3 9884   3.856   3.330   0.025 -0.6819  1.1979  1.3788
  664MPD2     N 9885   4.226   3.157   0.223 -0.8112 -0.2265 -0.6125
  664MPD2    H5 9886   4.327   3.145   0.215 -0.6562  0.2228  0.6638
  664MPD2    N1 9887   4.261   3.484  17.588 -0.2029  0.6488 -0.0347
  664MPD2    H7 9888   4.357   3.454  17.592  0.0199  1.4005  0.2494
  665TMC3    C1 9889   4.276   3.040   0.427  0.5082 -0.4888 -0.3360
  665TMC3    C2 9890   4.232   3.034   0.556  0.1537 -0.0793 -0.7078
  665TMC3    C3 9891   4.326   3.008   0.649  0.2985  0.4943  0.5518
  665TMC3    C4 9892   4.406   3.018   0.391 -0.1835 -0.7098  0.7826
  665TMC3    C5 9893   4.499   2.987   0.492 -0.4485  0.1517 -0.3089
  665TMC3    C6 9894   4.456   2.978   0.619  0.8603 -0.4619 -0.2388
  665TMC3     C 9895   4.173   3.089   0.333 -0.1634 -0.1633  0.1648
  665TMC3     O 9896   4.056   3.068   0.367  0.0124 -0.3519 -0.0812
  665TMC3     H 9897   4.139   3.069   0.599  0.1024  0.5197 -1.3054
  665TMC3    H1 9898   4.435   3.014   0.286  0.5177  1.9526  0.8720
  665TMC3    H2 9899   4.514   2.961   0.709 -0.2266 -1.6491  0.2408
  665TMC3    C7 9900   4.622   3.052   0.471 -0.3697 -0.1247 -0.6313
  665TMC3    C8 9901   4.315   3.112   0.750  0.0208  0.3535 -0.0556
  665TMC3    O1 9902   4.694   3.022   0.373  0.3149  0.0656  0.1156
  665TMC3    O2 9903   4.401   3.199   0.743 -0.1939  0.0148  0.0234
  666TMC3    C1 9904   3.183   3.603   9.667 -0.1746  0.3613 -0.3190
  666TMC3    C2 9905   3.284   3.560   9.745  0.7513 -0.6919  0.1268
  666TMC3    C3 9906   3.397   3.634   9.779 -0.5065 -0.2211 -0.0903
  666TMC3    C4 9907   3.193   3.735   9.625 -0.2322  0.0462  0.0681
  666TMC3    C5 9908   3.307   3.804   9.660 -0.4629  0.2470  0.0462
  666TMC3    C6 9909   3.408   3.762   9.736  0.2677  0.3313  0.6046
  666TMC3     C 9910   3.099   3.507   9.588  0.1315 -0.0106  0.4363
  666TMC3     O 9911   3.128   3.390   9.589 -0.7704  0.3292 -0.1247
  666TMC3     H 9912   3.262   3.461   9.782  1.4799 -0.8543  0.1210
  666TMC3    H1 9913   3.135   3.774   9.542 -2.1344 -0.2366  1.2475
  666TMC3    H2 9914   3.502   3.815   9.747 -0.3439  1.7147 -0.7066
  666TMC3    C7 9915   3.311   3.944   9.632 -0.5072  0.3226  0.5082
  666TMC3    C8 9916   3.463   3.601   9.900  0.0581  0.5454  0.3812
  666TMC3    O1 9917   3.213   4.002   9.593  0.2512  0.0064  0.0104
  666TMC3    O2 9918   3.466   3.483   9.930  0.4194 -0.2058 -0.5129
  667MPD2     C 9919   0.273   3.781  14.342  0.2371  0.3478 -0.2678
  667MPD2    C1 9920   0.252   3.752  14.475  0.0719 -0.5004 -0.2667
  667MPD2    C2 9921   0.149   3.667  14.509  0.0787 -0.2273  0.1750
  667MPD2    C3 9922   0.064   3.611  14.410 -0.0885  0.3054  0.0164
  667MPD2    C4 9923   0.081   3.652  14.278 -0.6231 -0.4111 -0.2196
  667MPD2    C5 9924   0.186   3.734  14.248  0.0485  0.0329 -0.4023
  667MPD2     H 9925   0.138   3.654  14.616  1.5106 -1.2193  0.1949
  667MPD2    H1 9926   0.033   3.599  14.197 -0.2043  0.5137 -1.0901
  667MPD2    H2 9927   0.361   3.827  14.300  0.9327  1.2457  2.1621
  667MPD2    H3 9928   0.220   3.740  14.146 -1.3969  1.4019 -0.8100
  667MPD2     N 9929   4.701   3.516  14.427  0.2628 -0.4124  0.2680
  667MPD2    H5 9930   4.653   3.488  14.342 -2.0852 -0.0723  1.4772
  667MPD2    N1 9931   0.318   3.808  14.590  0.6879 -0.3693 -0.2870
  667MPD2    H7 9932   0.275   3.777  14.677  0.1470  1.0558 -0.0567
  668TMC3    C1 9933   0.476   3.945  14.720 -0.2300  0.3354  0.0069
  668TMC3    C2 9934   0.546   4.059  14.716 -0.3149 -0.9018 -0.3879
  668TMC3    C3 9935   0.561   4.133  14.829 -0.7144 -0.7130  0.5467
  668TMC3    C4 9936   0.415   3.900  14.831  0.2131 -0.4679 -0.0823
  668TMC3    C5 9937   0.435   3.974  14.944 -0.6436 -0.6192 -0.6913
  668TMC3    C6 9938   0.511   4.092  14.944  0.2683  0.6638  0.2324
  668TMC3     C 9939   0.422   3.900  14.588  0.1382 -0.1312  0.5929
  668TMC3     O 9940   0.476   3.947  14.490  0.4204 -0.0187 -0.7717
  668TMC3     H 9941   0.589   4.094  14.622 -2.1349 -0.5868 -1.1130
  668TMC3    H1 9942   0.359   3.807  14.827  1.0355 -0.9793  0.2665
  668TMC3    H2 9943   0.528   4.146  15.036  0.8224  0.6511  0.1381
  668TMC3    C7 9944   0.389   3.929  15.077  0.5055 -0.5238  0.3014
  668TMC3    C8 9945   0.610   4.271  14.827 -0.2392  0.4506  0.2754
  668TMC3    O1 9946   0.459   3.958  15.174  0.1726  0.1020 -0.0022
  668TMC3    O2 9947   0.583   4.342  14.924  0.3161 -0.3811  0.5697
  669TMC3    C1 9948   3.189   3.612  14.575  0.5757 -0.9555  0.1019
  669TMC3    C2 9949   3.065   3.668  14.550  0.2567  0.5509 -0.3366
  669TMC3    C3 9950   3.052   3.772  14.466 -0.8254  0.7794  0.1422
  669TMC3    C4 9951   3.304   3.666  14.525  0.3609  0.1323 -0.6146
  669TMC3    C5 9952   3.289   3.780  14.452  0.0567 -0.1261  0.0336
  669TMC3    C6 9953   3.166   3.835  14.428  0.5619 -0.7841  0.1362
  669TMC3     C 9954   3.194   3.507  14.676  0.5857  0.3020 -0.0047
  669TMC3     O 9955   3.085   3.450  14.701 -0.2924 -0.6935 -0.3146
  669TMC3     H 9956   2.976   3.623  14.591 -1.2409  2.5194 -1.4305
  669TMC3    H1 9957   3.406   3.640  14.554  0.3270 -0.4465 -1.0073
  669TMC3    H2 9958   3.168   3.915  14.354  1.0021 -1.3281 -0.4443
  669TMC3    C7 9959   3.403   3.841  14.393  0.5493  1.2180  0.2775
  669TMC3    C8 9960   2.920   3.824  14.452  0.2214  0.1827  0.2718
  669TMC3    O1 9961   3.400   3.962  14.378  0.3900  0.6071 -0.2791
  669TMC3    O2 9962   2.830   3.743  14.460 -0.2314  0.1168 -0.1594
  670MPD2     C 9963   2.069   0.900  13.241  0.0584 -0.4916 -0.3837
  670MPD2    C1 9964   2.122   0.999  13.325  0.1410 -0.6881 -0.0581
  670MPD2    C2 9965   2.058   1.032  13.446 -0.3141  0.3328 -0.2834
  670MPD2    C3 9966   1.929   0.991  13.462 -0.0761  0.3069  0.0534
  670MPD2    C4 9967   1.868   0.903  13.373 -0.0428  1.3344  0.1317
  670MPD2    C5 9968   1.938   0.857  13.260 -0.1036  0.0462  0.1561
  670MPD2     H 9969   2.108   1.096  13.518 -0.6349 -0.6800  0.8404
  670MPD2    H1 9970   1.773   0.856  13.396  0.3533  0.3260 -0.3105
  670MPD2    H2 9971   2.123   0.858  13.157  0.1619 -0.8279 -0.1470
  670MPD2    H3 9972   1.895   0.785  13.191  0.4771 -1.2473  1.1433
  670MPD2     N 9973   1.863   1.042  13.579 -0.2661 -0.0026  0.1846
  670MPD2    H5 9974   1.916   1.109  13.634  1.9799 -1.1423 -0.6060
  670MPD2    N1 9975   2.250   1.054  13.310 -0.0014  0.0344 -0.0226
  670MPD2    H7 9976   2.278   1.122  13.381  0.7163 -0.0128 -0.2586
  671TMC3    C1 9977   1.705   1.097  13.741  0.3376 -0.2207 -0.0969
  671TMC3    C2 9978   1.767   1.034  13.846 -0.0687 -0.9537  0.5294
  671TMC3    C3 9979   1.691   1.013  13.956  0.1937 -0.2579 -0.5986
  671TMC3    C4 9980   1.580   1.151  13.745  0.2550  0.3710 -0.7829
  671TMC3    C5 9981   1.513   1.149  13.866 -0.2939 -0.1827  0.4406
  671TMC3    C6 9982   1.574   1.083  13.973  0.0265  0.2865 -0.1855
  671TMC3     C 9983   1.727   1.037  13.606  0.4557  0.2699  0.9787
  671TMC3     O 9984   1.626   1.006  13.538 -0.3221  0.5897 -0.1289
  671TMC3     H 9985   1.846   0.965  13.820  0.8592 -1.2173  4.0512
  671TMC3    H1 9986   1.541   1.206  13.660 -1.5483  1.0297  0.4698
  671TMC3    H2 9987   1.522   1.052  14.063  0.2985  1.4186  0.3608
  671TMC3    C7 9988   1.377   1.118  13.844  0.0633  0.7553  0.0040
  671TMC3    C8 9989   1.694   0.872  14.002 -0.0758 -0.0630  0.2648
  671TMC3    O1 9990   1.345   1.079  13.732  0.4982 -0.3075  0.0229
  671TMC3    O2 9991   1.802   0.813  14.005 -0.2532  0.2704 -0.2293
  672MPD2     C 9992   1.910   1.822   0.900 -0.1806  0.2164  0.3898
  672MPD2    C1 9993   1.995   1.740   0.831  0.1400  0.5568 -0.3186
  672MPD2    C2 9994   2.130   1.767   0.824 -0.8514  0.4066 -0.3455
  672MPD2    C3 9995   2.185   1.873   0.896  0.0309  0.1064  0.2809
  672MPD2    C4 9996   2.099   1.954   0.974  0.1375  0.2596 -0.1144
  672MPD2    C5 9997   1.965   1.928   0.975 -1.4418  0.4652 -0.6941
  672MPD2     H 9998   2.186   1.698   0.762 -0.6575  0.3178 -0.0715
  672MPD2    H1 9999   2.131   2.044   1.025  2.0547 -0.2131 -0.4674
  672MPD2    H210000   1.814   1.785   0.935 -0.0585  0.2107  0.7223
  672MPD2    H310001   1.901   1.997   1.029 -1.6545 -2.2662  2.5506
  672MPD2     N10002   2.313   1.915   0.879 -0.1694 -0.1589 -0.3201
  672MPD2    H510003   2.339   2.005   0.916  0.9894 -1.4749  2.0133
  672MPD2    N110004   1.958   1.621   0.764 -0.0332 -0.2908 -0.4582
  672MPD2    H710005   2.019   1.572   0.701  0.0454  0.6124 -1.0788
  673TMC3    C110006   1.816   1.462   0.654 -0.1864  0.4922  0.3687
  673TMC3    C210007   1.916   1.369   0.646  0.3417  0.5653  0.3361
  673TMC3    C310008   1.883   1.265   0.559  0.2147 -0.1470  0.4413
  673TMC3    C410009   1.701   1.472   0.583  0.6782 -0.3288 -0.4893
  673TMC3    C510010   1.683   1.370   0.501 -0.1324 -0.0269 -0.5288
  673TMC3    C610011   1.766   1.265   0.484 -0.1089  0.1854  0.3210
  673TMC3     C10012   1.829   1.574   0.742 -0.7852 -0.6533  0.7155
  673TMC3     O10013   1.720   1.621   0.774 -0.1040  0.0457  0.3881
  673TMC3     H10014   2.011   1.389   0.695  0.1156  0.3176  0.8806
  673TMC3    H110015   1.628   1.552   0.594  0.6423 -0.5538  0.8923
  673TMC3    H210016   1.752   1.190   0.407 -1.1628 -0.5855  1.2692
  673TMC3    C710017   1.552   1.362   0.437  0.9065  0.0770 -0.7519
  673TMC3    C810018   1.981   1.163   0.529  0.0360  0.2986 -0.1509
  673TMC3    O110019   1.520   1.252   0.390 -0.0913 -0.1166  0.4406
  673TMC3    O210020   1.962   1.100   0.427  0.0194 -0.2948  0.3585
  674MPD2     C10021   1.559   1.868  17.614 -0.0241  0.2985 -0.1746
  674MPD2    C110022   1.494   1.751  17.645  0.3744  0.4458  0.0298
  674MPD2    C210023   1.358   1.735  17.624  0.4237 -0.2536  0.2959
  674MPD2    C310024   1.292   1.845  17.584 -0.6927  0.0659 -0.7559
  674MPD2    C410025   1.358   1.960  17.544  0.0023  0.7075 -0.2501
  674MPD2    C510026   1.491   1.970  17.556  0.0663 -0.2993  0.1891
  674MPD2     H10027   1.302   1.649  17.659 -1.5720  1.1317  0.5204
  674MPD2    H110028   1.301   2.047  17.515  0.2260  0.7380 -0.5872
  674MPD2    H210029   1.666   1.869  17.629 -0.1017 -0.6197  0.4708
  674MPD2    H310030   1.547   2.061  17.544 -0.1896 -0.2432 -0.5469
  674MPD2     N10031   1.151   1.841  17.585 -0.1312 -0.3480  0.1920
  674MPD2    H510032   1.100   1.759  17.615  0.1136 -0.4142  0.4320
  674MPD2    N110033   1.577   1.659  17.714  0.2463 -0.2873  0.9004
  674MPD2    H710034   1.652   1.699   0.052  2.4740  0.1879 -2.5175
  675TMC3    C110035   1.661   1.443   0.051 -0.4085 -0.2136  0.5576
  675TMC3    C210036   1.633   1.309   0.071  0.2123  0.1532 -0.6450
  675TMC3    C310037   1.733   1.235   0.132  0.4690  0.5614 -0.0343
  675TMC3    C410038   1.781   1.498   0.084  0.5952  0.5068  0.2842
  675TMC3    C510039   1.881   1.423   0.139 -0.2894  0.1398  0.6940
  675TMC3    C610040   1.854   1.290   0.167  0.0695  0.2883  0.6596
  675TMC3     C10041   1.563   1.522  17.703  0.4931 -0.0950 -0.4353
  675TMC3     O10042   1.484   1.461  17.633 -0.2234  0.0689 -0.0587
  675TMC3     H10043   1.528   1.282   0.074  0.0512  0.6274 -2.0000
  675TMC3    H110044   1.811   1.596   0.047  0.3007  0.3207 -0.4362
  675TMC3    H210045   1.924   1.217   0.205 -1.2259 -0.7769  1.0014
  675TMC3    C710046   1.990   1.487   0.208  0.1321 -0.3877  0.6734
  675TMC3    C810047   1.710   1.094   0.153  0.4818  0.4406  0.0751
  675TMC3    O110048   1.977   1.610   0.220 -0.2726 -0.2274  0.5195
  675TMC3    O210049   1.809   1.025   0.135  0.3382  0.4943  0.6221
  676MPD2     C10050   0.119   4.493  10.960 -0.1416 -0.1878  0.2095
  676MPD2    C110051   0.003   4.427  11.001  0.9852  0.1304  0.0227
  676MPD2    C210052   4.665   4.345  10.915  0.1934  0.6248 -0.0304
  676MPD2    C310053   4.716   4.306  10.788 -0.1312  0.0722  0.4940
  676MPD2    C410054   0.110   4.358  10.752  0.3102 -0.3248  1.2387
  676MPD2    C510055   0.162   4.452  10.836  0.2451 -0.7302  0.8469
  676MPD2     H10056   4.564   4.312  10.938  0.7788 -1.3839 -0.3487
  676MPD2    H110057   0.161   4.334  10.659 -2.1593  1.7630 -0.6300
  676MPD2    H210058   0.181   4.554  11.025 -0.2852  0.9319 -0.7035
  676MPD2    H310059   0.249   4.507  10.803  0.7204 -0.4967  2.4901
  676MPD2     N10060   4.671   4.194  10.717  0.2215 -0.8376  0.3601
  676MPD2    H510061   4.715   4.166  10.630 -0.1074 -1.6921  0.4662
  676MPD2    N110062   4.682   4.436  11.130 -0.1699  0.8047 -0.6094
  676MPD2    H710063   4.604   4.377  11.157  1.6195 -1.8255 -1.1385
  677TMC3    C110064   4.661   4.495  11.354 -0.0180  0.3030 -0.9307
  677TMC3    C210065   4.541   4.425  11.357  0.1252  0.1630  0.6785
  677TMC3    C310066   4.465   4.435  11.474  0.2995  0.1752  0.4531
  677TMC3    C410067   4.695   4.584  11.449 -0.5530 -0.1791  1.0115
  677TMC3    C510068   4.621   4.576  11.569 -0.2924  0.9487  0.6047
  677TMC3    C610069   4.508   4.504  11.584  0.1218  0.7483  0.1514
  677TMC3     C10070   0.006   4.512  11.230 -0.0827  0.3095 -0.2108
  677TMC3     O10071   0.096   4.599  11.224  0.0045  0.1163  0.0399
  677TMC3     H10072   4.509   4.366  11.272 -0.8633 -0.0591  1.1994
  677TMC3    H110073   0.049   4.653  11.444  0.2788 -1.1770  1.0930
  677TMC3    H210074   4.441   4.524  11.668  0.4322 -1.0271  0.8310
  677TMC3    C710075   4.630   4.681  11.658  0.2888 -0.5068  0.4282
  677TMC3    C810076   4.385   4.319  11.505  0.4361 -0.5367 -0.3477
  677TMC3    O110077   4.583   4.650  11.771 -0.5278  0.2688  0.3323
  677TMC3    O210078   4.411   4.219  11.442 -0.1537 -0.1137  0.1188
  678MPD2     C10079   0.718   4.345   1.417 -0.9973  0.3467  0.1589
  678MPD2    C110080   0.719   4.311   1.289 -0.2778  0.0875 -0.4248
  678MPD2    C210081   0.601   4.294   1.220  0.3139 -0.4194  0.2749
  678MPD2    C310082   0.475   4.299   1.283 -0.1103  0.0520  0.4682
  678MPD2    C410083   0.470   4.336   1.418  0.7213  0.6183  0.3304
  678MPD2    C510084   0.595   4.351   1.477  0.0424  0.6537 -0.1016
  678MPD2     H10085   0.611   4.271   1.115 -0.2318  2.4247 -0.4228
  678MPD2    H110086   0.377   4.351   1.471  1.0998 -2.5126  1.8886
  678MPD2    H210087   0.807   4.368   1.474  0.0496 -1.8936 -0.5957
  678MPD2    H310088   0.577   4.384   1.579 -0.4285 -1.4310  0.4979
  678MPD2     N10089   0.368   4.277   1.194 -0.1085  1.1431 -0.0401
  678MPD2    H510090   0.391   4.265   1.095 -1.0196  2.0203 -0.3621
  678MPD2    N110091   0.839   4.284   1.212  0.3518  0.0540 -0.0248
  678MPD2    H710092   0.836   4.250   1.116 -1.1646  0.3129 -0.0648
  679TMC3    C110093   1.244   4.141   1.061  0.2927 -0.1928 -0.5919
  679TMC3    C210094   1.156   4.164   1.169 -0.2691 -0.4675  0.5724
  679TMC3    C310095   1.055   4.251   1.158  0.5036 -0.2484 -0.4349
  679TMC3    C410096   1.222   4.198   0.938 -0.2410  0.4665 -0.4236
  679TMC3    C510097   1.100   4.262   0.923  0.1475  0.4326  0.4607
  679TMC3    C610098   1.024   4.296   1.032  0.0547  0.3517  0.5288
  679TMC3     C10099   1.332   4.027   1.066  0.5885  0.2495 -0.1104
  679TMC3     O10100   1.348   3.969   0.960  0.7348  0.6957 -0.4877
  679TMC3     H10101   1.171   4.111   1.263  0.0894 -2.5715 -0.6755
  679TMC3    H110102   1.278   4.175   0.847 -0.2967  2.5580 -0.9802
  679TMC3    H210103   0.930   4.343   1.005 -0.1784 -0.8887 -0.7901
  679TMC3    C710104   1.074   4.325   0.797  0.4876  0.7085  0.3098
  679TMC3    C810105   0.968   4.293   1.262 -0.3850  0.5914 -0.1789
  679TMC3    O110106   1.007   4.427   0.804 -0.3562 -0.0861 -0.8567
  679TMC3    O210107   1.009   4.307   1.378 -0.1154 -0.0562 -0.8716
  680MPD2     C10108   0.945   3.359  13.585 -0.1393 -0.3932 -0.0236
  680MPD2    C110109   0.977   3.316  13.717  0.8578 -0.2568  0.1164
  680MPD2    C210110   1.056   3.399  13.796 -0.4370  0.5811  0.5137
  680MPD2    C310111   1.110   3.521  13.747 -0.4073 -0.4929  1.0714
  680MPD2    C410112   1.083   3.554  13.615  0.4973 -0.5325  0.1933
  680MPD2    C510113   1.005   3.473  13.540  0.5542  0.7855 -0.7294
  680MPD2     H10114   1.069   3.366  13.899 -3.3338 -2.8410 -0.2363
  680MPD2    H110115   1.137   3.632  13.563 -1.5836  0.0907 -0.9784
  680MPD2    H210116   0.881   3.312  13.510 -0.2422  0.0927 -0.2391
  680MPD2    H310117   0.973   3.504  13.441  0.4497  0.9865 -0.6328
  680MPD2     N10118   1.196   3.609  13.814 -0.0220  0.2153  0.2879
  680MPD2    H510119   1.217   3.695  13.765  1.7870  0.5388  1.6585
  680MPD2    N110120   0.920   3.197  13.766  0.0019  0.3570 -0.0300
  680MPD2    H710121   0.938   3.173  13.863  1.3696  0.1135 -0.3430
  681TMC3    C110122   0.830   2.963  13.750  0.3617 -0.5661 -0.2976
  681TMC3    C210123   0.790   2.963  13.880  0.0574  0.3732 -0.5213
  681TMC3    C310124   0.741   2.840  13.925  0.0270  0.7034 -1.0681
  681TMC3    C410125   0.805   2.865  13.658 -0.4669 -0.1809  0.0758
  681TMC3    C510126   0.749   2.750  13.701 -0.3072  0.4065 -0.2598
  681TMC3    C610127   0.717   2.736  13.834  0.7855 -0.2975  0.1390
  681TMC3     C10128   0.870   3.091  13.688  0.4727  0.4020 -0.4110
  681TMC3     O10129   0.878   3.091  13.569 -0.1501  0.3771 -0.1047
  681TMC3     H10130   0.826   3.044  13.943  0.2570 -0.8975  1.0053
  681TMC3    H110131   0.853   2.878  13.562 -0.4037  2.2932  0.4381
  681TMC3    H210132   0.685   2.637  13.866  0.4525 -0.6651 -1.3103
  681TMC3    C710133   0.790   2.628  13.638  0.2013  0.3259 -0.4313
  681TMC3    C810134   0.741   2.796  14.065  0.3457  0.3958  0.4057
  681TMC3    O110135   0.701   2.545  13.617  0.3115 -0.0020  0.1575
  681TMC3    O210136   0.664   2.704  14.083  0.2648 -0.2681 -0.0989
  682MPD2     C10137   3.288   0.052  10.476 -0.0211  0.1755  0.1280
  682MPD2    C110138   3.194   4.686  10.441 -0.0428  0.0144 -0.2546
  682MPD2    C210139   3.125   4.622  10.542 -0.0868  0.4621 -0.3309
  682MPD2    C310140   3.140   4.658  10.677  0.9659  0.1878 -0.6039
  682MPD2    C410141   3.224   0.032  10.705  0.5766  0.0044 -0.1456
  682MPD2    C510142   3.300   0.084  10.606  0.0870 -0.9637  0.2269
  682MPD2     H10143   3.054   4.548  10.507 -1.3309  0.8541  1.3962
  682MPD2    H110144   3.249   0.056  10.808  2.2445 -0.1953 -0.5139
  682MPD2    H210145   3.339   0.108  10.399 -1.8164 -0.1233 -1.2906
  682MPD2    H310146   3.364   0.170  10.626 -0.6316 -0.5421  0.7187
  682MPD2     N10147   3.074   4.588  10.783 -0.3234 -0.0185 -0.1220
  682MPD2    H510148   3.099   4.607  10.880 -0.4637  3.4496 -0.7473
  682MPD2    N110149   3.160   4.656  10.304 -0.5022 -0.4073 -0.0654
  682MPD2    H710150   3.090   4.584  10.289 -0.4484 -0.3039 -0.8291
  683TMC3    C110151   3.083   4.393  11.070 -0.6048 -0.1905  0.1769
  683TMC3    C210152   3.088   4.256  11.039 -0.3329  0.2556 -0.3583
  683TMC3    C310153   3.012   4.201  10.936 -0.4467 -0.2013 -0.4637
  683TMC3    C410154   3.018   4.473  10.986 -0.8009  0.0916 -0.1458
  683TMC3    C510155   2.941   4.419  10.880  0.2961 -0.3679 -0.3429
  683TMC3    C610156   2.944   4.283  10.854  0.4597 -0.1584 -0.1003
  683TMC3     C10157   3.172   4.470  11.159  0.1025 -0.1049 -0.9271
  683TMC3     O10158   3.187   4.589  11.124 -0.1799  0.5666  0.0553
  683TMC3     H10159   3.151   4.197  11.105 -1.0210  0.6559  0.6583
  683TMC3    H110160   3.002   4.571  11.029 -0.8930 -0.0337  0.1026
  683TMC3    H210161   2.867   4.251  10.785  0.0669  0.1910  0.1738
  683TMC3    C710162   2.975   4.496  10.766  0.4230 -0.1597 -0.1601
  683TMC3    C810163   3.000   4.057  10.895 -0.1257 -0.7310 -0.3887
  683TMC3    O110164   2.926   4.452  10.666  0.3027  0.1198 -0.4700
  683TMC3    O210165   2.937   4.029  10.792  0.0843  0.3411  0.2830
  684MPD2     C10166   1.591   3.609  16.390 -0.3577  0.1536  0.1798
  684MPD2    C110167   1.481   3.659  16.328  0.9527 -0.1134  0.8785
  684MPD2    C210168   1.429   3.782  16.363  0.2107 -0.6805  0.1806
  684MPD2    C310169   1.495   3.865  16.452  0.4683  0.2725  0.1563
  684MPD2    C410170   1.603   3.816  16.524  0.3022  0.0626 -0.0095
  684MPD2    C510171   1.655   3.690  16.488 -0.3711  0.4301  0.4774
  684MPD2     H10172   1.346   3.816  16.302  1.1621 -0.6896 -1.1167
  684MPD2    H110173   1.647   3.879  16.600  0.3936  1.2138 -1.0241
  684MPD2    H210174   1.622   3.509  16.363  0.8984  0.5968  0.0109
  684MPD2    H310175   1.737   3.643  16.541 -0.1568 -0.1942 -0.3924
  684MPD2     N10176   1.457   4.003  16.475 -0.3845  0.5407 -0.6422
  684MPD2    H510177   1.498   4.053  16.554 -3.4333  1.9419  0.0309
  684MPD2    N110178   1.415   3.599  16.216  0.4671  0.1684  0.0366
  684MPD2    H710179   1.344   3.652  16.166 -0.4851 -0.2605  0.9506
  685TMC3    C110180   1.419   3.477  16.005 -0.2325 -0.3301  0.2359
  685TMC3    C210181   1.330   3.571  15.955  0.4943 -0.4875  0.7202
  685TMC3    C310182   1.333   3.583  15.818 -0.2566  0.4723 -0.1998
  685TMC3    C410183   1.487   3.391  15.926 -0.1838  0.0704  0.1891
  685TMC3    C510184   1.492   3.412  15.788  0.3868  0.1207 -0.4519
  685TMC3    C610185   1.425   3.518  15.738 -0.1191 -0.7881  0.4195
  685TMC3     C10186   1.473   3.497  16.138 -0.4545  0.6979 -0.7351
  685TMC3     O10187   1.570   3.428  16.163 -0.0925 -1.0061 -0.3036
  685TMC3     H10188   1.276   3.640  16.020  0.8053 -0.5968  1.0955
  685TMC3    H110189   1.552   3.316  15.971 -0.9021 -1.2464 -0.9432
  685TMC3    H210190   1.413   3.541  15.633  0.8451  1.4354  0.7783
  685TMC3    C710191   1.620   3.377  15.734  0.1315  0.2456 -0.4001
  685TMC3    C810192   1.254   3.688  15.761  0.1235 -0.3043  0.3935
  685TMC3    O110193   1.671   3.276  15.783 -0.2427 -0.1078 -0.0386
  685TMC3    O210194   1.285   3.741  15.653  0.3304 -0.0538 -0.1351
  686MPD2     C10195   2.340   3.912  15.042  0.0639  0.0045 -0.4374
  686MPD2    C110196   2.411   3.816  15.108 -0.7006 -0.1257  0.0289
  686MPD2    C210197   2.550   3.832  15.114 -0.6634 -0.9885 -0.3141
  686MPD2    C310198   2.608   3.948  15.072  0.6501  0.0035  0.1873
  686MPD2    C410199   2.529   4.043  15.014  0.6517  0.1156  0.3051
  686MPD2    C510200   2.393   4.023  15.007 -0.3723  0.6098  0.2037
  686MPD2     H10201   2.617   3.755  15.150  0.0337 -0.1054  0.2679
  686MPD2    H110202   2.567   4.138  14.978 -0.5219  1.0672  1.5570
  686MPD2    H210203   2.231   3.912  15.041  0.0630  2.6883 -0.0061
  686MPD2    H310204   2.325   4.089  14.956 -1.1659  0.0889  0.5850
  686MPD2     N10205   2.746   3.984  15.078 -0.4021 -0.2203 -0.0574
  686MPD2    H510206   2.764   4.081  15.052  2.3801 -0.6118  0.4020
  686MPD2    N110207   2.345   3.707  15.164  0.2774 -1.1218  0.7559
  686MPD2    H710208   2.252   3.680  15.134 -0.3644  3.3709 -1.2482
  687TMC3    C110209   2.984   3.962  15.133 -0.0855  0.7961 -0.1096
  687TMC3    C210210   3.008   4.068  15.049 -0.3363 -0.8513  0.4416
  687TMC3    C310211   3.144   4.097  15.042 -0.1112 -0.6026  0.5712
  687TMC3    C410212   3.086   3.889  15.202 -0.2538 -0.0595  0.0857
  687TMC3    C510213   3.216   3.921  15.179  0.0492  0.5645  0.3103
  687TMC3    C610214   3.247   4.028  15.106  0.2403  0.1929 -0.5091
  687TMC3     C10215   2.848   3.902  15.124 -0.0663 -0.9412  0.1471
  687TMC3     O10216   2.836   3.797  15.184 -0.0770 -0.2441  0.1545
  687TMC3     H10217   2.930   4.122  14.995  0.4363  0.2885  0.4627
  687TMC3    H110218   3.062   3.810  15.272 -1.1614 -2.0575 -2.4363
  687TMC3    H210219   3.349   4.060  15.084 -0.1517  0.0610 -2.4997
  687TMC3    C710220   3.312   3.838  15.248  0.4636  0.0529  0.2569
  687TMC3    C810221   3.179   4.228  14.981 -0.0252  0.4639 -0.0608
  687TMC3    O110222   3.407   3.902  15.294 -0.2182  0.7391 -0.4502
  687TMC3    O210223   3.296   4.253  14.969 -0.2805  0.8458 -0.1817
  688MPD2     C10224   2.161   2.740  17.167 -0.3717 -0.0037  0.3470
  688MPD2    C110225   2.221   2.617  17.153  0.4590  0.0667  0.2922
  688MPD2    C210226   2.307   2.597  17.042 -0.1535 -0.4469  0.4033
  688MPD2    C310227   2.323   2.694  16.947  0.0722 -0.6453 -0.1875
  688MPD2    C410228   2.257   2.816  16.964 -0.8720  0.4013  0.2899
  688MPD2    C510229   2.179   2.837  17.069  0.7099  0.0242  0.2781
  688MPD2     H10230   2.364   2.505  17.038  4.5969  2.4557  0.7583
  688MPD2    H110231   2.264   2.901  16.897  2.1570  0.3084  0.5214
  688MPD2    H210232   2.092   2.763  17.247 -1.7926 -0.1048 -0.8492
  688MPD2    H310233   2.138   2.936  17.083  2.2067  0.9303 -1.8009
  688MPD2     N10234   2.397   2.666  16.827  0.0339 -0.0851 -0.1619
  688MPD2    H510235   2.400   2.745  16.764 -2.1854  0.2870  0.1912
  688MPD2    N110236   2.205   2.512  17.245 -0.3387 -0.8063 -0.3832
  688MPD2    H710237   2.259   2.427  17.231  0.3610 -1.0452  3.8543
  689TMC3    C110238   2.188   2.433  17.467 -0.8484  0.4253 -0.2465
  689TMC3    C210239   2.201   2.505  17.583 -0.3950  0.1669  0.6167
  689TMC3    C310240   2.153   2.441  17.694 -0.2472 -0.2214 -0.7182
  689TMC3    C410241   2.142   2.308  17.463  0.8355 -0.0132  0.2305
  689TMC3    C510242   2.108   2.246  17.584  0.2506 -0.5477 -1.3099
  689TMC3    C610243   2.114   2.311  17.703  0.1984  0.4074  0.0536
  689TMC3     C10244   2.139   2.524  17.362 -0.8006 -0.1265 -0.4991
  689TMC3     O10245   2.060   2.608  17.398 -0.1360  0.1644 -0.4007
  689TMC3     H10246   2.247   2.603  17.575 -0.0702 -0.1019 -0.8812
  689TMC3    H110247   2.139   2.255  17.368  2.1836 -0.4210  0.4175
  689TMC3    H210248   2.064   2.278   0.076 -0.0140 -1.4522 -0.7522
  689TMC3    C710249   2.045   2.116  17.584  0.6156 -0.9203 -0.0509
  689TMC3    C810250   2.140   2.519   0.096 -0.0097  0.2497 -0.0175
  689TMC3    O110251   2.030   2.074  17.697  0.5504 -0.4935 -0.0121
  689TMC3    O210252   2.147   2.462   0.206 -0.4060  0.2818 -0.5594
  690MPD2     C10253   4.513   4.723  15.722 -0.1692 -0.4810 -0.2556
  690MPD2    C110254   4.453   0.014  15.604 -0.1990 -0.5639 -0.0586
  690MPD2    C210255   4.526   0.039  15.492 -0.9301  0.0062  0.4182
  690MPD2    C310256   4.663   0.060  15.505  0.1183  0.4272 -0.5849
  690MPD2    C410257   4.719   0.052  15.629 -0.3574  0.4208  0.0187
  690MPD2    C510258   4.650   0.012  15.742 -0.1987 -0.1996  0.1605
  690MPD2     H10259   4.473   0.044  15.398  0.8461 -0.0802 -0.5954
  690MPD2    H110260   0.085   0.100  15.647 -0.1541  0.2803 -0.6560
  690MPD2    H210261   4.458   4.692  15.810  3.0246  0.8010  2.2034
  690MPD2    H310262   4.695   4.728  15.839  0.1619 -1.8066 -0.2145
  690MPD2     N10263   0.007   0.069  15.378  0.1899 -0.3835  0.3219
  690MPD2    H510264   4.682   0.099  15.298  0.5035 -1.2375 -0.2024
  690MPD2    N110265   4.313   4.719  15.584  0.7333  0.1032 -0.3212
  690MPD2    H710266   4.275   4.716  15.490  1.5968 -1.4099 -0.6314
  691TMC3    C110267   4.105   4.621  15.658 -0.6558  0.2836 -0.3081
  691TMC3    C210268   3.992   4.655  15.722 -0.3016 -0.0530 -0.2591
  691TMC3    C310269   3.899   4.561  15.739  0.3639 -0.3580 -1.0283
  691TMC3    C410270   4.129   4.491  15.613  0.2038  0.1131 -0.3625
  691TMC3    C510271   4.037   4.398  15.643 -0.6077 -0.1543 -0.1821
  691TMC3    C610272   3.918   4.431  15.710  0.7316 -0.0551 -0.8264
  691TMC3     C10273   4.224   4.707  15.683  0.0759 -0.3897  0.3007
  691TMC3     O10274   4.224   4.719  15.809 -0.1963 -0.2897 -0.5937
  691TMC3     H10275   3.977   0.030  15.750 -0.2252  0.5141 -2.3494
  691TMC3    H110276   4.220   4.462  15.562 -0.0359 -0.1093 -0.6577
  691TMC3    H210277   3.850   4.354  15.745 -1.3016  1.2589 -1.8394
  691TMC3    C710278   4.091   4.268  15.658 -0.5542  0.2480  1.0545
  691TMC3    C810279   3.786   4.593  15.822 -0.7082 -0.3793 -0.1120
  691TMC3    O110280   4.211   4.251  15.692 -0.0692  0.1015 -0.6633
  691TMC3    O210281   3.735   4.501  15.887  0.5099  0.0763 -0.1700
  692TMC3    C110282   1.174   0.510  15.670 -0.2763 -0.6434 -0.0027
  692TMC3    C210283   1.302   0.549  15.695  0.1058 -0.4546  0.7792
  692TMC3    C310284   1.402   0.450  15.718 -0.5135 -0.1058 -0.2761
  692TMC3    C410285   1.141   0.378  15.649 -0.3399  0.0977  1.0579
  692TMC3    C510286   1.238   0.286  15.678 -0.4092 -0.8442 -0.0997
  692TMC3    C610287   1.364   0.315  15.720 -0.7563  0.5390  0.4617
  692TMC3     C10288   1.067   0.594  15.742 -1.0406  0.0264  0.0782
  692TMC3     O10289   0.955   0.545  15.742  0.3221 -0.1047 -0.1670
  692TMC3     H10290   1.336   0.642  15.650  2.1042 -1.5774 -0.0548
  692TMC3    H110291   1.041   0.354  15.615 -1.4444  4.0790  1.5120
  692TMC3    H210292   1.449   0.248  15.723 -1.0153  0.1808 -0.0857
  692TMC3    C710293   1.198   0.149  15.671  0.3273 -0.2964 -0.2563
  692TMC3    C810294   1.496   0.482  15.829 -0.5426  0.3002 -0.6139
  692TMC3    O110295   1.104   0.118  15.593  0.5393 -0.5953  0.4265
  692TMC3    O210296   1.560   0.393  15.890  0.0291 -0.3731 -0.1443
  693MPD2     C10297   0.960   3.076  11.295 -0.3384 -0.1994  0.2667
  693MPD2    C110298   0.882   3.034  11.185 -0.4748  0.3166  0.5423
  693MPD2    C210299   0.929   2.941  11.090  0.3149  0.9046 -0.0263
  693MPD2    C310300   1.051   2.879  11.111  0.0789  0.0046 -0.5798
  693MPD2    C410301   1.120   2.918  11.221 -0.8106 -0.2394  0.4371
  693MPD2    C510302   1.071   3.004  11.321  0.0735  0.0328 -0.1469
  693MPD2     H10303   0.862   2.902  11.014  1.4213 -1.4241  0.2163
  693MPD2    H110304   1.210   2.863  11.246 -0.4255 -0.4750 -1.4992
  693MPD2    H210305   0.931   3.145  11.374  0.5065  0.1940  0.2308
  693MPD2    H310306   1.126   3.019  11.412 -0.4779  3.2100 -0.3552
  693MPD2     N10307   1.105   2.788  11.021  0.3039  0.6790 -0.1982
  693MPD2    H510308   1.205   2.773  11.027  0.7340  2.6359 -2.5551
  693MPD2    N110309   0.744   3.073  11.178  0.1314 -0.4493 -0.3034
  693MPD2    H710310   0.709   3.127  11.256 -0.3302  1.9537 -2.1576
  694TMC3    C110311   0.520   3.091  11.107 -0.8987  0.2114  0.0081
  694TMC3    C210312   0.425   3.063  11.016  0.1349 -0.0718  0.6579
  694TMC3    C310313   0.294   3.052  11.059  0.0487 -0.9554 -0.1732
  694TMC3    C410314   0.489   3.094  11.239  0.4342  0.5351 -0.6025
  694TMC3    C510315   0.356   3.082  11.274  0.1800 -0.2171  0.1392
  694TMC3    C610316   0.253   3.052  11.184 -0.6559  0.2336  0.5153
  694TMC3     C10317   0.661   3.081  11.066  0.9880  0.1975 -0.0519
  694TMC3     O10318   0.688   3.056  10.951 -0.6613 -0.5552 -0.2826
  694TMC3     H10319   0.445   3.056  10.910  1.4887  0.2129  0.8895
  694TMC3    H110320   0.560   3.112  11.319  0.0692 -0.3403 -0.0791
  694TMC3    H210321   0.148   3.054  11.211 -0.8274  2.6025 -0.2834
  694TMC3    C710322   0.328   3.115  11.412  0.5632  0.4223 -0.6850
  694TMC3    C810323   0.196   3.023  10.961 -0.6384 -0.3256 -0.2001
  694TMC3    O110324   0.400   3.190  11.477 -0.6382  0.2223  0.1988
  694TMC3    O210325   0.123   2.928  10.989  0.3108 -0.1203  0.4163
  695MPD2     C10326   1.761   0.574  13.462 -0.2576  0.5275  0.4066
  695MPD2    C110327   1.691   0.585  13.581  0.4856  0.1577  0.1490
  695MPD2    C210328   1.554   0.604  13.575  0.9287  0.6064  0.1366
  695MPD2    C310329   1.481   0.611  13.460  0.2495  0.1035 -0.6714
  695MPD2    C410330   1.553   0.593  13.344 -0.3222 -0.2933 -0.0576
  695MPD2    C510331   1.690   0.570  13.347  0.5629  0.5092  0.1689
  695MPD2     H10332   1.494   0.617  13.664 -0.4771 -1.7314 -0.4558
  695MPD2    H110333   1.501   0.595  13.249  0.7051 -1.3857 -0.6418
  695MPD2    H210334   1.868   0.573  13.446 -0.1870 -0.2849  0.9117
  695MPD2    H310335   1.744   0.549  13.255  1.0084 -0.4531  0.6585
  695MPD2     N10336   1.342   0.619  13.463 -0.2912 -0.3724  0.2075
  695MPD2    H510337   1.299   0.611  13.555  0.9824 -0.8504  0.7524
  695MPD2    N110338   1.759   0.581  13.702 -0.3273  0.4821  0.1208
  695MPD2    H710339   1.705   0.558  13.785  1.5254  2.5770  1.9319
  696TMC3    C110340   1.117   0.606  13.409 -0.0507 -0.3923  0.6064
  696TMC3    C210341   1.100   0.578  13.543  0.1363 -0.7914  0.0600
  696TMC3    C310342   1.013   0.652  13.626 -0.4283 -0.1993  0.7250
  696TMC3    C410343   1.032   0.696  13.347 -0.0142  0.0837 -0.5005
  696TMC3    C510344   0.940   0.766  13.423 -0.4877 -0.0914  0.0733
  696TMC3    C610345   0.930   0.748  13.564  0.1877  0.2169 -0.0764
  696TMC3     C10346   1.252   0.616  13.362 -0.0743  0.1578  0.4660
  696TMC3     O10347   1.270   0.607  13.240  0.5121 -0.4451  0.4964
  696TMC3     H10348   1.175   0.527  13.603  0.5531 -2.7271 -2.0515
  696TMC3    H110349   1.051   0.718  13.242  1.3777  0.0863 -0.2411
  696TMC3    H210350   0.853   0.794  13.624 -2.0550 -1.2728 -1.8386
  696TMC3    C710351   0.893   0.889  13.369 -0.5496  0.1398 -0.6886
  696TMC3    C810352   1.077   0.704  13.748 -0.1463 -0.1239  0.7173
  696TMC3    O110353   0.862   0.889  13.250  0.1181 -0.0116 -0.5205
  696TMC3    O210354   1.201   0.696  13.736 -0.1760  0.3402 -0.0655
  697MPD2     C10355   1.017   2.196  15.602 -0.0353 -0.9709 -0.8028
  697MPD2    C110356   0.928   2.145  15.510 -0.7098  0.1079  0.5564
  697MPD2    C210357   0.895   2.227  15.401  0.2436 -0.0423 -0.4015
  697MPD2    C310358   0.951   2.347  15.382 -0.5106  0.5457 -0.5545
  697MPD2    C410359   1.047   2.392  15.468 -0.1030 -0.0536 -0.4750
  697MPD2    C510360   1.080   2.315  15.583 -0.3053 -0.6302  0.0446
  697MPD2     H10361   0.813   2.205  15.335  1.2876 -0.7273 -1.4654
  697MPD2    H110362   1.096   2.487  15.454 -0.1579 -0.0268 -0.4849
  697MPD2    H210363   1.048   2.149  15.695 -1.8236 -0.5281  0.0101
  697MPD2    H310364   1.163   2.338  15.649 -0.7923 -1.3366  0.9215
  697MPD2     N10365   0.904   2.431  15.277 -0.2220 -0.3865  0.1762
  697MPD2    H510366   0.835   2.386  15.218  0.8102  0.9260 -2.0543
  697MPD2    N110367   0.873   2.019  15.527  0.3941  0.4752 -0.4745
  697MPD2    H710368   0.818   1.990  15.447  0.7273  0.3468 -0.6586
  698TMC3    C110369   0.903   2.596  15.100 -1.1457  0.7183  0.1582
  698TMC3    C210370   0.882   2.728  15.090  0.0616  0.1558 -0.1824
  698TMC3    C310371   0.819   2.762  14.973  0.1744  0.2458  0.4379
  698TMC3    C410372   0.856   2.498  15.010 -1.2526 -0.2313 -0.2482
  698TMC3    C510373   0.786   2.539  14.900 -0.4050  0.0039 -0.1859
  698TMC3    C610374   0.770   2.669  14.881  0.6255  0.1603  0.0453
  698TMC3     C10375   0.956   2.552  15.234  0.1076 -0.4503 -0.4719
  698TMC3     O10376   1.038   2.626  15.287 -0.3368  0.1663 -0.8494
  698TMC3     H10377   0.911   2.799  15.166  1.7671 -1.1515  0.3688
  698TMC3    H110378   0.862   2.391  15.023  1.5780  0.0147  0.4147
  698TMC3    H210379   0.739   2.702  14.782  0.4449 -2.0474 -0.6542
  698TMC3    C710380   0.794   2.447  14.787 -0.2502  0.4701 -0.2739
  698TMC3    C810381   0.801   2.900  14.931  0.8398 -0.0166 -0.2768
  698TMC3    O110382   0.863   2.352  14.798 -0.1632 -0.1768 -0.2620
  698TMC3    O210383   0.723   2.919  14.835 -0.5451 -0.3390  0.4684
  699TMC3    C110384   1.200   0.013  12.904  0.1374 -0.2044 -0.3089
  699TMC3    C210385   1.240   4.650  12.997 -0.2141 -0.0148 -0.2676
  699TMC3    C310386   1.167   4.540  13.028 -0.1317  0.3085  0.1500
  699TMC3    C410387   1.084   4.721  12.830  0.1490 -0.6876 -0.0365
  699TMC3    C510388   1.004   4.612  12.871  0.3306  0.6728 -0.3677
  699TMC3    C610389   1.043   4.519  12.974 -0.4603  0.3375 -0.0047
  699TMC3     C10390   1.308   0.100  12.858  0.2152 -0.2168  0.0796
  699TMC3     O10391   1.428   0.060  12.864 -0.2834 -0.9017 -0.1377
  699TMC3     H10392   1.338   4.667  13.040  0.8220 -0.8240 -2.3133
  699TMC3    H110393   1.060   0.061  12.750 -1.8813 -1.7736 -0.3705
  699TMC3    H210394   0.973   4.453  13.023 -1.0389 -0.1042 -1.4046
  699TMC3    C710395   0.865   4.619  12.853  0.2538  0.7038  0.1180
  699TMC3    C810396   1.173   4.496  13.163 -0.1982  0.5047 -0.5304
  699TMC3    O110397   0.800   4.541  12.919 -0.3369  0.7116 -0.1559
  699TMC3    O210398   1.069   4.468  13.223  0.0986  0.3292  0.1927
  700TMC3    C110399   0.157   2.550  17.376  0.2316  1.0843  0.0040
  700TMC3    C210400   0.271   2.495  17.325  0.0867 -0.4224 -0.4448
  700TMC3    C310401   0.393   2.531  17.374 -0.8701  0.6005  0.0685
  700TMC3    C410402   0.157   2.645  17.470 -0.1505 -0.5030  0.5065
  700TMC3    C510403   0.280   2.685  17.511  0.1822 -0.6651  0.7934
  700TMC3    C610404   0.398   2.634  17.469 -0.1329 -0.2014 -0.0453
  700TMC3     C10405   0.068   2.588  17.273  0.4732 -0.1018  0.1949
  700TMC3     O10406   0.068   2.503  17.183  0.1859 -0.0404 -0.2531
  700TMC3     H10407   0.273   2.406  17.263 -0.6116 -1.7566  1.4522
  700TMC3    H110408   0.066   2.694  17.502  0.6519  0.4766  1.2768
  700TMC3    H210409   0.490   2.683  17.499  0.9818 -1.3711 -1.5331
  700TMC3    C710410   0.296   2.823  17.551 -0.3585  0.5202  0.0371
  700TMC3    C810411   0.499   2.517  17.276  0.2155 -0.1820  0.3174
  700TMC3    O110412   0.388   2.889  17.508  0.5935  0.4807 -0.2868
  700TMC3    O210413   0.467   2.483  17.166 -0.3009 -0.5291 -0.2901
  701TMC3    C110414   0.321   1.507  15.857 -0.3085  0.4676  0.5026
  701TMC3    C210415   0.350   1.439  15.743  0.1739  0.2523 -0.6472
  701TMC3    C310416   0.345   1.506  15.621 -0.5901 -0.0629  0.5351
  701TMC3    C410417   0.304   1.640  15.855  0.4454 -0.2458 -0.1561
  701TMC3    C510418   0.329   1.709  15.739  0.6807 -0.0780 -0.3751
  701TMC3    C610419   0.342   1.644  15.620  0.6495  0.2043  0.1446
  701TMC3     C10420   0.272   1.439  15.975  0.2567  0.0698  0.1184
  701TMC3     O10421   0.294   1.500  16.077  0.3615  0.0405 -0.2878
  701TMC3     H10422   0.365   1.332  15.739 -0.6613  0.0116  3.4156
  701TMC3    H110423   0.274   1.691  15.946 -0.0252 -0.0257 -0.4313
  701TMC3    H210424   0.331   1.689  15.522 -2.8519 -1.6799 -0.3507
  701TMC3    C710425   0.318   1.852  15.728 -0.0250 -0.5996  0.0670
  701TMC3    C810426   0.400   1.450  15.503  0.9460 -0.1615 -0.0365
  701TMC3    O110427   0.364   1.893  15.623 -0.4223 -0.4801 -0.0483
  701TMC3    O210428   0.459   1.345  15.514 -0.7612  0.1141  0.5230
  702MPD2     C10429   4.305   4.098  10.053  0.4085 -0.0204 -0.2979
  702MPD2    C110430   4.342   4.178  10.166 -0.4433  0.1876 -0.8187
  702MPD2    C210431   4.334   4.322  10.148  0.3771 -0.0065 -0.3586
  702MPD2    C310432   4.302   4.384  10.031 -0.2964 -0.2458 -0.0275
  702MPD2    C410433   4.274   4.301   9.923  0.1608  0.1773 -0.3943
  702MPD2    C510434   4.274   4.164   9.940 -0.5256  0.5004  0.5682
  702MPD2     H10435   4.373   4.379  10.231 -2.0835  0.9357  0.1662
  702MPD2    H110436   4.224   4.349   9.840 -0.2392 -0.8753 -0.7655
  702MPD2    H210437   4.278   3.993  10.052 -0.1628  0.1463 -1.5489
  702MPD2    H310438   4.225   4.115   9.857 -0.3926  0.9135  0.2451
  702MPD2     N10439   4.297   4.522  10.019  0.4065 -0.3800  0.7097
  702MPD2    H510440   4.344   4.577  10.090  0.5805 -1.0602  1.1220
  702MPD2    N110441   4.384   4.129  10.289 -0.0121 -0.1077 -0.4879
  702MPD2    H710442   4.417   4.193  10.360 -1.0421 -0.0689 -0.0493
  703TMC3    C110443   4.314   0.008   9.955 -0.8159  0.6984 -0.2252
  703TMC3    C210444   4.266   0.038  10.081 -0.2509  0.0590 -0.3420
  703TMC3    C310445   4.343   0.072  10.191  0.3893  0.4045  0.1241
  703TMC3    C410446   4.448   0.032   9.946 -0.6777 -0.1152 -0.3542
  703TMC3    C510447   4.531   0.056  10.053 -0.4017  0.1812  0.5387
  703TMC3    C610448   4.478   0.076  10.178  0.7072 -0.5885 -0.1656
  703TMC3     C10449   4.271   4.610   9.912  0.0584 -0.4907 -0.1144
  703TMC3     O10450   4.253   4.594   9.792  0.0312  0.4651  0.0128
  703TMC3     H10451   4.170   4.717  10.089 -0.4611  0.8199  1.8879
  703TMC3    H110452   4.483   0.017   9.844 -0.3953 -2.4367  0.0838
  703TMC3    H210453   4.535   0.069  10.270  3.0423 -0.2722 -1.5911
  703TMC3    C710454   4.675   0.058  10.036  0.0553  0.1562  0.6156
  703TMC3    C810455   4.296   4.718  10.301 -0.3595 -0.5472  0.9348
  703TMC3    O110456   0.015   0.064  10.137 -0.1705 -0.1453 -0.8049
  703TMC3    O210457   4.371   4.628  10.334 -0.5488 -0.0137  0.2094
  704TMC3    C110458   2.416   2.578  12.503 -0.6981  0.1769  0.4306
  704TMC3    C210459   2.530   2.548  12.430  0.0714 -0.5245 -0.3769
  704TMC3    C310460   2.625   2.484  12.501  0.7400 -0.5706 -0.2166
  704TMC3    C410461   2.395   2.540  12.631 -0.0817  0.8810 -0.6147
  704TMC3    C510462   2.492   2.471  12.688  0.4365  0.7174  0.0250
  704TMC3    C610463   2.607   2.434  12.624 -0.2788 -0.6811 -0.1081
  704TMC3     C10464   2.294   2.636  12.440  0.0925  0.1631  0.4706
  704TMC3     O10465   2.200   2.668  12.502 -0.4959 -0.2985 -0.0397
  704TMC3     H10466   2.542   2.571  12.325  0.1783 -0.0208 -0.2547
  704TMC3    H110467   2.302   2.569  12.679  0.0193 -1.2466  0.9108
  704TMC3    H210468   2.688   2.398  12.687 -0.0925  0.8100  0.4941
  704TMC3    C710469   2.444   2.381  12.787  0.0768 -0.0843 -0.0200
  704TMC3    C810470   2.722   2.416  12.422 -0.5515 -0.2955  0.2557
  704TMC3    O110471   2.409   2.430  12.892  0.2820 -0.1217 -0.3442
  704TMC3    O210472   2.712   2.441  12.303  0.0017 -0.0759 -0.4118
  705MPD2     C10473   1.697   0.190  16.271 -0.5266 -0.9233 -0.3777
  705MPD2    C110474   1.709   0.307  16.340 -0.0008  0.3825 -0.1234
  705MPD2    C210475   1.595   0.356  16.407  0.4003  0.2557 -0.4302
  705MPD2    C310476   1.470   0.302  16.400  0.3014  0.1742  0.3385
  705MPD2    C410477   1.459   0.185  16.327  0.2756  0.0490  1.0239
  705MPD2    C510478   1.573   0.137  16.259 -0.1228  0.1316 -0.0140
  705MPD2     H10479   1.612   0.445  16.467  2.6696 -0.0859 -0.5357
  705MPD2    H110480   1.361   0.139  16.326 -0.3572  1.4274  0.1612
  705MPD2    H210481   1.772   0.127  16.224  1.9808  0.3498  1.8738
  705MPD2    H310482   1.563   0.046  16.202  1.1076  0.8823 -1.4300
  705MPD2     N10483   1.357   0.353  16.466 -0.0046  0.2454 -0.0309
  705MPD2    H510484   1.268   0.312  16.440  0.4056 -1.1617  0.8014
  705MPD2    N110485   1.834   0.376  16.355 -0.2557 -0.8492  0.6604
  705MPD2    H710486   1.840   0.460  16.410 -3.6878 -0.5196  0.5621
  706TMC3    C110487   2.218   0.543  16.150 -0.3363  0.4858 -0.6805
  706TMC3    C210488   2.162   0.669  16.140 -1.0767  0.4858  0.3244
  706TMC3    C310489   2.049   0.691  16.209  0.4485 -0.3837 -0.3283
  706TMC3    C410490   2.152   0.443  16.218 -0.2050 -0.0901 -0.3709
  706TMC3    C510491   2.036   0.470  16.277  0.7153 -0.2295  0.0284
  706TMC3    C610492   1.976   0.591  16.271  0.1987  0.9448  0.1428
  706TMC3     C10493   2.310   0.517  16.038  0.9354  0.1145  0.2315
  706TMC3     O10494   2.430   0.536  16.057  0.7209  0.0969 -0.5560
  706TMC3     H10495   2.213   0.743  16.080  1.2331  0.4549  2.2281
  706TMC3    H110496   2.201   0.347  16.226  0.4234  0.1078 -1.8616
  706TMC3    H210497   1.876   0.621  16.301 -0.6005 -0.8945 -0.6311
  706TMC3    C710498   1.949   0.351  16.285  0.4384  0.4122 -0.1550
  706TMC3    C810499   1.967   0.790  16.153  0.4093 -0.1285  0.3205
  706TMC3    O110500   1.965   0.269  16.191  0.5860  0.0913 -0.5301
  706TMC3    O210501   1.957   0.790  16.031  0.1437  0.2398  0.0759
  707TMC3    C110502   3.553   4.206   1.522 -0.7345  0.8182 -0.1028
  707TMC3    C210503   3.688   4.236   1.550  0.2802 -0.1346  0.2157
  707TMC3    C310504   3.720   4.269   1.680 -0.4438  0.6888 -0.5100
  707TMC3    C410505   3.456   4.222   1.609  0.3069  0.2724  0.0121
  707TMC3    C510506   3.493   4.268   1.737 -0.0766  0.5847  1.0008
  707TMC3    C610507   3.621   4.297   1.773  0.5101  0.6096  0.3045
  707TMC3     C10508   3.523   4.174   1.384  1.0703  0.6478 -0.5386
  707TMC3     O10509   3.621   4.169   1.312  0.0556  0.6922 -0.5310
  707TMC3     H10510   3.760   4.227   1.469 -1.1717 -0.5722 -1.0259
  707TMC3    H110511   3.354   4.201   1.579  0.9344 -0.4332 -1.6210
  707TMC3    H210512   3.648   4.331   1.872 -2.7707 -0.7385  1.7028
  707TMC3    C710513   3.398   4.313   1.838 -0.2760  0.1472 -0.2161
  707TMC3    C810514   3.856   4.255   1.731 -0.4214  0.4152 -0.0804
  707TMC3    O110515   3.447   4.356   1.939  0.1259  0.0886  0.6203
  707TMC3    O210516   3.878   4.287   1.846  0.9675 -0.1170 -0.5178
  708MPD2     C10517   4.563   3.255  13.776 -0.2490  0.4315 -0.4207
  708MPD2    C110518   4.632   3.365  13.826  0.0889 -0.1487 -0.1850
  708MPD2    C210519   4.561   3.445  13.919  0.4782 -0.1957  0.4414
  708MPD2    C310520   4.428   3.423  13.953  0.3637 -0.3494  0.4978
  708MPD2    C410521   4.364   3.318  13.890 -0.1029 -0.3098 -0.2889
  708MPD2    C510522   4.434   3.237  13.801  1.0110 -0.4255 -0.7243
  708MPD2     H10523   4.610   3.530  13.966 -0.5247  0.8006 -0.3021
  708MPD2    H110524   4.260   3.305  13.918 -0.5241  0.8373 -1.3333
  708MPD2    H210525   4.599   3.202  13.689  0.4592  1.1673 -0.5757
  708MPD2    H310526   4.376   3.166  13.742  0.2592 -0.1176 -0.3596
  708MPD2     N10527   4.349   3.511  14.035  0.2380 -0.8168  0.1189
  708MPD2    H510528   4.248   3.508  14.026  0.2176 -0.9776  0.3872
  708MPD2    N110529   0.024   3.397  13.773 -0.0641  0.2298  0.0137
  708MPD2    H710530   0.046   3.367  13.679  2.5218 -1.6412  1.2281
  709TMC3    C110531   0.167   3.581  13.737  0.3847 -0.4273  0.2653
  709TMC3    C210532   0.189   3.535  13.612 -0.6955 -0.5013 -0.1692
  709TMC3    C310533   0.149   3.610  13.506 -0.7005 -0.1882  0.5965
  709TMC3    C410534   0.102   3.700  13.758 -0.0578  0.5669  0.0749
  709TMC3    C510535   0.059   3.771  13.647  0.4907 -0.9367 -0.3873
  709TMC3    C610536   0.080   3.726  13.519  0.4205 -0.6638 -0.0752
  709TMC3     C10537   0.111   3.482  13.835 -0.0122 -0.4630 -0.1738
  709TMC3     O10538   0.114   3.512  13.954 -0.1558  0.0132 -0.0554
  709TMC3     H10539   0.245   3.443  13.601  1.8693  0.9250  0.9001
  709TMC3    H110540   0.084   3.732  13.860 -0.1449  0.9520 -0.0621
  709TMC3    H210541   0.063   3.787  13.431 -1.5899 -1.2188 -0.0731
  709TMC3    C710542   4.680   3.858  13.677  0.0485  0.9192  0.4133
  709TMC3    C810543   0.189   3.569  13.373 -0.5787  0.3553 -0.2849
  709TMC3    O110544   4.682   3.909  13.786 -0.0002  0.1674 -0.8333
  709TMC3    O210545   0.292   3.503  13.366  0.3703 -0.1473  0.0707
  710TMC3    C110546   0.877   0.237   0.226 -0.1290  0.1815  0.1762
  710TMC3    C210547   0.958   0.234   0.114  0.0451 -0.4224 -0.2502
  710TMC3    C310548   1.058   0.140   0.118  0.5782 -0.3040 -0.0340
  710TMC3    C410549   0.875   0.134   0.323 -0.7023 -0.0759 -0.2766
  710TMC3    C510550   0.954   0.025   0.291 -0.1662 -0.2031  0.2276
  710TMC3    C610551   1.048   0.024   0.191  0.2165 -0.3597  0.5775
  710TMC3     C10552   0.767   0.329   0.234 -0.5954  0.7326 -0.2299
  710TMC3     O10553   0.717   0.376   0.132 -0.5331 -0.0240  0.1123
  710TMC3     H10554   0.949   0.311   0.040 -0.1904 -1.0707 -0.8947
  710TMC3    H110555   0.816   0.128   0.414 -0.3461  1.1060  0.0334
  710TMC3    H210556   1.121   4.672   0.184  0.4853 -0.2580  2.3477
  710TMC3    C710557   0.946   4.637   0.375 -0.1574 -0.0839  0.7630
  710TMC3    C810558   1.163   0.149   0.015 -0.2841 -0.0383 -0.4654
  710TMC3    O110559   0.915   4.652   0.494 -0.5789 -0.5137 -0.0549
  710TMC3    O210560   1.138   0.217  17.630 -0.1001  0.7009  0.7335
  711TMC3    C110561   0.581   0.679  14.995  0.4955 -0.6291 -0.5043
  711TMC3    C210562   0.666   0.606  15.072  0.0254  0.2336 -0.5739
  711TMC3    C310563   0.706   0.661  15.194 -0.2754 -0.0246 -0.2935
  711TMC3    C410564   0.541   0.807  15.022  0.0112  0.2801 -0.1231
  711TMC3    C510565   0.597   0.868  15.132 -0.0097 -0.1362  0.2729
  711TMC3    C610566   0.672   0.796  15.222  0.2140 -0.1326  0.3096
  711TMC3     C10567   0.577   0.661  14.854  0.7842 -0.1755  0.2142
  711TMC3     O10568   0.471   0.676  14.795  0.1362 -0.9553 -0.2744
  711TMC3     H10569   0.682   0.508  15.030 -1.8411  0.1508 -1.0883
  711TMC3    H110570   0.474   0.858  14.954 -0.2530 -2.6311 -2.0697
  711TMC3    H210571   0.705   0.837  15.317  0.7643  2.3873 -0.9903
  711TMC3    C710572   0.650   1.003  15.111  0.2639  0.7945  0.2306
  711TMC3    C810573   0.833   0.605  15.239 -0.3484  0.1797 -0.4210
  711TMC3    O110574   0.702   1.043  15.210  0.2802  0.6195 -0.3788
  711TMC3    O210575   0.876   0.504  15.193  0.0045  0.5208  0.2510
  712MPD2     C10576   2.321   1.981  13.556 -0.2099 -0.1108  0.1437
  712MPD2    C110577   2.208   2.052  13.510 -0.0344 -0.2019 -0.3655
  712MPD2    C210578   2.187   2.185  13.552 -0.2712 -0.4719 -0.1120
  712MPD2    C310579   2.280   2.250  13.634  0.0104  0.6755 -0.3736
  712MPD2    C410580   2.389   2.176  13.684  0.9503 -0.1464  0.2742
  712MPD2    C510581   2.411   2.046  13.644  0.1937  0.5417  0.3273
  712MPD2     H10582   2.105   2.246  13.516 -0.1482  1.0149  2.1054
  712MPD2    H110583   2.467   2.239  13.726  1.0087 -0.3553  0.4828
  712MPD2    H210584   2.342   1.881  13.518 -0.6852 -0.0680 -0.2353
  712MPD2    H310585   2.500   1.991  13.674 -0.0643 -0.3408 -0.5109
  712MPD2     N10586   2.277   2.387  13.667 -0.5853  0.0432  0.0636
  712MPD2    H510587   2.342   2.425  13.734 -1.0646  1.0545 -0.0513
  712MPD2    N110588   2.108   1.994  13.429  0.0740 -0.4332  0.1140
  712MPD2    H710589   2.024   2.049  13.411  0.8468  0.5748 -0.4294
  713TMC3    C110590   2.207   2.611  13.699  0.1514  0.3790 -0.1044
  713TMC3    C210591   2.325   2.651  13.750 -0.6474 -0.7494 -0.1453
  713TMC3    C310592   2.324   2.756  13.842  0.3325 -0.1586  0.1144
  713TMC3    C410593   2.094   2.692  13.708 -0.0903  0.4321  0.4360
  713TMC3    C510594   2.096   2.803  13.791 -0.4495 -0.0998 -0.3747
  713TMC3    C610595   2.210   2.837  13.864 -0.4496 -0.5867  0.6606
  713TMC3     C10596   2.188   2.488  13.626 -0.6552 -0.3470 -0.2321
  713TMC3     O10597   2.089   2.485  13.551  0.3586 -0.4544 -0.1104
  713TMC3     H10598   2.424   2.611  13.735 -1.2637 -2.2209 -0.2748
  713TMC3    H110599   2.008   2.659  13.652 -0.0307 -0.4393  0.8622
  713TMC3    H210600   2.220   2.919  13.934  2.7426  1.5800 -2.3595
  713TMC3    C710601   2.000   2.904  13.769 -0.0211  0.3037  0.0322
  713TMC3    C810602   2.446   2.838  13.842  0.7348 -0.3966 -1.1419
  713TMC3    O110603   1.948   2.891  13.659  0.1161 -0.1970 -0.6338
  713TMC3    O210604   2.436   2.955  13.801  1.1465 -0.0891 -0.2575
  714MPD2     C10605   4.140   1.606   1.270  0.0513 -0.1345 -0.6521
  714MPD2    C110606   4.114   1.484   1.206 -0.0448  0.1181 -0.1221
  714MPD2    C210607   3.985   1.450   1.155  0.0156 -0.3552  1.0281
  714MPD2    C310608   3.889   1.550   1.146  0.0117  0.6126 -0.3893
  714MPD2    C410609   3.930   1.680   1.181 -0.1743 -0.0193 -0.4114
  714MPD2    C510610   4.057   1.706   1.238  0.8217  0.6503 -0.3942
  714MPD2     H10611   3.960   1.356   1.106 -3.1451  0.7988  0.4415
  714MPD2    H110612   3.856   1.759   1.183  0.9477  0.9333  2.6928
  714MPD2    H210613   4.232   1.626   1.323 -0.3909  0.5272 -0.1341
  714MPD2    H310614   4.079   1.811   1.259 -1.2522  1.3981 -1.9143
  714MPD2     N10615   3.760   1.521   1.092  0.1639 -0.1948 -0.4314
  714MPD2    H510616   3.739   1.422   1.077 -2.3031 -0.1566  2.6860
  714MPD2    N110617   4.214   1.384   1.237 -0.2333 -0.2545 -0.4657
  714MPD2    H710618   4.300   1.417   1.279  0.5912 -1.7567 -0.9503
  715TMC3    C110619   4.329   1.178   1.231  0.7677  0.4841  0.5621
  715TMC3    C210620   4.325   1.037   1.219 -0.4114  0.0564 -0.4272
  715TMC3    C310621   4.428   0.959   1.273  0.1385 -0.7231  0.5434
  715TMC3    C410622   4.438   1.236   1.296  0.3136  0.1071  0.9204
  715TMC3    C510623   4.537   1.158   1.347 -0.3172 -0.2742 -0.3842
  715TMC3    C610624   4.538   1.020   1.336 -0.0102  0.3013  0.4438
  715TMC3     C10625   4.207   1.253   1.193 -0.7503  0.9139 -0.6607
  715TMC3     O10626   4.124   1.197   1.124 -0.3346  0.1995 -0.1551
  715TMC3     H10627   4.233   0.997   1.177 -0.5589  0.9264 -0.9274
  715TMC3    H110628   4.449   1.344   1.295  1.6692 -0.0701 -3.1076
  715TMC3    H210629   4.607   0.954   1.388  1.1404  0.9430 -0.2665
  715TMC3    C710630   4.652   1.213   1.426  0.4753 -0.4564  0.3375
  715TMC3    C810631   4.423   0.811   1.260  0.1038  0.3355 -0.4438
  715TMC3    O110632   4.718   1.125   1.480  0.0791 -0.6721 -0.1122
  715TMC3    O210633   4.399   0.760   1.153  0.0523  0.6613  0.1282
  716MPD2     C10634   4.027   4.156   9.508 -0.6240  0.3263  0.2245
  716MPD2    C110635   3.942   4.218   9.412 -0.0295 -0.0301  0.6679
  716MPD2    C210636   3.865   4.131   9.328 -0.7300 -0.1534  0.0069
  716MPD2    C310637   3.891   3.990   9.324 -0.4377  0.2299  0.5035
  716MPD2    C410638   3.980   3.936   9.412  0.4157 -0.3505 -0.2152
  716MPD2    C510639   4.043   4.015   9.507 -0.5945  0.4477 -0.2903
  716MPD2     H10640   3.786   4.172   9.266 -0.7725 -0.2404  0.0023
  716MPD2    H110641   4.015   3.833   9.413 -1.2124 -0.8653  1.2445
  716MPD2    H210642   4.077   4.217   9.581  0.8287 -0.6824  0.0604
  716MPD2    H310643   4.114   3.977   9.579 -0.7666  0.3255 -0.1851
  716MPD2     N10644   3.822   3.922   9.222 -0.8091 -0.2652  0.1572
  716MPD2    H510645   3.750   3.979   9.178  0.5868  0.2379 -1.4728
  716MPD2    N110646   3.935   4.358   9.415 -0.6801  0.3110 -0.4265
  716MPD2    H710647   3.984   4.412   9.486 -1.8670 -2.9229  2.8360
  717TMC3    C110648   3.733   3.740   9.096  0.5494 -0.1973 -0.2164
  717TMC3    C210649   3.647   3.823   9.035  0.6408  0.1475  0.0059
  717TMC3    C310650   3.534   3.764   8.977 -0.2183  0.6313 -0.7625
  717TMC3    C410651   3.713   3.603   9.099  0.1546 -0.2552 -0.0199
  717TMC3    C510652   3.599   3.546   9.047 -0.2096 -0.6254 -0.3419
  717TMC3    C610653   3.502   3.631   8.998  0.4639 -0.7448  1.2801
  717TMC3     C10654   3.838   3.789   9.187  0.3170  0.0954 -0.2120
  717TMC3     O10655   3.920   3.716   9.237  0.2449  0.4365  0.2827
  717TMC3     H10656   3.664   3.930   9.038 -2.3574  0.6730 -1.2670
  717TMC3    H110657   3.776   3.555   9.173  1.2801  0.4601 -0.5151
  717TMC3    H210658   3.407   3.595   8.960  0.1245  2.3027 -0.7790
  717TMC3    C710659   3.562   3.414   9.105 -0.7924  0.1575  0.3280
  717TMC3    C810660   3.430   3.854   8.946 -0.5205  0.1200 -0.2122
  717TMC3    O110661   3.445   3.376   9.096 -0.5370  0.3977  0.1197
  717TMC3    O210662   3.452   3.975   8.966  0.0420 -0.2495 -0.0045
  718MPD2     C10663   2.914   3.502  12.744 -0.1694  0.0021 -0.0800
  718MPD2    C110664   2.959   3.370  12.735  0.0470  0.3979  0.1165
  718MPD2    C210665   2.924   3.293  12.840 -0.0206  0.6583  0.7340
  718MPD2    C310666   2.902   3.347  12.967 -0.0901 -0.6152  0.0475
  718MPD2    C410667   2.873   3.481  12.979 -0.3732  0.1094 -0.5340
  718MPD2    C510668   2.870   3.555  12.860  0.1031  0.5713  0.1858
  718MPD2     H10669   2.930   3.184  12.843  0.1185  0.6757  1.0706
  718MPD2    H110670   2.844   3.525  13.074  0.4359  1.1766 -0.7726
  718MPD2    H210671   2.921   3.567  12.657 -0.0028 -0.9809 -0.8060
  718MPD2    H310672   2.835   3.657  12.873 -0.8429  0.3447 -0.6279
  718MPD2     N10673   2.919   3.259  13.071 -0.4108  0.1847  0.2831
  718MPD2    H510674   2.930   3.162  13.042 -1.3301  0.1455  0.0558
  718MPD2    N110675   3.008   3.326  12.609  0.4118  0.0975 -0.0112
  718MPD2    H710676   3.022   3.386  12.528 -0.5868  0.7240  0.2841
  719TMC3    C110677   3.064   3.157  12.450 -0.9097  0.3210 -0.0318
  719TMC3    C210678   3.040   3.027  12.435 -0.3220 -0.1075 -0.0694
  719TMC3    C310679   3.137   2.951  12.372 -0.2002  0.6294  0.1583
  719TMC3    C410680   3.178   3.215  12.413  1.2562 -0.7552 -0.2110
  719TMC3    C510681   3.271   3.133  12.356 -0.1659 -0.2759 -0.2045
  719TMC3    C610682   3.252   3.004  12.320  0.3771  0.6694 -0.4672
  719TMC3     C10683   3.022   3.187  12.588  0.2063 -0.2012  0.0830
  719TMC3     O10684   2.991   3.086  12.652 -0.2798 -0.4553 -0.2755
  719TMC3     H10685   2.946   2.984  12.467  0.0384  0.5193  1.8084
  719TMC3    H110686   3.198   3.320  12.428 -2.7088 -0.0555  0.1690
  719TMC3    H210687   3.332   2.936  12.291 -0.3239  0.4891 -1.9754
  719TMC3    C710688   3.410   3.177  12.351  0.2144 -0.3110  0.4211
  719TMC3    C810689   3.171   2.837  12.454 -0.1923  0.2340  0.0090
  719TMC3    O110690   3.494   3.092  12.318 -0.1653  0.4857  0.5202
  719TMC3    O210691   3.256   2.761  12.412  0.5990  0.3002  0.1368
  720MPD2     C10692   1.969   4.254  13.538  0.7781  0.2590 -0.4807
  720MPD2    C110693   2.018   4.384  13.549  0.2298  0.0414 -0.2033
  720MPD2    C210694   2.108   4.410  13.650 -0.4440 -0.2785  0.2742
  720MPD2    C310695   2.152   4.322  13.739 -0.5970  0.2197 -1.2140
  720MPD2    C410696   2.098   4.194  13.735  0.4393 -0.3301  0.2469
  720MPD2    C510697   2.008   4.164  13.635 -0.2009  0.5513 -0.1846
  720MPD2     H10698   2.143   4.513  13.650 -0.9263 -0.1175 -1.7358
  720MPD2    H110699   2.129   4.129  13.816  2.0755  1.7157  1.2833
  720MPD2    H210700   1.914   4.222  13.451  0.9235 -2.0503  0.2933
  720MPD2    H310701   1.983   4.058  13.627 -0.6451  0.4304  2.7722
  720MPD2     N10702   2.245   4.365  13.833 -0.2520 -0.5700  0.1992
  720MPD2    H510703   2.264   4.464  13.824  0.7927 -0.9017 -1.1608
  720MPD2    N110704   1.995   4.486  13.457  0.7027  0.3922  0.2522
  720MPD2    H710705   2.042   4.573  13.478  2.9385 -0.5891 -0.6616
  721TMC3    C110706   2.409   4.379  13.987  0.7643 -0.1580  0.1246
  721TMC3    C210707   2.364   4.505  14.015  0.4655  0.3246  0.6044
  721TMC3    C310708   2.449   4.596  14.065  0.1209  0.4305  0.2604
  721TMC3    C410709   2.539   4.343  13.998 -0.0880 -0.1344  1.0924
  721TMC3    C510710   2.630   4.443  14.038  0.4743  0.1620 -0.9112
  721TMC3    C610711   2.587   4.567  14.076  0.4129 -0.1557 -0.2009
  721TMC3     C10712   2.332   4.288  13.904 -0.0237 -0.3243  0.0189
  721TMC3     O10713   2.363   4.169  13.896  0.2988  0.5411  0.3055
  721TMC3     H10714   2.257   4.520  14.022  0.3662  0.4870 -1.2423
  721TMC3    H110715   2.573   4.251  13.952 -0.9094 -0.0653  0.3554
  721TMC3    H210716   2.655   4.647  14.103 -1.0099  0.4751  1.5277
  721TMC3    C710717   2.775   4.411  14.035 -0.2436 -0.1216  0.8775
  721TMC3    C810718   2.394   4.716  14.127 -0.3540  0.3526 -0.1602
  721TMC3    O110719   2.851   4.506  14.040 -0.8553 -0.2483 -0.6313
  721TMC3    O210720   2.312   0.045  14.057  0.6328 -0.3984  0.2248
  722MPD2     C10721   1.056   2.805  13.274 -0.8218  0.0410  0.2373
  722MPD2    C110722   1.118   2.907  13.197  0.9460  0.3276  0.4109
  722MPD2    C210723   1.092   2.900  13.059 -0.2037 -0.3851 -0.3784
  722MPD2    C310724   1.011   2.800  13.006 -1.0564  0.2483 -0.3097
  722MPD2    C410725   0.957   2.702  13.083 -0.0976  0.6798 -0.4898
  722MPD2    C510726   0.981   2.706  13.215 -0.0229  0.2797  0.1967
  722MPD2     H10727   1.151   2.965  12.997 -0.5047  0.2674  0.0263
  722MPD2    H110728   0.889   2.630  13.040 -2.2577  1.5031  1.5517
  722MPD2    H210729   1.068   2.802  13.382 -1.0548 -0.4467  0.2472
  722MPD2    H310730   0.943   2.627  13.279  0.6586 -1.5501 -1.6512
  722MPD2     N10731   0.998   2.799  12.867 -0.4192 -0.6666 -0.5395
  722MPD2    H510732   1.038   2.882  12.824 -0.9862  0.0962  0.4171
  722MPD2    N110733   1.189   3.016  13.254  0.0658 -0.4852  0.1448
  722MPD2    H710734   1.226   3.087  13.191  0.6021  0.4196  1.4692
  723TMC3    C110735   0.893   2.753  12.667 -0.4601 -0.5155  0.7153
  723TMC3    C210736   0.775   2.688  12.668 -0.6170 -0.1120  0.6324
  723TMC3    C310737   0.666   2.766  12.705 -0.1201  0.2187  0.0519
  723TMC3    C410738   0.905   2.892  12.666 -0.0791 -0.6238 -0.5837
  723TMC3    C510739   0.794   2.970  12.701 -0.6446  0.4073  0.3204
  723TMC3    C610740   0.679   2.901  12.728  0.3842  0.0677 -0.3577
  723TMC3     C10741   0.951   2.702  12.786 -0.2777 -0.9416 -0.0069
  723TMC3     O10742   0.948   2.579  12.805 -0.6910  0.1284  0.1768
  723TMC3     H10743   0.776   2.580  12.670 -0.0142 -0.1017  0.7522
  723TMC3    H110744   0.995   2.938  12.628 -1.1486  0.7633 -1.4606
  723TMC3    H210745   0.597   2.957  12.771 -0.4785 -0.3348 -1.4559
  723TMC3    C710746   0.819   3.106  12.730 -0.1317  0.0906  0.3274
  723TMC3    C810747   0.561   2.692  12.777 -0.1855  0.3321  0.2963
  723TMC3    O110748   0.924   3.144  12.681  0.1969  0.0291 -0.0493
  723TMC3    O210749   0.495   2.758  12.852  0.1852 -0.1108  0.0222
  724TMC3    C110750   1.011   0.821  10.061 -0.1292  0.7465  0.1831
  724TMC3    C210751   0.946   0.884   9.955 -0.0870 -0.3567 -0.2994
  724TMC3    C310752   0.984   1.012   9.925  0.4962 -0.0285  0.4084
  724TMC3    C410753   1.118   0.885  10.129  0.2082 -0.3566  0.0996
  724TMC3    C510754   1.154   1.014  10.098  0.4275  0.6239  1.2396
  724TMC3    C610755   1.091   1.077   9.996  0.2790 -0.5679 -0.2269
  724TMC3     C10756   0.966   0.693  10.104 -0.3020 -0.8912 -0.5562
  724TMC3     O10757   1.029   0.641  10.196  0.0565 -0.1266  0.2239
  724TMC3     H10758   0.851   0.845   9.920  0.8761 -1.6490 -1.4932
  724TMC3    H110759   1.174   0.823  10.199  0.4935 -0.5095 -0.2644
  724TMC3    H210760   1.111   1.181   9.976  0.5163 -0.2529  1.5980
  724TMC3    C710761   1.279   1.074  10.152  0.2513  0.6546 -0.2779
  724TMC3    C810762   0.900   1.088   9.837  0.9178 -0.8950 -0.2251
  724TMC3    O110763   1.306   1.175  10.094 -0.3536 -0.2473  0.2969
  724TMC3    O210764   0.856   1.016   9.747  0.0815 -0.1813  0.4525
  725TMC3    C110765   2.791   0.384  12.456  0.3853  0.1282  0.4672
  725TMC3    C210766   2.697   0.404  12.355 -0.0609  0.7934 -0.0842
  725TMC3    C310767   2.696   0.307  12.259  0.0408 -0.4260  0.3748
  725TMC3    C410768   2.885   0.279  12.446 -0.4493  0.4563 -0.0495
  725TMC3    C510769   2.868   0.185  12.346 -0.4656 -1.2023  0.0116
  725TMC3    C610770   2.773   0.199  12.251  0.7879 -0.0543 -0.8027
  725TMC3     C10771   2.819   0.494  12.544 -0.3718 -0.3970  0.4320
  725TMC3     O10772   2.789   0.604  12.503 -0.1892 -0.1398  0.1678
  725TMC3     H10773   2.656   0.501  12.332 -2.2284 -0.3057 -0.8009
  725TMC3    H110774   2.958   0.278  12.526 -0.9090 -0.7576  0.3599
  725TMC3    H210775   2.754   0.127  12.173 -0.2117  0.4704 -1.0410
  725TMC3    C710776   2.943   0.067  12.342  0.4173  0.3051  0.2666
  725TMC3    C810777   2.584   0.312  12.167 -0.0957  0.4241  0.1840
  725TMC3    O110778   2.944   0.004  12.240  0.7411  0.3929  0.3833
  725TMC3    O210779   2.489   0.377  12.203 -0.3409 -0.1023  0.0311
  726MPD2     C10780   0.177   1.811  10.148  0.5474  0.1045 -0.4310
  726MPD2    C110781   0.270   1.764  10.233  0.3708 -0.2391  0.3355
  726MPD2    C210782   0.300   1.630  10.230  0.7094  0.0636 -0.7012
  726MPD2    C310783   0.212   1.548  10.163 -0.0801  0.0440  0.0914
  726MPD2    C410784   0.118   1.602  10.077  0.3028  0.5977  0.0934
  726MPD2    C510785   0.101   1.735  10.067 -0.5956  0.5668  0.5330
  726MPD2     H10786   0.390   1.600  10.283 -0.9418 -0.4535  1.8701
  726MPD2    H110787   0.048   1.537  10.025  0.8832 -0.7108  0.9423
  726MPD2    H210788   0.148   1.915  10.143  1.9263  0.4481 -1.2768
  726MPD2    H310789   0.037   1.785   9.995 -1.0226  1.9822  1.8861
  726MPD2     N10790   0.204   1.408  10.184  0.1707 -1.0678 -0.0199
  726MPD2    H510791   0.130   1.359  10.134 -0.5795 -0.3587  0.3812
  726MPD2    N110792   0.342   1.858  10.310 -0.3596 -0.1376  0.0180
  726MPD2    H710793   0.318   1.955  10.295  0.9763  0.4301  1.6026
  727TMC3    C110794   0.493   1.968  10.443 -0.5546 -0.2025  0.1769
  727TMC3    C210795   0.570   1.961  10.555 -0.1418 -0.6123  0.5513
  727TMC3    C310796   0.589   2.073  10.633 -0.4174 -0.5688 -0.0402
  727TMC3    C410797   0.433   2.090  10.405  0.2983  0.4051 -0.6168
  727TMC3    C510798   0.449   2.199  10.496  0.2034  0.3973  0.0553
  727TMC3    C610799   0.525   2.192  10.615  0.2561 -0.2364 -0.7021
  727TMC3     C10800   0.443   1.837  10.400  0.1660 -0.5404  0.1151
  727TMC3     O10801   0.470   1.730  10.460 -0.4226  0.2452 -0.1645
  727TMC3     H10802   0.618   1.865  10.573 -1.4137 -1.3602 -0.0533
  727TMC3    H110803   0.387   2.108  10.309 -0.8048  0.7070 -0.0310
  727TMC3    H210804   0.535   2.279  10.679 -1.8234  0.0793 -0.8325
  727TMC3    C710805   0.380   2.318  10.455 -0.2992 -0.6040  0.0670
  727TMC3    C810806   0.681   2.058  10.745  0.1740  0.0172 -0.3449
  727TMC3    O110807   0.298   2.306  10.367 -0.1674  0.4452 -0.2934
  727TMC3    O210808   0.786   2.002  10.708  0.2016  0.5669 -0.4803
  728TMC3    C110809   0.194   0.079  15.231  0.2229  0.7988 -0.3037
  728TMC3    C210810   0.318   0.127  15.206  0.0172 -0.3151  0.4212
  728TMC3    C310811   0.359   0.149  15.077 -0.1735 -0.4528 -0.7023
  728TMC3    C410812   0.111   0.044  15.127  0.3563  0.1821 -0.0855
  728TMC3    C510813   0.153   0.075  15.002  0.6962 -0.2467 -0.4377
  728TMC3    C610814   0.280   0.121  14.974  0.1807  0.2846 -0.2098
  728TMC3     C10815   0.145   0.063  15.371 -0.0908  0.1139 -0.2705
  728TMC3     O10816   0.231   0.061  15.457  0.1601  0.3823  0.4674
  728TMC3     H10817   0.384   0.151  15.288 -1.1745 -1.5156  1.7356
  728TMC3    H110818   0.014   4.727  15.142  0.0033  0.6615 -0.8987
  728TMC3    H210819   0.319   0.139  14.874 -1.9665 -0.3435 -1.1536
  728TMC3    C710820   0.055   0.061  14.894  1.1502 -0.0012 -1.2458
  728TMC3    C810821   0.505   0.174  15.069  0.2444 -0.0432 -0.0547
  728TMC3    O110822   4.667   0.042  14.922 -0.4221  0.2579  0.4503
  728TMC3    O210823   0.574   0.140  15.164  0.6038 -0.6110  0.4538
  729MPD2     C10824   1.996   1.507  16.643 -0.1930  0.1586  0.8178
  729MPD2    C110825   2.011   1.373  16.650 -0.0651  0.0704  0.2931
  729MPD2    C210826   1.999   1.314  16.782 -0.3472 -0.1040 -0.1987
  729MPD2    C310827   1.987   1.398  16.894  0.4153 -0.1103  0.4725
  729MPD2    C410828   1.975   1.531  16.872  0.8828 -0.9079 -0.6055
  729MPD2    C510829   1.972   1.586  16.751  0.4475 -0.0887  0.2327
  729MPD2     H10830   1.999   1.206  16.796  0.3064 -0.0197  0.4115
  729MPD2    H110831   1.959   1.602  16.953  0.2308  0.8911 -2.3115
  729MPD2    H210832   2.001   1.568  16.553 -1.7965 -0.7622  0.0937
  729MPD2    H310833   1.964   1.694  16.744 -1.3253 -0.1687  1.0106
  729MPD2     N10834   1.987   1.365  17.035  0.3190  0.2101 -0.0638
  729MPD2    H510835   1.961   1.439  17.100  2.3790 -0.3574  1.3933
  729MPD2    N110836   2.040   1.311  16.529  0.7528 -0.1896  0.0762
  729MPD2    H710837   2.046   1.371  16.447  0.4396 -1.4120 -0.8447
  730TMC3    C110838   2.080   1.260  17.221  0.6481  0.0859 -0.3814
  730TMC3    C210839   2.211   1.228  17.224  0.5616 -0.7047  0.6141
  730TMC3    C310840   2.305   1.303  17.295 -0.0119 -0.3338 -0.2580
  730TMC3    C410841   2.043   1.382  17.276  0.1943  1.0043 -0.0722
  730TMC3    C510842   2.135   1.443  17.355  0.3867 -0.0767  0.7824
  730TMC3    C610843   2.261   1.401  17.372  0.5548  0.2992  0.1073
  730TMC3     C10844   2.027   1.243  17.081  0.1631 -0.0446  0.0019
  730TMC3     O10845   2.065   1.148  17.014  0.1813  0.4451  0.3558
  730TMC3     H10846   2.234   1.158  17.145  1.0126  1.1494 -0.8882
  730TMC3    H110847   1.942   1.419  17.284  0.1945  0.4603  2.3812
  730TMC3    H210848   2.329   1.434  17.450  1.1336 -0.0857 -0.2325
  730TMC3    C710849   2.157   1.577  17.309 -0.0534 -0.1396  0.5559
  730TMC3    C810850   2.418   1.332  17.213  0.1476 -0.1267 -0.2042
  730TMC3    O110851   2.111   1.613  17.203  0.1964  0.7331 -0.5756
  730TMC3    O210852   2.444   1.254  17.119 -0.3524  0.8605 -0.4279
  731MPD2     C10853   2.214   0.017  12.163 -0.7211  0.2235  0.0206
  731MPD2    C110854   2.349   4.701  12.158  0.1393  0.0027  0.5370
  731MPD2    C210855   2.432   4.711  12.271 -0.1571  0.3564  0.1565
  731MPD2    C310856   2.387   0.041  12.387 -0.0901  0.3150 -0.4575
  731MPD2    C410857   2.259   0.093  12.388  0.0822 -0.0101  0.1493
  731MPD2    C510858   2.174   0.073  12.281  0.5599 -0.2358  0.2384
  731MPD2     H10859   2.537   4.683  12.268 -0.1131  0.4384  1.0602
  731MPD2    H110860   2.223   0.152  12.472 -1.4826 -1.5374  0.5482
  731MPD2    H210861   2.147   0.010  12.078 -0.6921  0.0601  0.0107
  731MPD2    H310862   2.075   0.116  12.292  0.4007 -0.2533 -1.1436
  731MPD2     N10863   2.477   0.046  12.500  0.6743 -0.1329  0.4113
  731MPD2    H510864   2.569   0.002  12.502  0.6832 -0.1794 -1.0285
  731MPD2    N110865   2.393   4.644  12.038 -0.2644 -0.2006  0.5100
  731MPD2    H710866   2.331   4.650  11.958  0.2116  1.3258  0.2666
  732TMC3    C110867   2.538   4.608  11.862 -0.0993  0.5682 -0.0694
  732TMC3    C210868   2.434   4.552  11.786  0.1590 -0.0362  0.3171
  732TMC3    C310869   2.455   4.567  11.647 -0.1308  0.2002 -0.0441
  732TMC3    C410870   2.659   4.648  11.810  0.3060  0.3014 -0.1399
  732TMC3    C510871   2.665   4.663  11.673  0.2818 -0.4242  0.1970
  732TMC3    C610872   2.563   4.623  11.588  0.3416 -0.6993 -0.3171
  732TMC3     C10873   2.526   4.629  12.005  0.1468  0.3237 -0.0260
  732TMC3     O10874   2.629   4.656  12.067  0.5824  0.0358  0.6512
  732TMC3     H10875   2.349   4.503  11.832  0.8020  0.4709  2.0453
  732TMC3    H110876   2.735   4.702  11.866  0.3370  1.1402 -0.9858
  732TMC3    H210877   2.566   4.629  11.480  2.9477 -1.8342 -0.2841
  732TMC3    C710878   2.792   4.661  11.609  0.4457  0.1535  0.3332
  732TMC3    C810879   2.371   4.492  11.552 -0.4780  0.1149  0.4806
  732TMC3    O110880   2.789   4.684  11.491  0.3059  0.1930 -0.1053
  732TMC3    O210881   2.423   4.469  11.447  0.0938 -0.5856 -0.2251
  733TMC3    C110882   2.945   3.013  13.455  0.0441  0.1054  0.4501
  733TMC3    C210883   2.918   3.134  13.394  0.6050 -0.1542 -0.0009
  733TMC3    C310884   2.980   3.172  13.277  0.1260 -0.1236  0.1891
  733TMC3    C410885   3.035   2.930  13.391 -0.2728  0.3153  0.1053
  733TMC3    C510886   3.086   2.961  13.269  0.8209  0.6655 -0.0276
  733TMC3    C610887   3.060   3.079  13.206  0.1128  0.2739  0.1755
  733TMC3     C10888   2.827   2.943  13.503  0.0393 -0.8076  0.1763
  733TMC3     O10889   2.719   2.992  13.463 -0.1284 -0.4139  0.3119
  733TMC3     H10890   2.843   3.197  13.441  1.3916  1.7983 -1.3238
  733TMC3    H110891   3.068   2.838  13.439 -1.7024 -1.5051 -2.4541
  733TMC3    H210892   3.120   3.104  13.119  2.7607 -0.1306  1.9204
  733TMC3    C710893   3.162   2.862  13.189  0.4706 -0.3139  0.3898
  733TMC3    C810894   2.920   3.283  13.205 -0.6764 -0.4495  0.1811
  733TMC3    O110895   3.249   2.796  13.245  0.1486 -0.3397  0.1525
  733TMC3    O210896   2.870   3.376  13.269 -0.5255  0.6672  0.2646
  734MPD2     C10897   0.272   4.215  12.767 -0.4801  0.0147 -0.1108
  734MPD2    C110898   0.233   4.154  12.652  0.1411  0.2732  0.0953
  734MPD2    C210899   0.285   4.196  12.525  0.6398 -0.1663 -0.3127
  734MPD2    C310900   0.368   4.304  12.510  0.1568  0.8427  0.9383
  734MPD2    C410901   0.394   4.367  12.632 -0.1505  0.1273 -1.0809
  734MPD2    C510902   0.345   4.329  12.757  0.3870 -0.3872 -0.1393
  734MPD2     H10903   0.257   4.150  12.431 -1.5436  0.4364  0.0514
  734MPD2    H110904   0.448   4.460  12.626  0.6146 -0.1878  0.8180
  734MPD2    H210905   0.235   4.182  12.863  1.3055 -0.6619  0.3499
  734MPD2    H310906   0.359   4.386  12.848 -0.1437  1.0244 -0.9524
  734MPD2     N10907   0.432   4.328  12.381 -0.1577  0.0251  0.1531
  734MPD2    H510908   0.388   4.269  12.312 -0.9788  1.0378 -0.1954
  734MPD2    N110909   0.163   4.037  12.669  0.2817 -0.3153  0.1941
  734MPD2    H710910   0.133   4.000  12.759  3.4325 -2.1202  0.4901
  735TMC3    C110911   0.111   3.819  12.589  0.0151 -0.0291 -0.0492
  735TMC3    C210912   0.047   3.749  12.488  0.1668  0.5065 -0.0946
  735TMC3    C310913   0.103   3.634  12.432 -0.0998 -1.0520 -0.1531
  735TMC3    C410914   0.231   3.771  12.639 -0.6127  0.6407 -0.9201
  735TMC3    C510915   0.289   3.665  12.577  0.9953 -0.4635 -0.6691
  735TMC3    C610916   0.218   3.593  12.481 -0.8213  0.0011 -0.2775
  735TMC3     C10917   0.115   3.961  12.557 -0.5871  0.3867 -0.9892
  735TMC3     O10918   0.101   3.982  12.437 -0.6382 -0.1604  0.3341
  735TMC3     H10919   4.695   3.795  12.433 -0.7001  0.0805  0.8247
  735TMC3    H110920   0.287   3.839  12.702 -0.3451 -1.0706  0.6883
  735TMC3    H210921   0.280   3.523  12.426 -0.1446 -0.4333  1.0350
  735TMC3    C710922   0.434   3.660  12.558 -0.1459  0.0947 -0.1374
  735TMC3    C810923   0.115   3.629  12.288 -0.6070  0.2043  0.7054
  735TMC3    O110924   0.472   3.615  12.450 -1.0341  0.0366 -0.1085
  735TMC3    O210925   0.113   3.516  12.237 -0.8080  0.2290 -0.0368
  736MPD2     C10926   0.699   3.838  12.756 -0.3877  0.5529 -0.2663
  736MPD2    C110927   0.654   3.746  12.657  1.1005  0.0047 -0.1124
  736MPD2    C210928   0.740   3.699  12.560  1.0431  0.3348 -0.4564
  736MPD2    C310929   0.867   3.758  12.550 -0.7279 -0.3599 -0.6035
  736MPD2    C410930   0.903   3.845  12.647  0.3602 -0.2938 -0.0372
  736MPD2    C510931   0.824   3.875  12.755  0.1164  0.5498  0.1403
  736MPD2     H10932   0.706   3.636  12.479 -1.6421 -1.8269  2.3623
  736MPD2    H110933   1.000   3.892  12.635 -0.2744  0.1655 -3.4849
  736MPD2    H210934   0.623   3.873  12.825 -1.5240  1.4909 -1.9814
  736MPD2    H310935   0.860   3.945  12.829 -1.0892  0.1260  1.1063
  736MPD2     N10936   0.963   3.735  12.453 -0.1025 -0.0596  0.1541
  736MPD2    H510937   1.051   3.784  12.457 -2.1747  3.6772  0.2561
  736MPD2    N110938   0.508   3.719  12.656  0.1434  0.1500 -0.5268
  736MPD2    H710939   0.453   3.743  12.738  2.4275  3.1252  0.1215
  737TMC3    C110940   1.023   3.672  12.234 -0.4207 -0.7693  0.1028
  737TMC3    C210941   1.083   3.796  12.220  0.6176  0.2891 -0.4880
  737TMC3    C310942   1.148   3.820  12.102 -0.7100  0.4719  0.4489
  737TMC3    C410943   1.019   3.578  12.139  0.3963 -0.3738 -0.2580
  737TMC3    C510944   1.073   3.612  12.015  0.2698 -0.0650  0.3103
  737TMC3    C610945   1.134   3.738  11.996  0.0461  0.1695  0.2043
  737TMC3     C10946   0.944   3.644  12.352  0.3794  0.0322 -0.2962
  737TMC3     O10947   0.881   3.540  12.358 -0.1808  0.4260 -0.4553
  737TMC3     H10948   1.089   3.875  12.295 -1.1128 -0.6436  0.6373
  737TMC3    H110949   0.977   3.479  12.152  0.8291 -0.8122 -2.2202
  737TMC3    H210950   1.172   3.762  11.897 -1.4717 -0.7143 -0.6034
  737TMC3    C710951   1.100   3.512  11.913 -0.2404 -0.4735  0.6971
  737TMC3    C810952   1.178   3.956  12.075 -0.1144  0.0885 -0.4378
  737TMC3    O110953   1.123   3.397  11.940  0.5259 -0.5582 -0.1263
  737TMC3    O210954   1.218   4.025  12.169  0.1698  0.0823  0.6420
  738MPD2     C10955   0.760   3.191  14.908 -0.6661 -0.1873  0.5138
  738MPD2    C110956   0.869   3.130  14.974  0.5322  0.0077 -0.6709
  738MPD2    C210957   0.980   3.207  15.000  0.6782 -0.1249  0.4533
  738MPD2    C310958   0.991   3.339  14.957 -0.2751 -0.1000  0.2929
  738MPD2    C410959   0.885   3.397  14.890  0.2208 -0.6195 -0.2249
  738MPD2    C510960   0.770   3.324  14.884  0.8074 -0.2982 -0.3730
  738MPD2     H10961   1.068   3.159  15.041 -0.9481 -2.4142  1.2723
  738MPD2    H110962   0.886   3.500  14.856  0.8433 -0.9328 -1.1650
  738MPD2    H210963   0.662   3.147  14.891  0.3920 -1.2501 -2.8212
  738MPD2    H310964   0.682   3.364  14.834 -0.0822  0.1312  1.5453
  738MPD2     N10965   1.111   3.411  14.965  0.0758 -0.8458 -0.0677
  738MPD2    H510966   1.123   3.496  14.911 -0.5226  0.5667  2.0323
  738MPD2    N110967   0.874   2.996  15.001 -0.3948 -0.0252  0.4298
  738MPD2    H710968   0.944   2.961  15.066 -0.6554 -0.2298  0.6024
  739TMC3    C110969   1.320   3.478  15.060  0.3728 -0.7452 -0.1383
  739TMC3    C210970   1.358   3.533  14.941 -0.5227 -0.1603  0.1700
  739TMC3    C310971   1.468   3.618  14.940  0.3653 -0.5516 -0.6622
  739TMC3    C410972   1.396   3.502  15.168  0.1996 -0.5273 -0.0537
  739TMC3    C510973   1.500   3.590  15.160 -0.0624  1.1461 -0.3224
  739TMC3    C610974   1.536   3.655  15.052  0.8206 -0.0590  0.1865
  739TMC3     C10975   1.209   3.382  15.058 -0.5646 -0.4054 -0.5621
  739TMC3     O10976   1.210   3.299  15.147 -0.2154 -0.1423 -0.2272
  739TMC3     H10977   1.313   3.499  14.849  1.4191  0.1455 -0.8817
  739TMC3    H110978   1.380   3.456  15.265 -1.0801  0.5942  0.2759
  739TMC3    H210979   1.622   3.720  15.053  0.1638  0.8147  0.1037
  739TMC3    C710980   1.554   3.627  15.291  0.8095 -0.4343  0.6246
  739TMC3    C810981   1.493   3.682  14.819  0.1906  0.1206 -0.1421
  739TMC3    O110982   1.546   3.547  15.384  0.0223  0.5704  0.5493
  739TMC3    O210983   1.407   3.676  14.733  0.2819 -0.1524  0.3914
  740TMC3    C110984   1.669   0.014  14.288 -0.0499  0.5029 -0.4444
  740TMC3    C210985   1.787   4.695  14.335  0.5881  0.5595 -0.0003
  740TMC3    C310986   1.886   4.670  14.245  0.5090  0.2754 -0.1120
  740TMC3    C410987   1.649   0.051  14.157  0.2257  0.4469 -0.1184
  740TMC3    C510988   1.753   0.035  14.069  0.2618  0.3908 -0.9776
  740TMC3    C610989   1.874   4.705  14.111  1.0045 -0.4022 -0.9959
  740TMC3     C10990   1.582   0.079  14.384  0.1538  0.0326 -0.4412
  740TMC3     O10991   1.539   0.190  14.351  0.1353  0.5288  0.2093
  740TMC3     H10992   1.795   4.665  14.438  0.1122  1.0143  0.1704
  740TMC3    H110993   1.553   0.090  14.125 -2.0748 -3.2317  2.4007
  740TMC3    H210994   1.955   4.694  14.040  0.4798  1.8979 -1.9511
  740TMC3    C710995   1.729   0.077  13.929  0.9380  0.3490  0.2837
  740TMC3    C810996   2.015   4.612  14.292  0.2751  0.2698  0.0325
  740TMC3    O110997   1.613   0.073  13.896 -0.4492 -0.0206  0.1141
  740TMC3    O210998   2.103   4.612  14.209  0.6042 -0.3119  0.7369
  741TMC3    C110999   1.376   4.045  14.326  0.2256  0.1697 -0.1645
  741TMC3    C211000   1.283   3.944  14.308 -0.2537  0.4387 -0.1368
  741TMC3    C311001   1.245   3.870  14.424 -0.3972 -0.5235  0.2584
  741TMC3    C411002   1.443   4.063  14.449  0.3910  0.4211 -0.2003
  741TMC3    C511003   1.405   3.988  14.554  0.3119 -0.2321  0.3463
  741TMC3    C611004   1.302   3.893  14.550 -0.6633  0.2542 -0.5999
  741TMC3     C11005   1.448   4.080  14.209 -0.3459 -0.3107  0.1444
  741TMC3     O11006   1.569   4.080  14.224  0.0173  0.3497 -0.1834
  741TMC3     H11007   1.235   3.924  14.213 -1.1678 -0.6145  0.5554
  741TMC3    H111008   1.535   4.120  14.450  0.7017 -0.0897 -0.0632
  741TMC3    H211009   1.278   3.834  14.638  0.7970 -0.6408 -0.8093
  741TMC3    C711010   1.444   4.044  14.685 -0.4147  0.2559 -0.4315
  741TMC3    C811011   1.120   3.805  14.417 -1.0886 -0.2835  0.0401
  741TMC3    O111012   1.529   4.135  14.673 -0.0519 -0.1867 -0.6587
  741TMC3    O211013   1.045   3.849  14.332 -0.6315  0.0645 -0.0973
  742TMC3    C111014   1.193   2.067  15.303 -0.5234  0.3200 -0.8322
  742TMC3    C211015   1.146   2.094  15.181  0.3462 -0.4978  0.9780
  742TMC3    C311016   1.168   2.220  15.128  0.8418  0.0900 -0.5006
  742TMC3    C411017   1.296   2.135  15.356 -0.3908 -0.0667  0.1137
  742TMC3    C511018   1.327   2.257  15.298 -0.1258 -0.0252 -0.5291
  742TMC3    C611019   1.271   2.290  15.180 -0.6672  0.2940  0.0613
  742TMC3     C11020   1.161   1.941  15.359  0.1991 -0.6130 -0.4699
  742TMC3     O11021   1.102   1.864  15.285 -0.2233 -0.5450  0.1600
  742TMC3     H11022   1.064   2.026  15.158  1.2777 -0.7672 -1.4965
  742TMC3    H111023   1.343   2.103  15.448  1.9696  2.8510 -0.0880
  742TMC3    H211024   1.315   2.378  15.134  1.5338 -1.2255 -0.7761
  742TMC3    C711025   1.446   2.308  15.354  0.5905 -0.5399 -0.6961
  742TMC3    C811026   1.153   2.219  14.978  0.2073 -0.1743  0.4364
  742TMC3    O111027   1.456   2.317  15.475 -0.1495  0.2247 -0.8773
  742TMC3    O211028   1.117   2.116  14.926  0.0009 -0.1902  0.4065
  743MPD2     C11029   0.099   3.760   1.815  0.0611 -0.7239 -0.3049
  743MPD2    C111030   0.126   3.727   1.682 -0.3358 -0.6323  0.3560
  743MPD2    C211031   0.257   3.710   1.646  0.4145  0.4686 -0.2457
  743MPD2    C311032   0.359   3.728   1.737 -0.3291  0.1057  0.3772
  743MPD2    C411033   0.326   3.763   1.869 -0.4268  0.0821  0.4357
  743MPD2    C511034   0.195   3.772   1.908 -0.5167 -0.0155 -0.7507
  743MPD2     H11035   0.279   3.701   1.540  0.6779 -0.7032 -0.0939
  743MPD2    H111036   0.399   3.789   1.945  0.7144 -0.3807 -0.4981
  743MPD2    H211037   4.723   3.775   1.837  0.3298 -0.6648  0.9011
  743MPD2    H311038   0.171   3.790   2.012  2.1738 -1.2816  0.0937
  743MPD2     N11039   0.494   3.710   1.696 -0.0077  0.5384 -0.0829
  743MPD2    H511040   0.511   3.659   1.610 -1.8987  0.9826 -0.7111
  743MPD2    N111041   0.011   3.727   1.595 -0.4107 -0.1472 -0.5427
  743MPD2    H711042   4.645   3.744   1.627 -0.4550  0.0934 -0.7975
  744TMC3    C111043   4.618   3.692   1.389  0.0441 -0.7080  0.2657
  744TMC3    C211044   4.533   3.795   1.421 -0.3286  0.2671  0.4392
  744TMC3    C311045   4.414   3.803   1.363 -0.1986  0.7751  0.0997
  744TMC3    C411046   4.591   3.604   1.291  0.1577  0.1084 -0.1182
  744TMC3    C511047   4.464   3.609   1.239 -0.7210  0.5189 -0.0003
  744TMC3    C611048   4.371   3.711   1.272  0.6345 -0.3763 -0.2313
  744TMC3     C11049   0.015   3.672   1.465  0.0980  0.5607 -0.2993
  744TMC3     O11050   0.113   3.620   1.412 -0.2721 -0.1330 -0.2156
  744TMC3     H11051   4.574   3.864   1.494  0.3418  1.5938 -1.1731
  744TMC3    H111052   4.655   3.518   1.283  0.0822 -0.2045  2.8081
  744TMC3    H211053   4.273   3.717   1.226  0.3052 -0.5156  0.4392
  744TMC3    C711054   4.421   3.500   1.160  0.0911  0.9467  0.2416
  744TMC3    C811055   4.307   3.877   1.425  0.7966 -0.4183 -0.0850
  744TMC3    O111056   4.496   3.465   1.069  0.0015  0.0654  0.7497
  744TMC3    O211057   4.192   3.871   1.377 -0.6343 -0.5858 -0.0831
  745TMC3    C111058   1.992   1.856  13.274 -0.1172  0.3501 -0.0019
  745TMC3    C211059   1.869   1.863  13.329 -0.1276  0.4773 -1.0578
  745TMC3    C311060   1.766   1.824  13.250 -0.0025 -0.1520 -0.0867
  745TMC3    C411061   2.014   1.814  13.145 -0.5645 -0.3484  0.1254
  745TMC3    C511062   1.900   1.798  13.066 -0.2573 -0.2466  0.4564
  745TMC3    C611063   1.775   1.791  13.116  0.0998 -0.0204  0.2770
  745TMC3     C11064   2.116   1.878  13.351  0.4979 -0.2293  0.4027
  745TMC3     O11065   2.214   1.814  13.322 -0.6633 -0.2057  0.8509
  745TMC3     H11066   1.868   1.874  13.437 -2.1690 -0.0839 -1.0369
  745TMC3    H111067   2.113   1.812  13.101 -1.2120 -0.3085 -1.3459
  745TMC3    H211068   1.691   1.789  13.047  0.7833 -0.2152 -0.5357
  745TMC3    C711069   1.903   1.864  12.938  0.7058  0.0498  0.3522
  745TMC3    C811070   1.641   1.890  13.278 -0.3065  0.4965 -0.9800
  745TMC3    O111071   1.841   1.835  12.835  0.0893  0.0142  0.5651
  745TMC3    O211072   1.537   1.834  13.242  0.7713 -0.0437  0.6393
  746TMC3    C111073   4.519   4.010  10.663 -0.2467 -0.1297 -0.6431
  746TMC3    C211074   4.517   4.042  10.534 -0.6097 -0.7895  1.0120
  746TMC3    C311075   4.445   3.960  10.453 -0.1667 -0.2909 -0.6070
  746TMC3    C411076   4.466   3.895  10.719  0.0971  0.3559 -0.1602
  746TMC3    C511077   4.393   3.817  10.642  0.1035 -0.5151  0.5274
  746TMC3    C611078   4.388   3.843  10.504  0.1917 -0.4607  1.2482
  746TMC3     C11079   4.563   4.112  10.756 -0.0208 -0.3068  0.3846
  746TMC3     O11080   4.494   4.125  10.857  0.4062 -0.3241  0.0308
  746TMC3     H11081   4.545   4.140  10.498  1.7503 -1.8469  0.0076
  746TMC3    H111082   4.473   3.869  10.824  0.9585  2.1919  0.2377
  746TMC3    H211083   4.326   3.783  10.437  0.1294 -2.0086  2.7037
  746TMC3    C711084   4.267   3.778  10.708  0.6089  0.6190  0.1490
  746TMC3    C811085   4.400   3.992  10.317 -0.6051  0.2017  0.2605
  746TMC3    O111086   4.188   3.714  10.646 -0.1625 -0.6508 -0.1141
  746TMC3    O211087   4.390   3.901  10.234 -0.5397 -0.3957  0.0129
  747TMC3    C111088   1.239   3.785  10.900 -0.1445  0.8190  0.6685
  747TMC3    C211089   1.185   3.689  10.984  0.4205 -0.2166 -0.0448
  747TMC3    C311090   1.227   3.690  11.115  0.1577  0.0851  0.4975
  747TMC3    C411091   1.316   3.888  10.956  0.1340  0.0405  0.1543
  747TMC3    C511092   1.331   3.895  11.091  0.0133 -0.1123  1.0128
  747TMC3    C611093   1.300   3.793  11.176 -0.1624 -0.8922 -0.4507
  747TMC3     C11094   1.203   3.806  10.756  0.1498 -0.4398 -0.0503
  747TMC3     O11095   1.262   3.895  10.695  0.4009 -0.2701  0.6011
  747TMC3     H11096   1.121   3.608  10.948 -1.0041 -0.0926  2.1656
  747TMC3    H111097   1.346   3.971  10.892  0.4646  2.0807  2.9441
  747TMC3    H211098   1.328   3.789  11.280  3.7691 -0.3910 -1.4869
  747TMC3    C711099   1.364   4.027  11.137 -0.1593 -0.0193 -0.2966
  747TMC3    C811100   1.156   3.589  11.192 -0.0700 -0.0054  0.2975
  747TMC3    O111101   1.346   4.117  11.059 -0.0054  0.1167 -0.1852
  747TMC3    O211102   1.140   3.485  11.130  0.2021 -0.0038  0.1670
  748MPD2     C11103   3.958   4.520   1.519 -0.1631  0.1147 -0.1450
  748MPD2    C111104   3.836   4.563   1.472  0.4369  0.4419 -0.6266
  748MPD2    C211105   3.823   4.582   1.335  0.0686  0.1298  0.1258
  748MPD2    C311106   3.928   4.553   1.243 -0.1944 -0.3259 -0.6905
  748MPD2    C411107   4.044   4.508   1.299 -0.1373  0.0879 -0.3878
  748MPD2    C511108   4.059   4.493   1.437 -0.0687  1.0507 -0.1216
  748MPD2     H11109   3.733   4.627   1.294  1.5948  0.7107 -2.6096
  748MPD2    H111110   4.123   4.464   1.240  1.5703  2.5268  0.0594
  748MPD2    H211111   3.975   4.495   1.623  1.4552  0.1935 -0.3938
  748MPD2    H311112   4.154   4.452   1.467  0.3432  2.6132  0.7054
  748MPD2     N11113   3.925   4.584   1.101 -0.1523  0.3556  0.4488
  748MPD2    H511114   4.000   4.543   1.046 -0.5609 -0.8467  0.7877
  748MPD2    N111115   3.726   4.598   1.553 -0.3132 -0.9841  0.2830
  748MPD2    H711116   3.635   4.608   1.510  0.1566  0.5092 -0.3733
  749TMC3    C111117   3.851   4.676   0.901 -0.5822 -0.6302  0.5500
  749TMC3    C211118   3.901   4.566   0.834 -0.4194 -0.2348  0.7594
  749TMC3    C311119   3.926   4.583   0.704  0.3020 -0.4684  0.5930
  749TMC3    C411120   3.810   0.062   0.842  0.0789 -0.6269 -0.0950
  749TMC3    C511121   3.846   0.075   0.711 -0.4995  0.0892 -0.5829
  749TMC3    C611122   3.914   4.706   0.644  0.7073 -0.4790  0.0240
  749TMC3     C11123   3.832   4.667   1.045 -0.2723  0.1497  0.4228
  749TMC3     O11124   3.734   4.720   1.090  0.4129 -0.0727 -0.0217
  749TMC3     H11125   3.913   4.470   0.884 -0.9539 -0.2578  0.8546
  749TMC3    H111126   3.762   0.144   0.895  1.1446  0.2788 -0.5208
  749TMC3    H211127   3.955   4.722   0.545  2.1058  0.4178  0.7473
  749TMC3    C711128   3.833   0.207   0.656  0.2456  0.1757  0.2886
  749TMC3    C811129   3.994   4.480   0.630 -0.0772  0.3930 -0.5350
  749TMC3    O111130   3.781   0.295   0.723  0.4269  0.2540 -0.7358
  749TMC3    O211131   3.989   4.495   0.507 -0.5048  0.4157  0.2893
  750MPD2     C11132   4.366   0.931  11.115 -0.1293  0.2983 -0.0901
  750MPD2    C111133   4.273   0.892  11.211 -0.0566  0.1654  0.4484
  750MPD2    C211134   4.278   0.765  11.256  0.4088 -0.2048 -0.6428
  750MPD2    C311135   4.370   0.678  11.216 -0.1610 -0.2798 -0.5719
  750MPD2    C411136   4.451   0.711  11.109  0.1648 -0.0900 -0.4545
  750MPD2    C511137   4.451   0.840  11.063  0.2044 -0.0483 -0.6206
  750MPD2     H11138   4.211   0.752  11.340  1.2768 -3.1857 -0.4158
  750MPD2    H111139   4.520   0.637  11.070  2.2894  0.9831  1.3160
  750MPD2    H211140   4.363   1.027  11.066  1.7252  0.2358 -0.3219
  750MPD2    H311141   4.515   0.870  10.982 -1.5569 -1.6772 -2.6121
  750MPD2     N11142   4.383   0.546  11.266  0.6109  0.1376  0.2932
  750MPD2    H511143   4.435   0.480  11.209 -0.6269  0.4968 -1.2328
  750MPD2    N111144   4.180   0.989  11.254  0.2733 -0.1253  1.4125
  750MPD2    H711145   4.210   1.085  11.236  0.1936 -0.5908 -1.2133
  751TMC3    C111146   4.322   0.351  11.389  0.1633  0.3780  0.3813
  751TMC3    C211147   4.210   0.285  11.424 -0.0036  0.0979  0.0962
  751TMC3    C311148   4.205   0.150  11.390 -0.0480  0.4728  0.7712
  751TMC3    C411149   4.428   0.289  11.332 -0.8782 -0.3095  0.2041
  751TMC3    C511150   4.423   0.154  11.306  0.4683 -0.0037  0.0334
  751TMC3    C611151   4.309   0.079  11.335 -0.0848 -0.1164 -0.8711
  751TMC3     C11152   4.308   0.494  11.373  0.7848 -0.3234 -0.1341
  751TMC3     O11153   4.236   0.551  11.455  0.4402 -0.0888 -0.4643
  751TMC3     H11154   4.115   0.329  11.450  0.8439  0.4353  2.6005
  751TMC3    H111155   4.512   0.344  11.290 -0.9325 -1.8237 -1.8864
  751TMC3    H211156   4.298   4.703  11.311 -0.2976 -0.4816  0.8056
  751TMC3    C711157   4.500   0.113  11.189 -0.0251  0.1464 -0.9132
  751TMC3    C811158   4.078   0.086  11.373 -0.4852 -0.3671 -0.6138
  751TMC3    O111159   4.590   0.188  11.148  0.5108  0.4464  0.3295
  751TMC3    O211160   4.067   0.016  11.274  0.0304  0.2939 -0.9811
  752TMC3    C111161   2.673   0.812  17.194 -0.1866  0.5411 -0.0044
  752TMC3    C211162   2.758   0.707  17.232  1.1422  0.6087  0.1432
  752TMC3    C311163   2.717   0.624  17.329  0.3317  0.0728  0.9740
  752TMC3    C411164   2.555   0.843  17.255  0.2258  0.1677 -0.2471
  752TMC3    C511165   2.518   0.756  17.351 -0.0827  0.0808 -0.2674
  752TMC3    C611166   2.594   0.654  17.392  0.0486 -0.5555 -0.0235
  752TMC3     C11167   2.734   0.897  17.096  0.5054  0.6813  0.3671
  752TMC3     O11168   2.856   0.899  17.091  0.3497  0.4367  0.5792
  752TMC3     H11169   2.854   0.692  17.184  0.7149  1.8050 -1.0878
  752TMC3    H111170   2.509   0.939  17.236 -2.2123 -0.8166  0.6839
  752TMC3    H211171   2.568   0.584  17.470  0.2929 -1.1450 -0.4691
  752TMC3    C711172   2.386   0.757  17.403 -0.1973 -0.4396  0.3098
  752TMC3    C811173   2.785   0.491  17.344  0.3188  0.9079  0.2041
  752TMC3    O111174   2.373   0.691  17.506  0.2503  0.3987  0.2826
  752TMC3    O211175   2.783   0.438  17.454 -0.4985 -0.5010  0.8522
  753TMC3    C111176   0.161   1.740  13.150  0.4481  0.1597 -0.4836
  753TMC3    C211177   0.191   1.758  13.283 -0.1711  0.3401  0.9179
  753TMC3    C311178   0.224   1.639  13.356  0.0858 -0.6417 -0.6263
  753TMC3    C411179   0.158   1.613  13.096  0.5550  0.2716 -0.5837
  753TMC3    C511180   0.178   1.502  13.172  0.0301 -0.4815  0.4448
  753TMC3    C611181   0.219   1.512  13.302  0.1953  0.0455  0.1632
  753TMC3     C11182   0.108   1.848  13.063 -0.0050 -0.3403  0.1053
  753TMC3     O11183   0.057   1.829  12.954 -0.0310  0.1005 -0.6902
  753TMC3     H11184   0.191   1.857  13.328  2.7254  1.1108 -0.7677
  753TMC3    H111185   0.125   1.607  12.992 -0.4672  1.5610 -0.3360
  753TMC3    H211186   0.216   1.425  13.366  1.0129 -2.3536 -3.0746
  753TMC3    C711187   0.158   1.376  13.102  0.3345  0.0452 -0.5021
  753TMC3    C811188   0.284   1.653  13.485 -0.6649  0.2784 -0.2972
  753TMC3    O111189   0.158   1.387  12.981 -0.4969 -0.5371  0.0790
  753TMC3    O211190   0.369   1.570  13.511  0.1505  0.0774 -0.2528
  754MPD2     C11191   3.427   0.436  12.789 -0.2875  0.3989 -0.1920
  754MPD2    C111192   3.530   0.531  12.806 -0.0831  0.2669 -0.0407
  754MPD2    C211193   3.510   0.662  12.759 -0.8059  0.3634  0.0721
  754MPD2    C311194   3.384   0.695  12.701 -0.8154 -0.9638 -0.2199
  754MPD2    C411195   3.291   0.599  12.678  0.0815 -0.5517  0.1956
  754MPD2    C511196   3.315   0.474  12.715  0.1283  0.4516  0.3858
  754MPD2     H11197   3.585   0.740  12.762  1.7248 -1.9914 -2.2894
  754MPD2    H111198   3.194   0.619  12.634 -0.2718 -1.1761  0.6931
  754MPD2    H211199   3.436   0.336  12.831 -1.1778  1.1808  1.8884
  754MPD2    H311200   3.237   0.401  12.697 -0.7770  0.9030  2.5101
  754MPD2     N11201   3.349   0.827  12.666  0.6211 -0.0947  0.2236
  754MPD2    H511202   3.276   0.845  12.598  2.0930  1.2246 -0.9956
  754MPD2    N111203   3.645   0.502  12.884 -0.3403  0.4383 -0.1686
  754MPD2    H711204   3.706   0.582  12.899 -0.4776  0.4443  0.3452
  755MPD2     C11205   3.601   1.062  13.441 -0.5139 -0.5304 -0.1789
  755MPD2    C111206   3.491   1.141  13.440 -0.2684  0.5685  0.5659
  755MPD2    C211207   3.430   1.168  13.316  0.0069  0.3832 -0.3617
  755MPD2    C311208   3.480   1.111  13.198  0.2022  0.7297 -0.4773
  755MPD2    C411209   3.597   1.033  13.204  0.3222 -0.0126 -0.2042
  755MPD2    C511210   3.652   1.010  13.328  0.1603 -0.7108  0.1761
  755MPD2     H11211   3.347   1.236  13.305  0.6598  1.5417  1.8532
  755MPD2    H111212   3.646   0.987  13.120  2.0030  0.3984  0.5521
  755MPD2    H211213   3.647   1.033  13.535  2.6449 -0.4587 -1.7003
  755MPD2    H311214   3.741   0.951  13.347  2.2112  2.0585 -0.6982
  755MPD2     N11215   3.423   1.122  13.076 -0.4333  0.0268  0.4224
  755MPD2    H511216   3.464   1.068  13.001 -1.9612 -1.9986  1.0672
  755MPD2    N111217   3.428   1.198  13.552 -0.0374 -0.1968  0.4776
  755MPD2    H711218   3.336   1.238  13.535 -0.2510  0.0281  2.1210
  756MPD2     C11219   3.312   1.743   9.634 -0.0015 -0.0189  0.2421
  756MPD2    C111220   3.263   1.645   9.712 -0.1029  0.2102 -0.1884
  756MPD2    C211221   3.149   1.576   9.674  0.4781  0.4800  0.0175
  756MPD2    C311222   3.085   1.609   9.555  0.0855  0.2327  0.4466
  756MPD2    C411223   3.138   1.711   9.473  0.4331  0.7352  0.0189
  756MPD2    C511224   3.244   1.783   9.517 -0.3194  0.1943  0.2379
  756MPD2     H11225   3.116   1.496   9.739 -1.5757  1.1573 -0.1915
  756MPD2    H111226   3.088   1.742   9.382  1.9548 -0.8590 -1.3325
  756MPD2    H211227   3.408   1.788   9.654 -0.2837  1.1128 -0.9597
  756MPD2    H311228   3.280   1.873   9.470 -1.8121 -0.0643 -1.3944
  756MPD2     N11229   2.967   1.529   9.514  0.2384  0.5194 -0.2038
  756MPD2    H511230   2.948   1.445   9.567 -1.1598  1.5596  0.9432
  756MPD2    N111231   3.308   1.618   9.846 -0.7242  0.1671 -0.3787
  756MPD2    H711232   3.252   1.559   9.906  2.4295  0.5927  3.0401
  757MPD2     C11233   2.919   0.656   9.457 -0.0770  0.5317 -0.0401
  757MPD2    C111234   3.010   0.745   9.409 -0.1757  0.0059  0.0468
  757MPD2    C211235   2.965   0.874   9.399  0.3595  0.1387  0.1917
  757MPD2    C311236   2.849   0.921   9.456  0.0596 -0.0150 -0.3939
  757MPD2    C411237   2.768   0.831   9.525  0.4401  0.7692  0.3063
  757MPD2    C511238   2.796   0.697   9.501  0.0095 -0.0404 -0.7587
  757MPD2     H11239   3.023   0.952   9.352  0.3482  0.2452  0.3548
  757MPD2    H111240   2.684   0.859   9.588  0.1438 -0.2283  0.3695
  757MPD2    H211241   2.943   0.550   9.459 -0.0103  0.5459 -0.1112
  757MPD2    H311242   2.735   0.620   9.546  1.9235 -1.2201 -0.1485
  757MPD2     N11243   2.816   1.053   9.439 -0.3718  0.1634  0.4366
  757MPD2    H511244   2.881   1.111   9.387 -0.0312 -0.2646  0.3847
  757MPD2    N111245   3.139   0.702   9.378 -0.4681 -0.2353 -0.3993
  757MPD2    H711246   3.159   0.606   9.407 -1.8776 -0.2979  0.3210
  758MPD2     C11247   3.854   0.670  15.774  0.1342 -0.8217 -0.2153
  758MPD2    C111248   3.875   0.539  15.818 -0.3846 -0.0691 -0.1722
  758MPD2    C211249   3.816   0.494  15.932 -0.3465  0.6942 -0.2683
  758MPD2    C311250   3.730   0.582  16.005 -0.4596 -0.5534 -0.2369
  758MPD2    C411251   3.700   0.710  15.950 -0.3093 -0.1626 -0.7702
  758MPD2    C511252   3.773   0.753  15.842 -0.5643 -0.5717  0.0216
  758MPD2     H11253   3.835   0.399  15.980 -1.0191  1.0884  0.7958
  758MPD2    H111254   3.633   0.779  15.999 -1.8476 -1.5221 -0.9668
  758MPD2    H211255   3.912   0.725  15.700 -1.1250 -0.6644 -1.0758
  758MPD2    H311256   3.776   0.857  15.812  0.1265 -0.3943  0.7209
  758MPD2     N11257   3.690   0.573  16.140  0.1990  0.1713 -0.2173
  758MPD2    H511258   3.633   0.651  16.173  0.4020 -0.1273  0.8254
  758MPD2    N111259   3.976   0.461  15.749  0.3558 -0.3571  0.6406
  758MPD2    H711260   4.023   0.514  15.676 -0.3488 -0.9792 -0.2748
  759MPD2     C11261   1.259   4.419   9.601  0.5026 -0.0107  0.1049
  759MPD2    C111262   1.357   4.378   9.683 -0.5226 -0.3994 -0.3307
  759MPD2    C211263   1.484   4.439   9.687 -0.4378  0.0500 -0.8528
  759MPD2    C311264   1.515   4.548   9.605 -0.1899 -0.2292  0.0051
  759MPD2    C411265   1.410   4.596   9.525  0.2981 -0.2346  0.1648
  759MPD2    C511266   1.291   4.525   9.515 -0.2839  0.4983  0.1150
  759MPD2     H11267   1.567   4.420   9.754  0.0624  0.4830 -1.3497
  759MPD2    H111268   1.419   4.680   9.457 -0.1104 -1.0294 -0.8670
  759MPD2    H211269   1.157   4.384   9.600  0.2747  0.6560 -0.4307
  759MPD2    H311270   1.209   4.575   9.466 -1.2350 -1.3272 -0.1643
  759MPD2     N11271   1.643   4.596   9.600 -0.0317 -0.1636 -0.4903
  759MPD2    H511272   1.701   4.549   9.669  2.0487  2.4224 -0.4538
  759MPD2    N111273   1.344   4.264   9.772  0.1168 -0.9544  0.2327
  759MPD2    H711274   1.426   4.239   9.827 -0.2077  0.5154  1.3807
  760MPD2     C11275   2.274   0.856  11.717 -0.4344 -0.0299 -0.2410
  760MPD2    C111276   2.382   0.903  11.641  0.1308  0.3886  0.7089
  760MPD2    C211277   2.422   0.834  11.529 -0.2194  0.4131  0.4633
  760MPD2    C311278   2.363   0.713  11.499 -0.1686  0.8903 -0.1847
  760MPD2    C411279   2.256   0.669  11.580  0.2618 -0.4152 -0.1797
  760MPD2    C511280   2.220   0.729  11.694 -0.2142 -0.4211 -0.3653
  760MPD2     H11281   2.510   0.866  11.475 -0.4045  0.7357  0.3574
  760MPD2    H111282   2.212   0.575  11.551  1.1023 -1.0902  0.7400
  760MPD2    H211283   2.224   0.903  11.801 -0.3649 -0.7494  0.1988
  760MPD2    H311284   2.138   0.693  11.755  0.1308 -0.0082  0.3366
  760MPD2     N11285   2.402   0.631  11.393 -0.1844  0.5351 -0.1161
  760MPD2    H511286   2.338   0.554  11.376  0.3759 -0.4435  2.2215
  760MPD2    N111287   2.457   1.021  11.669  0.1123 -0.0981  0.1588
  760MPD2    H711288   2.521   1.047  11.595 -1.8706 -1.9476 -2.1723
  761MPD2     C11289   3.578   0.048  11.430  0.6860  0.1328  0.1101
  761MPD2    C111290   3.657   0.066  11.318 -0.2726 -0.4139  0.5041
  761MPD2    C211291   3.791   0.089  11.335  0.6947 -0.0269  0.1466
  761MPD2    C311292   3.844   0.102  11.460  0.6621 -0.2088 -0.0196
  761MPD2    C411293   3.764   0.089  11.572  0.4656 -0.2759 -0.4157
  761MPD2    C511294   3.633   0.062  11.555  0.1610  0.6639 -0.3331
  761MPD2     H11295   3.856   0.108  11.251 -2.5654 -0.2615 -2.4386
  761MPD2    H111296   3.806   0.094  11.672  0.2430  1.5688 -0.4152
  761MPD2    H211297   3.471   0.028  11.431  1.0920 -1.9916  0.3608
  761MPD2    H311298   3.575   0.045  11.646  1.6132 -1.8504  0.1466
  761MPD2     N11299   3.984   0.121  11.472 -0.4639  0.0592 -0.4887
  761MPD2    H511300   4.014   0.157  11.562 -0.9722 -0.3106 -0.1714
  761MPD2    N111301   3.594   0.054  11.194 -0.0773  0.0071  0.1204
  761MPD2    H711302   3.493   0.051  11.196 -0.0248 -2.3580  0.0809
  762MPD2     C11303   3.925   4.447  10.520  0.1959  0.2249 -0.0899
  762MPD2    C111304   3.887   4.583  10.526  0.1448  0.0818  0.7171
  762MPD2    C211305   3.970   4.680  10.470 -0.7280 -0.5774  0.1629
  762MPD2    C311306   4.089   4.636  10.406  0.8396 -0.0777  0.3765
  762MPD2    C411307   4.118   4.504  10.396  0.3068 -0.1289  0.2336
  762MPD2    C511308   4.044   4.411  10.464 -0.6175  0.0373  0.2978
  762MPD2     H11309   3.946   0.056  10.470 -1.7662 -0.8238  1.2244
  762MPD2    H111310   4.197   4.469  10.330  0.1920  0.0522 -0.0039
  762MPD2    H211311   3.868   4.365  10.563 -0.2877  0.8451  0.4684
  762MPD2    H311312   4.056   4.303  10.455 -0.3891  0.2214 -1.5264
  762MPD2     N11313   4.165   0.005  10.339  0.8110 -0.2295 -0.8160
  762MPD2    H511314   4.116   0.091  10.315  1.9576  1.5745  3.4455
  762MPD2    N111315   3.764   4.602  10.591  0.4163 -0.2288  0.3942
  762MPD2    H711316   3.720   4.517  10.626  0.5673  0.4690  2.2872
  763MPD2     C11317   1.178   0.391  16.065  0.4771  0.3302  0.1849
  763MPD2    C111318   1.052   0.452  16.096 -0.1307  0.5414 -0.9227
  763MPD2    C211319   1.054   0.576  16.162 -0.2881 -0.0841  0.1635
  763MPD2    C311320   1.170   0.636  16.202 -0.6200 -0.1955  0.4902
  763MPD2    C411321   1.285   0.566  16.177 -0.1314  0.1771  0.2442
  763MPD2    C511322   1.290   0.446  16.115 -0.3661  0.4539 -0.1950
  763MPD2     H11323   0.961   0.631  16.161  1.1976  2.4426  0.8456
  763MPD2    H111324   1.379   0.609  16.208  0.5553 -0.4483 -0.9610
  763MPD2    H211325   1.184   0.306  15.998  3.1425  2.0351 -1.7303
  763MPD2    H311326   1.387   0.405  16.088  0.0954  0.3821  1.5072
  763MPD2     N11327   1.178   0.767  16.267  0.2052  0.1813 -0.2805
  763MPD2    H511328   1.259   0.823  16.288 -0.6151  1.4959 -0.6135
  763MPD2    N111329   0.931   0.410  16.037 -0.0350  0.0767  0.3266
  763MPD2    H711330   0.850   0.471  16.045  1.7692  2.5754 -0.6010
  764MPD2     C11331   3.252   1.777   0.007 -0.0491 -0.7975  0.4978
  764MPD2    C111332   3.164   1.742  17.628 -0.5016  0.1782 -0.0001
  764MPD2    C211333   3.072   1.652  17.664  0.0085 -0.3000  0.0584
  764MPD2    C311334   3.058   1.613   0.082 -0.1705 -0.1879  0.3537
  764MPD2    C411335   3.145   1.655   0.184 -0.0040 -0.3017 -0.2046
  764MPD2    C511336   3.243   1.739   0.141 -0.7037 -0.0058 -0.6285
  764MPD2     H11337   2.997   1.607  17.600 -1.8882  0.1326  1.9777
  764MPD2    H111338   3.126   1.641   0.290 -1.1367  0.5421 -0.2928
  764MPD2    H211339   3.331   1.843  17.689  1.4664 -2.1904  1.3098
  764MPD2    H311340   3.312   1.788   0.209 -2.3689 -0.6525  1.5499
  764MPD2     N11341   2.940   1.533   0.099 -1.2075 -0.0953  0.0810
  764MPD2    H511342   2.886   1.525   0.014 -3.1533  2.1557  1.1067
  764MPD2    N111343   3.167   1.785  17.498 -0.2899  0.2378  0.3675
  764MPD2    H711344   3.109   1.735  17.431  1.1857 -0.1197 -0.6560
  765MPD2     C11345   3.424   0.195  15.959  0.3135 -0.5553  0.4248
  765MPD2    C111346   3.505   0.259  15.863 -0.3413 -0.2496 -0.0646
  765MPD2    C211347   3.612   0.192  15.809 -0.8472 -0.2700  0.2023
  765MPD2    C311348   3.637   0.062  15.850  0.0508 -0.2936  0.2708
  765MPD2    C411349   3.561   0.001  15.947  0.2855 -0.5938  0.5404
  765MPD2    C511350   3.448   0.064  16.000 -0.3747 -0.6592  0.3387
  765MPD2     H11351   3.661   0.239  15.724 -2.1325 -1.9639 -1.4812
  765MPD2    H111352   3.582   4.629  15.981 -1.5637 -1.2640 -0.3325
  765MPD2    H211353   3.337   0.240  16.006  1.3907  1.9994 -0.0204
  765MPD2    H311354   3.388   0.017  16.077 -0.1884 -0.9072  0.3324
  765MPD2     N11355   3.747   4.724  15.793 -0.0573 -0.5856  0.5150
  765MPD2    H511356   3.788   0.043  15.714 -0.8103 -1.0448 -0.1500
  765MPD2    N111357   3.467   0.383  15.818 -0.6121 -0.3085  0.3860
  765MPD2    H711358   3.393   0.423  15.875 -0.1928 -0.6370  1.1700
  766MPD2     C11359   2.986   0.229  15.493  0.6135 -0.3488 -0.1011
  766MPD2    C111360   3.073   0.324  15.445  0.0875 -0.2088 -0.1447
  766MPD2    C211361   3.164   0.287  15.350  0.0209  0.2229 -0.0986
  766MPD2    C311362   3.149   0.171  15.280  0.0457  0.9449  0.2373
  766MPD2    C411363   3.056   0.083  15.319 -0.0571  0.5878 -0.9615
  766MPD2    C511364   2.983   0.111  15.429 -0.0407 -0.0599  0.3265
  766MPD2     H11365   3.247   0.353  15.326 -0.5227  1.3328  1.0663
  766MPD2    H111366   3.064   4.713  15.275 -1.4427 -0.1119  0.3733
  766MPD2    H211367   2.916   0.230  15.575  0.4410  1.1106 -0.2734
  766MPD2    H311368   2.934   0.031  15.483 -1.0911  1.2355  1.2947
  766MPD2     N11369   3.243   0.133  15.179  0.8915  0.4727 -0.8366
  766MPD2    H511370   3.220   0.058  15.115  3.0414 -0.6592 -0.2898
  766MPD2    N111371   3.092   0.443  15.513 -0.6805 -0.0778 -0.1505
  766MPD2    H711372   3.062   0.441  15.611 -1.9320  0.0015 -0.5285
  767MPD2     C11373   2.987   0.474  15.085  0.2597 -0.3605 -0.1186
  767MPD2    C111374   3.110   0.480  15.019 -0.6312 -0.3638  0.3335
  767MPD2    C211375   3.116   0.424  14.891 -0.5963  0.0616 -0.3830
  767MPD2    C311376   2.995   0.387  14.831  0.5405 -0.9569 -0.3687
  767MPD2    C411377   2.880   0.397  14.902  0.3091  0.3763 -0.0331
  767MPD2    C511378   2.870   0.442  15.027  0.3751 -0.4676 -0.8981
  767MPD2     H11379   3.209   0.416  14.835 -0.0300  0.8310  0.4475
  767MPD2    H111380   2.784   0.377  14.855  0.8426 -1.7322 -0.2040
  767MPD2    H211381   2.978   0.512  15.186 -0.0063 -3.1246  0.9160
  767MPD2    H311382   2.781   0.467  15.083  1.7526 -0.9016  1.4678
  767MPD2     N11383   3.004   0.322  14.705 -0.6534  0.1847  0.5851
  767MPD2    H511384   3.097   0.303  14.669 -1.3767  1.5220 -1.9275
  767MPD2    N111385   3.222   0.540  15.083  1.5584 -0.1501  0.2816
  767MPD2    H711386   3.209   0.578  15.176 -1.3857 -0.0241 -0.1717
  768MPD2     C11387   3.493   3.193  10.759 -0.0984 -0.3489 -0.6607
  768MPD2    C111388   3.587   3.291  10.764  0.5684  0.7032 -0.3060
  768MPD2    C211389   3.710   3.253  10.821  0.0214  0.1267  0.1687
  768MPD2    C311390   3.739   3.131  10.871  0.2597 -0.3389  0.9659
  768MPD2    C411391   3.637   3.041  10.859  0.4638 -0.1213  0.0626
  768MPD2    C511392   3.518   3.073  10.807  0.5351  0.0332 -0.3841
  768MPD2     H11393   3.781   3.334  10.814  0.0484  0.3456  2.9007
  768MPD2    H111394   3.654   2.944  10.905  1.4355 -0.2280 -0.5183
  768MPD2    H211395   3.392   3.214  10.724 -0.3109 -1.4363 -0.7186
  768MPD2    H311396   3.440   2.998  10.813  0.9822 -0.3361  0.9223
  768MPD2     N11397   3.859   3.092  10.937 -0.0109 -0.3164  0.1374
  768MPD2    H511398   3.875   2.994  10.955 -1.0445 -0.4402  0.3570
  768MPD2    N111399   3.569   3.426  10.721  0.1383  0.0672 -0.3599
  768MPD2    H711400   3.648   3.488  10.731 -0.8270  1.1049  0.6693
  769MPD2     C11401   0.369   1.364  15.005 -0.2807 -0.1066  0.1862
  769MPD2    C111402   0.257   1.439  15.039 -0.5530  0.3786  0.1450
  769MPD2    C211403   0.251   1.487  15.166  0.4710  0.0457 -0.3161
  769MPD2    C311404   0.350   1.456  15.258 -0.4126  0.0977 -0.7637
  769MPD2    C411405   0.461   1.384  15.220  0.3842 -0.0664 -0.6714
  769MPD2    C511406   0.473   1.344  15.093  0.4924 -0.2735 -0.3976
  769MPD2     H11407   0.166   1.547  15.197 -1.0224 -1.5339 -1.3055
  769MPD2    H111408   0.542   1.373  15.292  0.0092  1.5056 -0.0077
  769MPD2    H211409   0.371   1.330  14.902  0.4817  0.3556  0.0540
  769MPD2    H311410   0.568   1.301  15.063 -1.0563 -1.9989 -2.8411
  769MPD2     N11411   0.337   1.500  15.392  0.4700  0.0399  0.3117
  769MPD2    H511412   0.257   1.559  15.411  0.9535  0.6432  0.5032
  769MPD2    N111413   0.156   1.460  14.943  0.1523 -0.6941 -0.0698
  769MPD2    H711414   0.181   1.424  14.852 -0.2754  1.2851 -0.9647
  770MPD2     C11415   4.167   0.983  14.827  0.2076 -0.2140 -0.3039
  770MPD2    C111416   4.300   0.972  14.829 -0.0791  0.0804 -0.0114
  770MPD2    C211417   4.380   1.088  14.813 -0.1037  0.1195 -0.2330
  770MPD2    C311418   4.316   1.213  14.814 -0.2274  0.5574 -0.5451
  770MPD2    C411419   4.175   1.222  14.793 -0.1472  0.1629 -0.5761
  770MPD2    C511420   4.108   1.105  14.807 -0.1086  0.0410 -0.4003
  770MPD2     H11421   4.488   1.076  14.806 -0.0758 -1.0690  2.0835
  770MPD2    H111422   4.114   1.311  14.781  1.0730  1.1095  0.3271
  770MPD2    H211423   4.110   0.893  14.846  0.8602 -0.3378  1.1051
  770MPD2    H311424   3.999   1.112  14.800 -0.0890 -0.1463 -0.9013
  770MPD2     N11425   4.394   1.332  14.800  0.2727 -0.3229 -0.3323
  770MPD2    H511426   4.494   1.312  14.801  0.8613  2.5480 -1.0532
  770MPD2    N111427   4.360   0.839  14.856  0.2317  0.0017  0.4974
  770MPD2    H711428   4.299   0.758  14.863 -0.6472  0.5672 -0.6652
  771MPD2     C11429   0.943   3.922  14.017 -0.4411 -0.1306  0.0936
  771MPD2    C111430   0.886   4.008  13.929  0.0505  0.3245  0.8955
  771MPD2    C211431   0.812   3.966  13.818 -0.0970  0.1941 -0.4008
  771MPD2    C311432   0.794   3.835  13.794  0.2689  0.2637  0.8349
  771MPD2    C411433   0.856   3.745  13.877 -0.4313  0.6404 -0.2448
  771MPD2    C511434   0.933   3.787  13.984  0.0921 -0.3413 -0.8317
  771MPD2     H11435   0.783   4.042  13.746  0.5716 -1.1390 -2.0629
  771MPD2    H111436   0.844   3.639  13.859 -0.5335  0.5547  0.3375
  771MPD2    H211437   1.012   3.950  14.095 -0.0363  0.3178 -0.4300
  771MPD2    H311438   0.982   3.718  14.051  1.3148  0.7425 -0.6015
  771MPD2     N11439   0.715   3.811  13.681  0.1356 -0.6509 -0.6382
  771MPD2    H511440   0.672   3.892  13.638 -1.0756 -0.3687  1.1313
  771MPD2    N111441   0.912   4.144  13.935 -0.5690 -0.7472 -0.3698
  771MPD2    H711442   0.868   4.202  13.864 -0.7890 -0.8717 -0.3387
  772MPD2     C11443   0.600   4.468  13.546  0.1809 -0.4224 -0.0085
  772MPD2    C111444   0.587   4.518  13.671 -0.0616 -0.2500 -0.6467
  772MPD2    C211445   0.466   4.554  13.715  0.1011  0.3828  0.2689
  772MPD2    C311446   0.355   4.534  13.638 -0.6989  0.1301  0.1911
  772MPD2    C411447   0.373   4.475  13.511  0.4910  0.1130  0.6063
  772MPD2    C511448   0.495   4.449  13.461 -0.4906  0.3717  0.1411
  772MPD2     H11449   0.456   4.578  13.820  1.8210  3.5333 -0.2854
  772MPD2    H111450   0.289   4.454  13.446  0.5616  0.5234  0.3799
  772MPD2    H211451   0.696   4.431  13.512  1.8878  2.5510  1.5725
  772MPD2    H311452   0.521   4.399  13.369  1.0940  0.5501  0.4886
  772MPD2     N11453   0.226   4.561  13.685 -0.0037  0.9733  0.1254
  772MPD2    H511454   0.156   4.541  13.614  0.6328  1.4423 -0.6267
  772MPD2    N111455   0.697   4.543  13.766  0.1886  0.0347  0.4578
  772MPD2    H711456   0.679   4.562  13.864 -1.6633 -0.2786  0.1938
  773MPD2     C11457   4.273   0.729   0.393 -0.2047  0.2025 -0.3608
  773MPD2    C111458   4.301   0.649   0.287 -0.1813  0.1018 -0.6280
  773MPD2    C211459   4.398   0.555   0.296 -0.4075  0.1252 -0.0209
  773MPD2    C311460   4.460   0.537   0.421  0.1374  0.6915 -0.5835
  773MPD2    C411461   4.423   0.612   0.532  0.0727 -0.6676 -0.2856
  773MPD2    C511462   4.329   0.710   0.519 -0.1626  0.6418 -0.1367
  773MPD2     H11463   4.432   0.503   0.208  1.3211 -0.0155  0.7181
  773MPD2    H111464   4.466   0.604   0.631  0.5956  0.4598 -0.4296
  773MPD2    H211465   4.197   0.806   0.390 -0.5894 -0.1550  0.4537
  773MPD2    H311466   4.296   0.769   0.604  0.8693 -0.8960  1.3419
  773MPD2     N11467   4.555   0.428   0.429 -0.8974  0.4801 -0.2490
  773MPD2    H511468   4.573   0.369   0.349 -1.1103 -1.5560  1.1966
  773MPD2    N111469   4.230   0.663   0.161  0.2888  0.1625  0.2753
  773MPD2    H711470   4.205   0.575   0.117  0.5696  1.7462 -3.0291
  774MPD2     C11471   3.368   4.624  13.421 -0.0612  0.1441 -0.4237
  774MPD2    C111472   3.446   4.683  13.519  0.6100 -0.2578  0.8191
  774MPD2    C211473   3.545   0.034  13.476 -0.4151  0.4140 -0.2794
  774MPD2    C311474   3.553   0.071  13.341  0.3640 -0.2452 -0.4933
  774MPD2    C411475   3.464   0.025  13.255 -0.3413 -0.2070  0.0626
  774MPD2    C511476   3.368   4.667  13.293 -0.1573 -0.2090  0.4008
  774MPD2     H11477   3.619   0.063  13.549 -0.7284 -0.8065  0.5125
  774MPD2    H111478   3.477   0.054  13.151 -1.5930 -3.1585 -0.9302
  774MPD2    H211479   3.300   4.551  13.464  0.3514  2.4314  4.2060
  774MPD2    H311480   3.297   4.621  13.225  0.8491 -1.9659  0.5392
  774MPD2     N11481   3.655   0.153  13.285 -0.6804 -0.0019 -0.5544
  774MPD2    H511482   3.643   0.167  13.185  2.1698 -0.0268 -0.8863
  774MPD2    N111483   3.439   4.639  13.653  0.2517 -0.4693 -0.2451
  774MPD2    H711484   3.363   4.575  13.674 -1.0201  1.3635  0.7277
  775MPD2     C11485   0.535   1.071  15.966 -0.4886 -0.0001 -1.0352
  775MPD2    C111486   0.542   1.190  16.032 -0.1564  0.2752 -0.0332
  775MPD2    C211487   0.593   1.303  15.968 -0.2668  0.1626 -0.3123
  775MPD2    C311488   0.646   1.286  15.841  0.3204  0.0692  0.7581
  775MPD2    C411489   0.640   1.168  15.775  0.4355  0.0292  0.1685
  775MPD2    C511490   0.576   1.064  15.835  0.2354 -0.6131  0.0498
  775MPD2     H11491   0.584   1.401  16.014  0.8196  0.1802 -0.1406
  775MPD2    H111492   0.676   1.148  15.675  1.6881  1.4683  0.3385
  775MPD2    H211493   0.477   0.993  16.014  0.4839 -1.3074 -1.9999
  775MPD2    H311494   0.568   0.965  15.790 -2.0648 -0.7424  0.7186
  775MPD2     N11495   0.709   1.390  15.772 -0.2712  0.6848  0.7628
  775MPD2    H511496   0.740   1.378  15.676 -1.0626  0.6912  0.5087
  775MPD2    N111497   0.482   1.197  16.168 -0.4134  0.1207 -0.0290
  775MPD2    H711498   0.412   1.128  16.190 -0.7991  0.3990 -0.3843
  776MPD2     C11499   4.222   1.538  11.569 -1.1578  0.3901  0.5327
  776MPD2    C111500   4.135   1.559  11.461  0.3226  0.0736 -0.5902
  776MPD2    C211501   4.133   1.684  11.405 -0.4753  0.2801  0.1471
  776MPD2    C311502   4.220   1.788  11.448 -0.9187  0.3910 -0.3775
  776MPD2    C411503   4.302   1.761  11.559 -0.2170  0.8024  0.0272
  776MPD2    C511504   4.303   1.636  11.614  0.1593 -0.2103  0.2308
  776MPD2     H11505   4.072   1.696  11.316 -0.1424  0.5275 -0.0482
  776MPD2    H111506   4.355   1.838  11.613  1.7650 -2.9405  3.4859
  776MPD2    H211507   4.237   1.443  11.621 -0.2689  0.1537 -0.1604
  776MPD2    H311508   4.351   1.631  11.711  0.6234 -1.2706 -0.0586
  776MPD2     N11509   4.224   1.921  11.400 -0.1931 -0.3623  0.8543
  776MPD2    H511510   4.284   1.984  11.451 -2.3291  1.4297  1.1444
  776MPD2    N111511   4.071   1.440  11.421 -0.1842 -0.3120  0.1618
  776MPD2    H711512   4.101   1.358  11.472 -1.0496 -1.7007 -1.5468
  777MPD2     C11513   0.135   3.506   0.544 -0.6066 -0.3950 -0.6367
  777MPD2    C111514   0.024   3.498   0.629  0.3435  0.2059 -0.2994
  777MPD2    C211515   4.684   3.377   0.625 -0.7574  0.0480 -0.3387
  777MPD2    C311516   4.714   3.275   0.543  0.1130  0.2080 -0.0091
  777MPD2    C411517   0.093   3.285   0.459  0.1925  0.2859  0.0926
  777MPD2    C511518   0.164   3.402   0.460 -0.3206 -0.0621  0.2177
  777MPD2     H11519   4.604   3.367   0.696 -0.8282 -0.5248 -0.4933
  777MPD2    H111520   0.127   3.203   0.396  1.1479 -0.3064  1.3744
  777MPD2    H211521   0.201   3.592   0.548 -0.3222 -0.8323  4.3930
  777MPD2    H311522   0.252   3.407   0.397 -0.0462  0.7978  0.6745
  777MPD2     N11523   4.631   3.162   0.556  0.0932 -0.3497 -0.0282
  777MPD2    H511524   4.557   3.169   0.625  1.3178  1.5509  1.1011
  777MPD2    N111525   4.722   3.612   0.709  0.4692  0.5104  0.1987
  777MPD2    H711526   0.061   3.679   0.741  2.6328 -1.7087  0.1809
  778MPD2     C11527   0.741   4.538  14.796 -0.2817  0.1860  0.3074
  778MPD2    C111528   0.765   4.434  14.711 -0.0441 -0.2203  0.3201
  778MPD2    C211529   0.856   4.439  14.606 -0.3785 -0.8121 -0.5423
  778MPD2    C311530   0.927   4.558  14.586 -0.5275 -0.4770  0.6725
  778MPD2    C411531   0.898   4.662  14.674  0.1724  0.5318  1.0557
  778MPD2    C511532   0.808   4.655  14.773 -0.4848  0.0828 -0.7746
  778MPD2     H11533   0.872   4.350  14.546 -0.8190 -1.9202  1.0196
  778MPD2    H111534   0.957   0.022  14.655 -0.9479  0.6372 -1.9679
  778MPD2    H211535   0.681   4.534  14.885  1.4148 -1.8695  1.3535
  778MPD2    H311536   0.786   0.009  14.839 -0.7877 -1.8686  1.5947
  778MPD2     N11537   1.028   4.564  14.481  0.4857 -0.6236 -1.1483
  778MPD2    H511538   1.062   4.480  14.436  0.4181 -1.1946 -0.1278
  778MPD2    N111539   0.698   4.304  14.722 -0.2096  0.1385 -0.0268
  778MPD2    H711540   0.710   4.229  14.655 -1.9363  0.1678 -0.3850
  779MPD2     C11541   0.346   2.816  13.689 -0.5224  0.1222  0.2086
  779MPD2    C111542   0.359   2.810  13.828 -0.3555  0.3216  0.1969
  779MPD2    C211543   0.412   2.928  13.887 -0.4390 -0.0373  0.7434
  779MPD2    C311544   0.433   3.041  13.814  0.0922 -0.8961  0.1350
  779MPD2    C411545   0.425   3.037  13.676  1.0605 -0.2435  0.5034
  779MPD2    C511546   0.363   2.926  13.623  0.3589 -0.8026  0.1261
  779MPD2     H11547   0.442   2.932  13.992  2.4097 -0.2473 -0.0703
  779MPD2    H111548   0.452   3.123  13.615  2.1104 -1.2650 -0.4618
  779MPD2    H211549   0.298   2.739  13.629 -0.1976 -0.3695  0.5806
  779MPD2    H311550   0.336   2.924  13.518 -1.2334 -1.3584  0.5477
  779MPD2     N11551   0.458   3.163  13.887  0.2586  0.0141 -0.3018
  779MPD2    H511552   0.477   3.151  13.986 -1.7209 -3.2539 -0.3114
  779MPD2    N111553   0.321   2.697  13.903  0.1317  0.5135 -0.1375
  779MPD2    H711554   0.353   2.698  13.999  1.2645 -2.4284 -0.4764
  780MPD2     C11555   4.686   3.013   1.014 -0.3561 -0.7038  0.7684
  780MPD2    C111556   0.038   2.904   1.013  0.0459  0.0611 -0.7290
  780MPD2    C211557   0.129   2.887   0.914  0.1929  0.2696 -0.7206
  780MPD2    C311558   0.164   2.996   0.837  0.2462 -0.1856  0.2330
  780MPD2    C411559   0.078   3.107   0.839  0.3514  0.1130 -0.0532
  780MPD2    C511560   4.707   3.119   0.935  0.0445 -0.2570  0.5242
  780MPD2     H11561   0.188   2.796   0.908  0.6418  0.5439 -0.4921
  780MPD2    H111562   0.085   3.182   0.761  1.5326 -1.0090 -1.0265
  780MPD2    H211563   4.607   3.020   1.089 -0.1598 -0.2743  0.9371
  780MPD2    H311564   4.648   3.209   0.938  1.1975  0.5246 -0.3604
  780MPD2     N11565   0.259   2.978   0.737 -0.6024 -1.3172  0.4322
  780MPD2    H511566   0.291   2.882   0.729 -0.4400 -1.2407  0.1726
  780MPD2    N111567   0.008   2.803   1.111  0.1585  0.4592 -0.0257
  780MPD2    H711568   4.658   2.819   1.172 -0.1158 -3.7820  0.7451
  781MPD2     C11569   2.015   0.380  11.735  0.1063  0.1550  0.5398
  781MPD2    C111570   1.892   0.359  11.791  0.3858 -0.9493  0.0075
  781MPD2    C211571   1.786   0.335  11.711 -0.4299 -0.4540 -0.4125
  781MPD2    C311572   1.797   0.321  11.576  0.4896  0.2138  0.3421
  781MPD2    C411573   1.915   0.344  11.514 -0.2797 -0.4202  0.1966
  781MPD2    C511574   2.022   0.381  11.601  0.2796 -0.1179  0.0235
  781MPD2     H11575   1.692   0.309  11.760 -0.1707 -1.8230 -0.6470
  781MPD2    H111576   1.930   0.338  11.406  0.5344  0.3298  0.2654
  781MPD2    H211577   2.104   0.400  11.795  1.2576  1.0208 -1.4346
  781MPD2    H311578   2.113   0.398  11.545  0.3948 -1.2884 -0.1339
  781MPD2     N11579   1.693   0.257  11.509 -0.3570  1.0513  0.0061
  781MPD2    H511580   1.625   0.207  11.565  1.2185 -0.1621  0.8575
  781MPD2    N111581   1.875   0.330  11.931 -0.2214  0.3616  0.1608
  781MPD2    H711582   1.789   0.284  11.961 -0.1962 -0.3746 -0.8940
  782MPD2     C11583   0.041   0.412  10.011 -0.4161  1.0216 -0.0513
  782MPD2    C111584   0.114   0.425  10.124 -0.4295 -0.2840  0.1660
  782MPD2    C211585   0.150   0.553  10.159  0.0850 -0.4011 -0.0094
  782MPD2    C311586   0.119   0.666  10.088 -1.2259 -0.0014 -0.0543
  782MPD2    C411587   0.038   0.651   9.971  0.5798 -0.4843  0.3880
  782MPD2    C511588   0.007   0.524   9.934 -0.0599 -0.6264 -0.1126
  782MPD2     H11589   0.212   0.571  10.246  1.1384  0.6335 -0.9645
  782MPD2    H111590   4.722   0.733   9.917  0.4659 -0.7206  0.1296
  782MPD2    H211591   4.717   0.321   9.987  0.9400 -0.1792  1.4988
  782MPD2    H311592   4.662   0.515   9.855 -0.4543 -0.2510  0.2133
  782MPD2     N11593   0.156   0.784  10.155  0.2698 -0.6484 -0.5630
  782MPD2    H511594   0.219   0.771  10.233 -0.1250 -1.6634 -0.4170
  782MPD2    N111595   0.135   0.313  10.213 -0.2215 -0.3667 -0.6737
  782MPD2    H711596   0.102   0.222  10.183  1.6267 -0.9301 -1.0061
  783MPD2     C11597   4.370   4.620  10.924 -0.2603  0.3346 -0.5771
  783MPD2    C111598   4.465   4.697  10.987 -0.2661  0.5364 -0.2714
  783MPD2    C211599   4.580   4.724  10.917  0.0377 -0.5035 -0.9949
  783MPD2    C311600   4.588   4.681  10.782 -0.0265 -0.2497 -0.1233
  783MPD2    C411601   4.488   4.610  10.724  0.1990  0.1530  0.5435
  783MPD2    C511602   4.375   4.578  10.792  0.3702 -0.2491 -0.1159
  783MPD2     H11603   4.663   0.054  10.952 -1.5148  2.4757 -2.3670
  783MPD2    H111604   4.501   4.572  10.623 -0.8232  1.2155  0.0128
  783MPD2    H211605   4.283   4.606  10.987  2.1561  0.2468  2.7515
  783MPD2    H311606   4.295   4.522  10.747 -1.4016  1.8939  0.3798
  783MPD2     N11607   4.705   0.002  10.711 -0.3195  1.2999 -0.6181
  783MPD2    H511608   0.052   0.040  10.767 -1.0409  0.9273  0.6082
  783MPD2    N111609   4.435   0.016  11.117  0.5460 -0.3521  0.3828
  783MPD2    H711610   4.360   4.694  11.163 -0.4043 -1.2742 -2.1799
  784MPD2     C11611   2.414   0.898   0.604  0.0548 -0.1314 -0.0680
  784MPD2    C111612   2.389   0.974   0.720  0.3452 -0.4783  0.0417
  784MPD2    C211613   2.282   1.055   0.718  0.0681  0.2128  0.0852
  784MPD2    C311614   2.194   1.061   0.607  0.2584  0.0539 -0.3183
  784MPD2    C411615   2.221   0.979   0.495  0.4396  0.3276  0.5803
  784MPD2    C511616   2.331   0.903   0.498  0.5001 -0.0038  0.5072
  784MPD2     H11617   2.256   1.109   0.808 -0.0426  0.0335  0.1609
  784MPD2    H111618   2.170   0.985   0.400  1.7583  2.2158  0.0018
  784MPD2    H211619   2.498   0.830   0.598  0.1238 -0.0553  0.0373
  784MPD2    H311620   2.358   0.851   0.406  2.2608  0.7794  0.5834
  784MPD2     N11621   2.084   1.149   0.622 -0.1114 -0.7828 -0.3687
  784MPD2    H511622   2.089   1.206   0.705 -0.8291 -1.1687 -0.0598
  784MPD2    N111623   2.477   0.970   0.832  0.4683 -0.5772 -0.1739
  784MPD2    H711624   2.475   1.039   0.906 -1.2881  0.3850 -1.0989
  785MPD2     C11625   2.039   4.376  10.383 -0.0358  0.1617  0.4008
  785MPD2    C111626   2.129   4.444  10.458  0.5904 -0.2080 -0.0903
  785MPD2    C211627   2.119   4.581  10.488  0.7643 -0.0527 -0.2156
  785MPD2    C311628   2.021   4.651  10.432  0.5926  0.7852  0.5470
  785MPD2    C411629   1.918   4.585  10.374  0.0294  0.0074 -0.8409
  785MPD2    C511630   1.934   4.450  10.334 -0.2555  0.2840  0.5481
  785MPD2     H11631   2.205   4.625  10.537  1.5102 -1.1522 -0.5489
  785MPD2    H111632   1.832   4.637  10.331 -0.5006 -0.7345 -0.6736
  785MPD2    H211633   2.043   4.269  10.366  0.9907  0.4405 -1.1404
  785MPD2    H311634   1.861   4.401  10.270  2.5297  0.7419 -2.9917
  785MPD2     N11635   2.015   0.064  10.453 -0.3589  0.0595 -0.5961
  785MPD2    H511636   2.091   0.092  10.514 -0.6526  1.2211 -0.7501
  785MPD2    N111637   2.239   4.377  10.514 -0.3232  0.7597  0.2029
  785MPD2    H711638   2.306   4.435  10.562 -1.6894  0.4922  2.4394
  786MPD2     C11639   1.199   2.465  14.533 -0.4260 -0.2102 -0.2106
  786MPD2    C111640   1.188   2.332  14.553 -0.1488 -0.2990 -0.1458
  786MPD2    C211641   1.177   2.295  14.686 -0.1624  0.4000 -0.2066
  786MPD2    C311642   1.164   2.387  14.790 -0.0526  0.8255 -0.2358
  786MPD2    C411643   1.151   2.520  14.758 -0.4477 -0.0295  0.2552
  786MPD2    C511644   1.160   2.555  14.626  0.4723 -0.3567 -0.1535
  786MPD2     H11645   1.191   2.191  14.712  0.9549  0.3394 -1.0382
  786MPD2    H111646   1.119   2.591  14.834 -2.6132 -1.5332  0.7553
  786MPD2    H211647   1.222   2.509  14.436  0.7615 -2.1365 -0.7950
  786MPD2    H311648   1.155   2.662  14.605  0.6634 -0.4869 -0.8614
  786MPD2     N11649   1.164   2.349  14.927  0.1880  0.2971  0.0553
  786MPD2    H511650   1.180   2.425  14.992  1.3036 -0.9367  1.2272
  786MPD2    N111651   1.219   2.233  14.455 -0.0666  0.3130  0.0987
  786MPD2    H711652   1.228   2.139  14.493 -0.7451 -0.2932 -1.2162
  787MPD2     C11653   1.486   1.692  14.626  0.2420 -0.4400 -0.0217
  787MPD2    C111654   1.493   1.686  14.489  0.0302 -0.1956  0.1863
  787MPD2    C211655   1.555   1.586  14.423 -0.1667 -0.1457 -0.4321
  787MPD2    C311656   1.607   1.485  14.500 -0.1858  0.1276 -0.6990
  787MPD2    C411657   1.584   1.479  14.636 -0.2702  0.5484  0.1649
  787MPD2    C511658   1.524   1.584  14.699  0.5000 -0.4899  0.2557
  787MPD2     H11659   1.577   1.583  14.317  2.7337  0.0410  0.1487
  787MPD2    H111660   1.630   1.405  14.701  1.7059 -0.7765 -2.7542
  787MPD2    H211661   1.435   1.771  14.680  1.6995  0.5077 -0.0238
  787MPD2    H311662   1.495   1.591  14.803  1.8124 -0.2970  0.6119
  787MPD2     N11663   1.658   1.376  14.434  0.5853  0.4365 -0.3228
  787MPD2    H511664   1.659   1.382  14.332 -0.0417  2.4671 -0.2038
  787MPD2    N111665   1.434   1.795  14.417  0.7488  0.2674 -0.4003
  787MPD2    H711666   1.411   1.871  14.481  2.4756  1.9659 -1.8187
  788MPD2     C11667   3.244   0.827   0.894  0.5442 -0.3380 -0.1637
  788MPD2    C111668   3.217   0.755   0.782 -0.2902  0.1446 -0.8366
  788MPD2    C211669   3.189   0.813   0.657  0.4610 -0.0875 -0.2067
  788MPD2    C311670   3.175   0.946   0.660 -0.6335 -0.0088 -0.0138
  788MPD2    C411671   3.175   1.020   0.778 -0.1384 -0.3072  1.0437
  788MPD2    C511672   3.209   0.957   0.889 -0.0050 -0.2369 -0.3506
  788MPD2     H11673   3.162   0.748   0.574  0.9415  0.1255 -0.5285
  788MPD2    H111674   3.175   1.128   0.788  3.6642 -0.1104 -1.1432
  788MPD2    H211675   3.265   0.786   0.992 -0.6136  0.1760  0.3085
  788MPD2    H311676   3.211   1.016   0.981  0.2060  1.8219 -1.6606
  788MPD2     N11677   3.142   1.017   0.540  0.3407  0.5791  0.0727
  788MPD2    H511678   3.092   1.106   0.544  1.3736  1.1222  1.0683
  788MPD2    N111679   3.217   0.612   0.781 -0.4595 -0.0532 -0.4706
  788MPD2    H711680   3.202   0.567   0.691 -0.8240  0.1955 -0.5328
  789MPD2     C11681   3.330   0.096  16.543  0.0072 -0.2339  0.1737
  789MPD2    C111682   3.231   0.090  16.643 -0.2404 -0.1259 -0.0085
  789MPD2    C211683   3.156   0.205  16.671  0.1928 -0.4677  0.2288
  789MPD2    C311684   3.169   0.328  16.599  0.2729 -0.2114 -0.2578
  789MPD2    C411685   3.260   0.323  16.500  1.0599  0.3774  0.6474
  789MPD2    C511686   3.338   0.213  16.476  0.2283  0.9443  0.5631
  789MPD2     H11687   3.076   0.192  16.743 -0.1081  0.7643  0.1140
  789MPD2    H111688   3.279   0.411  16.439  1.1034  0.8406  1.3353
  789MPD2    H211689   3.401   0.016  16.530 -0.4347 -0.3043 -1.8303
  789MPD2    H311690   3.419   0.217  16.403 -1.4353  0.0974 -1.3379
  789MPD2     N11691   3.093   0.439  16.635  0.5078 -0.4654 -0.0840
  789MPD2    H511692   3.026   0.433  16.711 -0.9293 -0.8597 -1.3771
  789MPD2    N111693   3.203   4.707  16.726  0.4491 -0.1953  0.0815
  789MPD2    H711694   3.149   0.004  16.808  0.3568  0.4248 -0.1746
  790MPD2     C11695   4.722   1.578  13.723  0.1920 -0.6843 -0.1100
  790MPD2    C111696   0.009   1.474  13.635  1.0744  0.1264  0.1468
  790MPD2    C211697   4.652   1.455  13.525  1.2722  0.1625  0.6703
  790MPD2    C311698   4.540   1.542  13.503 -1.0743  0.6997  0.7523
  790MPD2    C411699   4.516   1.633  13.606 -0.3118 -0.6495 -0.5520
  790MPD2    C511700   4.608   1.653  13.708 -0.1597  0.4317 -0.4772
  790MPD2     H11701   4.681   1.376  13.456  0.0837 -0.1896  0.5811
  790MPD2    H111702   4.429   1.696  13.596 -0.2902 -0.0312  2.9455
  790MPD2    H211703   0.059   1.601  13.806  1.8310  0.7050 -1.7811
  790MPD2    H311704   4.576   1.714  13.792 -0.5503  2.2941 -1.9604
  790MPD2     N11705   4.452   1.525  13.396 -0.3590 -1.0417 -0.0751
  790MPD2    H511706   4.472   1.451  13.329 -0.0612 -0.2308 -0.8777
  790MPD2    N111707   0.113   1.389  13.667  0.1031  0.3687 -0.0273
  790MPD2    H711708   0.149   1.403  13.762  2.1500 -0.0961 -0.7247
  791MPD2     C11709   4.010   1.965  13.005  0.0798  0.2986 -0.3856
  791MPD2    C111710   3.967   1.835  12.975 -0.8806 -0.1589  0.9391
  791MPD2    C211711   3.881   1.815  12.868  0.0319  0.5013 -0.4242
  791MPD2    C311712   3.856   1.912  12.776  0.9767 -0.9171 -0.1701
  791MPD2    C411713   3.922   2.029  12.797 -0.3865  0.1401 -0.4308
  791MPD2    C511714   3.992   2.052  12.902 -0.0498  0.0693 -0.0761
  791MPD2     H11715   3.833   1.719  12.853 -0.2963  0.1600  2.8028
  791MPD2    H111716   3.925   2.110  12.724  1.4717 -0.9763 -1.5877
  791MPD2    H211717   4.052   1.999  13.099 -0.6367  1.3750 -0.4507
  791MPD2    H311718   4.034   2.151  12.911  0.1685 -0.0135 -0.1873
  791MPD2     N11719   3.759   1.900  12.666 -0.6325 -0.4233  0.5423
  791MPD2    H511720   3.710   1.812  12.655  1.1257 -1.4777  1.1792
  791MPD2    N111721   4.011   1.739  13.070 -0.0981 -0.0030  0.5470
  791MPD2    H711722   4.071   1.768  13.146 -0.0083 -0.8444  0.7959
  792MPD2     C11723   4.532   1.405  10.995  0.4605 -0.2846 -0.3416
  792MPD2    C111724   4.415   1.469  11.026 -0.0791 -0.1275 -0.1146
  792MPD2    C211725   4.299   1.398  10.987 -0.4082  0.5781 -0.3941
  792MPD2    C311726   4.301   1.267  10.930 -1.3099 -0.1804 -0.8285
  792MPD2    C411727   4.421   1.208  10.904 -0.2549  0.5445  0.0454
  792MPD2    C511728   4.536   1.280  10.938 -0.5199 -0.2307 -0.6483
  792MPD2     H11729   4.198   1.433  11.009 -0.6119  0.6929 -1.5251
  792MPD2    H111730   4.437   1.111  10.857  1.3913 -0.1203  1.9811
  792MPD2    H211731   4.627   1.456  11.005  0.1042  0.1461  0.7656
  792MPD2    H311732   4.631   1.233  10.916 -1.3576 -1.4327 -1.6537
  792MPD2     N11733   4.189   1.195  10.892 -0.2754  0.1813  0.2488
  792MPD2    H511734   4.202   1.099  10.863 -0.8534 -0.0201  0.6695
  792MPD2    N111735   4.430   1.592  11.089  0.0684  0.7298 -0.0307
  792MPD2    H711736   4.529   1.615  11.101 -0.4082  2.0243  1.4255
  793MPD2     C11737   3.307   1.228  10.510  0.1588 -1.0681  0.5238
  793MPD2    C111738   3.425   1.301  10.516 -0.2969 -0.0422 -0.5362
  793MPD2    C211739   3.514   1.264  10.610  0.1955  0.2261  0.5784
  793MPD2    C311740   3.503   1.147  10.688  0.2981  0.2142 -0.2915
  793MPD2    C411741   3.388   1.076  10.682  0.3919 -0.4195  0.9741
  793MPD2    C511742   3.289   1.121  10.593 -0.1759 -0.1116 -0.6606
  793MPD2     H11743   3.602   1.327  10.621  0.0187  0.7663 -1.1098
  793MPD2    H111744   3.374   0.991  10.748 -0.6252 -0.5316  0.6096
  793MPD2    H211745   3.227   1.252  10.440  0.1805 -0.7227  0.6173
  793MPD2    H311746   3.197   1.068  10.575 -0.7855  0.3652  0.9852
  793MPD2     N11747   3.607   1.130  10.780  0.1298 -0.0051 -0.0673
  793MPD2    H511748   3.685   1.193  10.763 -1.2915  1.3227 -1.7131
  793MPD2    N111749   3.464   1.400  10.433  0.3481 -0.0726 -0.0404
  793MPD2    H711750   3.562   1.426  10.448  0.0217  1.4399 -0.5017
  794MPD2     C11751   3.617   1.160  17.466 -0.0551  0.4397  0.0334
  794MPD2    C111752   3.682   1.062  17.400  1.3423 -0.5739 -0.7561
  794MPD2    C211753   3.660   1.059  17.262  0.3225 -0.0889 -0.2304
  794MPD2    C311754   3.568   1.144  17.207  0.3696 -0.6719 -0.6587
  794MPD2    C411755   3.499   1.239  17.280 -0.4138  0.3301 -0.2576
  794MPD2    C511756   3.514   1.242  17.417  0.2411  0.4062 -0.6055
  794MPD2     H11757   3.719   0.991  17.201 -0.4565  0.2505 -1.3341
  794MPD2    H111758   3.417   1.298  17.241 -0.9061 -0.1201  0.0923
  794MPD2    H211759   3.630   1.168  17.574  2.8984  1.2330 -0.4037
  794MPD2    H311760   3.476   1.321  17.481 -1.5573 -0.8391 -0.1249
  794MPD2     N11761   3.531   1.145  17.066  0.3571  0.6868 -0.1827
  794MPD2    H511762   3.460   1.212  17.037  0.9342  1.6545  0.6329
  794MPD2    N111763   3.769   0.971  17.459  0.7523  0.0257 -0.0132
  794MPD2    H711764   3.800   0.893  17.403 -1.0907 -0.6256 -0.1508
  795MPD2     C11765   1.709   3.326  13.865 -0.0600  0.2516 -0.2766
  795MPD2    C111766   1.706   3.233  13.757 -0.1685 -0.5492 -0.1931
  795MPD2    C211767   1.796   3.128  13.761 -1.3085  0.2755 -0.0988
  795MPD2    C311768   1.886   3.106  13.865  0.6531  0.1379  0.2604
  795MPD2    C411769   1.884   3.200  13.969 -0.1375 -0.1000 -0.0137
  795MPD2    C511770   1.801   3.305  13.967 -0.4868  0.5496 -0.3368
  795MPD2     H11771   1.789   3.069  13.670  1.9467  2.3117 -1.6726
  795MPD2    H111772   1.953   3.186  14.051  1.8557 -2.2468 -2.0634
  795MPD2    H211773   1.627   3.395  13.882  0.0375  0.6316 -1.3336
  795MPD2    H311774   1.802   3.366  14.057  0.4437 -0.1890  0.1505
  795MPD2     N11775   1.983   2.997  13.867  0.3285  0.1420  0.2348
  795MPD2    H511776   2.037   2.984  13.951 -1.5499 -1.6814  1.1363
  795MPD2    N111777   1.610   3.240  13.652 -0.5120 -0.0807 -0.1919
  795MPD2    H711778   1.615   3.170  13.578  0.8525 -1.1441  0.8980
  796MPD2     C11779   1.113   4.421  15.896 -0.6443 -0.3864 -0.6876
  796MPD2    C111780   1.193   4.499  15.980  0.7166  0.8301 -0.5985
  796MPD2    C211781   1.236   4.624  15.939  0.3979 -0.0324 -0.3029
  796MPD2    C311782   1.203   4.671  15.812 -0.2544  0.1394 -0.1296
  796MPD2    C411783   1.121   4.592  15.735 -0.0795  0.1536 -0.5766
  796MPD2    C511784   1.075   4.467  15.773 -0.0309  1.0340  0.5526
  796MPD2     H11785   1.296   4.695  15.995  1.6357 -1.2173 -0.1253
  796MPD2    H111786   1.084   4.616  15.636  0.1096  0.5689 -0.5499
  796MPD2    H211787   1.083   4.321  15.927 -0.7245 -1.1046 -3.0970
  796MPD2    H311788   1.024   4.398  15.707 -0.3664  1.9079 -0.1088
  796MPD2     N11789   1.247   0.074  15.777  0.2753  0.1986 -0.3568
  796MPD2    H511790   1.300   0.128  15.844 -2.5056  0.6574  1.4671
  796MPD2    N111791   1.211   4.452  16.111  0.0166 -0.1985 -0.1833
  796MPD2    H711792   1.177   4.359  16.135 -0.0213  0.0909  0.8862
  797MPD2     C11793   2.333   4.106  17.367 -0.4558  0.0636 -0.1281
  797MPD2    C111794   2.366   4.227  17.419 -0.4044  0.1517  0.3898
  797MPD2    C211795   2.277   4.331  17.398 -0.4129  0.2448  0.4116
  797MPD2    C311796   2.156   4.316  17.344  0.1287 -1.1831  0.6093
  797MPD2    C411797   2.120   4.188  17.298  0.0740 -0.0925 -0.3074
  797MPD2    C511798   2.210   4.084  17.309 -0.0040  0.0411 -0.3018
  797MPD2     H11799   2.307   4.433  17.423 -2.4833  1.1070 -0.6563
  797MPD2    H111800   2.016   4.180  17.270  0.0461 -0.7469 -0.0085
  797MPD2    H211801   2.401   4.022  17.375 -0.9041 -0.0674  2.4341
  797MPD2    H311802   2.174   3.984  17.286  0.3462  0.0047 -0.6905
  797MPD2     N11803   2.055   4.419  17.328 -0.5994 -0.5327 -0.0714
  797MPD2    H511804   1.974   4.404  17.269 -0.7211 -0.7089  0.1422
  797MPD2    N111805   2.486   4.259  17.479 -0.5325  0.4756  0.2420
  797MPD2    H711806   2.481   4.357  17.504  1.8769  0.3639  1.1308
  798MPD2     C11807   2.420   0.259  17.531 -0.3286 -0.5508 -0.2038
  798MPD2    C111808   2.360   0.138  17.515 -0.1891  0.4226  0.9814
  798MPD2    C211809   2.428   0.027  17.553 -0.2534  0.0748  0.3101
  798MPD2    C311810   2.560   0.034  17.590 -0.0727  0.2971 -0.3896
  798MPD2    C411811   2.628   0.156  17.586 -0.1039  0.1811 -0.1101
  798MPD2    C511812   2.552   0.267  17.557 -0.4139 -0.0807 -0.0649
  798MPD2     H11813   2.381   4.659  17.553  1.5314 -0.7713 -0.4710
  798MPD2    H111814   2.736   0.159  17.590 -0.1052  2.0244 -1.5310
  798MPD2    H211815   2.367   0.352  17.515  1.4274  0.1092 -2.1374
  798MPD2    H311816   2.601   0.364  17.554  1.3481 -0.9748 -0.5767
  798MPD2     N11817   2.622   4.640  17.610  0.3933  0.0673 -0.1457
  798MPD2    H511818   2.566   4.556  17.614  0.5845  0.0129  1.3716
  798MPD2    N111819   2.224   0.121  17.469 -0.0817  0.3754  0.5333
  798MPD2    H711820   2.193   0.025  17.467  1.5777 -0.1753  1.0743
  799MPD2     C11821   1.263   1.326  14.649  0.1120  0.1485 -0.4780
  799MPD2    C111822   1.308   1.239  14.552  0.7706  0.0430 -0.3268
  799MPD2    C211823   1.309   1.287  14.425  0.3632 -0.4455 -0.4801
  799MPD2    C311824   1.269   1.417  14.389 -0.2643  0.2196  0.1383
  799MPD2    C411825   1.219   1.498  14.486  0.1845 -0.0519 -0.4179
  799MPD2    C511826   1.220   1.450  14.616 -0.3650 -0.3012 -0.1658
  799MPD2     H11827   1.335   1.219  14.345  0.0020 -0.3381 -0.6897
  799MPD2    H111828   1.190   1.600  14.467  2.8040  0.2743 -2.7456
  799MPD2    H211829   1.253   1.308  14.755  0.4927  1.6868 -0.1822
  799MPD2    H311830   1.177   1.508  14.697  1.4476  0.1777  0.4491
  799MPD2     N11831   1.263   1.469  14.260 -0.6502 -0.0388  0.4353
  799MPD2    H511832   1.226   1.562  14.251 -0.1488  0.0414 -0.8306
  799MPD2    N111833   1.335   1.100  14.564  0.3423 -0.2267 -0.3470
  799MPD2    H711834   1.363   1.052  14.479 -2.0721  0.4068 -1.4917
  800MPD2     C11835   1.402   2.273  13.532 -0.4099  0.1769  0.0436
  800MPD2    C111836   1.538   2.305  13.518 -0.2394 -0.6441 -0.4799
  800MPD2    C211837   1.620   2.221  13.455 -0.1910  0.7227 -0.1569
  800MPD2    C311838   1.574   2.105  13.400  0.2821  0.4334  0.3491
  800MPD2    C411839   1.437   2.083  13.403 -0.2348 -0.2742 -0.4114
  800MPD2    C511840   1.358   2.160  13.483  1.1345 -0.2332  0.7622
  800MPD2     H11841   1.727   2.238  13.448  0.5704 -3.2920  1.8340
  800MPD2    H111842   1.389   1.992  13.371 -0.4164 -0.3636  0.1050
  800MPD2    H211843   1.339   2.340  13.590  0.6946  0.4174  0.9720
  800MPD2    H311844   1.252   2.137  13.489  0.8255  0.9963  0.1158
  800MPD2     N11845   1.668   2.007  13.342 -0.4820  0.9220 -0.0405
  800MPD2    H511846   1.765   2.037  13.347 -0.0539 -1.0642  3.9091
  800MPD2    N111847   1.583   2.418  13.587  0.3434 -0.0897 -0.1337
  800MPD2    H711848   1.515   2.478  13.632  0.2904  0.3578 -0.8094
  801MPD2     C11849   1.437   3.077  13.890 -0.1101  0.1536 -0.3722
  801MPD2    C111850   1.502   2.997  13.985 -0.6337  0.2077  0.5010
  801MPD2    C211851   1.516   3.035  14.115 -0.5318 -1.0164 -0.0315
  801MPD2    C311852   1.465   3.152  14.161  0.3459 -0.6279  0.1616
  801MPD2    C411853   1.395   3.226  14.072 -0.3880 -0.3461 -0.0357
  801MPD2    C511854   1.385   3.191  13.937 -0.2298  0.4083  0.0442
  801MPD2     H11855   1.558   2.964  14.186 -0.0985 -1.4230 -0.6931
  801MPD2    H111856   1.346   3.320  14.097 -3.5684 -1.4306 -2.1642
  801MPD2    H211857   1.430   3.054  13.785  1.5269  1.8321 -0.8510
  801MPD2    H311858   1.331   3.262  13.875  0.6880 -0.6304 -1.9294
  801MPD2     N11859   1.450   3.176  14.296 -0.2128 -0.3492  0.0304
  801MPD2    H511860   1.397   3.259  14.320  0.6962  0.4835 -0.8316
  801MPD2    N111861   1.575   2.881  13.944  0.3224  0.4166  0.3652
  801MPD2    H711862   1.632   2.840  14.018  1.5431  2.2630  0.4663
  802MPD2     C11863   1.803   3.398   0.310 -0.2400 -0.1223 -0.5806
  802MPD2    C111864   1.669   3.388   0.266  0.3852  0.5447 -0.3498
  802MPD2    C211865   1.647   3.336   0.145 -0.4215  0.2309  0.8920
  802MPD2    C311866   1.748   3.288   0.067 -0.5083 -0.6699  0.7122
  802MPD2    C411867   1.880   3.286   0.118  0.1741 -0.1106 -0.1414
  802MPD2    C511868   1.906   3.338   0.238  0.1168 -0.7404 -0.0379
  802MPD2     H11869   1.543   3.328   0.114 -0.5726  1.5461  1.0527
  802MPD2    H111870   1.959   3.248   0.056 -0.0503 -0.1119 -0.4269
  802MPD2    H211871   1.827   3.422   0.413 -3.1120 -0.0092  0.0637
  802MPD2    H311872   2.009   3.348   0.269 -0.2930 -0.1880  1.1336
  802MPD2     N11873   1.716   3.244  17.656 -0.7596  0.4101 -0.5535
  802MPD2    H511874   1.620   3.257  17.624 -1.5265 -0.9873  1.1874
  802MPD2    N111875   1.558   3.436   0.336  0.4609  0.2343 -0.0852
  802MPD2    H711876   1.468   3.419   0.292  1.6097 -2.3281 -1.4666
  803MPD2     C11877   2.440   1.864  11.857  0.4856 -0.6027  0.5055
  803MPD2    C111878   2.559   1.851  11.931 -0.4714  0.4579  0.4100
  803MPD2    C211879   2.565   1.790  12.052 -0.0849 -0.3183  0.0511
  803MPD2    C311880   2.457   1.735  12.116  0.0335  0.2616  0.4301
  803MPD2    C411881   2.339   1.745  12.046 -0.0420  0.5734 -0.5913
  803MPD2    C511882   2.333   1.816  11.930 -0.3727 -0.5965  0.4993
  803MPD2     H11883   2.667   1.777  12.087  0.6617 -1.3290 -2.5296
  803MPD2    H111884   2.248   1.710  12.095  0.3242  0.3084 -0.0995
  803MPD2    H211885   2.426   1.912  11.761  0.8655  0.1840  0.8468
  803MPD2    H311886   2.234   1.823  11.885 -0.9627 -1.0649  1.7491
  803MPD2     N11887   2.464   1.671  12.241 -0.2369  0.4996  0.3961
  803MPD2    H511888   2.382   1.616  12.264 -0.7720 -0.7085 -4.3483
  803MPD2    N111889   2.679   1.904  11.886 -0.0642  0.0971  0.6478
  803MPD2    H711890   2.762   1.880  11.939 -0.4001 -0.4850  0.9055
  804MPD2     C11891   1.755   3.014  17.094 -0.2652 -0.0028  0.0252
  804MPD2    C111892   1.817   2.959  17.202 -0.2453  0.0020 -0.6475
  804MPD2    C211893   1.923   3.031  17.256 -0.1216 -0.0018 -0.5147
  804MPD2    C311894   1.958   3.156  17.207  0.4114  0.2675 -0.0723
  804MPD2    C411895   1.881   3.215  17.110  0.2251  0.2281 -0.0003
  804MPD2    C511896   1.783   3.140  17.045 -0.4337 -0.1216 -0.3029
  804MPD2     H11897   1.967   2.990  17.346  1.2408  1.1717 -0.6492
  804MPD2    H111898   1.897   3.312  17.065  0.3763  0.1242 -0.1685
  804MPD2    H211899   1.672   2.962  17.047 -0.2960 -0.6330  0.7735
  804MPD2    H311900   1.726   3.185  16.964  0.0177  1.8570  0.4790
  804MPD2     N11901   2.057   3.223  17.276 -0.1068  0.0191  0.9327
  804MPD2    H511902   2.093   3.177  17.359  0.6298  2.6861  2.1092
  804MPD2    N111903   1.788   2.828  17.252 -0.2524 -0.9731  0.0228
  804MPD2    H711904   1.816   2.810  17.347 -1.2834  2.2489  0.9561
  805MPD2     C11905   1.121   0.600  15.313 -0.3591 -0.0794  0.2664
  805MPD2    C111906   1.036   0.707  15.339 -0.3412  0.2115 -0.2836
  805MPD2    C211907   1.088   0.821  15.401 -0.7548  0.3847  0.0474
  805MPD2    C311908   1.221   0.830  15.437  0.7297 -0.0498  0.2539
  805MPD2    C411909   1.307   0.726  15.414  1.2714 -0.2648  0.2708
  805MPD2    C511910   1.258   0.610  15.357  0.5010  0.2361  0.1279
  805MPD2     H11911   1.030   0.910  15.423 -1.6630 -1.0186  3.2764
  805MPD2    H111912   1.412   0.732  15.440  1.0894  0.8221  0.7220
  805MPD2    H211913   1.082   0.507  15.274 -1.2723 -1.4049  4.3297
  805MPD2    H311914   1.328   0.530  15.335  1.3156  1.0087 -0.0961
  805MPD2     N11915   1.266   0.949  15.503  0.1456  0.4117 -0.8372
  805MPD2    H511916   1.202   1.027  15.494 -0.6107 -0.0386  0.5353
  805MPD2    N111917   0.900   0.706  15.312  0.0702  0.2511 -0.3601
  805MPD2    H711918   0.856   0.797  15.322  0.3639  0.6426 -2.5873
  806MPD2     C11919   1.457   0.694   0.325 -0.6029  0.5176 -0.0428
  806MPD2    C111920   1.407   0.809   0.383  0.2130  0.7345  0.2974
  806MPD2    C211921   1.443   0.931   0.334  0.0013  0.5309 -0.1119
  806MPD2    C311922   1.545   0.938   0.238 -0.3759  0.0343 -0.0494
  806MPD2    C411923   1.607   0.821   0.190 -0.0826 -0.0993 -0.2102
  806MPD2    C511924   1.558   0.704   0.230  0.7783  0.2292 -0.5932
  806MPD2     H11925   1.401   1.026   0.367 -1.1597 -1.1754  3.3751
  806MPD2    H111926   1.684   0.815   0.113  0.5074  1.3473  0.2742
  806MPD2    H211927   1.436   0.598   0.369  0.0391  0.7353  0.7349
  806MPD2    H311928   1.604   0.613   0.195 -0.0464  0.1345 -1.4420
  806MPD2     N11929   1.586   1.061   0.201 -0.3580 -0.0224  0.0852
  806MPD2    H511930   1.539   1.140   0.245 -0.0500 -0.7500  1.7111
  806MPD2    N111931   1.319   0.775   0.489 -0.7946 -0.2652 -0.5349
  806MPD2    H711932   1.315   0.675   0.507  3.7513 -0.1043  1.5090
  807MPD2     C11933   1.167   0.146   0.741  0.3509  0.6696  0.6773
  807MPD2    C111934   1.207   0.222   0.846  1.2024  0.5419 -0.6585
  807MPD2    C211935   1.221   0.165   0.970  0.0951  0.0418 -0.5805
  807MPD2    C311936   1.218   0.029   0.990  0.3336 -0.0021 -0.0256
  807MPD2    C411937   1.196   4.678   0.875  0.6878  0.1205 -0.1210
  807MPD2    C511938   1.161   0.012   0.760  0.1759  0.0704  0.2418
  807MPD2     H11939   1.246   0.225   1.057  2.0316 -1.1636 -0.2950
  807MPD2    H111940   1.206   4.570   0.875  1.9390  0.2395  0.3538
  807MPD2    H211941   1.148   0.183   0.641 -1.0324 -0.3585  0.5552
  807MPD2    H311942   1.140   4.678   0.675  0.1400  2.2211 -1.3317
  807MPD2     N11943   1.229   4.716   1.120 -0.3373 -0.2272 -0.3865
  807MPD2    H511944   1.247   0.053   1.195 -1.1744 -1.1229  0.5954
  807MPD2    N111945   1.218   0.367   0.846 -0.1027 -0.4226 -0.3286
  807MPD2    H711946   1.244   0.402   0.937  2.4531 -0.7480 -0.9306
  808MPD2     C11947   0.767   2.348   9.391  0.4655  0.4898  0.2521
  808MPD2    C111948   0.781   2.392   9.525 -0.6195  0.1801 -0.1131
  808MPD2    C211949   0.779   2.529   9.552 -0.6009 -0.4393  0.4200
  808MPD2    C311950   0.771   2.619   9.446 -0.4075  0.0756  0.4325
  808MPD2    C411951   0.747   2.577   9.323  0.2332 -0.3859 -0.1912
  808MPD2    C511952   0.749   2.440   9.297 -0.0492  0.0435 -1.2924
  808MPD2     H11953   0.806   2.556   9.654  0.6143  2.3714 -0.6502
  808MPD2    H111954   0.739   2.645   9.239  0.3663 -1.6924 -1.2513
  808MPD2    H211955   0.762   2.247   9.353  0.0465 -0.2992  2.4070
  808MPD2    H311956   0.738   2.411   9.194 -0.1561 -2.5671 -0.5479
  808MPD2     N11957   0.786   2.762   9.459 -0.4872  0.8370 -0.4119
  808MPD2    H511958   0.772   2.814   9.373  0.9966  3.7727  1.1219
  808MPD2    N111959   0.792   2.308   9.645  0.0198 -0.3303 -0.9161
  808MPD2    H711960   0.807   2.353   9.734  3.5622 -0.0078 -1.6787
  809MPD2     C11961   0.935   3.571   8.930 -0.6163 -0.0683 -0.1552
  809MPD2    C111962   0.999   3.602   9.051  0.6464 -0.2432  0.6407
  809MPD2    C211963   1.002   3.505   9.147  0.0408 -0.1890 -0.3915
  809MPD2    C311964   0.933   3.383   9.132 -0.3749  0.0929 -0.0540
  809MPD2    C411965   0.859   3.364   9.021 -0.0612 -0.0393 -0.2128
  809MPD2    C511966   0.869   3.454   8.918  0.3889  0.2000 -0.5656
  809MPD2     H11967   1.045   3.520   9.245  0.3740 -1.2565 -0.3733
  809MPD2    H111968   0.802   3.272   9.016  0.4254 -0.4274  1.3259
  809MPD2    H211969   0.929   3.648   8.853  2.0250  1.7169  1.4031
  809MPD2    H311970   0.791   3.437   8.844 -1.2685  1.2272  0.9332
  809MPD2     N11971   0.939   3.301   9.242 -0.1384  0.1033 -0.1549
  809MPD2    H511972   1.015   3.328   9.305 -0.7510 -0.9377  1.0345
  809MPD2    N111973   1.065   3.724   9.074  0.9294 -0.4083  0.2243
  809MPD2    H711974   1.144   3.728   9.138  1.3945 -1.1008 -0.3090
  810MPD2     C11975   1.317   1.664  10.407 -0.1364  0.5105 -0.6227
  810MPD2    C111976   1.325   1.582  10.519 -0.4613  0.7379 -0.3799
  810MPD2    C211977   1.358   1.637  10.647 -0.0682 -0.4423 -0.2323
  810MPD2    C311978   1.395   1.778  10.651 -0.6584 -0.1887  0.8657
  810MPD2    C411979   1.398   1.850  10.537  0.9607  0.3886  0.0521
  810MPD2    C511980   1.362   1.794  10.411 -0.5794 -0.4482 -0.1525
  810MPD2     H11981   1.348   1.573  10.733  2.0233 -0.3102  0.1036
  810MPD2    H111982   1.432   1.953  10.535 -1.9747  1.3447 -0.3286
  810MPD2    H211983   1.305   1.632  10.304 -0.5632  0.5484 -0.5825
  810MPD2    H311984   1.370   1.854  10.321  0.1398 -0.6971 -0.2498
  810MPD2     N11985   1.419   1.851  10.773 -0.4851 -0.0935 -0.0194
  810MPD2    H511986   1.432   1.950  10.758 -1.6418 -0.3010 -2.3348
  810MPD2    N111987   1.284   1.448  10.494  0.3721  0.1633  0.1401
  810MPD2    H711988   1.250   1.433  10.399  1.1790  3.4088 -0.6637
  811MPD2     C11989   0.681   0.852  10.244 -0.5433  0.4831  0.6767
  811MPD2    C111990   0.740   0.978  10.248 -0.6085 -0.5021  0.3717
  811MPD2    C211991   0.687   1.077  10.175  0.5708 -0.7909  0.8735
  811MPD2    C311992   0.583   1.047  10.092  0.0263  0.7265  0.7600
  811MPD2    C411993   0.520   0.926  10.093 -0.7447  0.1391  0.0149
  811MPD2    C511994   0.568   0.831  10.176 -0.2294  0.2542 -0.1516
  811MPD2     H11995   0.719   1.181  10.175  0.4933 -0.7657 -0.8271
  811MPD2    H111996   0.431   0.900  10.036 -0.7451  2.7533 -1.1850
  811MPD2    H211997   0.715   0.770  10.305  0.7392 -1.2980 -2.4121
  811MPD2    H311998   0.530   0.730  10.186 -1.1184  0.6379  0.2777
  811MPD2     N11999   0.543   1.158  10.012  0.7874  0.3668 -0.3606
  811MPD2    H512000   0.594   1.245  10.026  0.9333  0.2275 -0.0144
  811MPD2    N112001   0.847   0.997  10.343  0.3782 -0.6642  0.1021
  811MPD2    H712002   0.884   0.913  10.388 -1.8122 -2.3475 -1.2302
  812MPD2     C12003   0.256   1.444  11.989 -0.4007 -0.4196 -1.2870
  812MPD2    C112004   0.204   1.497  12.101  0.0073  0.4925  0.1027
  812MPD2    C212005   0.231   1.451  12.227  0.1564  0.1042  0.5247
  812MPD2    C312006   0.308   1.338  12.239 -0.4815  0.4691  0.0586
  812MPD2    C412007   0.358   1.284  12.119 -0.6134 -0.4209  0.2275
  812MPD2    C512008   0.332   1.329  11.995 -0.5678  0.1294 -0.5667
  812MPD2     H12009   0.190   1.502  12.313 -0.7377  2.0737 -1.0807
  812MPD2    H112010   0.427   1.201  12.119  1.6128  1.4393 -0.2150
  812MPD2    H212011   0.242   1.487  11.890 -0.8184  2.4082  0.0078
  812MPD2    H312012   0.378   1.292  11.904  0.2172 -2.2680  0.8337
  812MPD2     N12013   0.334   1.290  12.365  0.0678  0.2449 -0.5995
  812MPD2    H512014   0.321   1.341  12.452  1.7208 -2.7121  1.4143
  812MPD2    N112015   0.133   1.613  12.085 -0.2286 -0.2003 -0.4992
  812MPD2    H712016   0.146   1.676  12.006 -0.6088 -1.0453 -1.2382
  813MPD2     C12017   4.184   3.252  13.001 -0.1938 -0.7921  0.0616
  813MPD2    C112018   4.139   3.380  12.969  0.4198 -0.0178  0.4228
  813MPD2    C212019   4.023   3.433  13.030 -0.3156 -0.0350  0.1129
  813MPD2    C312020   3.950   3.358  13.123 -0.2287 -0.1382  0.8093
  813MPD2    C412021   3.994   3.229  13.148 -0.9480  0.7526 -0.3391
  813MPD2    C512022   4.108   3.173  13.092 -0.3317  0.0147  0.4265
  813MPD2     H12023   3.991   3.533  13.004 -0.5145 -0.3262 -0.7406
  813MPD2    H112024   3.940   3.169  13.220 -1.7343  0.8827 -0.8158
  813MPD2    H212025   4.265   3.195  12.957  1.0504  2.0079 -1.2824
  813MPD2    H312026   4.147   3.079  13.129  1.9841 -0.0724 -2.2129
  813MPD2     N12027   3.851   3.421  13.191  0.2894  0.0413 -0.3201
  813MPD2    H512028   3.841   3.522  13.178  1.3035  0.2012  0.1337
  813MPD2    N112029   4.212   3.454  12.873 -0.4281  0.3835 -0.5642
  813MPD2    H712030   4.291   3.413  12.824 -0.8743  0.0918 -1.0432
  814MPD2     C12031   4.604   4.205  12.395  0.0307 -0.5434 -0.2841
  814MPD2    C112032   4.611   4.277  12.280  1.0707  0.4041 -0.0474
  814MPD2    C212033   4.637   4.411  12.287  0.6960 -0.5056  0.4871
  814MPD2    C312034   4.641   4.480  12.408 -0.0278  1.2763 -0.1796
  814MPD2    C412035   4.621   4.414  12.524  0.3448 -0.1224 -0.9755
  814MPD2    C512036   4.622   4.275  12.515 -0.5126  0.5199  0.4277
  814MPD2     H12037   4.650   4.471  12.198  1.6488  1.3676  1.8989
  814MPD2    H112038   4.622   4.458  12.623 -1.8321  3.4570 -2.5365
  814MPD2    H212039   4.579   4.100  12.401  0.4884 -0.5484  1.6934
  814MPD2    H312040   4.622   4.222  12.609 -1.0325 -0.7769 -0.3100
  814MPD2     N12041   4.667   4.618  12.426 -0.1560 -0.0532  0.3381
  814MPD2    H512042   4.680   4.646  12.523 -0.7695 -0.2371  0.4690
  814MPD2    N112043   4.619   4.212  12.159  0.2223 -0.3592 -1.1611
  814MPD2    H712044   4.662   4.255  12.078  0.4120 -1.7244 -1.7949
  815MPD2     C12045   0.246   3.073  12.233  0.0874 -0.0396 -0.1952
  815MPD2    C112046   0.172   2.984  12.164  0.1066 -0.0326  0.0493
  815MPD2    C212047   0.039   2.989  12.189 -0.0395 -0.2707 -0.2306
  815MPD2    C312048   4.710   3.087  12.269 -0.4057  0.1972 -0.2364
  815MPD2    C412049   0.057   3.182  12.336 -0.1841  0.1194 -0.3741
  815MPD2    C512050   0.192   3.166  12.322  0.1785  0.5146 -0.0203
  815MPD2     H12051   4.698   2.915  12.151 -0.2552  0.1958 -0.7540
  815MPD2    H112052   0.016   3.254  12.406  0.0592 -1.8881  1.8349
  815MPD2    H212053   0.348   3.083  12.200  0.6612 -1.2338  1.2013
  815MPD2    H312054   0.258   3.232  12.378 -0.0283 -0.3533  1.2444
  815MPD2     N12055   4.565   3.090  12.275 -0.0882 -0.8511  0.2554
  815MPD2    H512056   4.512   3.032  12.210 -0.6329  0.9704 -0.9189
  815MPD2    N112057   0.234   2.902  12.071 -0.5118 -0.2145  0.2868
  815MPD2    H712058   0.329   2.912  12.038 -0.9252 -1.2232 -1.1909
  816MPD2     C12059   0.860   2.559  17.333 -0.4718  0.1265 -0.0050
  816MPD2    C112060   0.749   2.536  17.263  0.1337  0.2184 -0.9367
  816MPD2    C212061   0.764   2.511  17.127 -0.8906  0.1422 -0.2541
  816MPD2    C312062   0.884   2.512  17.065  0.3336 -0.9817  0.6557
  816MPD2    C412063   0.998   2.539  17.140  0.2382 -0.0672 -0.2702
  816MPD2    C512064   0.977   2.558  17.268 -0.6492  0.3258  0.0799
  816MPD2     H12065   0.674   2.480  17.074 -0.7469  0.4747 -0.6891
  816MPD2    H112066   1.096   2.542  17.092 -0.8463 -2.0286 -2.5808
  816MPD2    H212067   0.851   2.591  17.436 -0.8930 -2.0446  0.6286
  816MPD2    H312068   1.068   2.585  17.322 -0.2999  1.0067 -0.8476
  816MPD2     N12069   0.881   2.483  16.931 -0.3952 -0.1046  0.0782
  816MPD2    H512070   0.796   2.470  16.878  0.8730  0.4417 -2.1113
  816MPD2    N112071   0.624   2.533  17.330 -0.5191  0.1427 -0.2804
  816MPD2    H712072   0.626   2.543  17.431 -0.2182  0.8085 -0.3499
  817MPD2     C12073   4.727   4.167  10.149  0.6410 -0.6146 -0.5126
  817MPD2    C112074   4.708   4.072  10.046  0.5822  0.5954 -0.4609
  817MPD2    C212075   4.672   4.116   9.920 -0.3248 -0.3853  0.5055
  817MPD2    C312076   4.652   4.251   9.898  0.1964 -0.2564  0.5029
  817MPD2    C412077   4.672   4.342   9.997  0.3527 -0.0711 -0.1382
  817MPD2    C512078   4.711   4.297  10.115 -0.0813 -0.3000 -0.4361
  817MPD2     H12079   4.663   4.043   9.841 -0.1498  1.1237 -0.9078
  817MPD2    H112080   4.660   4.450   9.993 -1.6676 -0.3614 -1.7187
  817MPD2    H212081   0.020   4.134  10.250  1.2387 -2.2354 -1.1730
  817MPD2    H312082   0.001   4.373  10.190 -0.5358 -0.1091 -0.5079
  817MPD2     N12083   4.606   4.294   9.768 -0.7897 -0.0797 -0.1207
  817MPD2    H512084   4.578   4.219   9.706 -0.4089  1.3385 -2.0135
  817MPD2    N112085   4.709   3.933  10.059 -0.1661 -0.4147  0.0656
  817MPD2    H712086   4.685   3.876   9.979 -1.8333 -1.8951  1.6445
  818MPD2     C12087   3.540   4.404   9.642 -0.8027  0.6298 -0.2717
  818MPD2    C112088   3.406   4.367   9.639  1.0714  0.3074 -0.4996
  818MPD2    C212089   3.368   4.236   9.626  0.0589 -0.4143 -0.5407
  818MPD2    C312090   3.465   4.136   9.609 -0.6831  0.2612 -0.4400
  818MPD2    C412091   3.598   4.175   9.601  0.1592  0.2190 -0.1898
  818MPD2    C512092   3.630   4.304   9.628 -0.3093 -0.1144 -0.9776
  818MPD2     H12093   3.264   4.205   9.618 -0.4577  1.0085  0.8366
  818MPD2    H112094   3.677   4.101   9.589 -0.3255 -0.2356 -0.5792
  818MPD2    H212095   3.578   4.505   9.654 -1.6861  0.7503  1.5062
  818MPD2    H312096   3.735   4.333   9.621 -0.9519  2.0904 -1.4700
  818MPD2     N12097   3.436   3.993   9.620 -0.1652  0.1237  0.1047
  818MPD2    H512098   3.515   3.929   9.619  0.4007  0.8169  0.7942
  818MPD2    N112099   3.312   4.454   9.684  0.1689  0.0495 -0.4811
  818MPD2    H712100   3.217   4.417   9.679 -0.3768  1.2761  0.8701
  819MPD2     C12101   1.728   1.355  15.405  0.4801  0.5074  0.2227
  819MPD2    C112102   1.699   1.220  15.407  0.0100 -0.2551 -1.2724
  819MPD2    C212103   1.755   1.159  15.523  0.1270  0.3689 -0.1577
  819MPD2    C312104   1.831   1.213  15.618  0.8168  0.3353 -0.2546
  819MPD2    C412105   1.854   1.348  15.613  0.5921  0.0184  0.0290
  819MPD2    C512106   1.789   1.414  15.511 -0.1303 -0.4058  0.3310
  819MPD2     H12107   1.727   1.056  15.541 -0.2910  0.2273 -1.6365
  819MPD2    H112108   1.910   1.410  15.682 -0.5336  0.4642  0.5508
  819MPD2    H212109   1.680   1.424  15.336 -0.5171  0.6252  1.0353
  819MPD2    H312110   1.785   1.521  15.496 -2.5031 -0.6521 -0.8104
  819MPD2     N12111   1.901   1.123  15.706 -0.3468 -0.3253  0.0383
  819MPD2    H512112   1.884   1.024  15.690  0.0252 -0.7182  2.1338
  819MPD2    N112113   1.609   1.156  15.323 -0.0804  0.3735 -0.0697
  819MPD2    H712114   1.572   1.221  15.254 -0.1180  0.7160  0.2721
  820MPD2     C12115   0.753   1.126  14.779  0.5374  0.0515  0.2280
  820MPD2    C112116   0.761   1.102  14.917 -0.0033 -0.1257 -0.2347
  820MPD2    C212117   0.887   1.096  14.979  0.6759  0.3127 -0.2282
  820MPD2    C312118   1.010   1.105  14.902 -0.4210  1.1073 -0.1902
  820MPD2    C412119   0.996   1.116  14.767  0.1112  0.2728 -0.1826
  820MPD2    C512120   0.868   1.123  14.709 -0.0272 -0.3941  0.3325
  820MPD2     H12121   0.897   1.085  15.086  0.1057 -0.8879 -0.2930
  820MPD2    H112122   1.077   1.102  14.696  0.7644 -4.5855  1.5206
  820MPD2    H212123   0.661   1.122  14.721  1.2064 -2.4564 -0.6414
  820MPD2    H312124   0.869   1.109  14.601  2.1935  1.5748  0.0985
  820MPD2     N12125   1.139   1.080  14.953  0.1367 -1.0062  0.6860
  820MPD2    H512126   1.210   1.053  14.885  0.0763  0.8147 -0.1265
  820MPD2    N112127   0.642   1.053  14.985 -0.3163  0.2433  0.1936
  820MPD2    H712128   0.557   1.043  14.931 -0.5682  2.3211  0.1782
  821MPD2     C12129   1.928   2.114  12.774  0.2529  0.0742 -0.7463
  821MPD2    C112130   1.985   2.099  12.894  0.1852 -0.3664 -0.5589
  821MPD2    C212131   2.044   2.209  12.958  0.1531 -0.8266 -0.3029
  821MPD2    C312132   2.055   2.329  12.895  0.4638  0.0473  0.4519
  821MPD2    C412133   1.999   2.339  12.766  0.3408 -0.5347  0.1236
  821MPD2    C512134   1.942   2.226  12.704 -0.1599 -0.1158  0.4086
  821MPD2     H12135   2.093   2.188  13.052  0.0434 -1.9772 -0.4982
  821MPD2    H112136   2.001   2.428  12.705  0.2811 -0.5178  0.1466
  821MPD2    H212137   1.869   2.036  12.726  0.8469 -0.9617  0.2211
  821MPD2    H312138   1.896   2.237  12.606 -0.3419 -0.4787  0.4555
  821MPD2     N12139   2.100   2.450  12.958  0.0427  0.8265 -0.0514
  821MPD2    H512140   2.110   2.533  12.900  0.7221 -1.0174 -2.5585
  821MPD2    N112141   1.975   1.977  12.966 -0.3534 -0.1246  0.1303
  821MPD2    H712142   2.013   1.988  13.060 -0.3327 -0.3457  0.1476
  822MPD2     C12143   2.042   2.264  15.519 -0.5322  0.1661 -0.3766
  822MPD2    C112144   2.122   2.367  15.570 -0.0711  0.1730  0.0294
  822MPD2    C212145   2.070   2.455  15.669  0.4522 -0.4201 -0.0389
  822MPD2    C312146   1.947   2.432  15.727  0.2822  0.2118  0.3516
  822MPD2    C412147   1.869   2.327  15.675 -0.3916  0.5109  0.2229
  822MPD2    C512148   1.919   2.244  15.580 -0.2920 -0.1637  0.6159
  822MPD2     H12149   2.125   2.542  15.702 -0.2766 -0.5417  1.4693
  822MPD2    H112150   1.766   2.303  15.701 -0.6675 -1.5167 -2.6610
  822MPD2    H212151   2.071   2.188  15.447  0.1539  1.8465 -1.8896
  822MPD2    H312152   1.855   2.163  15.547 -1.1440  0.7477  0.0125
  822MPD2     N12153   1.908   2.514  15.840  0.7520  0.1450 -0.6490
  822MPD2    H512154   1.975   2.583  15.871  0.3656  0.5823 -0.7833
  822MPD2    N112155   2.253   2.388  15.526 -0.4055  0.2113 -0.4166
  822MPD2    H712156   2.315   2.433  15.592  0.5377  2.6409 -2.9605
  823MPD2     C12157   1.835   2.850  16.654 -0.1017  0.2733  0.1648
  823MPD2    C112158   1.850   2.744  16.567  0.1602  0.2185  0.0422
  823MPD2    C212159   1.920   2.631  16.608 -0.7786 -0.1487 -0.0036
  823MPD2    C312160   1.981   2.630  16.726 -1.0101  0.2088  0.2259
  823MPD2    C412161   1.958   2.729  16.816  0.3509  0.5742 -0.1475
  823MPD2    C512162   1.898   2.849  16.774  0.5708 -0.1201 -0.2593
  823MPD2     H12163   1.940   2.557  16.531 -0.1630 -0.2994  0.3057
  823MPD2    H112164   2.000   2.730  16.917 -0.3110 -0.5393  0.1329
  823MPD2    H212165   1.791   2.943  16.620 -1.3214 -1.1051 -1.9970
  823MPD2    H312166   1.887   2.927  16.848 -0.0134 -0.1510 -0.3171
  823MPD2     N12167   2.070   2.525  16.769 -0.4897 -0.1285 -0.4233
  823MPD2    H512168   2.113   2.534  16.860  0.6682 -0.3922 -0.9399
  823MPD2    N112169   1.784   2.752  16.442 -0.2443  0.2082 -0.2673
  823MPD2    H712170   1.738   2.842  16.429 -1.5738 -0.4611 -0.2899
  824MPD2     C12171   2.816   1.833  15.568  0.0190  0.4139  0.1743
  824MPD2    C112172   2.869   1.920  15.477  0.3935 -0.2931  0.2291
  824MPD2    C212173   2.993   1.888  15.420  0.2277  0.2429 -0.0687
  824MPD2    C312174   3.058   1.770  15.438 -0.3757 -0.5627 -0.1686
  824MPD2    C412175   2.997   1.679  15.518  0.3470 -0.3171 -0.4111
  824MPD2    C512176   2.883   1.712  15.589  0.5194  0.1371  0.1292
  824MPD2     H12177   3.046   1.955  15.354 -0.4600  0.9084  0.0659
  824MPD2    H112178   3.034   1.578  15.532  0.0988 -0.4183 -0.5026
  824MPD2    H212179   2.714   1.852  15.601  0.4681  2.5850  0.3255
  824MPD2    H312180   2.835   1.642  15.656  1.1895 -0.2052  0.2516
  824MPD2     N12181   3.181   1.747  15.376  0.5947  0.1802  0.5133
  824MPD2    H512182   3.214   1.829  15.325 -0.0981  0.2433  0.1736
  824MPD2    N112183   2.809   2.047  15.437  0.1860  0.4667 -0.0732
  824MPD2    H712184   2.863   2.092  15.363  1.8680 -1.9320 -0.2939
  825MPD2     C12185   3.839   2.040  15.029  0.7667 -0.1006 -0.1076
  825MPD2    C112186   3.732   2.052  15.110 -0.9316  0.1520 -0.2451
  825MPD2    C212187   3.664   2.174  15.110 -0.2973  0.3239  0.2976
  825MPD2    C312188   3.708   2.289  15.038  0.0593  0.3568  0.9717
  825MPD2    C412189   3.811   2.262  14.950 -0.3428 -0.6429 -0.6835
  825MPD2    C512190   3.870   2.138  14.943  0.1673 -0.2255 -0.1458
  825MPD2     H12191   3.580   2.188  15.177 -0.6297  0.3959 -0.1415
  825MPD2    H112192   3.855   2.341  14.890 -0.1260  1.0974  1.7564
  825MPD2    H212193   3.904   1.953  15.015 -0.2238 -1.0512  1.2817
  825MPD2    H312194   3.940   2.114  14.863  0.3668  0.2574 -0.1155
  825MPD2     N12195   3.639   2.412  15.033 -0.3462  0.0807  0.3127
  825MPD2    H512196   3.668   2.481  14.964  2.1913 -0.9420  0.3604
  825MPD2    N112197   3.706   1.945  15.198 -0.3985 -0.0713  0.1890
  825MPD2    H712198   3.745   1.854  15.178  1.4381  1.0249 -1.2804
  826MPD2     C12199   3.488   1.535  13.502  0.3803 -0.2484  0.2786
  826MPD2    C112200   3.441   1.558  13.375  0.1851  0.8697  0.3878
  826MPD2    C212201   3.321   1.621  13.361 -0.1134  0.0159 -0.2881
  826MPD2    C312202   3.246   1.652  13.474  0.7530 -0.0523  0.1073
  826MPD2    C412203   3.288   1.617  13.604 -0.7120  0.6833  0.6655
  826MPD2    C512204   3.414   1.567  13.618 -0.2613 -0.0432  0.0485
  826MPD2     H12205   3.285   1.641  13.261  0.9185  1.4030 -0.3789
  826MPD2    H112206   3.240   1.654  13.694  0.3533  0.2428  1.4143
  826MPD2    H212207   3.572   1.470  13.522 -0.0485 -1.1660 -0.8703
  826MPD2    H312208   3.460   1.557  13.715  0.0248  2.3511  0.1625
  826MPD2     N12209   3.120   1.721  13.464  0.2879 -0.3524 -0.3318
  826MPD2    H512210   3.086   1.762  13.550  0.9497  0.3389 -0.3969
  826MPD2    N112211   3.527   1.512  13.273 -0.0434 -0.0721 -0.2599
  826MPD2    H712212   3.613   1.473  13.310 -1.0013 -0.8844  1.1174
  827MPD2     C12213   4.036   3.029  10.255  0.1290  0.0621  0.2402
  827MPD2    C112214   4.035   2.895  10.279 -0.1071  0.5443  0.3214
  827MPD2    C212215   3.922   2.824  10.241 -0.4105 -0.1097 -0.0868
  827MPD2    C312216   3.817   2.881  10.172 -0.6116  0.2238  0.0242
  827MPD2    C412217   3.820   3.021  10.147  0.0237  0.0192 -0.1848
  827MPD2    C512218   3.934   3.085  10.182 -0.3864  0.5883  0.4912
  827MPD2     H12219   3.916   2.719  10.266 -0.6203 -0.1980 -0.5175
  827MPD2    H112220   3.749   3.074  10.085 -0.8985  0.7103  1.4432
  827MPD2    H212221   4.115   3.097  10.286 -0.5160  0.9801 -0.1122
  827MPD2    H312222   3.933   3.188  10.149 -1.8571  0.2053 -0.6657
  827MPD2     N12223   3.705   2.801  10.145  0.7764  0.3133  0.1152
  827MPD2    H512224   3.716   2.701  10.156 -1.9433  0.1584  1.2684
  827MPD2    N112225   4.150   2.843  10.351 -0.7247  0.4597  0.2704
  827MPD2    H712226   4.217   2.907  10.393  0.5991 -1.0662  0.4965
  828MPD2     C12227   2.630   2.875  12.524 -0.4164 -0.0249 -0.2705
  828MPD2    C112228   2.615   2.870  12.389  0.4211  0.0010 -0.2786
  828MPD2    C212229   2.715   2.808  12.321  0.1453 -0.1055 -1.2728
  828MPD2    C312230   2.823   2.750  12.387  0.0357  0.3851 -0.1123
  828MPD2    C412231   2.829   2.751  12.522 -0.0797 -0.0221  0.2292
  828MPD2    C512232   2.728   2.810  12.589  0.5844 -0.4780  0.0920
  828MPD2     H12233   2.710   2.815  12.213  2.3498  0.3787 -1.3412
  828MPD2    H112234   2.909   2.710  12.583  1.2589  0.6076 -1.0898
  828MPD2    H212235   2.556   2.928  12.582 -0.9782 -0.8629 -0.2246
  828MPD2    H312236   2.734   2.822  12.697  0.4080 -0.9943  0.1562
  828MPD2     N12237   2.919   2.677  12.321  0.5380 -0.0947  0.3272
  828MPD2    H512238   3.002   2.643  12.369  1.2453 -0.5379 -1.1934
  828MPD2    N112239   2.506   2.931  12.330  0.4223  0.3058 -0.0644
  828MPD2    H712240   2.511   2.948  12.230 -0.8406  0.4398 -0.1056
  829MPD2     C12241   2.430   2.873  11.495  0.0370 -0.6811  0.0087
  829MPD2    C112242   2.326   2.962  11.517  0.0736 -0.3296  0.1284
  829MPD2    C212243   2.283   2.990  11.648 -0.4331 -0.2216 -0.1907
  829MPD2    C312244   2.360   2.938  11.754 -0.2943 -0.1454 -0.0207
  829MPD2    C412245   2.471   2.859  11.725 -0.3013 -0.0139 -0.0408
  829MPD2    C512246   2.503   2.828  11.595 -0.1702  0.2444  0.0715
  829MPD2     H12247   2.202   3.059  11.669 -0.7108 -0.6844  0.2446
  829MPD2    H112248   2.528   2.820  11.809  0.8281  0.9060 -0.3736
  829MPD2    H212249   2.460   2.848  11.395 -1.3037 -0.2802 -0.4993
  829MPD2    H312250   2.574   2.747  11.582  0.8348  1.3451 -1.3135
  829MPD2     N12251   2.321   2.964  11.891  0.0179 -0.6871  0.4108
  829MPD2    H512252   2.380   2.914  11.957 -1.7143 -0.5398  2.0959
  829MPD2    N112253   2.246   3.015  11.405 -0.3863  0.4370 -0.2197
  829MPD2    H712254   2.282   2.985  11.315 -1.1664  0.3299 -0.5030
  830MPD2     C12255   2.154   0.774  15.274  0.0075 -0.1676  0.7218
  830MPD2    C112256   2.237   0.853  15.351  0.0039 -0.2857 -0.3850
  830MPD2    C212257   2.327   0.937  15.289  0.1442 -0.0030 -0.2566
  830MPD2    C312258   2.340   0.943  15.148 -0.5112 -0.7325  0.0081
  830MPD2    C412259   2.256   0.864  15.076 -0.0296  0.0273  0.2715
  830MPD2    C512260   2.164   0.784  15.134 -0.2382 -0.3822  0.3076
  830MPD2     H12261   2.387   1.006  15.347  1.6231 -0.6351 -1.0419
  830MPD2    H112262   2.271   0.871  14.969 -4.4439  2.1783 -0.1890
  830MPD2    H212263   2.081   0.712  15.323 -0.8672  0.3663  0.0966
  830MPD2    H312264   2.090   0.721  15.084  2.4118 -1.4618 -2.2195
  830MPD2     N12265   2.424   1.032  15.077 -0.5090 -0.2467 -0.5541
  830MPD2    H512266   2.404   1.049  14.979 -1.2852 -1.0882 -0.5449
  830MPD2    N112267   2.220   0.853  15.495 -0.0983  0.1027 -0.4033
  830MPD2    H712268   2.139   0.801  15.528  0.3682  0.9769  2.1173
  831MPD2     C12269   2.337   2.833  16.223 -0.0711 -0.3597  1.0266
  831MPD2    C112270   2.297   2.766  16.101  0.1356 -0.3055  0.0024
  831MPD2    C212271   2.235   2.642  16.121  0.3366 -0.3695  0.5241
  831MPD2    C312272   2.180   2.600  16.243  0.7030  0.0836 -0.0687
  831MPD2    C412273   2.221   2.673  16.354  0.6799  0.8048  0.7818
  831MPD2    C512274   2.298   2.782  16.343 -0.6133 -0.2618  0.4193
  831MPD2     H12275   2.224   2.581  16.032 -1.4886  0.2714  0.3102
  831MPD2    H112276   2.184   2.635  16.449 -0.3870  3.5667  1.4548
  831MPD2    H212277   2.394   2.924  16.208 -0.0104 -0.5271  0.2272
  831MPD2    H312278   2.315   2.845  16.430 -2.4329  1.7356 -0.6696
  831MPD2     N12279   2.095   2.487  16.266  0.4372  0.1667  0.2158
  831MPD2    H512280   2.065   2.469  16.361  1.0176 -1.0086  0.1764
  831MPD2    N112281   2.331   2.818  15.976 -0.0289  0.4726  0.1208
  831MPD2    H712282   2.412   2.879  15.965 -0.2678  0.7163 -0.2569
  832MPD2     C12283   0.941   3.326  17.327 -0.1832  0.2331 -0.3666
  832MPD2    C112284   0.916   3.461  17.289  0.6956  0.5334 -0.1327
  832MPD2    C212285   0.783   3.496  17.256  0.0947  0.4746 -1.1362
  832MPD2    C312286   0.677   3.401  17.260 -0.6251 -0.0390  0.1189
  832MPD2    C412287   0.709   3.275  17.310 -0.5321  0.3766  0.0533
  832MPD2    C512288   0.835   3.234  17.336  0.2618 -0.1132  0.3154
  832MPD2     H12289   0.764   3.588  17.202  0.5391  1.7205  0.8352
  832MPD2    H112290   0.625   3.206  17.310  0.6589 -1.0891  3.1420
  832MPD2    H212291   1.045   3.300  17.344 -0.7506 -1.5799  0.3286
  832MPD2    H312292   0.858   3.131  17.360 -1.7141 -0.8924 -1.1956
  832MPD2     N12293   0.547   3.424  17.210 -0.3241  0.6556  0.1087
  832MPD2    H512294   0.484   3.345  17.198  1.1849 -0.3680 -0.9575
  832MPD2    N112295   1.021   3.554  17.280 -0.1384  0.3046 -0.8708
  832MPD2    H712296   1.110   3.518  17.314  0.7015  2.0536 -1.2062
  833MPD2     C12297   3.357   0.632  12.294  0.9124  1.4027 -0.0764
  833MPD2    C112298   3.271   0.682  12.199  0.6001 -0.5929  0.2784
  833MPD2    C212299   3.281   0.627  12.074 -0.2324 -0.1185  0.1262
  833MPD2    C312300   3.365   0.519  12.047 -0.1193  1.0094  0.2312
  833MPD2    C412301   3.443   0.467  12.146  0.1435 -0.0213 -0.0311
  833MPD2    C512302   3.437   0.528  12.266  0.6398 -0.7555 -0.6482
  833MPD2     H12303   3.205   0.661  12.005 -0.3779  0.4502  0.5670
  833MPD2    H112304   3.509   0.381  12.140  2.2726  1.4824  2.0841
  833MPD2    H212305   3.372   0.674  12.392  2.0810  2.5677 -0.7603
  833MPD2    H312306   3.502   0.490  12.344  0.8691  0.0550 -0.4476
  833MPD2     N12307   3.379   0.460  11.916 -0.2023  0.2320  0.2746
  833MPD2    H512308   3.453   0.391  11.905 -0.7581 -0.6217  1.8461
  833MPD2    N112309   3.186   0.793  12.210  0.1879 -0.0305 -0.3806
  833MPD2    H712310   3.129   0.797  12.126  2.5751 -1.3311 -2.0524
  834MPD2     C12311   3.392   4.351  11.425 -0.4190 -0.3506 -0.1421
  834MPD2    C112312   3.310   4.439  11.355 -0.2312  0.7420 -0.3648
  834MPD2    C212313   3.277   4.557  11.408  0.1472  0.3880  0.1408
  834MPD2    C312314   3.301   4.591  11.534 -0.5236  0.3004 -0.7518
  834MPD2    C412315   3.371   4.498  11.615 -0.2518 -0.3724 -0.0315
  834MPD2    C512316   3.427   4.389  11.552 -0.0550 -0.7757 -0.7884
  834MPD2     H12317   3.217   4.625  11.349 -0.7087  0.6107  1.2813
  834MPD2    H112318   3.384   4.501  11.723  1.3532  1.9314 -0.2774
  834MPD2    H212319   3.438   4.262  11.385  0.2066 -0.4125  0.7123
  834MPD2    H312320   3.491   4.320  11.606 -0.1293  1.3851  2.0617
  834MPD2     N12321   3.250   4.713  11.587  0.1025  0.6784  0.0534
  834MPD2    H512322   3.181   0.033  11.531  0.9940  2.3245  0.3895
  834MPD2    N112323   3.246   4.387  11.244 -1.0325 -0.4197 -0.0237
  834MPD2    H712324   3.257   4.287  11.228 -1.9932 -0.6104  0.4946
  835MPD2     C12325   3.085   2.465  11.099 -0.4285  0.2148 -0.7843
  835MPD2    C112326   3.023   2.591  11.122 -0.1611 -0.1539  0.5439
  835MPD2    C212327   3.035   2.653  11.246  0.3233  0.1622 -0.5467
  835MPD2    C312328   3.076   2.572  11.356  0.4657 -0.1393 -0.1109
  835MPD2    C412329   3.143   2.461  11.329  0.0333  0.0989 -0.4493
  835MPD2    C512330   3.150   2.414  11.203 -0.3133  0.1615 -0.5179
  835MPD2     H12331   3.013   2.757  11.271 -0.8481 -0.2143  0.0088
  835MPD2    H112332   3.182   2.398  11.408 -2.0386 -0.4669  0.1230
  835MPD2    H212333   3.082   2.417  11.002 -0.3177  1.1068 -1.2261
  835MPD2    H312334   3.209   2.323  11.202 -0.0148  0.3427  0.2188
  835MPD2     N12335   3.072   2.629  11.487 -0.2270  0.0304 -0.6615
  835MPD2    H512336   3.135   2.597  11.560 -0.8053  1.3364  0.4229
  835MPD2    N112337   2.959   2.670  11.033  0.6688 -0.2115  0.8396
  835MPD2    H712338   2.920   2.758  11.066  2.1938  0.9273 -0.4175
  836MPD2     C12339   2.687   3.222  11.711  0.1376  0.0024 -0.3537
  836MPD2    C112340   2.704   3.151  11.832 -0.3383  0.5964 -0.3078
  836MPD2    C212341   2.634   3.187  11.945 -0.2014 -0.0256 -0.2135
  836MPD2    C312342   2.554   3.304  11.947 -0.0067  0.0216  0.4194
  836MPD2    C412343   2.544   3.370  11.823 -0.1423  0.7419 -0.2199
  836MPD2    C512344   2.604   3.326  11.714 -0.3409  0.8979  0.2200
  836MPD2     H12345   2.649   3.135  12.039  0.7560  1.9939  0.7492
  836MPD2    H112346   2.488   3.462  11.817  1.7108  1.9723  1.4874
  836MPD2    H212347   2.732   3.196  11.616 -1.3616  0.1294 -1.1004
  836MPD2    H312348   2.577   3.373  11.620  1.6650 -0.6100 -1.1042
  836MPD2     N12349   2.471   3.357  12.049  0.0486  0.0810  0.2777
  836MPD2    H512350   2.428   3.447  12.030 -0.6208  0.0574  1.6927
  836MPD2    N112351   2.796   3.041  11.822  0.4858 -0.5496 -0.3229
  836MPD2    H712352   2.835   3.026  11.730  1.0489 -0.8812 -0.0336
  837MPD2     C12353   0.603   1.917  10.039 -0.7282  0.2220  0.4199
  837MPD2    C112354   0.534   1.880   9.923  0.0834  0.0066  0.2051
  837MPD2    C212355   0.484   1.973   9.838  0.9472  0.0805  0.3271
  837MPD2    C312356   0.487   2.108   9.871 -0.0064  0.1174  0.7454
  837MPD2    C412357   0.533   2.144   9.995  0.2781 -0.0912 -0.0566
  837MPD2    C512358   0.599   2.050  10.068 -0.0042  0.1801 -0.0404
  837MPD2     H12359   0.465   1.936   9.738 -0.9243  2.5701 -0.2317
  837MPD2    H112360   0.541   2.248  10.027 -1.1523  0.1617 -0.5172
  837MPD2    H212361   0.665   1.849  10.096  1.8330  2.1618 -0.0599
  837MPD2    H312362   0.646   2.091  10.157 -1.0920 -0.1099  0.6725
  837MPD2     N12363   0.404   2.193   9.798  0.0106 -0.2616  0.9853
  837MPD2    H512364   0.356   2.172   9.711  0.7108 -0.8728  0.7409
  837MPD2    N112365   0.503   1.749   9.896 -0.3080 -0.1741 -0.3281
  837MPD2    H712366   0.450   1.733   9.810 -2.6872 -1.5506  1.3693
  838MPD2     C12367   4.467   1.219  11.635 -0.6269 -0.1498 -0.7050
  838MPD2    C112368   4.453   1.086  11.654 -0.5551  0.6280 -0.1697
  838MPD2    C212369   4.382   1.043  11.766  0.6681  0.5040  0.8890
  838MPD2    C312370   4.343   1.132  11.866  1.0013  0.2887  0.3577
  838MPD2    C412371   4.379   1.266  11.850  0.2518 -0.0648  0.2163
  838MPD2    C512372   4.444   1.301  11.737 -0.3707 -0.0853 -0.1408
  838MPD2     H12373   4.365   0.938  11.786 -3.3723  1.2029  0.9567
  838MPD2    H112374   4.372   1.343  11.926 -1.1671 -0.9578  0.9804
  838MPD2    H212375   4.509   1.269  11.549  1.5636  0.7960  0.9182
  838MPD2    H312376   4.467   1.407  11.726 -0.5637 -0.0411 -0.1146
  838MPD2     N12377   4.304   1.080  11.986 -0.1881  0.0240 -0.1815
  838MPD2    H512378   4.301   0.979  11.988  0.0217  0.0485  1.6666
  838MPD2    N112379   4.502   0.993  11.558 -0.4064  0.4339  0.0267
  838MPD2    H712380   4.484   0.896  11.580  0.7482  0.3908  0.7351
  839MPD2     C12381   4.678   0.191  11.815  0.1499 -0.5256 -0.3054
  839MPD2    C112382   4.667   0.193  11.678  0.1008  0.1510 -0.2658
  839MPD2    C212383   4.660   0.316  11.611  0.6672  0.1767 -0.7645
  839MPD2    C312384   4.683   0.434  11.679  0.1445  0.3476 -0.7745
  839MPD2    C412385   4.685   0.432  11.817  0.6151 -0.0543  0.4341
  839MPD2    C512386   4.681   0.309  11.883 -0.2663 -0.0039  0.6855
  839MPD2     H12387   4.654   0.306  11.503 -1.7512 -1.8674 -0.4253
  839MPD2    H112388   4.699   0.523  11.874 -2.9080  0.3178  0.7367
  839MPD2    H212389   4.677   0.096  11.867 -2.7981 -0.7032 -0.6836
  839MPD2    H312390   4.694   0.316  11.991  0.5969 -2.1932  0.7207
  839MPD2     N12391   4.710   0.554  11.607 -0.1500  0.1523 -0.4333
  839MPD2    H512392   0.019   0.633  11.658 -1.0017 -0.9225  1.8317
  839MPD2    N112393   4.660   0.073  11.601  0.3561 -0.3940 -0.4719
  839MPD2    H712394   4.670   0.081  11.501 -1.5625  0.3510 -0.6039
  840MPD2     C12395   4.646   3.139  10.564  0.4370 -0.0554 -0.6477
  840MPD2    C112396   4.650   3.018  10.632  0.1591 -1.0407  0.6489
  840MPD2    C212397   0.023   2.994  10.725 -0.0135 -0.0648  0.4968
  840MPD2    C312398   0.117   3.091  10.741  0.3763 -1.0682 -0.1195
  840MPD2    C412399   0.120   3.204  10.661 -0.4446  0.0692 -0.1208
  840MPD2    C512400   0.018   3.231  10.574  0.5903  0.6802 -0.8711
  840MPD2     H12401   0.035   2.902  10.781 -0.1743 -0.2645  0.2028
  840MPD2    H112402   0.203   3.275  10.655 -1.8121  1.6960  0.2232
  840MPD2    H212403   4.563   3.168  10.500  0.9102 -0.4843 -1.4548
  840MPD2    H312404   0.032   3.321  10.515  0.7341  1.9248  1.0761
  840MPD2     N12405   0.203   3.100  10.849 -0.7810  0.2612 -0.3184
  840MPD2    H512406   0.255   3.187  10.858 -1.3963  0.4189  1.6278
  840MPD2    N112407   4.542   2.926  10.612  0.6668 -0.2065  0.1049
  840MPD2    H712408   4.467   2.947  10.547  0.5728  1.0089  0.6225
  841MPD2     C12409   3.793   3.247  14.133 -0.0521  0.0506 -0.0165
  841MPD2    C112410   3.873   3.136  14.110  0.1018  0.0688  0.4431
  841MPD2    C212411   3.996   3.124  14.170  0.4858 -0.1488  0.2199
  841MPD2    C312412   4.037   3.226  14.254 -0.0494  0.6140  0.4227
  841MPD2    C412413   3.950   3.327  14.294  0.1988  0.7429 -0.2749
  841MPD2    C512414   3.834   3.334  14.227  1.0119  0.1415  0.2738
  841MPD2     H12415   4.055   3.043  14.129 -0.6158 -0.5805 -0.4775
  841MPD2    H112416   3.975   3.405  14.364 -0.2925  1.0807 -0.4801
  841MPD2    H212417   3.700   3.266  14.083 -0.6472 -1.5271  0.4776
  841MPD2    H312418   3.765   3.412  14.258 -0.0150 -0.5935 -0.1353
  841MPD2     N12419   4.174   3.226  14.303 -0.1910 -0.3352 -0.0469
  841MPD2    H512420   4.239   3.153  14.276  0.8783  0.4439  0.4148
  841MPD2    N112421   3.844   3.035  14.017  0.2414  0.0099  0.0274
  841MPD2    H712422   3.901   2.951  14.026 -1.0162 -0.8731 -0.2243
  842MPD2     C12423   4.422   3.557  16.709  0.5182 -0.8716 -0.1322
  842MPD2    C112424   4.480   3.675  16.751 -0.5213 -0.3867 -0.9220
  842MPD2    C212425   4.519   3.696  16.881  0.2647  0.0227  0.4069
  842MPD2    C312426   4.532   3.586  16.968 -0.1259 -0.0975  0.3438
  842MPD2    C412427   4.478   3.465  16.922  0.2427  0.5396  0.1749
  842MPD2    C512428   4.427   3.454  16.791 -0.3359  0.2988  0.2120
  842MPD2     H12429   4.563   3.792  16.906  2.0645  0.1619 -3.2581
  842MPD2    H112430   4.475   3.380  16.990  1.6172  0.8297  0.6141
  842MPD2    H212431   4.379   3.544  16.610  0.0392 -1.6809  0.1852
  842MPD2    H312432   4.385   3.358  16.763 -0.0004  0.5667 -1.1889
  842MPD2     N12433   4.570   3.607  17.100 -0.6252 -0.2089  0.5518
  842MPD2    H512434   4.594   3.705  17.117  2.1488 -0.4059 -2.0992
  842MPD2    N112435   4.470   3.786  16.663  0.6465  0.1131 -0.1477
  842MPD2    H712436   4.406   3.779  16.585 -1.4498 -1.6278  1.7068
  843MPD2     C12437   1.908   4.528   0.036  0.1162 -0.1674  0.4549
  843MPD2    C112438   2.023   4.464   0.072 -0.1913 -1.3565  0.7863
  843MPD2    C212439   2.140   4.540   0.090 -0.3103 -0.1458  0.1197
  843MPD2    C312440   2.128   4.681   0.096 -0.7947 -0.5138 -0.1493
  843MPD2    C412441   2.006   0.014   0.066  0.3390 -0.0704 -0.1007
  843MPD2    C512442   1.897   4.664   0.034  0.2585  0.0434 -0.1283
  843MPD2     H12443   2.235   4.488   0.096 -0.9724 -1.6083 -1.9418
  843MPD2    H112444   1.989   0.121   0.051 -1.5016 -0.2728  0.5018
  843MPD2    H212445   1.819   4.469   0.020 -0.7448  2.0592 -2.9841
  843MPD2    H312446   1.795   4.700   0.027  0.4420  0.2571 -1.7309
  843MPD2     N12447   2.237   0.032   0.127 -0.3151  0.1756  0.4015
  843MPD2    H512448   2.208   0.129   0.136 -1.2990  0.1203 -2.1777
  843MPD2    N112449   2.025   4.319   0.059 -0.7885 -0.2272 -0.2958
  843MPD2    H712450   1.936   4.279   0.030 -1.2724 -0.2947  1.2782
  844MPD2     C12451   0.353   3.062  16.767 -0.7528 -0.7383  0.0298
  844MPD2    C112452   0.371   3.179  16.700  0.3823  0.5406 -0.2986
  844MPD2    C212453   0.462   3.272  16.738 -0.0573  0.0733 -0.2088
  844MPD2    C312454   0.546   3.248  16.851 -0.3485  0.6214 -0.1334
  844MPD2    C412455   0.514   3.133  16.926 -0.8929  0.6803 -0.2109
  844MPD2    C512456   0.424   3.040  16.886  0.2179 -0.3664 -0.4593
  844MPD2     H12457   0.486   3.365  16.688 -2.2148 -0.1080 -1.5639
  844MPD2    H112458   0.577   3.116  17.012 -0.3664  3.7693  0.0097
  844MPD2    H212459   0.272   2.994  16.744  1.3800 -2.9286 -0.9686
  844MPD2    H312460   0.414   2.952  16.949  0.7110  0.6177  0.9842
  844MPD2     N12461   0.650   3.331  16.892 -0.2705 -0.4595  0.2994
  844MPD2    H512462   0.728   3.292  16.943  0.1325  0.3208  0.2836
  844MPD2    N112463   0.307   3.212  16.581 -0.2096  0.3991 -0.1444
  844MPD2    H712464   0.328   3.301  16.537  1.8376 -0.2972 -0.6050
  845MPD2     C12465   0.602   4.334  16.952 -0.0366 -0.2154 -0.0537
  845MPD2    C112466   0.720   4.292  17.012  0.1745  0.4383 -0.0117
  845MPD2    C212467   0.771   4.167  16.990 -0.1498 -0.1210 -0.1849
  845MPD2    C312468   0.693   4.076  16.920 -0.4552  0.2275 -0.1649
  845MPD2    C412469   0.566   4.115  16.884 -0.2133  0.2842 -0.0414
  845MPD2    C512470   0.521   4.242  16.889 -0.0041  0.3944 -0.2969
  845MPD2     H12471   0.862   4.125  17.032 -0.6200 -0.2650  0.6876
  845MPD2    H112472   0.500   4.040  16.842  1.1579  0.0072 -1.6825
  845MPD2    H212473   0.571   4.434  16.980  1.9165  0.6062 -0.8287
  845MPD2    H312474   0.421   4.262  16.853  0.6070  1.0571 -1.6361
  845MPD2     N12475   0.730   3.941  16.897  0.4238  0.7683 -0.3286
  845MPD2    H512476   0.653   3.881  16.868 -0.0078  0.2932  1.7651
  845MPD2    N112477   0.795   4.381  17.080  0.4329  0.1683 -0.0366
  845MPD2    H712478   0.760   4.476  17.074 -1.4373 -0.5976 -1.3003
  846MPD2     C12479   1.828   0.227  13.459 -0.3143  0.4865 -0.3988
  846MPD2    C112480   1.933   0.267  13.532 -0.2565  0.3016  0.1431
  846MPD2    C212481   1.935   0.225  13.665  0.9908  0.3288  0.2786
  846MPD2    C312482   1.836   0.148  13.724  0.0049 -0.1957 -0.4337
  846MPD2    C412483   1.740   0.095  13.646  0.1102  0.3544  0.2069
  846MPD2    C512484   1.732   0.135  13.509 -0.5423  0.0929 -0.2573
  846MPD2     H12485   2.024   0.258  13.718  2.2142 -0.1570 -1.4755
  846MPD2    H112486   1.661   0.026  13.672 -0.3454 -0.5230 -3.5359
  846MPD2    H212487   1.796   0.266  13.363 -0.9158 -1.1505 -0.8760
  846MPD2    H312488   1.646   0.106  13.449  1.0593 -3.4073 -0.8613
  846MPD2     N12489   1.835   0.123  13.864 -0.4717 -0.3072  0.0662
  846MPD2    H512490   1.924   0.147  13.906 -2.2891  1.7424  2.7551
  846MPD2    N112491   2.030   0.364  13.485 -0.2350 -0.1731  0.6262
  846MPD2    H712492   2.098   0.398  13.552 -1.1208  0.2375  1.3198
  847MPD2     C12493   2.620   0.915  14.701  0.1465  0.2985  0.2534
  847MPD2    C112494   2.720   1.008  14.705  0.0105 -0.5899  0.6436
  847MPD2    C212495   2.805   1.012  14.812 -0.0524 -0.5100 -0.1007
  847MPD2    C312496   2.785   0.933  14.920  0.5744 -0.5605  0.6316
  847MPD2    C412497   2.676   0.844  14.918  0.2879 -0.5955 -0.0270
  847MPD2    C512498   2.594   0.831  14.811 -0.0109  0.2924 -0.1203
  847MPD2     H12499   2.895   1.072  14.816 -0.9812  0.6724  3.3109
  847MPD2    H112500   2.654   0.787  15.008 -0.3978 -1.1566 -0.5497
  847MPD2    H212501   2.560   0.901  14.611  0.6674 -0.6211  0.0543
  847MPD2    H312502   2.510   0.764  14.824 -0.0910  0.5244  0.5514
  847MPD2     N12503   2.870   0.965  15.026 -0.0726  0.0352  1.4480
  847MPD2    H512504   2.935   1.040  15.008 -2.2611  0.9073 -3.0019
  847MPD2    N112505   2.742   1.115  14.614 -0.3271  0.1439  0.8617
  847MPD2    H712506   2.822   1.173  14.638  0.9065 -0.7922 -1.0385
  848MPD2     C12507   0.097   3.718  16.562 -0.8263  0.0754 -0.4814
  848MPD2    C112508   0.177   3.779  16.659  0.8376 -0.1176  1.2391
  848MPD2    C212509   0.221   3.906  16.645  0.4596 -0.2339 -0.1297
  848MPD2    C312510   0.194   3.971  16.527  0.0589  0.2911 -0.3382
  848MPD2    C412511   0.130   3.904  16.421  0.7786 -0.0462 -0.2442
  848MPD2    C512512   0.077   3.781  16.440  0.1052  0.3441 -0.2576
  848MPD2     H12513   0.271   3.961  16.725  0.4789  0.9096 -0.9214
  848MPD2    H112514   0.104   3.955  16.329  0.2811 -0.2996 -0.2456
  848MPD2    H212515   0.045   3.624  16.574 -0.2687 -0.1461  0.2141
  848MPD2    H312516   0.007   3.736  16.371 -1.6421  0.5042  1.4080
  848MPD2     N12517   0.218   4.111  16.510  0.6764  0.7946 -0.0835
  848MPD2    H512518   0.192   4.149  16.419 -1.1776  1.0622  0.5628
  848MPD2    N112519   0.209   3.711  16.781 -0.1455  0.5833  0.6311
  848MPD2    H712520   0.255   3.759  16.858  2.4612 -2.8433  1.1642
  849MPD2     C12521   4.389   3.895  13.469 -0.5407 -0.5554 -0.3464
  849MPD2    C112522   4.459   3.896  13.589  0.6444  0.3279 -0.4894
  849MPD2    C212523   4.403   3.932  13.709 -0.3681  0.5110 -0.6646
  849MPD2    C312524   4.265   3.949  13.709  0.2155 -0.2113 -0.0392
  849MPD2    C412525   4.189   3.931  13.597  0.0410 -0.1034 -0.0562
  849MPD2    C512526   4.247   3.907  13.473  0.1065  0.3581 -0.2678
  849MPD2     H12527   4.458   3.931  13.802 -0.8669  3.5140 -0.3568
  849MPD2    H112528   4.081   3.942  13.594  0.1097  1.2561  2.3825
  849MPD2    H212529   4.438   3.884  13.373  1.4558  0.2268  0.5711
  849MPD2    H312530   4.191   3.905  13.380  0.0118  1.6558 -0.2420
  849MPD2     N12531   4.195   3.944  13.836  0.8190  0.0013 -0.7354
  849MPD2    H512532   4.105   3.897  13.840  2.0165 -2.3488 -1.0122
  849MPD2    N112533   4.586   3.850  13.581 -0.3907  0.9323  0.3791
  849MPD2    H712534   4.613   3.804  13.494 -1.1067  1.8080 -0.2993
  850MPD2     C12535   2.174   1.940  14.476  0.0482  0.3376 -0.3677
  850MPD2    C112536   2.180   2.056  14.556  0.5276 -0.6342  0.7718
  850MPD2    C212537   2.291   2.080  14.632  0.2547  0.3079  0.8253
  850MPD2    C312538   2.397   1.985  14.633 -0.1858  0.0326 -0.5932
  850MPD2    C412539   2.383   1.866  14.562 -0.0547 -0.7293 -0.1625
  850MPD2    C512540   2.276   1.844  14.478 -0.5320 -0.9775 -0.2985
  850MPD2     H12541   2.299   2.171  14.690 -1.6267  0.0801  1.4370
  850MPD2    H112542   2.459   1.789  14.568 -0.8036 -1.5656 -1.5243
  850MPD2    H212543   2.095   1.915  14.407 -0.7249 -0.3266  0.7619
  850MPD2    H312544   2.267   1.755  14.417  0.3663  0.0967 -2.0125
  850MPD2     N12545   2.511   1.999  14.714 -0.3826 -0.2678  0.3513
  850MPD2    H512546   2.573   1.920  14.727  2.0990  1.8523  1.2815
  850MPD2    N112547   2.065   2.147  14.553 -0.7618  0.2001 -0.4741
  850MPD2    H712548   2.004   2.147  14.471 -0.4158 -0.1898 -0.7289
  851MPD2     C12549   2.415   1.926  15.313  0.1406  0.1392  0.1266
  851MPD2    C112550   2.394   1.914  15.177  0.7089 -0.1382  0.4286
  851MPD2    C212551   2.465   1.812  15.108 -0.1536  0.0299  0.4575
  851MPD2    C312552   2.539   1.722  15.180 -0.6709  0.5554  0.3978
  851MPD2    C412553   2.555   1.741  15.311  0.5214  0.2328  0.0113
  851MPD2    C512554   2.496   1.841  15.377 -0.2492  0.3513  0.2595
  851MPD2     H12555   2.442   1.793  15.003  1.4803 -0.4638  0.1933
  851MPD2    H112556   2.621   1.682  15.373 -0.7542 -0.6762  0.5068
  851MPD2    H212557   2.369   2.004  15.372  1.4535  2.3804 -1.7957
  851MPD2    H312558   2.513   1.866  15.481  1.1788  0.4663  0.0098
  851MPD2     N12559   2.599   1.618  15.108  0.8365  0.1425 -0.3120
  851MPD2    H512560   2.576   1.623  15.009  0.4916  0.0503 -0.2356
  851MPD2    N112561   2.326   2.021  15.118  1.0092  0.0108  0.1502
  851MPD2    H712562   2.296   2.095  15.181  1.5754  0.4755 -0.1276
  852MPD2     C12563   2.252   0.406   9.832 -0.5961 -0.0863 -0.7402
  852MPD2    C112564   2.289   0.311   9.925  0.2951 -0.0247  0.3175
  852MPD2    C212565   2.388   0.214   9.892 -0.1713 -0.1316 -0.1462
  852MPD2    C312566   2.435   0.210   9.763 -0.4229 -0.6685 -0.8856
  852MPD2    C412567   2.387   0.296   9.664  1.0612 -0.3514 -0.1240
  852MPD2    C512568   2.300   0.396   9.707  0.4283 -1.2273 -0.8083
  852MPD2     H12569   2.406   0.139   9.968  2.4797  1.0698  0.4474
  852MPD2    H112570   2.423   0.293   9.562 -2.6443 -1.1452 -1.4062
  852MPD2    H212571   2.179   0.483   9.853 -0.9628 -1.3338  2.6088
  852MPD2    H312572   2.260   0.460   9.629 -2.1660 -1.2998  0.4569
  852MPD2     N12573   2.519   0.104   9.726  0.4052 -0.4897 -0.1307
  852MPD2    H512574   2.539   0.032   9.795 -0.1741 -2.9408 -2.4655
  852MPD2    N112575   2.237   0.304  10.054 -0.0372 -0.0862 -0.2258
  852MPD2    H712576   2.298   0.261  10.124 -1.2598  0.1690  0.9979
  853MPD2     C12577   3.721   3.812  12.272 -0.3790 -0.3894 -0.3051
  853MPD2    C112578   3.723   3.945  12.240  0.1693 -0.6121  0.1020
  853MPD2    C212579   3.764   3.969  12.115  0.0344  0.4945 -0.4236
  853MPD2    C312580   3.794   3.881  12.017 -0.5089  0.5151  0.2614
  853MPD2    C412581   3.801   3.753  12.054  0.4244  0.2650  0.0255
  853MPD2    C512582   3.768   3.722  12.184 -0.7499  0.8243 -0.0151
  853MPD2     H12583   3.775   4.075  12.095 -2.5257  0.7872 -0.3219
  853MPD2    H112584   3.833   3.679  11.981 -1.8979 -0.9559  0.2317
  853MPD2    H212585   3.709   3.778  12.374  0.1954  0.0902 -0.0821
  853MPD2    H312586   3.779   3.619  12.213 -2.7212  0.1025 -1.8377
  853MPD2     N12587   3.830   3.916  11.884 -0.0486  0.2593  0.1714
  853MPD2    H512588   3.867   3.841  11.826 -0.8238 -1.1630  1.5325
  853MPD2    N112589   3.690   4.038  12.346 -0.3405  0.0207  0.4927
  853MPD2    H712590   3.665   3.995  12.435  0.0655 -1.1282  0.0412
  854MPD2     C12591   0.768   4.284  12.744  0.6314 -0.1561 -1.1466
  854MPD2    C112592   0.887   4.316  12.681 -0.4966  0.0051 -0.3464
  854MPD2    C212593   1.005   4.274  12.744 -0.2084 -0.3972 -0.6485
  854MPD2    C312594   1.008   4.205  12.866 -0.4671  0.1909  0.1553
  854MPD2    C412595   0.883   4.173  12.918  0.8825  0.2137  0.7579
  854MPD2    C512596   0.772   4.214  12.857 -0.4056  0.8112 -0.2930
  854MPD2     H12597   1.097   4.297  12.692  0.9199 -2.4452  0.4350
  854MPD2    H112598   0.861   4.117  13.008 -1.9930  1.1652  0.6416
  854MPD2    H212599   0.670   4.317  12.713 -0.7205 -0.9378  2.3515
  854MPD2    H312600   0.679   4.201  12.910  0.2282 -1.4136  0.2861
  854MPD2     N12601   1.128   4.151  12.923  0.0301 -0.2431  0.3459
  854MPD2    H512602   1.119   4.103  13.012  1.1470 -2.3456 -0.6907
  854MPD2    N112603   0.879   4.394  12.565  0.1342 -0.2282 -0.0644
  854MPD2    H712604   0.790   4.403  12.517  0.6648 -1.6169 -1.3271
  855MPD2     C12605   1.857   3.816  13.570  0.1741  0.1251 -0.0237
  855MPD2    C112606   1.721   3.818  13.582 -0.1392  0.8195  0.1044
  855MPD2    C212607   1.649   3.849  13.472 -0.7365  0.5850 -0.0278
  855MPD2    C312608   1.707   3.881  13.352 -0.0331  0.0852 -0.4927
  855MPD2    C412609   1.843   3.875  13.350 -0.3166  0.1997 -0.1983
  855MPD2    C512610   1.923   3.841  13.454 -0.3272 -0.3568  0.1572
  855MPD2     H12611   1.541   3.851  13.483 -0.7605 -0.4048 -0.0548
  855MPD2    H112612   1.894   3.885  13.255 -3.0662 -2.0294 -1.9174
  855MPD2    H212613   1.918   3.769  13.646  0.2750  3.0770  1.7211
  855MPD2    H312614   2.030   3.826  13.451 -0.0994  1.1382  0.7642
  855MPD2     N12615   1.640   3.908  13.235  0.1984  0.1646 -0.0403
  855MPD2    H512616   1.695   3.912  13.149  0.6524  1.4710  0.3116
  855MPD2    N112617   1.638   3.801  13.701 -0.2834  0.0070  0.0397
  855MPD2    H712618   1.538   3.805  13.689 -0.3067 -2.4779 -0.6890
  856MPD2     C12619   3.204   0.328  13.950 -0.1973 -0.4601 -0.3839
  856MPD2    C112620   3.274   0.429  14.020  0.2632  0.0914 -0.7070
  856MPD2    C212621   3.216   0.558  14.036 -0.2766  0.5070  0.2494
  856MPD2    C312622   3.084   0.581  13.992  0.1477 -0.0354  0.1159
  856MPD2    C412623   3.021   0.485  13.920  1.4072  0.5153 -0.5434
  856MPD2    C512624   3.077   0.355  13.906 -0.6373 -0.0536  0.0673
  856MPD2     H12625   3.275   0.636  14.081  0.6267  1.2543 -2.1976
  856MPD2    H112626   2.930   0.512  13.869  1.8503  2.9598 -0.0396
  856MPD2    H212627   3.238   0.226  13.940  0.1751 -0.6762  3.2665
  856MPD2    H312628   3.026   0.280  13.846 -2.0222  0.5015  0.5501
  856MPD2     N12629   3.007   0.702  14.001 -0.7114 -0.9492  0.9755
  856MPD2    H512630   2.919   0.706  13.952  1.8386 -0.4966 -3.5464
  856MPD2    N112631   3.410   0.405  14.064  0.2296  0.1907  0.4099
  856MPD2    H712632   3.462   0.478  14.112 -1.6217  2.3203 -0.7792
  857MPD2     C12633   0.286   2.282  12.880  0.3296  0.0724  0.6899
  857MPD2    C112634   0.364   2.246  12.773  0.5815  0.0079  0.0602
  857MPD2    C212635   0.450   2.344  12.733  0.0502 -0.2029  0.0392
  857MPD2    C312636   0.453   2.463  12.803 -0.4803  0.0281 -0.6677
  857MPD2    C412637   0.385   2.494  12.917 -0.5149 -0.5061  0.4458
  857MPD2    C512638   0.299   2.394  12.960 -0.1756  0.0045 -0.6105
  857MPD2     H12639   0.505   2.334  12.640  0.5380 -2.6677  0.6036
  857MPD2    H112640   0.385   2.592  12.964  0.3161 -0.3275  0.0765
  857MPD2    H212641   0.219   2.211  12.927  2.6807 -1.3551  1.8819
  857MPD2    H312642   0.227   2.409  13.040  1.3550 -1.7233  1.0918
  857MPD2     N12643   0.532   2.564  12.732 -0.2851  0.1373  0.1317
  857MPD2    H512644   0.568   2.540  12.640  2.0795 -2.0737  1.6205
  857MPD2    N112645   0.357   2.128  12.704 -0.3043  0.0254  0.4462
  857MPD2    H712646   0.263   2.090  12.711  0.4296 -1.6422  1.3031
  858MPD2     C12647   1.289   1.596  16.480  0.2170 -0.3947 -0.2875
  858MPD2    C112648   1.260   1.480  16.540 -0.2267 -0.4299 -0.1401
  858MPD2    C212649   1.236   1.479  16.674 -0.4236  0.3936  0.4882
  858MPD2    C312650   1.231   1.594  16.752  0.3568 -0.4088  0.1589
  858MPD2    C412651   1.252   1.712  16.685  0.2077  0.7007  0.1778
  858MPD2    C512652   1.287   1.713  16.553 -0.1567  0.3864 -0.4305
  858MPD2     H12653   1.203   1.384  16.714 -0.7010  0.0377 -0.5965
  858MPD2    H112654   1.262   1.806  16.738 -0.2312  0.0254  1.4503
  858MPD2    H212655   1.314   1.603  16.375 -2.6840  4.4557 -0.6582
  858MPD2    H312656   1.293   1.803  16.493  2.8465 -0.2966 -1.1315
  858MPD2     N12657   1.200   1.587  16.893 -0.2142 -0.1665  0.0348
  858MPD2    H512658   1.188   1.678  16.937 -2.0781 -0.3514 -0.0895
  858MPD2    N112659   1.263   1.360  16.466  0.5290  0.1066 -0.4191
  858MPD2    H712660   1.268   1.370  16.365 -3.5303  0.7068 -0.5619
  859MPD2     C12661   4.413   3.751  15.670 -0.0704  0.3619  0.2244
  859MPD2    C112662   4.401   3.729  15.537  0.0950  0.1180  0.3960
  859MPD2    C212663   4.356   3.612  15.492 -0.5379 -0.0019  0.2720
  859MPD2    C312664   4.335   3.513  15.586 -0.2849 -0.7594 -0.0906
  859MPD2    C412665   4.357   3.533  15.720  0.3831  0.1123  1.1031
  859MPD2    C512666   4.399   3.657  15.763 -0.0301 -1.0173 -0.1479
  859MPD2     H12667   4.324   3.589  15.391  2.0037  1.4876 -0.8588
  859MPD2    H112668   4.336   3.458  15.794 -2.4020  0.6965  0.8969
  859MPD2    H212669   4.444   3.849  15.705 -0.6231  0.5853  0.0914
  859MPD2    H312670   4.404   3.675  15.870 -0.6386  3.5203 -0.8663
  859MPD2     N12671   4.276   3.388  15.561  0.2701 -0.1773  0.1539
  859MPD2    H512672   4.263   3.322  15.637  0.7602 -2.8093 -2.0411
  859MPD2    N112673   4.450   3.834  15.453 -0.5097  0.4125  0.7760
  859MPD2    H712674   4.469   3.921  15.501  2.6444  0.1656 -0.0263
  860MPD2     C12675   2.197   4.283  11.428 -0.6349  0.5421 -0.3020
  860MPD2    C112676   2.171   4.336  11.556  0.2345 -0.5513 -0.4150
  860MPD2    C212677   2.076   4.275  11.636 -0.1512  0.8795 -0.0869
  860MPD2    C312678   1.996   4.175  11.584  0.4386  0.0976 -0.2731
  860MPD2    C412679   2.015   4.134  11.451 -1.0922  0.1856 -0.2592
  860MPD2    C512680   2.114   4.192  11.375  0.0566  0.1108 -0.1020
  860MPD2     H12681   2.062   4.309  11.738  0.0209  2.7285 -0.6842
  860MPD2    H112682   1.951   4.062  11.402 -0.2449  0.2930 -1.5020
  860MPD2    H212683   2.272   4.320  11.359 -0.2862  0.3760 -0.0124
  860MPD2    H312684   2.128   4.161  11.272 -2.3665  0.9622 -0.6835
  860MPD2     N12685   1.892   4.127  11.672  0.0250 -0.2219  0.1675
  860MPD2    H512686   1.897   4.154  11.770  1.6494  0.9561 -0.2415
  860MPD2    N112687   2.252   4.440  11.616 -0.0136  0.0966  0.0355
  860MPD2    H712688   2.226   4.466  11.711 -0.5465 -0.5618  0.0723
  861MPD2     C12689   0.417   1.713  10.883 -0.4402 -0.3054  0.1295
  861MPD2    C112690   0.408   1.798  10.990 -0.3871  0.7252 -0.0038
  861MPD2    C212691   0.360   1.923  10.970 -0.2248  1.3684 -0.3493
  861MPD2    C312692   0.316   1.960  10.844 -0.0525 -0.1508  0.9297
  861MPD2    C412693   0.315   1.865  10.740  0.4396  0.5396  0.2326
  861MPD2    C512694   0.370   1.747  10.764  0.1441  0.4971  0.0077
  861MPD2     H12695   0.342   1.994  11.050 -0.9954  0.8052 -0.0232
  861MPD2    H112696   0.269   1.886  10.644 -1.1041  0.2632  0.9133
  861MPD2    H212697   0.461   1.614  10.888 -0.0707 -0.1981 -1.0772
  861MPD2    H312698   0.382   1.675  10.683 -0.9557  0.0676  0.2199
  861MPD2     N12699   0.265   2.084  10.807 -0.9986  1.1995 -0.1677
  861MPD2    H512700   0.223   2.098  10.716  0.6672  2.1272 -0.7992
  861MPD2    N112701   0.440   1.746  11.117  1.0157  0.2623  0.0175
  861MPD2    H712702   0.475   1.651  11.123  0.1061 -0.0047  1.2547
  862MPD2     C12703   4.447   2.270  10.454  0.8383  0.3963  0.6400
  862MPD2    C112704   4.532   2.197  10.536  0.4113 -0.4726 -0.6489
  862MPD2    C212705   4.558   2.063  10.509  0.3886 -0.0676 -0.0454
  862MPD2    C312706   4.491   1.995  10.409 -0.3351  0.3462  0.6280
  862MPD2    C412707   4.402   2.065  10.334 -0.4378  0.1509 -0.1992
  862MPD2    C512708   4.387   2.200  10.353 -0.2868  0.0264  0.4208
  862MPD2     H12709   4.637   2.020  10.570  0.8210  1.7668  0.6832
  862MPD2    H112710   4.345   2.016  10.255  0.0024  0.4308 -0.6954
  862MPD2    H212711   4.410   2.371  10.465 -1.6165 -0.3712 -0.5727
  862MPD2    H312712   4.317   2.255  10.292 -1.6188 -2.0768  0.0544
  862MPD2     N12713   4.520   1.858  10.371  0.4503 -0.6531  0.5156
  862MPD2    H512714   4.454   1.812  10.309  1.4109 -0.3997 -0.6887
  862MPD2    N112715   4.605   2.247  10.646  0.2709 -0.0958  0.5195
  862MPD2    H712716   4.648   2.180  10.709 -1.0214 -1.7405 -0.3604
  863MPD2     C12717   4.096   0.766  16.792  0.6869 -0.2295  0.1165
  863MPD2    C112718   4.079   0.635  16.747  0.5690 -0.7337  0.1071
  863MPD2    C212719   4.174   0.541  16.795 -0.2039 -0.1587 -0.2438
  863MPD2    C312720   4.286   0.584  16.873 -0.1916 -0.4594  0.0187
  863MPD2    C412721   4.293   0.715  16.907 -0.8265  0.2532  0.7200
  863MPD2    C512722   4.200   0.806  16.874 -0.4514  0.2650 -0.3299
  863MPD2     H12723   4.162   0.441  16.753  3.2514 -0.7303  0.1784
  863MPD2    H112724   4.375   0.746  16.971  1.5415 -4.0076 -0.2464
  863MPD2    H212725   4.019   0.834  16.759  0.9929 -0.6706 -1.5233
  863MPD2    H312726   4.214   0.906  16.914  1.0424  0.1680 -0.6022
  863MPD2     N12727   4.377   0.503  16.938 -0.4147  0.2445  0.1109
  863MPD2    H512728   4.434   0.550  17.008  1.3193  1.4208 -2.0579
  863MPD2    N112729   3.963   0.607  16.679 -0.6691 -0.1472 -0.0375
  863MPD2    H712730   3.905   0.687  16.653 -2.3312 -0.9356  1.2193
  864MPD2     C12731   4.698   1.333  17.603 -0.3447 -0.4742  0.2212
  864MPD2    C112732   0.044   1.244  17.530  0.0904  0.0259  0.3955
  864MPD2    C212733   0.138   1.300  17.436  0.2297  0.3170 -0.4693
  864MPD2    C312734   0.155   1.437  17.414 -0.6367 -0.4039  0.1446
  864MPD2    C412735   0.087   1.514  17.501  0.0276  0.4549 -0.7743
  864MPD2    C512736   4.729   1.464  17.589 -0.0115 -0.2451 -0.0387
  864MPD2     H12737   0.195   1.227  17.380 -1.7860 -0.7889 -1.0822
  864MPD2    H112738   0.098   1.622  17.496  0.3467  0.4734  0.3987
  864MPD2    H212739   4.624   1.305  17.677 -0.0453 -0.1776  0.6361
  864MPD2    H312740   4.680   1.537  17.653 -1.7820 -0.2891 -1.3473
  864MPD2     N12741   0.249   1.497  17.323 -0.2101  0.0744 -0.4874
  864MPD2    H512742   0.276   1.594  17.331 -0.3167  0.0551  0.1584
  864MPD2    N112743   0.019   1.103  17.551  0.5055  0.2186 -0.2979
  864MPD2    H712744   4.658   1.079  17.591  0.6589  0.0056 -0.0768
  865MPD2     C12745   0.420   1.883  16.552 -1.1797 -0.0365 -0.0262
  865MPD2    C112746   0.400   1.779  16.636 -0.1155 -0.3281 -0.1222
  865MPD2    C212747   0.393   1.798  16.775  0.3007 -0.1739  0.2964
  865MPD2    C312748   0.419   1.923  16.830 -0.1479 -0.5402 -0.8059
  865MPD2    C412749   0.439   2.022  16.740 -0.5323 -0.2023  0.2832
  865MPD2    C512750   0.447   2.009  16.604  0.1002  0.2701 -0.3861
  865MPD2     H12751   0.376   1.714  16.841  0.8129 -0.3861  0.1556
  865MPD2    H112752   0.443   2.127  16.763  0.1358 -0.3383  0.7908
  865MPD2    H212753   0.418   1.866  16.445 -1.1964 -1.0623  0.1314
  865MPD2    H312754   0.464   2.094  16.539  3.1742 -0.4199 -0.5106
  865MPD2     N12755   0.427   1.961  16.968 -0.4686 -0.0960  0.0714
  865MPD2    H512756   0.411   2.061  16.977  0.4582 -0.0292  1.0195
  865MPD2    N112757   0.369   1.651  16.581  0.4236  0.2921 -0.7550
  865MPD2    H712758   0.358   1.643  16.481 -2.0213 -3.5213 -0.1706
  866MPD2     C12759   1.361   2.679  11.544  0.0118  0.3534 -0.8026
  866MPD2    C112760   1.347   2.556  11.478  0.0732 -0.2804 -0.3449
  866MPD2    C212761   1.234   2.513  11.415 -0.7780 -0.0231  0.0845
  866MPD2    C312762   1.121   2.599  11.428 -0.5452  0.0287 -0.6207
  866MPD2    C412763   1.124   2.715  11.508  0.4853  0.6274 -0.9230
  866MPD2    C512764   1.244   2.755  11.563  0.2403 -0.4643 -0.5760
  866MPD2     H12765   1.247   2.417  11.367 -3.1770 -0.2986  0.0105
  866MPD2    H112766   1.034   2.776  11.510  0.1525  0.1289 -0.4312
  866MPD2    H212767   1.446   2.718  11.598  0.0203 -1.4135  0.4550
  866MPD2    H312768   1.243   2.841  11.630  1.3313 -0.1044 -1.0359
  866MPD2     N12769   1.004   2.567  11.363 -0.2256  0.1262  0.8279
  866MPD2    H512770   0.920   2.612  11.397  0.0696 -0.0396  1.7742
  866MPD2    N112771   1.470   2.479  11.483  0.4156 -0.6341  0.4832
  866MPD2    H712772   1.550   2.537  11.508  0.4118 -0.1274 -0.7070
  867MPD2     C12773   2.996   1.532  16.580  0.2692 -0.0226 -0.4748
  867MPD2    C112774   3.067   1.493  16.697  0.2317  0.3604 -0.4597
  867MPD2    C212775   3.051   1.558  16.816 -0.6059 -0.3827 -0.1988
  867MPD2    C312776   2.971   1.673  16.827 -0.0204  0.3791 -0.5837
  867MPD2    C412777   2.882   1.694  16.722 -0.3590  0.7206  0.3952
  867MPD2    C512778   2.898   1.627  16.600  0.2481 -0.4520 -0.6763
  867MPD2     H12779   3.098   1.527  16.909  0.9460  3.4305  0.2563
  867MPD2    H112780   2.809   1.773  16.731 -0.0536  0.9728  0.6590
  867MPD2    H212781   2.996   1.495  16.478 -1.1631  1.5157 -1.0122
  867MPD2    H312782   2.832   1.654  16.519 -2.2958 -0.0513  1.5330
  867MPD2     N12783   2.971   1.763  16.934  0.7562 -0.1030  0.1101
  867MPD2    H512784   2.897   1.832  16.931 -1.1408 -2.1720 -1.1073
  867MPD2    N112785   3.159   1.387  16.678  0.0382  0.0302  0.3484
  867MPD2    H712786   3.166   1.350  16.583  1.9162 -1.5824  1.1196
  868MPD2     C12787   0.642   0.131  12.672  0.5034 -1.3810  0.4711
  868MPD2    C112788   0.680   0.027  12.757  0.3580  0.2069 -0.1886
  868MPD2    C212789   0.572   4.697  12.821 -0.4097  0.4511 -0.3774
  868MPD2    C312790   0.439   0.006  12.796 -0.8831  0.2146 -0.3897
  868MPD2    C412791   0.410   0.101  12.704  0.1288  0.0608 -0.4149
  868MPD2    C512792   0.514   0.163  12.648  0.5242 -0.8344 -0.2982
  868MPD2     H12793   0.581   4.616  12.893 -0.2866  0.6335 -0.1880
  868MPD2    H112794   0.307   0.136  12.693 -0.4050 -1.1420  0.7359
  868MPD2    H212795   0.723   0.179  12.618 -0.9041 -1.2174 -1.4815
  868MPD2    H312796   0.491   0.237  12.572  0.7264 -0.1184  0.3472
  868MPD2     N12797   0.341   4.670  12.872  0.0456 -0.0574  0.4756
  868MPD2    H512798   0.368   4.603  12.944  0.9382  0.6057  0.7530
  868MPD2    N112799   0.816   4.724  12.775 -0.3537  0.4199 -0.1492
  868MPD2    H712800   0.883   0.052  12.725  0.1420 -1.0180 -1.1252
  869MPD2     C12801   1.594   2.993   0.198 -0.6434  0.2153 -0.5203
  869MPD2    C112802   1.501   3.024   0.292  0.4324 -0.2246 -0.5793
  869MPD2    C212803   1.537   3.078   0.416  0.9363 -0.4826  0.1106
  869MPD2    C312804   1.668   3.091   0.446  0.2288  0.1220  0.0858
  869MPD2    C412805   1.761   3.055   0.350  0.0888 -0.9948 -0.4402
  869MPD2    C512806   1.729   3.013   0.226  0.2367  0.1982 -0.3981
  869MPD2     H12807   1.467   3.089   0.497 -1.1028  2.3607 -2.0330
  869MPD2    H112808   1.867   3.071   0.370 -0.3917  0.2027  1.1258
  869MPD2    H212809   1.556   2.970   0.099 -1.5467 -2.0720  0.3691
  869MPD2    H312810   1.806   3.006   0.150 -0.2364 -0.6463 -0.8063
  869MPD2     N12811   1.716   3.149   0.570 -0.1196 -0.1559  0.2284
  869MPD2    H512812   1.817   3.152   0.578  0.0642  0.7782 -2.3971
  869MPD2    N112813   1.370   2.997   0.246 -0.1770 -0.5839  0.3922
  869MPD2    H712814   1.354   2.950   0.157 -0.7724 -0.4950  0.4519
  870MPD2     C12815   1.756   2.113   1.389 -0.0706 -0.1287  0.4941
  870MPD2    C112816   1.690   2.016   1.324  0.0584  0.6412 -0.7494
  870MPD2    C212817   1.560   2.047   1.276  0.4263 -0.8444 -0.3531
  870MPD2    C312818   1.497   2.168   1.309  0.5529  0.3541 -0.1643
  870MPD2    C412819   1.567   2.266   1.372  0.6269  0.4531  0.9736
  870MPD2    C512820   1.693   2.236   1.403  0.6370 -0.0837  0.7253
  870MPD2     H12821   1.504   1.963   1.238  1.1791 -0.6376 -1.9473
  870MPD2    H112822   1.528   2.364   1.396  0.6323  0.8862 -0.8196
  870MPD2    H212823   1.856   2.099   1.429  0.4620  0.7106 -0.5449
  870MPD2    H312824   1.752   2.309   1.456  2.5048  0.7731 -2.5174
  870MPD2     N12825   1.356   2.178   1.279 -0.3346 -0.0046  0.3857
  870MPD2    H512826   1.310   2.099   1.236  0.3318 -0.2415  0.1117
  870MPD2    N112827   1.766   1.902   1.294  0.3740 -0.9729  0.1736
  870MPD2    H712828   1.855   1.904   1.343  0.0521 -0.7280  0.7440
  871MPD2     C12829   2.279   1.986  16.273 -0.4903  0.3938  0.0643
  871MPD2    C112830   2.319   1.937  16.395 -0.2194 -0.2538 -0.3183
  871MPD2    C212831   2.310   1.798  16.414 -0.1431 -0.6570  0.0963
  871MPD2    C312832   2.276   1.712  16.308  0.4555  0.4226  0.2730
  871MPD2    C412833   2.240   1.765  16.186  0.1997  0.1111  0.1657
  871MPD2    C512834   2.241   1.900  16.173 -0.1249  0.1566  0.3536
  871MPD2     H12835   2.319   1.752  16.512 -1.8326 -1.6550 -0.2152
  871MPD2    H112836   2.202   1.706  16.103  0.2360  0.0012  0.2274
  871MPD2    H212837   2.275   2.092  16.251 -2.1075  0.1903 -0.6125
  871MPD2    H312838   2.199   1.941  16.081  0.6439  1.3709  0.5552
  871MPD2     N12839   2.296   1.571  16.311  0.0204 -0.5669  0.1918
  871MPD2    H512840   2.358   1.535  16.383  1.5734  3.5242  0.9022
  871MPD2    N112841   2.345   2.035  16.498  0.4524  0.3257  0.4429
  871MPD2    H712842   2.344   2.131  16.466 -0.0064  0.0398 -0.3942
  872MPD2     C12843   3.175   4.091  14.035  0.0252  0.0042  0.6535
  872MPD2    C112844   3.172   4.226  14.011 -0.3925 -0.1119 -1.0096
  872MPD2    C212845   3.050   4.285  14.010  0.1508  0.0035  0.3010
  872MPD2    C312846   2.930   4.209  14.025  0.4941 -0.7406 -0.1869
  872MPD2    C412847   2.935   4.071  14.056  0.0734  0.3338  0.0118
  872MPD2    C512848   3.061   4.015  14.053  0.2381  0.6047 -0.2594
  872MPD2     H12849   3.046   4.388  13.977 -0.7740  0.2483  1.2011
  872MPD2    H112850   2.847   4.010  14.074  0.8798 -1.0406 -0.7193
  872MPD2    H212851   3.263   4.029  14.024 -1.0227 -1.4696  0.6241
  872MPD2    H312852   3.069   3.907  14.063  0.8290  0.4783 -2.0754
  872MPD2     N12853   2.804   4.275  14.015 -0.1410 -0.4459 -0.2449
  872MPD2    H512854   2.720   4.221  14.034  0.4017 -0.4311  2.2500
  872MPD2    N112855   3.281   4.305  13.980 -0.0136  0.1986  0.1035
  872MPD2    H712856   3.264   4.405  13.970  0.0039  0.1357 -0.5299
  873MPD2     C12857   0.531   4.178   0.646  0.8736 -0.1209  0.4646
  873MPD2    C112858   0.439   4.092   0.685 -0.5173  0.2747  0.2411
  873MPD2    C212859   0.456   3.955   0.653  0.2804 -0.4845  0.1718
  873MPD2    C312860   0.572   3.916   0.591 -0.2048  0.3319 -0.3400
  873MPD2    C412861   0.660   4.011   0.545  0.8142 -0.0784  0.5465
  873MPD2    C512862   0.640   4.141   0.570 -0.1380  0.7604  0.1072
  873MPD2     H12863   0.382   3.885   0.689  0.6991 -1.5929 -1.1510
  873MPD2    H112864   0.746   3.986   0.483 -0.5274 -2.2707 -0.4382
  873MPD2    H212865   0.523   4.280   0.681  0.7710  0.7140 -1.9392
  873MPD2    H312866   0.712   4.214   0.534  0.0352  1.0126  0.9675
  873MPD2     N12867   0.612   3.782   0.562  0.5223  0.2764 -0.0535
  873MPD2    H512868   0.699   3.772   0.510  0.7172  1.6580 -0.0084
  873MPD2    N112869   0.343   4.132   0.782  0.0955 -0.9125 -0.0640
  873MPD2    H712870   0.374   4.211   0.837 -0.8413 -1.4142  1.1817
  874MPD2     C12871   4.559   4.542  16.123  0.3845 -0.2331  0.3525
  874MPD2    C112872   4.629   4.447  16.196  0.2369 -0.6508  0.0431
  874MPD2    C212873   0.037   4.464  16.214  0.7341 -0.7244  0.6571
  874MPD2    C312874   0.106   4.578  16.173 -0.0013 -0.6824  0.3693
  874MPD2    C412875   0.027   4.669  16.103 -0.4240 -0.0612 -0.2717
  874MPD2    C512876   4.625   4.652  16.078  0.6662  0.3718 -0.2068
  874MPD2     H12877   0.089   4.390  16.274  1.7919  0.7841  1.6099
  874MPD2    H112878   0.079   0.028  16.067 -0.8710 -0.6117 -2.2510
  874MPD2    H212879   4.452   4.534  16.110  0.4292 -0.5257  0.1432
  874MPD2    H312880   4.581   0.000  16.016  1.5971  0.1194 -1.1835
  874MPD2     N12881   0.249   4.586  16.169  0.5554  0.2235  0.9499
  874MPD2    H512882   0.279   4.642  16.090 -1.1166 -0.9130 -0.5002
  874MPD2    N112883   4.551   4.339  16.253  0.1957  0.1069 -0.1860
  874MPD2    H712884   4.449   4.338  16.255  0.2068  1.0491  0.8805
  875MPD2     C12885   0.664   2.272  14.328 -0.5997 -0.1362 -0.2878
  875MPD2    C112886   0.571   2.361  14.363  0.1444 -0.6234 -1.1039
  875MPD2    C212887   0.583   2.434  14.477 -0.7653 -0.5760 -0.3236
  875MPD2    C312888   0.696   2.412  14.558 -0.4834  0.0656  0.1072
  875MPD2    C412889   0.796   2.327  14.518 -0.0379  0.5293  0.7314
  875MPD2    C512890   0.772   2.254  14.407 -0.7520  1.2940  0.2199
  875MPD2     H12891   0.511   2.511  14.503 -1.9380 -1.0259 -2.2343
  875MPD2    H112892   0.885   2.319  14.580  0.1324 -0.6785  0.3406
  875MPD2    H212893   0.664   2.217  14.235  1.1949  0.8543 -0.8857
  875MPD2    H312894   0.852   2.187  14.377 -0.7772  1.1529  0.4724
  875MPD2     N12895   0.705   2.477  14.688  0.2966  0.8322  0.5483
  875MPD2    H512896   0.634   2.544  14.715 -0.5188 -0.4963  1.7118
  875MPD2    N112897   0.455   2.391  14.283 -0.3784 -0.1901 -0.0174
  875MPD2    H712898   0.401   2.469  14.319 -1.1734 -0.4804 -0.5790
  876MPD2     C12899   4.373   4.064  15.989  0.0497 -0.1096  0.6193
  876MPD2    C112900   4.504   4.068  15.957  0.3329 -0.0658 -0.3987
  876MPD2    C212901   4.584   3.953  15.985 -0.4553  0.8481 -0.4520
  876MPD2    C312902   4.530   3.842  16.046 -0.0439  0.5552 -0.2043
  876MPD2    C412903   4.398   3.846  16.084 -0.4768  0.4196  0.1452
  876MPD2    C512904   4.322   3.955  16.047  0.4713 -0.6663 -0.0755
  876MPD2     H12905   4.686   3.947  15.948 -1.1254  0.4977 -2.2340
  876MPD2    H112906   4.342   3.767  16.133 -1.2877  1.3306  0.6926
  876MPD2    H212907   4.309   4.151  15.978 -1.4248 -1.1461  0.9981
  876MPD2    H312908   4.215   3.949  16.065  0.1823 -0.8819 -1.8317
  876MPD2     N12909   4.619   3.734  16.066 -0.1073 -0.1592 -0.0127
  876MPD2    H512910   4.701   3.719  16.008 -0.0748  0.0138 -0.0111
  876MPD2    N112911   4.552   4.195  15.900 -0.4182  0.0218  0.9614
  876MPD2    H712912   4.483   4.268  15.884 -0.5235 -0.0038  1.2843
  877MPD2     C12913   4.442   4.473  15.191  0.3347  1.1971  0.6741
  877MPD2    C112914   4.577   4.447  15.201 -0.1630  0.9104  0.3499
  877MPD2    C212915   4.650   4.410  15.093 -0.5463  0.0142  0.4587
  877MPD2    C312916   4.580   4.409  14.969  0.8279 -1.0911  0.4352
  877MPD2    C412917   4.445   4.439  14.956 -0.7714  0.1840 -0.3081
  877MPD2    C512918   4.376   4.466  15.071  0.8462  0.0872  0.0780
  877MPD2     H12919   0.028   4.396  15.094 -0.3183  1.8656  1.2988
  877MPD2    H112920   4.396   4.461  14.861 -1.4662  1.0736  0.2572
  877MPD2    H212921   4.386   4.515  15.274 -1.7371 -0.4163  0.0918
  877MPD2    H312922   4.269   4.481  15.062  0.8651 -0.1453 -0.5336
  877MPD2     N12923   4.651   4.398  14.847 -0.3887 -0.2496 -0.4537
  877MPD2    H512924   4.599   4.412  14.761 -0.2953 -0.3605 -0.5275
  877MPD2    N112925   4.639   4.464  15.326 -0.5837  0.3205 -0.5673
  877MPD2    H712926   0.011   4.472  15.326 -0.6116  0.7421  0.4348
  878MPD2     C12927   0.145   3.516  12.866 -0.0166  0.2876 -0.5687
  878MPD2    C112928   0.041   3.588  12.912  0.7116  0.6236 -0.0077
  878MPD2    C212929   0.034   3.636  13.039  0.7276 -0.2664 -0.5884
  878MPD2    C312930   0.130   3.596  13.133 -0.3851  0.3958  0.3517
  878MPD2    C412931   0.244   3.540  13.077 -0.3358  0.6827  0.5289
  878MPD2    C512932   0.240   3.480  12.956  0.3393 -0.2196 -0.0230
  878MPD2     H12933   4.671   3.685  13.068  1.7158  1.6579 -0.7404
  878MPD2    H112934   0.322   3.502  13.143  1.4169  0.9089 -1.4056
  878MPD2    H212935   0.136   3.471  12.768 -1.0818  1.9176 -1.2359
  878MPD2    H312936   0.314   3.405  12.930  1.4441  0.5151  0.9618
  878MPD2     N12937   0.113   3.621  13.269  0.2403 -0.6351  0.4298
  878MPD2    H512938   0.026   3.666  13.297  0.6419  1.3566 -1.5018
  878MPD2    N112939   4.662   3.601  12.815  0.0145 -0.2103  0.0311
  878MPD2    H712940   4.666   3.549  12.728 -1.0721 -0.6481  0.2377
  879MPD2     C12941   0.360   4.462  17.206 -0.5508 -0.9223 -0.1423
  879MPD2    C112942   0.285   4.578  17.225  0.5630  0.0302  0.1886
  879MPD2    C212943   0.181   4.599  17.132 -0.2317  0.9099  0.2695
  879MPD2    C312944   0.138   4.510  17.042 -0.0536 -0.7707 -0.0208
  879MPD2    C412945   0.201   4.389  17.043  0.0915  0.1811  0.4196
  879MPD2    C512946   0.318   4.373  17.115 -0.1011 -0.1769  0.5652
  879MPD2     H12947   0.121   4.689  17.132  0.4754  1.3779 -0.7627
  879MPD2    H112948   0.157   4.303  16.994 -0.2070  0.7276 -0.2631
  879MPD2    H212949   0.446   4.434  17.266  0.6609  2.0202 -0.4949
  879MPD2    H312950   0.372   4.279  17.108 -1.0321 -0.5481 -1.4615
  879MPD2     N12951   0.029   4.519  16.957 -0.5575  0.0569  0.4613
  879MPD2    H512952   0.010   4.431  16.910  1.7121 -0.1699 -0.0174
  879MPD2    N112953   0.316   4.659  17.336 -0.4122 -0.0442  0.6291
  879MPD2    H712954   0.402   4.640  17.386  0.3396 -0.6500 -0.8860
  880MPD2     C12955   1.174   1.608   0.208  1.1462  0.3876  0.0676
  880MPD2    C112956   1.251   1.711   0.248  0.9963  0.0457  0.7783
  880MPD2    C212957   1.370   1.669   0.305 -0.1176 -0.1774  0.4894
  880MPD2    C312958   1.396   1.532   0.332  0.4110 -0.2954  0.3242
  880MPD2    C412959   1.314   1.437   0.282 -0.1725 -0.1269  0.3083
  880MPD2    C512960   1.200   1.475   0.223  0.3312 -0.1748 -0.4214
  880MPD2     H12961   1.443   1.738   0.347 -0.5442 -0.6639  2.0273
  880MPD2    H112962   1.339   1.331   0.287 -1.5728 -0.4087  1.3863
  880MPD2    H212963   1.084   1.641   0.158  1.2790 -0.9749 -1.0577
  880MPD2    H312964   1.134   1.407   0.171 -1.6108  1.6929 -0.4180
  880MPD2     N12965   1.513   1.493   0.396  0.6639 -0.1297 -0.5356
  880MPD2    H512966   1.572   1.572   0.421  1.0171 -0.9494  1.2737
  880MPD2    N112967   1.231   1.853   0.223  0.2561  0.7078  0.1047
  880MPD2    H712968   1.301   1.921   0.249  1.5708 -0.7758  0.4000
  881MPD2     C12969   1.744   2.669   0.119 -0.7657  0.2065 -0.3160
  881MPD2    C112970   1.722   2.557   0.042  0.2892  0.2863 -0.2703
  881MPD2    C212971   1.607   2.481   0.065  0.1311 -0.3815  0.5082
  881MPD2    C312972   1.539   2.490   0.185  0.6808  0.5047 -1.2688
  881MPD2    C412973   1.584   2.587   0.278 -0.3559 -0.7312  0.6989
  881MPD2    C512974   1.686   2.671   0.244  0.0246  0.2695 -0.0609
  881MPD2     H12975   1.576   2.417  17.700 -0.0609 -0.4188  0.6133
  881MPD2    H112976   1.540   2.612   0.374  0.8601  1.2985  0.7120
  881MPD2    H212977   1.831   2.731   0.100  0.0520 -0.6156  0.7227
  881MPD2    H312978   1.715   2.750   0.311  0.0143 -0.8532  1.2714
  881MPD2     N12979   1.424   2.414   0.219  0.1810  0.0567 -0.0001
  881MPD2    H512980   1.383   2.427   0.311  0.3887 -0.6008  0.1872
  881MPD2    N112981   1.785   2.556  17.627  0.4119 -0.8803 -0.8906
  881MPD2    H712982   1.835   2.642  17.606  0.1696 -0.4836  0.1390
  882MPD2     C12983   0.062   4.324  14.053 -0.1782 -0.2447  1.0594
  882MPD2    C112984   4.722   4.385  14.161 -0.8520 -1.0842  0.8957
  882MPD2    C212985   4.585   4.395  14.151 -0.0467 -0.5203 -0.1913
  882MPD2    C312986   4.514   4.339  14.046 -0.1708  0.5787  0.5311
  882MPD2    C412987   4.581   4.271  13.953 -0.4390  0.6008 -0.7441
  882MPD2    C512988   4.721   4.269  13.949 -0.3540 -0.2650 -0.5769
  882MPD2     H12989   4.523   4.442  14.226 -1.1745 -0.8602 -0.9115
  882MPD2    H112990   4.524   4.217  13.878 -2.5944 -1.2656  2.2314
  882MPD2    H212991   0.168   4.307  14.066  0.0082  0.6128  0.6547
  882MPD2    H312992   0.045   4.224  13.865  0.0316 -1.0725  0.0962
  882MPD2     N12993   4.371   4.339  14.044  0.0805  0.2015 -0.5622
  882MPD2    H512994   4.323   4.262  14.000 -0.2283 -0.9606  1.8385
  882MPD2    N112995   0.072   4.422  14.275  1.0638  0.2666 -0.7415
  882MPD2    H712996   0.171   4.402  14.264  0.6653 -3.6127  2.7615
  883MPD2     C12997   1.756   4.464  16.250  0.1911  0.0638 -0.9650
  883MPD2    C112998   1.820   4.575  16.204 -0.2161  0.1197  0.1627
  883MPD2    C212999   1.900   4.648  16.291 -0.1227 -0.1003 -0.1714
  883MPD2    C313000   1.923   4.606  16.422  0.0692  0.4193  0.5810
  883MPD2    C413001   1.865   4.487  16.464  0.2590  0.3813 -0.4459
  883MPD2    C513002   1.786   4.419  16.375  0.0880  0.0492  0.1002
  883MPD2     H13003   1.949   0.010  16.258  1.9916 -1.2192 -0.1355
  883MPD2    H113004   1.890   4.437  16.557  2.9040  0.0428 -1.3557
  883MPD2    H213005   1.695   4.398  16.190 -0.6461 -0.6698  0.6846
  883MPD2    H313006   1.754   4.320  16.404  1.0573 -0.0317  0.8832
  883MPD2     N13007   2.020   4.679  16.494 -0.2023  0.1340  0.4312
  883MPD2    H513008   2.056   0.034  16.451  4.7052 -2.6557 -0.9456
  883MPD2    N113009   1.799   4.623  16.072 -0.7879 -0.1094 -0.3999
  883MPD2    H713010   1.868   4.692  16.044 -0.0976 -0.2338  1.0216
  884MPD2     C13011   4.183   0.274  15.230  0.2427  0.1929  0.0233
  884MPD2    C113012   4.154   0.365  15.128 -0.6931 -0.5754 -0.1644
  884MPD2    C213013   4.023   0.423  15.124  0.8948  0.5942 -0.5645
  884MPD2    C313014   3.926   0.388  15.211  0.8653  0.0874 -0.0323
  884MPD2    C413015   3.955   0.295  15.301  0.1594  0.5499 -0.0141
  884MPD2    C513016   4.084   0.244  15.320  0.9476 -0.1206 -0.2298
  884MPD2     H13017   3.988   0.484  15.041  0.3726 -1.4060 -1.8219
  884MPD2    H113018   3.883   0.263  15.375  1.9518 -2.2378  0.5484
  884MPD2    H213019   4.285   0.244  15.248 -0.1608 -0.3480  1.3759
  884MPD2    H313020   4.111   0.177  15.400 -2.2342  0.8016  1.5924
  884MPD2     N13021   3.804   0.461  15.225  0.6310 -0.5413  0.2900
  884MPD2    H513022   3.736   0.411  15.281  0.7875  0.4733  1.3829
  884MPD2    N113023   4.236   0.405  15.019 -0.2776  0.3353  0.0562
  884MPD2    H713024   4.196   0.477  14.959  0.7559  0.8290 -0.0571
  885MPD2     C13025   1.776   0.300   0.162 -0.6166  0.0884 -0.2861
  885MPD2    C113026   1.865   0.405   0.149  0.4522 -0.2944  0.8007
  885MPD2    C213027   1.884   0.465   0.029  0.2959 -0.0412 -0.9629
  885MPD2    C313028   1.816   0.422  17.630 -0.3982  0.2965  0.1807
  885MPD2    C413029   1.726   0.317  17.637  0.2959 -0.7005  0.3813
  885MPD2    C513030   1.705   0.265   0.046  0.2299 -0.0637  0.0314
  885MPD2     H13031   1.957   0.544   0.021 -1.1906  1.4486  0.1894
  885MPD2    H113032   1.675   0.271  17.553  1.8463 -0.6855 -0.5838
  885MPD2    H213033   1.755   0.253   0.258  0.5435 -0.7852 -0.4689
  885MPD2    H313034   1.639   0.180   0.056  1.1463 -0.5619  1.7571
  885MPD2     N13035   1.847   0.490  17.510  0.2243  0.1083  0.0103
  885MPD2    H513036   1.931   0.545  17.510 -0.8281  1.6853 -2.4433
  885MPD2    N113037   1.937   0.442   0.267 -0.3656 -0.4698 -0.3143
  885MPD2    H713038   1.932   0.383   0.349 -1.8740 -1.0902 -0.8418
  886MPD2     C13039   3.568   3.794  14.917  0.0254 -0.5897 -0.2768
  886MPD2    C113040   3.619   3.827  15.042  0.9871 -0.2685 -0.0940
  886MPD2    C213041   3.629   3.957  15.074 -0.5182  0.5092  0.7306
  886MPD2    C313042   3.595   4.057  14.986  0.1776  0.5448  0.5014
  886MPD2    C413043   3.558   4.027  14.857 -0.0420  0.5445  0.3494
  886MPD2    C513044   3.535   3.893  14.822 -0.3644  0.1196 -0.4993
  886MPD2     H13045   3.665   3.983  15.173  0.4883  0.4065  0.3923
  886MPD2    H113046   3.537   4.110  14.792 -1.2848  0.4955  0.6899
  886MPD2    H213047   3.566   3.689  14.891 -2.7354 -0.3492 -0.9460
  886MPD2    H313048   3.512   3.862  14.720  1.1859 -0.8313 -0.5579
  886MPD2     N13049   3.598   4.196  15.007  0.1455 -0.1803  0.4113
  886MPD2    H513050   3.568   4.260  14.934 -1.9139 -0.1429  1.2827
  886MPD2    N113051   3.666   3.734  15.140 -0.1582 -0.5121  0.1142
  886MPD2    H713052   3.682   3.777  15.231  2.0979 -1.3700  0.1350
  887MPD2     C13053   4.037   3.773  15.735 -0.5577 -0.2519 -0.1941
  887MPD2    C113054   3.939   3.814  15.648  0.0257  0.1584  0.0937
  887MPD2    C213055   3.923   3.947  15.622  0.4354  0.2886  0.5036
  887MPD2    C313056   4.002   4.040  15.682  0.4619  0.2015 -0.2353
  887MPD2    C413057   4.093   4.003  15.776 -0.0174 -0.7005 -0.7013
  887MPD2    C513058   4.107   3.869  15.798  0.6312  0.7355 -0.5014
  887MPD2     H13059   3.863   3.982  15.539  0.6942  0.0466  0.2130
  887MPD2    H113060   4.167   4.063  15.828  0.1330  0.6552 -2.4966
  887MPD2    H213061   4.078   3.672  15.743 -0.2729 -0.0549  0.8331
  887MPD2    H313062   4.195   3.838  15.853  2.4477  1.5942 -2.9299
  887MPD2     N13063   3.997   4.175  15.629  0.0450 -0.2364 -0.1091
  887MPD2    H513064   3.914   4.193  15.575  0.5584 -1.7023 -1.3650
  887MPD2    N113065   3.872   3.722  15.563 -0.5956  0.2018 -0.2216
  887MPD2    H713066   3.813   3.770  15.496 -0.9110 -0.8314 -0.6721
  888MPD2     C13067   0.673   3.673  14.840 -0.2497 -0.6971 -0.4528
  888MPD2    C113068   0.682   3.712  14.975  0.9473  0.2885 -0.2437
  888MPD2    C213069   0.762   3.822  15.011  0.4517  0.2503  0.3373
  888MPD2    C313070   0.834   3.889  14.914  0.3838 -0.1040 -0.0408
  888MPD2    C413071   0.827   3.852  14.781 -0.3644 -0.5986 -0.5113
  888MPD2    C513072   0.749   3.744  14.744 -0.4442 -0.5009  0.6246
  888MPD2     H13073   0.779   3.847  15.115 -1.6663  0.3871  0.6496
  888MPD2    H113074   0.873   3.903  14.697  0.3532  2.2861  1.6424
  888MPD2    H213075   0.628   3.581  14.805 -0.9089  0.0770 -1.6480
  888MPD2    H313076   0.746   3.711  14.640 -0.7593  0.1657  0.4242
  888MPD2     N13077   0.903   3.998  14.966 -0.1648 -0.2205 -0.3235
  888MPD2    H513078   0.885   4.027  15.062 -0.9082 -1.2864 -0.1437
  888MPD2    N113079   0.627   3.641  15.083  0.0835 -0.0388  0.3120
  888MPD2    H713080   0.671   3.658  15.173  1.8419 -1.2640 -0.3217
  889MPD2     C13081   0.842   3.384  12.813 -0.6896  0.4013  0.9701
  889MPD2    C113082   0.761   3.295  12.883 -0.1549 -1.0256  0.1658
  889MPD2    C213083   0.681   3.344  12.986  1.3103  0.4413 -0.4635
  889MPD2    C313084   0.693   3.482  13.025  0.0591 -0.0719  0.6533
  889MPD2    C413085   0.779   3.559  12.960 -0.0736  0.3354  0.3325
  889MPD2    C513086   0.851   3.517  12.852  0.3326 -0.2131 -0.3026
  889MPD2     H13087   0.620   3.271  13.039  0.6524  1.1707 -0.2096
  889MPD2    H113088   0.795   3.665  12.975 -0.7165  0.1791  2.0370
  889MPD2    H213089   0.888   3.363  12.717  1.2611  0.8487  1.8014
  889MPD2    H313090   0.898   3.595  12.793 -0.1343  0.5154  0.2935
  889MPD2     N13091   0.625   3.527  13.140 -0.5902 -0.2339  0.0337
  889MPD2    H513092   0.581   3.456  13.198  0.1625 -1.1484 -0.5143
  889MPD2    N113093   0.743   3.159  12.834 -0.2774  0.0520 -0.1055
  889MPD2    H713094   0.694   3.093  12.894 -0.1783 -1.3923 -1.6227
  890MPD2     C13095   4.645   0.162  14.409 -0.1805 -0.5597 -0.5362
  890MPD2    C113096   0.054   0.150  14.414  0.3074 -0.2373 -0.1258
  890MPD2    C213097   0.109   0.114  14.533  0.2647 -0.5173 -0.4391
  890MPD2    C313098   0.038   0.082  14.647  0.1145  0.8111 -0.2081
  890MPD2    C413099   4.630   0.089  14.638 -0.2868 -0.2627 -1.0374
  890MPD2    C513100   4.572   0.117  14.517  0.5416 -0.4898 -0.1116
  890MPD2     H13101   0.217   0.118  14.545  0.3001 -2.2321 -0.1603
  890MPD2    H113102   4.568   0.063  14.723 -0.6263  3.0068 -0.3049
  890MPD2    H213103   4.587   0.184  14.319 -2.7632  3.1432  2.0246
  890MPD2    H313104   4.464   0.115  14.508  0.4179  0.9270  0.9800
  890MPD2     N13105   0.109   0.078  14.765 -0.4762 -0.0158 -0.2867
  890MPD2    H513106   0.210   0.078  14.756 -0.3837 -0.1698  0.7242
  890MPD2    N113107   0.119   0.186  14.296 -0.1785 -0.0479  0.3322
  890MPD2    H713108   0.061   0.217  14.219  0.0233 -0.5370 -0.0182
  891MPD2     C13109   2.849   3.534  16.075 -0.2094  0.1500  0.1254
  891MPD2    C113110   2.766   3.584  16.167  0.1141  0.5756  0.7793
  891MPD2    C213111   2.815   3.630  16.287 -0.4990 -0.5293 -0.2701
  891MPD2    C313112   2.955   3.635  16.307 -0.1442 -0.6775 -0.2585
  891MPD2    C413113   3.038   3.581  16.207  0.0308  0.3653  0.3724
  891MPD2    C513114   2.985   3.529  16.097 -0.4098 -0.1167 -0.4015
  891MPD2     H13115   2.756   3.667  16.370  0.9415 -0.4067  0.7130
  891MPD2    H113116   3.146   3.590  16.210  0.0157  1.0352 -1.4555
  891MPD2    H213117   2.814   3.487  15.984  0.5060  1.0238 -0.6131
  891MPD2    H313118   3.053   3.481  16.027  2.1162  1.7718  0.7627
  891MPD2     N13119   3.003   3.690  16.425  0.1997  0.4288 -0.4023
  891MPD2    H513120   2.928   3.705  16.492 -0.6701  0.6467 -1.4111
  891MPD2    N113121   2.629   3.584  16.136 -0.1079 -0.0558 -0.0740
  891MPD2    H713122   2.601   3.556  16.042  0.0644  1.4129 -0.5557
  892MPD2     C13123   4.068   0.045  14.877  0.5855 -0.1371 -0.1248
  892MPD2    C113124   3.959   0.021  14.796  0.6983 -0.1628  0.3707
  892MPD2    C213125   3.966   4.681  14.678  0.2599  0.5047  0.0727
  892MPD2    C313126   4.090   4.639  14.629  0.3082 -0.0436 -0.3112
  892MPD2    C413127   4.202   4.673  14.702  0.3829  0.0735  0.6568
  892MPD2    C513128   4.191   0.001  14.831 -0.3056 -0.0356 -0.4734
  892MPD2     H13129   3.882   4.661  14.613  0.4561 -0.3916  0.0935
  892MPD2    H113130   4.303   4.643  14.676  0.3940  0.5455  0.1377
  892MPD2    H213131   4.063   0.098  14.971  0.4939 -0.2950 -0.0412
  892MPD2    H313132   4.281   0.019  14.888 -2.2185 -0.7975  2.7967
  892MPD2     N13133   4.102   4.571  14.511  0.2126  0.3913 -0.3744
  892MPD2    H513134   4.198   4.569  14.477  0.4036  1.3101  0.1014
  892MPD2    N113135   3.825   0.058  14.830 -0.2454 -0.0935 -0.6118
  892MPD2    H713136   3.752   0.037  14.762 -1.4343  3.4364 -0.3987
  893MPD2     C13137   1.034   3.302   1.805  0.7021  0.4050 -0.1064
  893MPD2    C113138   0.936   3.320   1.702  0.3234  0.0593  0.2311
  893MPD2    C213139   0.804   3.353   1.735  0.2207 -0.0996 -0.5158
  893MPD2    C313140   0.773   3.370   1.867  0.0478 -0.2006 -0.1572
  893MPD2    C413141   0.866   3.348   1.965 -0.2808 -0.1992  0.0345
  893MPD2    C513142   0.994   3.321   1.933 -0.0349 -0.5463  1.2292
  893MPD2     H13143   0.735   3.373   1.654  0.3666  0.0044 -0.6135
  893MPD2    H113144   0.834   3.345   2.069 -2.3820  0.6038 -0.5814
  893MPD2    H213145   1.139   3.280   1.792  0.4872  0.9984 -2.7229
  893MPD2    H313146   1.066   3.306   2.012  0.4717 -1.3527  0.6129
  893MPD2     N13147   0.639   3.388   1.904 -0.6180 -0.1128 -0.1273
  893MPD2    H513148   0.619   3.390   2.003  0.0617  1.5659 -0.0248
  893MPD2    N113149   0.986   3.307   1.572 -0.0479 -0.0118  0.3757
  893MPD2    H713150   1.081   3.273   1.575  0.6856  1.9028 -2.2753
  894MPD2     C13151   3.539   0.838   0.636  0.7761 -0.3887 -0.1969
  894MPD2    C113152   3.559   0.866   0.774 -0.1737  1.1333  0.0919
  894MPD2    C213153   3.549   0.992   0.826 -0.6767  0.1248 -0.5045
  894MPD2    C313154   3.519   1.093   0.739  0.1065  0.0694 -0.0848
  894MPD2    C413155   3.485   1.070   0.608 -0.4036 -0.3832  0.2148
  894MPD2    C513156   3.497   0.944   0.557 -0.2715  0.4128 -0.8818
  894MPD2     H13157   3.565   1.011   0.932 -1.0894  1.9357 -0.7645
  894MPD2    H113158   3.454   1.140   0.531  1.2171 -0.2241 -0.3020
  894MPD2    H213159   3.545   0.737   0.598 -1.4913 -0.1667 -1.1609
  894MPD2    H313160   3.461   0.940   0.455 -1.1683  0.0490 -0.5492
  894MPD2     N13161   3.497   1.219   0.803  0.4465  0.4763 -0.0546
  894MPD2    H513162   3.525   1.222   0.900 -0.8623 -2.8461  0.4246
  894MPD2    N113163   3.583   0.766   0.866 -0.1626 -0.5015  0.5048
  894MPD2    H713164   3.580   0.798   0.963 -0.9200 -0.9308  0.6195
  895MPD2     C13165   3.249   4.176  13.680  0.2445  0.7973 -0.1179
  895MPD2    C113166   3.114   4.191  13.681 -0.0257 -1.1026 -0.5163
  895MPD2    C213167   3.041   4.077  13.667  0.3535 -0.4376 -0.2028
  895MPD2    C313168   3.092   3.952  13.670 -0.1053 -0.1187  0.0714
  895MPD2    C413169   3.226   3.938  13.671 -0.2513 -0.2582  0.8691
  895MPD2    C513170   3.301   4.050  13.674 -0.1011 -0.0915  0.1429
  895MPD2     H13171   2.934   4.094  13.669  0.2652 -1.0003 -0.1101
  895MPD2    H113172   3.284   3.847  13.673 -0.7574 -0.5496  1.9570
  895MPD2    H213173   3.316   4.261  13.684  1.8357 -0.4089 -1.4581
  895MPD2    H313174   3.408   4.038  13.673 -0.3589 -2.3654  0.5474
  895MPD2     N13175   3.005   3.838  13.676  0.2724  0.0260  0.6567
  895MPD2    H513176   2.908   3.863  13.687 -0.2443 -1.4745 -0.5537
  895MPD2    N113177   3.046   4.311  13.682 -0.4074 -0.4939  0.4174
  895MPD2    H713178   2.946   4.302  13.666 -0.0560  0.8400 -2.6380
  896MPD2     C13179   0.899   1.043   1.104  0.2607  0.1415 -0.7717
  896MPD2    C113180   0.844   1.065   0.984  1.2623 -0.3374  0.2076
  896MPD2    C213181   0.724   1.010   0.952 -0.3758 -0.1552 -0.5923
  896MPD2    C313182   0.643   0.955   1.050 -0.1040  0.0287 -0.5028
  896MPD2    C413183   0.691   0.944   1.181 -0.9767 -0.2394 -0.2784
  896MPD2    C513184   0.822   0.984   1.203 -0.9506 -0.3873 -0.5119
  896MPD2     H13185   0.671   1.013   0.858  1.3962  0.1614 -1.5850
  896MPD2    H113186   0.632   0.914   1.267  0.0753  2.0425  1.2172
  896MPD2    H213187   1.003   1.060   1.129  0.2202  0.0565 -0.5405
  896MPD2    H313188   0.872   0.957   1.295 -0.3030  1.1960 -0.4049
  896MPD2     N13189   0.506   0.933   1.026  0.1128 -0.7413 -1.0298
  896MPD2    H513190   0.455   0.935   1.114  1.2243 -1.1761 -0.3786
  896MPD2    N113191   0.916   1.131   0.887 -0.8189  0.4222  0.2008
  896MPD2    H713192   1.012   1.151   0.914 -0.4730  0.0801 -0.7949
  897MPD2     C13193   0.899   2.694  10.083 -1.0585  0.0095  0.0795
  897MPD2    C113194   0.886   2.792  10.180  0.2604 -0.2047  0.1529
  897MPD2    C213195   0.937   2.763  10.304  0.6107 -0.4380  0.1286
  897MPD2    C313196   1.001   2.646  10.325  0.6052 -0.2826 -0.1821
  897MPD2    C413197   1.020   2.549  10.229 -0.4127 -0.1281 -0.1346
  897MPD2    C513198   0.972   2.582  10.108 -0.4457 -0.4114 -0.1824
  897MPD2     H13199   0.947   2.837  10.382  0.5486  1.4370 -1.6314
  897MPD2    H113200   1.059   2.451  10.254  2.4697  1.3948  1.3422
  897MPD2    H213201   0.853   2.712   9.987 -1.3204 -1.1311 -0.0018
  897MPD2    H313202   0.981   2.506  10.031 -0.7921  0.3302 -0.9460
  897MPD2     N13203   1.052   2.625  10.457 -0.4116  0.2418  0.4853
  897MPD2    H513204   1.047   2.712  10.510  0.5389 -1.0064  2.5929
  897MPD2    N113205   0.823   2.922  10.159  0.2511  0.1216 -0.2953
  897MPD2    H713206   0.793   2.939  10.064 -1.4083 -2.8653 -0.2872
  898MPD2     C13207   2.808   3.737  17.486  0.3908  0.1513 -1.0544
  898MPD2    C113208   2.930   3.712  17.551  0.4495 -0.5286  0.7191
  898MPD2    C213209   3.023   3.814  17.557 -0.1736  0.4721  0.4735
  898MPD2    C313210   2.997   3.930  17.489  0.3579 -0.8439  0.1391
  898MPD2    C413211   2.875   3.947  17.423  0.0732  0.1155  0.2950
  898MPD2    C513212   2.773   3.856  17.427  0.6794 -0.8551  0.4696
  898MPD2     H13213   3.110   3.807  17.621  0.1761 -0.6205 -0.1249
  898MPD2    H113214   2.858   4.036  17.364 -2.0110 -2.8091 -3.4929
  898MPD2    H213215   2.734   3.658  17.488  1.1684 -0.5645  0.1931
  898MPD2    H313216   2.685   3.881  17.371  0.6425  0.2207  1.0026
  898MPD2     N13217   3.096   4.030  17.496  0.1733  0.0633 -0.4585
  898MPD2    H513218   3.185   4.005  17.538  0.4430  1.3024 -0.2919
  898MPD2    N113219   2.954   3.594  17.626 -0.0623 -1.3364  0.4507
  898MPD2    H713220   3.046   3.584  17.668  1.2875 -0.1653 -2.2071
  899MPD2     C13221   4.692   4.540  17.418 -0.3574  0.9616 -0.2780
  899MPD2    C113222   4.575   4.590  17.372  0.1057 -0.2611  0.0439
  899MPD2    C213223   4.455   4.552  17.432  0.3766  0.3258 -0.1425
  899MPD2    C313224   4.452   4.463  17.537  0.2588 -0.5568  0.0074
  899MPD2    C413225   4.571   4.413  17.578 -0.9104 -0.0086 -0.0448
  899MPD2    C513226   4.690   4.459  17.523 -0.2173  0.4892  0.2864
  899MPD2     H13227   4.362   4.604  17.415 -0.6274 -1.4305 -0.0248
  899MPD2    H113228   4.579   4.354  17.668  4.3351  1.8578  0.7040
  899MPD2    H213229   0.059   4.569  17.377  0.8761 -2.2392  0.3007
  899MPD2    H313230   0.057   4.425  17.562 -0.7230 -0.8168  0.3902
  899MPD2     N13231   4.327   4.436  17.601  0.4677  0.0272 -0.5064
  899MPD2    H513232   4.245   4.475  17.556 -0.7063  1.3468  2.8262
  899MPD2    N113233   4.581   4.692  17.276 -0.2168  0.3677 -0.4679
  899MPD2    H713234   4.673   0.002  17.258 -1.0647  3.0774  1.1423
  900MPD2     C13235   4.084   1.548  12.656 -0.1288 -0.0758  0.4619
  900MPD2    C113236   4.045   1.421  12.616  0.2372  0.5670  0.2499
  900MPD2    C213237   3.941   1.409  12.519 -0.9224 -0.8913 -0.1511
  900MPD2    C313238   3.889   1.529  12.471  0.8262  0.1282  0.6579
  900MPD2    C413239   3.930   1.653  12.517  0.4440  0.5106 -0.1936
  900MPD2    C513240   4.022   1.662  12.614  0.2061  0.3343  0.5554
  900MPD2     H13241   3.916   1.317  12.468 -0.4236  0.6518 -3.2224
  900MPD2    H113242   3.880   1.744  12.485 -0.2448  0.2898  0.2674
  900MPD2    H213243   4.161   1.553  12.732 -0.4647  2.1609  0.6367
  900MPD2    H313244   4.065   1.754  12.651 -1.9858  0.3438  3.1061
  900MPD2     N13245   3.780   1.517  12.376  0.5394  0.4381 -0.1683
  900MPD2    H513246   3.755   1.419  12.364  2.5507 -0.1408  0.3609
  900MPD2    N113247   4.117   1.309  12.663  0.1434  0.2760  0.0886
  900MPD2    H713248   4.203   1.329  12.713 -0.0578  1.7310 -0.1418
  901MPD2     C13249   4.211   0.321  13.097  0.1004 -0.0211 -0.7625
  901MPD2    C113250   4.146   0.368  12.988  0.3139 -0.3781  0.2629
  901MPD2    C213251   4.146   0.508  12.962 -0.5560  0.6771 -0.1832
  901MPD2    C313252   4.201   0.594  13.057 -0.6347  0.2842 -0.3670
  901MPD2    C413253   4.253   0.541  13.176 -0.2468  0.5187 -0.0921
  901MPD2    C513254   4.261   0.407  13.190  0.3056 -0.8276 -0.5731
  901MPD2     H13255   4.117   0.554  12.869 -0.4618 -2.3093 -1.6956
  901MPD2    H113256   4.306   0.599  13.251  0.8066  0.6198 -0.9219
  901MPD2    H213257   4.232   0.215  13.109  0.2653  0.0308 -0.5845
  901MPD2    H313258   4.305   0.358  13.277 -1.1721 -0.1591  0.5453
  901MPD2     N13259   4.210   0.728  13.029 -0.2266 -0.5750  0.5382
  901MPD2    H513260   4.272   0.785  13.086 -0.8345  0.8038 -0.1835
  901MPD2    N113261   4.104   0.273  12.891  0.3241 -0.6357 -0.4719
  901MPD2    H713262   4.120   0.174  12.906 -0.0558 -0.5314  0.6976
  902MPD2     C13263   3.162   4.665  12.599  0.5293 -0.7136  0.3079
  902MPD2    C113264   3.102   4.663  12.481  0.3012 -0.4122 -0.6955
  902MPD2    C213265   3.139   4.561  12.391 -0.3959  0.1127  0.7202
  902MPD2    C313266   3.225   4.460  12.427  0.1290 -0.0413 -0.3311
  902MPD2    C413267   3.275   4.461  12.553  0.5102 -0.6953 -0.5394
  902MPD2    C513268   3.245   4.565  12.636  0.3403 -0.2044 -0.7712
  902MPD2     H13269   3.096   4.553  12.292  0.6600  4.9960 -0.1216
  902MPD2    H113270   3.346   4.389  12.591  1.6126  0.4845 -0.3658
  902MPD2    H213271   3.139   0.010  12.674  0.8878 -0.8901  0.5905
  902MPD2    H313272   3.296   4.569  12.731  2.1217 -1.5106 -1.6501
  902MPD2     N13273   3.269   4.377  12.326 -0.4565 -0.1894 -0.2219
  902MPD2    H513274   3.229   4.398  12.236 -2.3158  0.7514  0.8195
  902MPD2    N113275   3.017   0.042  12.456 -0.0913 -0.1544 -0.9255
  902MPD2    H713276   2.998   0.111  12.528  2.0229  1.3321 -1.7809
  903MPD2     C13277   3.072   4.234  11.606 -0.6111 -0.2341  0.2678
  903MPD2    C113278   3.106   4.303  11.719 -0.8773 -0.2255 -0.5553
  903MPD2    C213279   3.050   4.430  11.746  0.0833 -1.0762 -0.4102
  903MPD2    C313280   2.955   4.485  11.658 -0.2859 -0.4596 -0.5596
  903MPD2    C413281   2.943   4.425  11.540 -0.5233  0.0675  0.1454
  903MPD2    C513282   2.999   4.300  11.517  0.9522 -0.2361 -0.3315
  903MPD2     H13283   3.081   4.478  11.839 -1.2424  0.8210 -0.9589
  903MPD2    H113284   2.880   4.470  11.465  0.1807 -0.3469 -0.6890
  903MPD2    H213285   3.115   4.136  11.591 -2.1667 -0.8350 -0.1919
  903MPD2    H313286   2.979   4.243  11.427 -0.5765  1.9669 -1.3964
  903MPD2     N13287   2.889   4.608  11.688  0.0068 -0.4666 -0.4202
  903MPD2    H513288   2.889   4.628  11.787 -0.4691 -2.5545 -0.0108
  903MPD2    N113289   3.198   4.240  11.806  0.3101  0.6008  0.3532
  903MPD2    H713290   3.210   4.140  11.798 -0.5004  0.5728 -0.4619
  904MPD2     C13291   2.312   3.415  14.470 -0.8271 -0.1899  0.5283
  904MPD2    C113292   2.368   3.511  14.390  0.0114 -0.3223  0.0206
  904MPD2    C213293   2.504   3.531  14.396 -0.3425 -0.2544  0.3436
  904MPD2    C313294   2.591   3.449  14.471 -0.6551 -0.6336 -0.3798
  904MPD2    C413295   2.531   3.352  14.548  0.1270  0.3866 -0.4659
  904MPD2    C513296   2.396   3.337  14.546  0.5226 -0.2011 -0.2318
  904MPD2     H13297   2.552   3.612  14.344  0.1515 -2.0629 -2.0307
  904MPD2    H113298   2.594   3.286  14.605  3.0385  3.2983 -0.3447
  904MPD2    H213299   2.206   3.390  14.474 -0.7209 -0.6297  0.5839
  904MPD2    H313300   2.348   3.251  14.591  2.5432  0.2047  2.7360
  904MPD2     N13301   2.731   3.461  14.451  0.4349  0.0148 -0.2835
  904MPD2    H513302   2.759   3.543  14.397  1.7708  0.3613  0.9186
  904MPD2    N113303   2.290   3.607  14.325 -0.5185 -0.5578  0.2108
  904MPD2    H713304   2.342   3.673  14.267  1.1641 -1.1158  1.0802
  905MPD2     C13305   2.067   3.471  13.758  0.1732 -0.6457 -0.0473
  905MPD2    C113306   2.139   3.580  13.796 -0.3696 -0.4370  0.5061
  905MPD2    C213307   2.272   3.591  13.761  0.3898 -0.4193 -0.5246
  905MPD2    C313308   2.332   3.504  13.675  0.2235  0.4358  0.2503
  905MPD2    C413309   2.257   3.393  13.639  0.1518  0.1685 -0.7066
  905MPD2    C513310   2.127   3.372  13.681 -0.0830  0.0228 -0.2206
  905MPD2     H13311   2.330   3.675  13.796  0.4496 -0.3363 -0.8262
  905MPD2    H113312   2.299   3.305  13.594 -1.2913 -0.2847 -1.1549
  905MPD2    H213313   1.961   3.457  13.780  0.2517  0.0565  0.8110
  905MPD2    H313314   2.073   3.285  13.644  1.5864 -1.1028  0.0072
  905MPD2     N13315   2.477   3.499  13.665  0.2088 -0.7824  0.4967
  905MPD2    H513316   2.516   3.406  13.650  0.3155 -0.5271 -0.8431
  905MPD2    N113317   2.081   3.672  13.885  0.0258 -0.3976  0.3067
  905MPD2    H713318   1.983   3.659  13.908 -0.1539  1.3035  0.5372
  906MPD2     C13319   0.199   3.159  11.682  0.5254  0.0546 -0.8781
  906MPD2    C113320   0.145   3.087  11.577  0.0770  0.1268  0.4189
  906MPD2    C213321   0.031   3.014  11.591  0.4487  0.0832  0.1034
  906MPD2    C313322   4.693   2.996  11.713  1.0515 -0.0979  0.4118
  906MPD2    C413323   0.010   3.081  11.816 -0.0813  0.7231  0.6023
  906MPD2    C513324   0.125   3.156  11.794 -0.1423  0.5392 -0.1643
  906MPD2     H13325   4.710   2.964  11.509  0.9514  0.6092 -0.5237
  906MPD2    H113326   4.697   3.091  11.915  1.1173 -2.0555  1.4039
  906MPD2    H213327   0.279   3.231  11.670 -0.0576  1.1202  1.6285
  906MPD2    H313328   0.166   3.218  11.873  0.6893 -2.2539  1.6252
  906MPD2     N13329   4.584   2.907  11.720 -0.0586  0.4078  0.5313
  906MPD2    H513330   4.573   2.845  11.640  0.7189 -1.7712  2.1219
  906MPD2    N113331   0.201   3.074  11.449  0.4416  0.1237  0.2488
  906MPD2    H713332   0.163   3.001  11.389 -0.2223 -0.9708  2.0233
  907MPD2     C13333   3.368   2.986  15.518 -1.1855 -0.4738 -0.6938
  907MPD2    C113334   3.353   2.853  15.506 -0.0031  0.5142 -0.1434
  907MPD2    C213335   3.353   2.777  15.624  0.0586  0.5777  0.1050
  907MPD2    C313336   3.379   2.830  15.749 -0.4676 -0.7262  0.1596
  907MPD2    C413337   3.410   2.966  15.757  0.5030  0.8962  0.5964
  907MPD2    C513338   3.396   3.042  15.644 -0.3670 -0.4058  0.0837
  907MPD2     H13339   3.334   2.672  15.606 -0.5604  0.8123 -0.5859
  907MPD2    H113340   3.450   3.016  15.844 -1.6564  0.5493  1.7843
  907MPD2    H213341   3.355   3.056  15.436  2.2703  1.5088  0.4396
  907MPD2    H313342   3.408   3.148  15.664  0.2370 -0.6469  1.0046
  907MPD2     N13343   3.392   2.746  15.862  0.3187  0.1219 -0.4077
  907MPD2    H513344   3.403   2.648  15.838  2.5968  0.0494  0.8942
  907MPD2    N113345   3.336   2.785  15.386  0.7932 -0.0561  0.2644
  907MPD2    H713346   3.326   2.684  15.391 -2.6413  0.1889 -1.6247
  908MPD2     C13347   0.430   3.134   9.421 -0.1806  1.0480 -0.3089
  908MPD2    C113348   0.468   3.021   9.487  0.1360 -0.5445  0.1119
  908MPD2    C213349   0.497   3.031   9.626  0.5911 -0.2427 -0.7336
  908MPD2    C313350   0.510   3.151   9.690 -0.1221  0.1561  0.5630
  908MPD2    C413351   0.490   3.259   9.612 -0.3195 -0.1107 -0.9144
  908MPD2    C513352   0.447   3.255   9.484  0.1079 -0.3196 -0.4133
  908MPD2     H13353   0.501   2.941   9.686  2.4620 -0.5189 -1.2914
  908MPD2    H113354   0.519   3.354   9.655  0.3268 -1.2051  1.0304
  908MPD2    H213355   0.399   3.148   9.318 -1.2588  2.2544  0.1860
  908MPD2    H313356   0.449   3.345   9.423 -1.7506 -0.2888 -0.4320
  908MPD2     N13357   0.549   3.152   9.829  0.9915  0.3005 -0.3848
  908MPD2    H513358   0.583   3.069   9.877  0.4802 -0.0403 -0.6133
  908MPD2    N113359   0.439   2.893   9.429 -0.1643  0.2106 -0.1806
  908MPD2    H713360   0.418   2.900   9.330 -2.9086  0.2254  0.3841
  909MPD2     C13361   1.795   1.083  12.238 -0.4083  0.9817  0.1830
  909MPD2    C113362   1.757   1.118  12.110 -0.1879  0.1838 -0.1883
  909MPD2    C213363   1.621   1.150  12.086  0.5503  0.1245  0.3058
  909MPD2    C313364   1.529   1.147  12.182  0.3063  0.0222 -0.3207
  909MPD2    C413365   1.569   1.091  12.304 -0.3661  0.6152  0.4063
  909MPD2    C513366   1.699   1.071  12.337 -0.6075  0.9027 -0.2036
  909MPD2     H13367   1.580   1.184  11.991 -0.5796 -0.1418  0.7102
  909MPD2    H113368   1.499   1.084  12.387 -0.7976 -0.7343 -0.0646
  909MPD2    H213369   1.898   1.061  12.262 -1.3089 -2.7768  0.6187
  909MPD2    H313370   1.735   1.047  12.437  1.1684  0.6287 -0.9162
  909MPD2     N13371   1.396   1.192  12.156 -0.3884  0.1688 -0.6997
  909MPD2    H513372   1.382   1.247  12.072  0.1768 -1.1617 -1.6703
  909MPD2    N113373   1.843   1.110  11.998  0.0697 -0.6070 -0.5415
  909MPD2    H713374   1.811   1.146  11.909 -1.4374 -1.4275 -0.3292
  910MPD2     C13375   3.289   3.384  15.923 -0.3482 -0.6110 -0.5064
  910MPD2    C113376   3.234   3.260  15.928 -0.5070  0.0512  0.3107
  910MPD2    C213377   3.164   3.214  15.818  0.1392  0.0094  0.0093
  910MPD2    C313378   3.152   3.290  15.705  0.5858  0.5173  0.3126
  910MPD2    C413379   3.206   3.419  15.700 -0.5121  0.1314 -0.2111
  910MPD2    C513380   3.274   3.460  15.810  0.0122  0.8107  1.1525
  910MPD2     H13381   3.117   3.118  15.829 -1.3700  0.6478 -0.9801
  910MPD2    H113382   3.200   3.479  15.609  0.3644 -1.1274 -1.1012
  910MPD2    H213383   3.336   3.433  16.007 -2.1070  1.0633 -0.5139
  910MPD2    H313384   3.313   3.561  15.799  1.8220  0.1321  1.2845
  910MPD2     N13385   3.098   3.240  15.586  0.5226  0.6221  0.4459
  910MPD2    H513386   3.110   3.291  15.498 -0.1285 -1.4687 -0.8518
  910MPD2    N113387   3.235   3.178  16.044 -0.3366 -0.1131  0.0429
  910MPD2    H713388   3.208   3.081  16.041 -2.0062  0.3759 -0.8055
  911MPD2     C13389   0.816   3.350  16.523 -0.2927  0.8896 -0.4410
  911MPD2    C113390   0.937   3.418  16.549  1.0938 -0.3395  0.1905
  911MPD2    C213391   0.935   3.561  16.557 -0.4404 -0.1894 -0.2569
  911MPD2    C313392   0.814   3.626  16.544 -0.0478 -0.4132 -0.0379
  911MPD2    C413393   0.701   3.555  16.511  1.0849 -0.0127  0.2012
  911MPD2    C513394   0.702   3.421  16.512 -0.1035 -0.0963  0.3841
  911MPD2     H13395   1.027   3.618  16.562 -0.8301  0.1483  2.6412
  911MPD2    H113396   0.612   3.611  16.485  0.1079 -1.4104  0.5313
  911MPD2    H213397   0.824   3.242  16.513 -1.7170  0.5679  1.8937
  911MPD2    H313398   0.605   3.375  16.496 -0.5693  1.4836 -1.3605
  911MPD2     N13399   0.804   3.762  16.562  0.7060 -0.0726 -0.5636
  911MPD2    H513400   0.710   3.798  16.563 -0.1556 -2.3451  0.1313
  911MPD2    N113401   1.051   3.329  16.549 -0.3200  0.6463  0.5427
  911MPD2    H713402   1.026   3.231  16.547 -2.3140  1.1110  2.7754
  912MPD2     C13403   0.353   3.902  16.073 -0.6148 -0.1606  0.4525
  912MPD2    C113404   0.404   3.861  16.194 -0.2950 -0.2082  0.4730
  912MPD2    C213405   0.397   3.730  16.235 -0.3109  0.1855 -0.6912
  912MPD2    C313406   0.325   3.639  16.155  0.3706 -0.4221  0.4291
  912MPD2    C413407   0.258   3.691  16.041 -0.4006 -0.2069  0.4754
  912MPD2    C513408   0.282   3.813  15.996 -0.4703 -0.0602  0.2837
  912MPD2     H13409   0.446   3.691  16.324 -1.0756 -1.2219 -0.8819
  912MPD2    H113410   0.193   3.631  15.978  0.8829  2.5143 -3.4314
  912MPD2    H213411   0.365   4.005  16.042 -2.3530 -0.3043 -0.7063
  912MPD2    H313412   0.229   3.842  15.907  2.9916  1.3100 -1.3176
  912MPD2     N13413   0.305   3.501  16.199 -0.1042  0.1794 -0.0790
  912MPD2    H513414   0.327   3.477  16.294 -0.0074 -0.7562 -0.3446
  912MPD2    N113415   0.471   3.963  16.267  0.3683  0.4080  0.4035
  912MPD2    H713416   0.471   4.055  16.224 -2.6365  0.4561  0.4859
  913MPD2     C13417   1.200   0.270  10.628 -0.1049 -0.7857  0.5614
  913MPD2    C113418   1.197   0.160  10.551  0.0635  0.5251  0.2299
  913MPD2    C213419   1.150   0.168  10.418  0.6622  0.3544  0.4121
  913MPD2    C313420   1.127   0.296  10.365  0.2863  0.0114 -0.0309
  913MPD2    C413421   1.151   0.411  10.439 -0.0218  0.3685 -0.5146
  913MPD2    C513422   1.183   0.389  10.570  0.0827 -0.3132 -0.8922
  913MPD2     H13423   1.138   0.077  10.361  0.0189  1.1270 -0.6719
  913MPD2    H113424   1.149   0.509  10.393  1.3185  0.8673  0.5107
  913MPD2    H213425   1.221   0.265  10.734  0.1283  1.3355  0.6186
  913MPD2    H313426   1.199   0.478  10.630 -3.0745 -0.5286  0.2704
  913MPD2     N13427   1.091   0.325  10.230 -0.1394 -0.2626 -0.5152
  913MPD2    H513428   1.084   0.424  10.211 -1.4122 -0.2548 -0.0060
  913MPD2    N113429   1.204   0.038  10.619 -0.8604 -0.3127 -0.4892
  913MPD2    H713430   1.239   0.049  10.713  1.6172  0.5249 -1.5324
  914MPD2     C13431   4.354   0.463  12.116  0.0028  0.1608  0.2761
  914MPD2    C113432   4.241   0.515  12.177  0.8601  0.1991 -0.4367
  914MPD2    C213433   4.150   0.424  12.226  0.0971 -0.1790  0.4210
  914MPD2    C313434   4.180   0.285  12.230  0.5185  0.6147 -0.3725
  914MPD2    C413435   4.301   0.243  12.178  1.2576 -0.8856  0.2597
  914MPD2    C513436   4.382   0.331  12.124  0.4886 -0.9402  0.1082
  914MPD2     H13437   4.048   0.445  12.258  0.2579  0.0141  0.8030
  914MPD2    H113438   4.333   0.140  12.182  0.8859 -1.0249 -0.3661
  914MPD2    H213439   4.430   0.527  12.072  0.3539 -0.1023  0.4989
  914MPD2    H313440   4.480   0.300  12.088  0.8662  0.1379  0.1863
  914MPD2     N13441   4.094   0.200  12.302  0.0199 -0.5122  0.1707
  914MPD2    H513442   4.010   0.245  12.338  0.0422 -1.3901  1.3571
  914MPD2    N113443   4.220   0.659  12.184 -0.1407  0.2276 -0.0524
  914MPD2    H713444   4.261   0.711  12.107 -1.1187 -0.2022 -0.8643
  915MPD2     C13445   2.409   0.553  15.540  0.0816  0.2643  0.8623
  915MPD2    C113446   2.285   0.499  15.548  0.2747 -0.0771  0.4259
  915MPD2    C213447   2.225   0.510  15.676  0.0871 -0.1038  0.4646
  915MPD2    C313448   2.296   0.546  15.791 -0.6008  0.6113  0.4121
  915MPD2    C413449   2.426   0.590  15.770  0.1802 -0.2745 -0.2000
  915MPD2    C513450   2.478   0.599  15.645 -0.2781  0.3049 -0.2020
  915MPD2     H13451   2.124   0.474  15.690  1.4677 -4.0273  0.1931
  915MPD2    H113452   2.490   0.614  15.854 -0.6042 -1.1252  0.6478
  915MPD2    H213453   2.456   0.550  15.443  0.1744 -2.9097  1.0076
  915MPD2    H313454   2.580   0.630  15.626 -0.5322  0.1599 -1.7413
  915MPD2     N13455   2.238   0.529  15.923 -0.2445 -0.2624 -0.4031
  915MPD2    H513456   2.138   0.518  15.941 -0.4667  1.4750 -0.5944
  915MPD2    N113457   2.222   0.444  15.434  0.1812 -0.1502  0.6865
  915MPD2    H713458   2.282   0.453  15.352 -1.3235  2.4825 -0.1239
  916MPD2     C13459   0.135   3.379  15.622  0.1048 -0.7885 -0.2616
  916MPD2    C113460   0.072   3.284  15.707 -0.1919  0.2784 -0.3487
  916MPD2    C213461   0.066   3.154  15.666  0.5420  0.3123  0.5615
  916MPD2    C313462   0.135   3.114  15.557  0.2411 -0.0111  0.3151
  916MPD2    C413463   0.201   3.207  15.475  0.8431 -1.1321  0.8299
  916MPD2    C513464   0.193   3.342  15.506  0.3828 -0.6765 -0.5567
  916MPD2     H13465   4.729   3.083  15.715 -1.4322  1.1573 -0.8616
  916MPD2    H113466   0.253   3.186  15.383 -0.0151 -0.3912  0.1660
  916MPD2    H213467   0.127   3.486  15.638 -1.4194 -1.1032  1.0987
  916MPD2    H313468   0.234   3.418  15.441  0.4633  1.0971  1.5752
  916MPD2     N13469   0.123   2.973  15.528  0.2238  0.6640  0.1703
  916MPD2    H513470   0.061   2.918  15.587  1.4267 -1.8163 -0.8681
  916MPD2    N113471   0.016   3.325  15.826 -0.6156 -0.2760 -0.6797
  916MPD2    H713472   0.037   3.415  15.867 -1.1295 -0.9146  0.9944
  917MPD2     C13473   0.382   0.450  11.247 -0.1920  0.5077 -0.3451
  917MPD2    C113474   0.365   0.499  11.376  0.0997  0.2186 -0.3475
  917MPD2    C213475   0.373   0.632  11.397  0.5415  0.3553 -0.5138
  917MPD2    C313476   0.394   0.715  11.288  0.0641 -0.1100  0.0009
  917MPD2    C413477   0.415   0.657  11.165  0.3854  0.4304  0.1024
  917MPD2    C513478   0.419   0.527  11.141 -0.3615 -0.1844  0.4694
  917MPD2     H13479   0.353   0.674  11.495 -0.7499 -1.9093  0.1801
  917MPD2    H113480   0.428   0.721  11.078 -0.4931  1.7089  0.9090
  917MPD2    H213481   0.368   0.343  11.230 -0.7626  0.5425 -0.0987
  917MPD2    H313482   0.424   0.490  11.039 -1.8173 -0.6282  0.5565
  917MPD2     N13483   0.382   0.860  11.298  0.0143 -0.0509  0.2342
  917MPD2    H513484   0.400   0.915  11.215  3.4313 -1.9742 -0.2856
  917MPD2    N113485   0.330   0.404  11.481 -0.3200  0.2254 -0.0744
  917MPD2    H713486   0.313   0.307  11.458  1.2976  0.0150 -0.4163
  918MPD2     C13487   0.462   0.595  12.492 -0.8336  0.5094 -0.1326
  918MPD2    C113488   0.513   0.655  12.375  0.6442  0.4074  0.4482
  918MPD2    C213489   0.488   0.608  12.249 -0.2115  0.2876  0.0629
  918MPD2    C313490   0.411   0.494  12.236 -0.0474 -0.1966 -0.6870
  918MPD2    C413491   0.362   0.433  12.355 -0.2786  0.2194  0.4573
  918MPD2    C513492   0.383   0.486  12.480 -0.1781  0.0632  0.1211
  918MPD2     H13493   0.511   0.672  12.165  1.4232  0.7160  0.8423
  918MPD2    H113494   0.284   0.357  12.351 -2.0546  2.0241  0.9425
  918MPD2    H213495   0.492   0.640  12.586 -1.4791  1.1646 -0.2363
  918MPD2    H313496   0.350   0.441  12.573 -2.6361  2.2385  0.2824
  918MPD2     N13497   0.368   0.453  12.102  0.0676  0.5832  0.5010
  918MPD2    H513498   0.398   0.513  12.026 -0.1617 -1.7667 -1.4801
  918MPD2    N113499   0.619   0.751  12.395  0.5673 -0.4102 -0.2137
  918MPD2    H713500   0.648   0.786  12.304  0.9463  0.6896  0.3288
  919MPD2     C13501   1.226   4.231  11.954 -0.7786  0.0220  0.1608
  919MPD2    C113502   1.166   4.123  11.889  0.2819  0.2365 -0.2085
  919MPD2    C213503   1.109   4.142  11.761 -0.0509 -0.8997  0.2749
  919MPD2    C313504   1.110   4.266  11.706 -0.3262 -0.0561  0.7285
  919MPD2    C413505   1.165   4.376  11.775  0.8700 -0.0048  0.1883
  919MPD2    C513506   1.227   4.354  11.894 -0.6163 -0.5368 -0.2044
  919MPD2     H13507   1.058   4.060  11.712  3.3989 -3.4409  0.9555
  919MPD2    H113508   1.162   4.476  11.733 -2.0800  0.5243  1.6349
  919MPD2    H213509   1.274   4.220  12.050 -0.8548 -1.5393  0.0204
  919MPD2    H313510   1.267   4.439  11.949  0.7564 -2.7626  2.2398
  919MPD2     N13511   1.049   4.288  11.577 -0.1521 -0.3304  0.6728
  919MPD2    H513512   1.042   4.387  11.553 -1.9450 -0.8131 -0.8610
  919MPD2    N113513   1.151   3.993  11.944  0.1532 -0.0626 -0.7338
  919MPD2    H713514   1.115   3.918  11.886 -0.5151 -0.7212  0.5378
  920MPD2     C13515   0.917   0.117  10.752  0.0558  0.8546 -0.7207
  920MPD2    C113516   0.867   4.721  10.709 -0.3693 -0.0381  0.0727
  920MPD2    C213517   0.863   4.618  10.791  0.1239 -0.1800  0.2029
  920MPD2    C313518   0.918   4.630  10.919  0.2401 -0.1254 -0.4372
  920MPD2    C413519   0.972   0.020  10.957  0.2197 -0.4783 -1.2432
  920MPD2    C513520   0.955   0.132  10.881  0.2092 -0.0739  0.4883
  920MPD2     H13521   0.795   4.535  10.779 -0.9662  0.7333  0.0685
  920MPD2    H113522   1.025   0.042  11.049 -0.6233 -1.0693 -0.6132
  920MPD2    H213523   0.923   0.202  10.685  2.3993  2.0573  1.0079
  920MPD2    H313524   0.985   0.231  10.913 -0.8812  0.6661 -0.8029
  920MPD2     N13525   0.914   4.516  11.006  0.2008 -0.4846  0.3079
  920MPD2    H513526   0.853   4.442  10.971  0.9050 -0.7108 -0.4581
  920MPD2    N113527   0.829   4.710  10.581 -0.2269  0.6053 -0.1785
  920MPD2    H713528   0.799   4.616  10.559 -0.4450  0.7020 -0.2887
  921MPD2     C13529   2.060   3.430  16.685 -0.1704  0.5619  0.1963
  921MPD2    C113530   2.027   3.400  16.558  0.1294  0.3884  0.7479
  921MPD2    C213531   1.904   3.344  16.530  0.6704 -0.5296 -0.1432
  921MPD2    C313532   1.810   3.320  16.634  1.0274 -0.2964 -0.7048
  921MPD2    C413533   1.842   3.374  16.758  0.3570  0.3972  0.5643
  921MPD2    C513534   1.967   3.424  16.784  0.1829  0.3310  0.4920
  921MPD2     H13535   1.865   3.332  16.430  0.1097 -1.9743  0.2474
  921MPD2    H113536   1.760   3.386  16.828 -0.5163 -1.7604 -0.1026
  921MPD2    H213537   2.157   3.468  16.716  1.3695 -1.4686 -2.1094
  921MPD2    H313538   1.992   3.443  16.888 -0.9314  0.8885  0.6556
  921MPD2     N13539   1.679   3.281  16.610  0.2925 -0.1500  1.1829
  921MPD2    H513540   1.609   3.305  16.679  0.5460 -0.0815  1.4143
  921MPD2    N113541   2.113   3.424  16.447  0.0684  0.1184  0.6086
  921MPD2    H713542   2.200   3.472  16.468 -0.0400  0.4727  0.2419
  922MPD2     C13543   2.623   1.717  16.932  1.2952  0.3405  0.3519
  922MPD2    C113544   2.598   1.761  17.062  0.6805 -0.1007 -0.1073
  922MPD2    C213545   2.541   1.680  17.155 -0.4705 -0.2216  0.3835
  922MPD2    C313546   2.521   1.547  17.129  0.1089  0.1941  0.9543
  922MPD2    C413547   2.549   1.500  17.003 -0.4269  0.2498  0.0858
  922MPD2    C513548   2.595   1.582  16.905  0.5097  0.0585 -0.9863
  922MPD2     H13549   2.510   1.718  17.252 -0.2435 -1.4159  0.9359
  922MPD2    H113550   2.531   1.398  16.970  0.3660  0.5994 -1.4100
  922MPD2    H213551   2.637   1.777  16.843  0.3073  1.2845  0.8343
  922MPD2    H313552   2.617   1.547  16.805  1.2793 -1.5047 -0.2728
  922MPD2     N13553   2.457   1.463  17.229  0.1387  0.0696  0.5885
  922MPD2    H513554   2.436   1.518  17.312  3.2942 -1.4790  2.4352
  922MPD2    N113555   2.616   1.896  17.101 -0.1936  0.2535 -0.5078
  922MPD2    H713556   2.577   1.918  17.192 -3.2614  0.4648 -1.8691
  923MPD2     C13557   2.938   3.992   8.859 -0.4133 -0.4193 -0.3437
  923MPD2    C113558   3.036   4.059   8.929  0.3852 -0.0669 -0.2503
  923MPD2    C213559   3.164   3.999   8.951  0.3725  1.1854  0.5116
  923MPD2    C313560   3.188   3.877   8.893  0.7500 -0.4377  0.3097
  923MPD2    C413561   3.088   3.811   8.824 -0.5443 -0.2088 -0.5847
  923MPD2    C513562   2.960   3.868   8.811  0.0037  0.0436  0.5702
  923MPD2     H13563   3.239   4.056   9.004  1.0845  1.8703 -1.2423
  923MPD2    H113564   3.104   3.706   8.803 -2.3014 -0.2181 -1.9587
  923MPD2    H213565   2.842   4.042   8.859  0.1817  0.7069 -1.7242
  923MPD2    H313566   2.885   3.809   8.760 -0.4345  1.5430 -0.4892
  923MPD2     N13567   3.315   3.806   8.898  0.0472  0.1757 -0.2125
  923MPD2    H513568   3.313   3.708   8.874  1.9768 -0.2752  1.4365
  923MPD2    N113569   2.995   4.193   8.970 -0.1522  0.5714  0.0740
  923MPD2    H713570   2.897   4.218   8.959 -0.6762 -1.3946  0.2684
  924MPD2     C13571   2.951   2.065  16.161 -0.7544 -0.1558  1.2914
  924MPD2    C113572   3.060   2.071  16.252  0.2992 -0.8420 -0.4237
  924MPD2    C213573   3.166   2.162  16.232  0.0206  0.4113 -0.8703
  924MPD2    C313574   3.162   2.250  16.125 -0.6655 -0.5263  0.8431
  924MPD2    C413575   3.061   2.246  16.030  0.4325  0.1085 -0.4847
  924MPD2    C513576   2.960   2.152  16.049  0.4050 -0.7158 -0.2736
  924MPD2     H13577   3.248   2.174  16.303 -1.3727 -1.5433  1.0963
  924MPD2    H113578   3.073   2.303  15.938  2.1906  0.7300  0.1219
  924MPD2    H213579   2.882   1.983  16.173 -1.8283  0.5695  0.0367
  924MPD2    H313580   2.889   2.143  15.968  1.0653  1.1304 -1.0737
  924MPD2     N13581   3.264   2.345  16.103  0.4457 -0.1683  0.0299
  924MPD2    H513582   3.235   2.420  16.041  0.1162 -0.6847 -0.4275
  924MPD2    N113583   3.048   1.986  16.368 -0.4363 -0.0139 -0.0310
  924MPD2    H713584   2.955   1.945  16.377 -0.0943 -0.7523  0.1469
  925MPD2     C13585   2.319   0.206  14.304 -0.4122  0.7529 -0.2518
  925MPD2    C113586   2.412   0.108  14.335 -0.1495  0.6209 -0.0705
  925MPD2    C213587   2.464   0.105  14.459  0.3357  0.6208 -0.2763
  925MPD2    C313588   2.417   0.189  14.559 -0.4191  0.5917 -0.0598
  925MPD2    C413589   2.328   0.292  14.533 -0.0373  0.3258  0.1908
  925MPD2    C513590   2.276   0.300  14.405 -0.2117  0.1743  0.1580
  925MPD2     H13591   2.536   0.029  14.486  0.1028  1.5262  2.8407
  925MPD2    H113592   2.298   0.368  14.603 -1.7271 -0.9902  0.8932
  925MPD2    H213593   2.298   0.234  14.201  1.1419  1.6331 -0.3412
  925MPD2    H313594   2.202   0.371  14.373 -1.1398 -0.8047  0.1308
  925MPD2     N13595   2.468   0.160  14.688 -0.3207  0.0818  0.2898
  925MPD2    H513596   2.535   0.084  14.692 -0.3368  0.0477 -0.0731
  925MPD2    N113597   2.454   0.008  14.245  0.0002 -0.2273 -0.0458
  925MPD2    H713598   2.516   4.665  14.282 -1.3648 -0.4302  1.8645
  926MPD2     C13599   0.936   2.440  13.474 -0.5219 -0.3693  0.3363
  926MPD2    C113600   1.001   2.538  13.538 -0.2965  0.6961 -0.2486
  926MPD2    C213601   1.133   2.572  13.504  0.4411  0.2799  0.1245
  926MPD2    C313602   1.196   2.504  13.401  0.5522 -0.0053 -0.7760
  926MPD2    C413603   1.131   2.400  13.339 -0.0762  1.0349 -0.6416
  926MPD2    C513604   1.004   2.363  13.381 -0.7064 -0.1924 -0.3132
  926MPD2     H13605   1.175   2.663  13.546 -0.2716  1.2238 -1.2281
  926MPD2    H113606   1.178   2.346  13.257 -1.7306 -1.7745  0.2484
  926MPD2    H213607   0.831   2.419  13.491 -0.8096  1.9656  1.4553
  926MPD2    H313608   0.953   2.282  13.329 -1.7942  0.4844 -0.3008
  926MPD2     N13609   1.304   2.558  13.332 -0.5882 -0.2597  0.6335
  926MPD2    H513610   1.326   2.517  13.242 -3.1009 -1.7350  0.6889
  926MPD2    N113611   0.927   2.635  13.611 -0.2510 -0.8435  0.1423
  926MPD2    H713612   0.977   2.711  13.655  0.0440 -1.5712  1.0562
  927MPD2     C13613   1.472   4.688  17.709  0.5508 -0.5447 -0.3922
  927MPD2    C113614   1.382   0.053  17.677 -0.3165  0.0109 -0.2278
  927MPD2    C213615   1.390   0.099  17.547  0.0914  0.8514 -0.2375
  927MPD2    C313616   1.494   0.070  17.459  0.0592 -0.0619 -0.3844
  927MPD2    C413617   1.591   4.704  17.499  0.8245  0.4676  0.4267
  927MPD2    C513618   1.564   4.646  17.617 -0.3537 -0.7063 -0.2447
  927MPD2     H13619   1.308   0.163  17.516  0.8862  1.1293 -1.7635
  927MPD2    H113620   1.677   4.666  17.446 -1.1037  1.7006 -3.6329
  927MPD2    H213621   1.484   4.631   0.084 -0.5562 -1.3670 -0.7607
  927MPD2    H313622   1.630   4.566  17.649  0.7378  0.3866  0.2660
  927MPD2     N13623   1.502   0.136  17.336 -0.2766  0.2375 -0.0345
  927MPD2    H513624   1.436   0.211  17.317 -0.2702  0.4927  0.9545
  927MPD2    N113625   1.271   0.070   0.046  0.1069 -0.2388 -0.2630
  927MPD2    H713626   1.267   0.021   0.134 -0.7432  1.2161  0.5099
  928MPD2     C13627   4.119   3.316   1.180  0.1153 -0.3999 -0.2574
  928MPD2    C113628   4.231   3.359   1.123  0.0467 -0.1200  0.2530
  928MPD2    C213629   4.266   3.294   1.000  0.0239 -0.2733  0.0645
  928MPD2    C313630   4.183   3.186   0.949  0.8805 -0.3763  0.6190
  928MPD2    C413631   4.065   3.146   1.013 -0.6569 -0.3299  0.1916
  928MPD2    C513632   4.036   3.215   1.128  0.0297  0.1183  0.4196
  928MPD2     H13633   4.355   3.318   0.943  0.2583 -1.1356  0.0713
  928MPD2    H113634   3.996   3.072   0.973 -2.1754  0.8525  0.6543
  928MPD2    H213635   4.086   3.369   1.269 -0.1593 -3.2503  1.3252
  928MPD2    H313636   3.955   3.187   1.194  1.0774 -0.4642  1.4670
  928MPD2     N13637   4.213   3.104   0.836  0.3483 -0.1369  0.0186
  928MPD2    H513638   4.148   3.030   0.812  0.1866 -0.3723  1.1536
  928MPD2    N113639   4.291   3.466   1.183 -0.4684  0.0256  0.1151
  928MPD2    H713640   4.241   3.519   1.255  3.0228 -0.1054  2.6452
  929MPD2     C13641   3.683   3.715  10.358  0.0400  0.3935  0.5347
  929MPD2    C113642   3.636   3.591  10.312 -0.1129  0.1734  0.4798
  929MPD2    C213643   3.569   3.592  10.190 -0.2874 -0.4887  0.0946
  929MPD2    C313644   3.547   3.707  10.115  0.2692  0.0616  0.4889
  929MPD2    C413645   3.588   3.831  10.169  0.0939 -0.3305 -0.1589
  929MPD2    C513646   3.653   3.826  10.293  0.0441  0.2556  0.6410
  929MPD2     H13647   3.567   3.499  10.136 -1.2907  0.8414 -2.1807
  929MPD2    H113648   3.571   3.925  10.119  0.6087  0.4028  1.0340
  929MPD2    H213649   3.738   3.719  10.451  3.8720  0.8050 -1.7671
  929MPD2    H313650   3.684   3.919  10.339 -0.6311  0.4833  0.6397
  929MPD2     N13651   3.495   3.707   9.978  0.0777 -0.5356 -0.6920
  929MPD2    H513652   3.487   3.794   9.926  0.0524 -0.3652 -0.4007
  929MPD2    N113653   3.687   3.475  10.372 -0.0641 -0.0906 -0.1874
  929MPD2    H713654   3.762   3.485  10.439  0.2882  0.2734 -0.6374
  930MPD2     C13655   1.132   1.044  14.104  0.5969  0.1896  0.3333
  930MPD2    C113656   1.203   1.022  13.990  0.7291  0.6393  0.1905
  930MPD2    C213657   1.154   0.926  13.899 -0.1330  0.1392 -0.0988
  930MPD2    C313658   1.041   0.850  13.935  0.4434 -0.2812  0.0274
  930MPD2    C413659   0.973   0.867  14.054  0.7047 -0.0670  0.2898
  930MPD2    C513660   1.021   0.964  14.136 -0.2403  0.1384  0.0455
  930MPD2     H13661   1.215   0.913  13.810  0.1672  1.9719 -0.1726
  930MPD2    H113662   0.896   0.797  14.084  0.4403 -0.0607 -0.3675
  930MPD2    H213663   1.160   1.122  14.174  0.1172 -0.5974  1.4031
  930MPD2    H313664   0.979   0.986  14.234 -0.8432 -0.8341  0.0076
  930MPD2     N13665   0.996   0.757  13.841  0.1792  0.1277 -0.0660
  930MPD2    H513666   0.899   0.731  13.855  0.0050 -0.1770 -1.7876
  930MPD2    N113667   1.322   1.099  13.960  0.2676 -0.6065 -0.1271
  930MPD2    H713668   1.360   1.153  14.038  0.3110  0.9674 -1.2328
  931MPD2     C13669   0.963   4.279   0.302 -0.1172  0.3194  0.6279
  931MPD2    C113670   0.973   4.392   0.374  0.5262 -0.1006 -0.1926
  931MPD2    C213671   1.017   4.380   0.505  0.7320 -0.4043 -0.9405
  931MPD2    C313672   1.039   4.258   0.560 -0.2277  0.4075 -0.0843
  931MPD2    C413673   1.038   4.149   0.479  0.0347  0.0708  0.1932
  931MPD2    C513674   1.006   4.156   0.354 -0.5039  0.3466 -0.4432
  931MPD2     H13675   1.058   4.467   0.554 -2.1742  0.4503  0.0008
  931MPD2    H113676   1.070   4.055   0.521  1.9002  0.6166  0.0122
  931MPD2    H213677   0.939   4.282   0.197  0.1501  2.7603  0.6447
  931MPD2    H313678   1.000   4.066   0.294  0.7964 -0.3387  0.4471
  931MPD2     N13679   1.091   4.241   0.692  0.1183  0.0834 -0.1008
  931MPD2    H513680   1.114   4.144   0.712 -1.1089  0.1575  1.6659
  931MPD2    N113681   0.969   4.519   0.310 -0.1866 -0.0474  0.0882
  931MPD2    H713682   0.975   4.521   0.209 -0.5250 -3.7257  0.0074
  932MPD2     C13683   3.015   3.764  10.843  0.1451  0.0431 -0.1886
  932MPD2    C113684   3.097   3.825  10.934  0.2482 -0.2960  0.7793
  932MPD2    C213685   3.190   3.744  10.996  0.0547 -0.3647 -0.0816
  932MPD2    C313686   3.189   3.609  10.986  0.6924  0.1601  0.6723
  932MPD2    C413687   3.106   3.543  10.902 -0.5481  0.2825  0.3708
  932MPD2    C513688   3.019   3.620  10.830 -0.0663 -0.0541  0.4667
  932MPD2     H13689   3.252   3.799  11.066 -0.7655  0.2755  0.1379
  932MPD2    H113690   3.106   3.435  10.895  0.5492  0.1758  1.8583
  932MPD2    H213691   2.946   3.815  10.776 -0.8450  2.0224  2.3489
  932MPD2    H313692   2.956   3.572  10.755 -0.9558 -1.0276  1.8539
  932MPD2     N13693   3.285   3.541  11.070  0.1637 -0.1071  0.1740
  932MPD2    H513694   3.335   3.600  11.136  0.9870 -0.3662 -0.2157
  932MPD2    N113695   3.088   3.965  10.959  0.8066  0.1002 -0.2787
  932MPD2    H713696   3.133   4.011  11.037 -0.9861  1.7078 -0.1821
  933MPD2     C13697   4.350   4.128   1.697  0.8568 -0.0847 -0.1192
  933MPD2    C113698   4.274   4.045   1.609  0.8357 -0.4941  0.2764
  933MPD2    C213699   4.136   4.060   1.592  0.2678 -0.5668  0.0664
  933MPD2    C313700   4.069   4.156   1.668 -0.0013  0.5354 -0.0810
  933MPD2    C413701   4.145   4.232   1.749  0.5810  0.7456 -0.1976
  933MPD2    C513702   4.283   4.221   1.763  0.0989  0.1655  0.1607
  933MPD2     H13703   4.074   4.006   1.521  0.0529 -1.2147  0.7463
  933MPD2    H113704   4.095   4.310   1.805  0.9974  0.0365  1.1634
  933MPD2    H213705   4.458   4.132   1.697  0.9114 -1.5800 -2.5071
  933MPD2    H313706   4.329   4.292   1.830  2.0477 -1.1205  0.1959
  933MPD2     N13707   3.936   4.186   1.642 -0.2312  0.0744  0.2512
  933MPD2    H513708   3.888   4.138   1.567 -2.0934  1.4340  0.5593
  933MPD2    N113709   4.351   3.963   1.524  0.3836  0.1951 -0.3655
  933MPD2    H713710   4.448   3.953   1.552  0.7947 -0.5042 -2.0065
  934MPD2     C13711   0.162   1.566   1.724  0.3801  0.4279 -0.6770
  934MPD2    C113712   0.168   1.433   1.714  0.6052  0.6288  0.3335
  934MPD2    C213713   0.097   1.359   1.624 -0.2470  0.3444  0.1867
  934MPD2    C313714   4.727   1.420   1.545 -0.5578  0.0994  0.3678
  934MPD2    C413715   4.713   1.552   1.558 -0.3665 -0.0539  0.2393
  934MPD2    C513716   0.074   1.625   1.633 -0.5775 -0.4399  0.1102
  934MPD2     H13717   0.123   1.254   1.631  2.1563  0.8494 -1.1427
  934MPD2    H113718   4.644   1.609   1.496 -1.2797 -1.8207 -0.3561
  934MPD2    H213719   0.231   1.617   1.790  1.1746  0.8196 -1.8135
  934MPD2    H313720   0.088   1.732   1.644 -0.7398 -0.5355  1.3323
  934MPD2     N13721   4.647   1.350   1.454 -0.6639  0.0048  0.2195
  934MPD2    H513722   4.563   1.393   1.419 -0.6682  0.7713  1.1600
  934MPD2    N113723   0.233   1.349   1.803  0.3226  0.2403 -0.1082
  934MPD2    H713724   0.238   1.252   1.771 -1.5083 -0.0330  0.4581
  935MPD2     C13725   4.515   0.333   1.427 -0.7879 -0.9358 -0.4201
  935MPD2    C113726   4.525   0.379   1.298 -0.2699 -0.0664 -0.3212
  935MPD2    C213727   4.500   0.515   1.283  0.1737 -0.1630  0.0067
  935MPD2    C313728   4.473   0.603   1.385  0.5697 -0.0401 -0.0861
  935MPD2    C413729   4.467   0.552   1.510 -0.0709  0.7241 -0.8688
  935MPD2    C513730   4.478   0.415   1.523 -0.1314  0.1187 -0.2693
  935MPD2     H13731   4.495   0.551   1.182 -0.1225 -2.3974 -0.7858
  935MPD2    H113732   4.436   0.614   1.593  2.5032  0.7480  0.0917
  935MPD2    H213733   4.520   0.229   1.458  1.5209 -0.2046  1.6938
  935MPD2    H313734   4.461   0.367   1.619 -1.1012 -0.9262 -0.9717
  935MPD2     N13735   4.447   0.744   1.376 -0.4396  0.2801 -0.6966
  935MPD2    H513736   4.467   0.801   1.457  1.6756 -0.8384 -0.4512
  935MPD2    N113737   4.558   0.294   1.188  0.1749 -0.4883  0.0633
  935MPD2    H713738   4.559   0.343   1.099 -0.3222 -4.0821 -1.8878
  936MPD2     C13739   3.311   2.773  12.937 -0.9453  0.3849  0.2147
  936MPD2    C113740   3.189   2.828  12.941 -0.3602 -0.3808  0.0522
  936MPD2    C213741   3.134   2.855  12.818 -0.2198  0.1847 -0.0236
  936MPD2    C313742   3.196   2.814  12.703 -0.5955  0.5399 -0.5220
  936MPD2    C413743   3.313   2.735  12.705  0.1638 -0.6444 -0.0283
  936MPD2    C513744   3.367   2.723  12.826  0.1749  0.1810  0.0778
  936MPD2     H13745   3.038   2.906  12.815 -0.4458 -0.3016 -1.0772
  936MPD2    H113746   3.356   2.698  12.613  0.8490 -2.2181  0.9295
  936MPD2    H213747   3.369   2.749  13.025  1.9446  2.3294 -1.1153
  936MPD2    H313748   3.461   2.670  12.830 -0.4017 -0.8127  0.4621
  936MPD2     N13749   3.139   2.868  12.586  0.0180  0.5970  0.1858
  936MPD2    H513750   3.078   2.948  12.597 -0.3375  0.3037  0.3585
  936MPD2    N113751   3.129   2.877  13.057 -0.7858 -0.0385 -0.1407
  936MPD2    H713752   3.044   2.928  13.032 -1.0867 -0.0571  0.8632
  937MPD2     C13753   1.115   3.354  11.655 -0.2628  0.2957  0.5355
  937MPD2    C113754   1.118   3.493  11.669  0.5464 -0.3789 -0.4555
  937MPD2    C213755   1.110   3.576  11.554  0.1083 -0.2658 -0.0000
  937MPD2    C313756   1.125   3.527  11.429  0.2656  0.2418  0.0449
  937MPD2    C413757   1.131   3.387  11.415  0.3148  0.1076  0.5425
  937MPD2    C513758   1.133   3.312  11.531  0.1245  0.3147  0.4032
  937MPD2     H13759   1.112   3.683  11.568  1.0429 -0.0377 -1.9062
  937MPD2    H113760   1.168   3.342  11.323 -1.8386  2.5732 -1.5372
  937MPD2    H213761   1.119   3.284  11.738 -0.6376 -0.2439  0.0905
  937MPD2    H313762   1.166   3.209  11.533  2.8457  1.1950  1.5674
  937MPD2     N13763   1.138   3.619  11.322  0.3844 -0.3872 -0.6364
  937MPD2    H513764   1.142   3.717  11.351  1.7504 -1.0142  1.3091
  937MPD2    N113765   1.080   3.562  11.784  0.7364  0.0854  0.2899
  937MPD2    H713766   1.050   3.658  11.769 -3.1491 -1.1592 -0.1666
  938MPD2     C13767   3.847   0.547   0.266  0.0291  0.5766  0.0348
  938MPD2    C113768   3.843   0.564   0.402  0.2880  0.0102  0.1716
  938MPD2    C213769   3.837   0.458   0.488  1.0116 -0.0433 -0.1551
  938MPD2    C313770   3.836   0.332   0.439  0.2086 -0.2564  0.1098
  938MPD2    C413771   3.841   0.313   0.305  0.0631  0.0853 -0.0143
  938MPD2    C513772   3.850   0.420   0.216  0.3920  0.2526 -0.3469
  938MPD2     H13773   3.835   0.465   0.596 -2.0837 -0.7653 -0.1581
  938MPD2    H113774   3.836   0.216   0.256  1.4045 -0.1284  0.2634
  938MPD2    H213775   3.866   0.623   0.191 -1.5707  0.5531 -0.3936
  938MPD2    H313776   3.853   0.396   0.110 -2.3564 -1.8573  0.0620
  938MPD2     N13777   3.860   0.220   0.520  0.3058  0.3052  0.4941
  938MPD2    H513778   3.888   0.132   0.478 -1.2115  0.8381 -1.5880
  938MPD2    N113779   3.870   0.693   0.469  0.4639  0.3656 -0.1245
  938MPD2    H713780   3.889   0.687   0.568  1.9915  0.0811 -0.4431
  939MPD2     C13781   0.209   1.456   0.792  0.0924 -0.0611  0.9991
  939MPD2    C113782   0.316   1.404   0.862  0.2307 -0.2254  0.1346
  939MPD2    C213783   0.410   1.324   0.795 -0.2854  0.6239 -0.8108
  939MPD2    C313784   0.396   1.287   0.660 -0.1032 -0.4842  0.1634
  939MPD2    C413785   0.290   1.336   0.592 -0.5812  0.6342  0.1209
  939MPD2    C513786   0.205   1.416   0.655 -0.1580  0.1316  0.0316
  939MPD2     H13787   0.492   1.278   0.848 -1.1024  1.3774  1.1193
  939MPD2    H113788   0.266   1.342   0.486 -2.0817  4.5449  0.6636
  939MPD2    H213789   0.133   1.521   0.833 -1.4396  0.4581 -2.6847
  939MPD2    H313790   0.124   1.455   0.595  1.4476  0.2815 -2.0265
  939MPD2     N13791   0.497   1.214   0.604  0.6949 -0.5532 -0.0961
  939MPD2    H513792   0.582   1.196   0.658  0.5393  0.6297  0.5384
  939MPD2    N113793   0.330   1.449   0.998  0.6989 -0.8118 -0.4378
  939MPD2    H713794   0.281   1.535   1.019  0.1951 -1.0113 -0.8118
  940MPD2     C13795   4.304   2.225  12.857  0.4541 -0.8063 -0.5496
  940MPD2    C113796   4.342   2.101  12.912  0.1744 -0.7137 -0.7354
  940MPD2    C213797   4.371   2.002  12.820 -0.8787 -0.0471 -0.1217
  940MPD2    C313798   4.340   2.024  12.688 -0.3580  0.1140  0.4451
  940MPD2    C413799   4.300   2.148  12.642 -0.0872 -0.6743  0.7964
  940MPD2    C513800   4.284   2.245  12.724 -0.3098  0.1529 -0.9454
  940MPD2     H13801   4.404   1.903  12.848 -1.1442 -0.4349 -1.1763
  940MPD2    H113802   4.294   2.172  12.536 -2.9250  2.2320  1.6418
  940MPD2    H213803   4.283   2.312  12.917  0.7319 -1.6469  0.7710
  940MPD2    H313804   4.255   2.346  12.698  0.9765  0.3961 -1.4446
  940MPD2     N13805   4.355   1.920  12.587 -0.8469  0.3582 -0.0069
  940MPD2    H513806   4.319   1.934  12.493  0.0679  2.1845 -0.0957
  940MPD2    N113807   4.357   2.078  13.052  0.5322  0.4164  0.4587
  940MPD2    H713808   4.396   1.990  13.084  0.6150  0.1659 -0.3267
  941MPD2     C13809   2.791   1.889   9.962  0.2279  0.0583  0.7090
  941MPD2    C113810   2.931   1.851   9.954 -0.0353  0.1887  0.6596
  941MPD2    C213811   2.964   1.716   9.980 -0.2228  0.5986 -0.2973
  941MPD2    C313812   2.858   1.628  10.006 -0.2248 -0.3609  0.1123
  941MPD2    C413813   2.725   1.669  10.017  0.6925  0.6123  0.3912
  941MPD2    C513814   2.695   1.801  10.007  0.6872  0.0330 -0.8495
  941MPD2     H13815   3.071   1.697   9.989 -0.4341 -0.1754  0.5565
  941MPD2    H113816   2.648   1.593  10.026  0.9742  0.1657 -0.9628
  941MPD2    H213817   2.751   1.990   9.957 -0.6860 -0.3222  0.3238
  941MPD2    H313818   2.590   1.822  10.022  0.8497  0.0548  0.3246
  941MPD2     N13819   2.884   1.488  10.018  0.1591  0.6322  0.2440
  941MPD2    H513820   2.807   1.421  10.017  0.9213 -0.2341 -0.4215
  941MPD2    N113821   3.037   1.939   9.941  0.4787  0.0284  0.0667
  941MPD2    H713822   3.128   1.893   9.941  0.0036 -0.8910 -2.4902
  942MPD2     C13823   2.307   3.927   9.593  0.0924 -0.0339 -0.0600
  942MPD2    C113824   2.291   3.974   9.466  0.6196  0.1729 -0.0519
  942MPD2    C213825   2.390   3.965   9.370 -0.3671  0.0468  0.0722
  942MPD2    C313826   2.517   3.914   9.401 -0.1188  0.0767  0.2486
  942MPD2    C413827   2.537   3.874   9.530  0.0216 -0.3161 -0.1997
  942MPD2    C513828   2.433   3.874   9.624  1.1080  0.3807 -0.5921
  942MPD2     H13829   2.373   4.000   9.268  2.6436  0.8485 -0.1480
  942MPD2    H113830   2.634   3.834   9.559  0.3854  1.0554  0.4556
  942MPD2    H213831   2.231   3.941   9.670 -0.2513 -2.0958 -0.0179
  942MPD2    H313832   2.451   3.838   9.724 -1.2703 -1.5787 -0.8676
  942MPD2     N13833   2.622   3.896   9.318 -0.2537 -0.1706 -0.0203
  942MPD2    H513834   2.712   3.870   9.358  0.0278  0.4255 -0.2743
  942MPD2    N113835   2.174   4.048   9.433 -0.6732 -0.9293 -0.1010
  942MPD2    H713836   2.174   4.115   9.357 -2.7727 -1.0170 -0.1597
  943MPD2     C13837   1.272   1.918   9.884  0.0096  0.7660  0.4197
  943MPD2    C113838   1.320   1.785   9.912  0.2188  0.3297  0.2411
  943MPD2    C213839   1.426   1.769   9.994 -0.2809  0.3792  0.0358
  943MPD2    C313840   1.483   1.879  10.069  0.1649  0.1077 -0.9725
  943MPD2    C413841   1.428   2.001  10.055 -0.0118 -0.0416  0.8046
  943MPD2    C513842   1.329   2.018   9.961 -0.1654 -0.0309  0.1657
  943MPD2     H13843   1.456   1.669  10.024 -1.6818 -0.0776 -0.0966
  943MPD2    H113844   1.472   2.086  10.107  1.3026  0.1560 -0.6410
  943MPD2    H213845   1.198   1.948   9.810  0.2224  0.5979  0.1409
  943MPD2    H313846   1.288   2.116   9.943  0.4767 -0.1792 -2.1667
  943MPD2     N13847   1.582   1.864  10.165  0.0240  0.3645 -0.1402
  943MPD2    H513848   1.599   1.948  10.220 -1.4075  0.7252 -0.2285
  943MPD2    N113849   1.262   1.675   9.850 -0.0297 -0.4739  0.2029
  943MPD2    H713850   1.193   1.699   9.779 -3.1604 -1.5834  2.8764
  944MPD2     C13851   1.631   1.060  10.923 -0.7116  0.8832  0.4398
  944MPD2    C113852   1.641   0.982  11.035  0.3677 -0.2456 -0.2430
  944MPD2    C213853   1.557   1.018  11.143 -0.3802 -0.2274 -0.8431
  944MPD2    C313854   1.453   1.109  11.131  0.7654  0.5061  0.4411
  944MPD2    C413855   1.439   1.175  11.007 -0.2630 -0.7246 -0.1622
  944MPD2    C513856   1.532   1.150  10.909 -0.4310 -0.1244  0.4217
  944MPD2     H13857   1.570   0.972  11.240 -2.2806 -2.8749 -1.8636
  944MPD2    H113858   1.362   1.248  10.983 -1.3839 -1.5989  0.7669
  944MPD2    H213859   1.694   1.036  10.838 -0.6490  0.8099  0.5058
  944MPD2    H313860   1.526   1.191  10.810  1.4353 -1.1710 -0.1338
  944MPD2     N13861   1.355   1.115  11.235 -0.5318 -0.1962  0.5487
  944MPD2    H513862   1.357   1.054  11.316 -2.1693  0.2372  0.9055
  944MPD2    N113863   1.737   0.878  11.056 -0.4478  0.4794 -0.2553
  944MPD2    H713864   1.725   0.825  11.141  1.7948  1.0024  0.3857
    1TMC1    C113865   0.249   1.218  14.367  0.5106  0.0333  1.1449
    1TMC1    C213866   0.224   1.084  14.401  0.1628 -1.1029  0.7830
    1TMC1    C313867   0.178   1.012  14.300 -0.3991 -0.1599  0.1776
    1TMC1    C413868   0.222   1.283  14.250 -0.1969 -0.5007 -0.0252
    1TMC1    C513869   0.172   1.198  14.152  0.4924  0.7230 -0.1575
    1TMC1    C613870   0.150   1.061  14.175  0.0749 -0.7437 -0.1555
    1TMC1     C13871   0.326   1.289  14.467  0.1440 -0.7061  0.4024
    1TMC1     O13872   0.378   1.212  14.546  0.1878  0.0798 -0.4774
    1TMC1     H13873   0.241   1.034  14.496  0.2316 -1.6461  0.4844
    1TMC1    H113874   0.255   1.383  14.227  0.0394 -0.5811 -0.0415
    1TMC1    H213875   0.120   0.988  14.100 -1.3929  1.4975 -1.7646
    1TMC1    C713876   0.128   1.260  14.021 -0.0873  0.2202  0.5780
    1TMC1    C813877   0.170   0.865  14.311  0.4027 -0.4216 -0.6205
    1TMC1    O113878   0.096   1.376  13.999 -0.2801  0.0889  0.2225
    1TMC1    O213879   0.082   0.803  14.255  0.4281 -0.8155 -0.2377
    1TMC1    O313880   0.151   1.160  13.935 -0.3194 -0.2001 -0.0231
    1TMC1    H313881   0.210   1.089  13.969 -0.1915  0.1897  0.5732
    1TMC1    O513882   0.282   0.813  14.368  0.3155 -0.3225  0.1664
    1TMC1    H513883   0.351   0.876  14.397  0.0335 -0.5509  1.3302
    2MPD2     C13884   0.451   1.642  14.788  0.4833 -0.1989 -0.1706
    2MPD2    C113885   0.352   1.697  14.715  0.2149 -0.2275 -0.3947
    2MPD2    C213886   0.316   1.632  14.599 -0.5206  0.3243 -0.9601
    2MPD2    C313887   0.372   1.506  14.577 -0.3626  0.3508  0.1107
    2MPD2    C413888   0.483   1.455  14.646  0.3613  0.2191  0.6963
    2MPD2    C513889   0.519   1.530  14.759  0.1811 -0.4324 -0.2376
    2MPD2     H13890   0.241   1.673  14.533 -2.3182  0.2880  1.0544
    2MPD2    H113891   0.532   1.361  14.623  0.9155  0.7241 -0.2142
    2MPD2    H213892   0.490   1.698  14.872  1.2827 -2.6636  1.1170
    2MPD2    H313893   0.593   1.487  14.826  3.0237  1.9485 -1.8738
    2MPD2     N13894   0.306   1.428  14.482 -0.8973  0.3845 -0.2465
    2MPD2    H513895   0.230   1.470  14.429  1.4127  0.4638 -3.4815
    2MPD2    N113896   0.281   1.817  14.757  0.5418 -0.3560 -0.9205
    2MPD2    H713897   0.314   1.860  14.842 -0.3126  0.1584 -0.8464
    3TMC2    C113898   0.154   2.019  14.744  0.2241 -0.0414 -0.2936
    3TMC2    C213899   0.164   2.024  14.880  0.5402 -0.1273  0.4214
    3TMC2    C313900   0.168   2.154  14.929  0.2536 -0.5054  0.9214
    3TMC2    C413901   0.133   2.130  14.664  0.7527 -0.0265  0.0505
    3TMC2    C513902   0.142   2.255  14.727 -0.0579  0.3167 -0.5849
    3TMC2    C613903   0.154   2.271  14.862  0.3117 -0.1476 -0.0451
    3TMC2     C13904   0.188   1.895  14.684  0.2015  0.1014 -0.3383
    3TMC2     O13905   0.162   1.882  14.567 -0.2918  0.6502  0.1371
    3TMC2     H13906   0.187   1.946  14.952  1.5117  0.6515  0.9498
    3TMC2    H113907   0.120   2.111  14.558  1.1873 -1.4041  0.2428
    3TMC2    H213908   0.164   2.367  14.911  0.0040  0.9476 -2.1260
    3TMC2    C713909   0.172   2.378  14.652 -0.6538 -0.3530  0.2254
    3TMC2    C813910   0.178   2.161  15.070  0.0998  0.0362 -0.2154
    3TMC2    O113911   0.251   2.456  14.704 -0.1010  0.4922 -0.1686
    3TMC2    O213912   0.154   2.071  15.150  0.0841 -0.5460 -0.5434
    3TMC2    O513913   0.287   2.233  15.078 -0.4498 -0.1825  0.0425
    3TMC2    H513914   0.323   2.269  14.994 -1.3968  0.0088 -0.2754
    4TMC2    C113915   4.385   2.688  13.854 -0.6247 -0.3618  0.6529
    4TMC2    C213916   4.411   2.634  13.731 -1.0336 -0.3520  0.7236
    4TMC2    C313917   4.489   2.519  13.731  0.8089 -0.0212  0.0463
    4TMC2    C413918   4.421   2.621  13.973  0.0509 -0.4480 -0.6348
    4TMC2    C513919   4.484   2.506  13.969 -0.2846  0.6134  0.2405
    4TMC2    C613920   4.536   2.463  13.849 -0.2409  0.4184  0.5377
    4TMC2     C13921   4.302   2.812  13.856  0.3810  0.0915  0.3034
    4TMC2     O13922   4.296   2.870  13.963 -0.5514  0.5596 -0.1623
    4TMC2     H13923   4.413   2.692  13.640 -1.8457 -2.6615 -0.7521
    4TMC2    H113924   4.380   2.658  14.067 -1.9519 -0.7475 -1.3961
    4TMC2    H213925   4.577   2.363  13.849 -0.9836  0.1076  1.0682
    4TMC2    C713926   4.564   2.472  14.079  0.6212 -0.1478  0.8193
    4TMC2    C813927   4.537   2.466  13.604 -0.5470  0.1571 -0.5119
    4TMC2    O113928   4.602   2.361  14.092 -0.3515 -0.0987 -0.0021
    4TMC2    O213929   4.638   2.395  13.592 -0.1774 -0.6415  0.6701
    4TMC2    O513930   4.446   2.491  13.505  0.2686  0.4062  0.7915
    4TMC2    H513931   4.365   2.541  13.529 -1.2713 -1.0910 -1.2634
    5MPD2     C13932   3.956   3.122  13.625  0.5776 -0.1612  0.0104
    5MPD2    C113933   3.981   3.016  13.549 -0.1399 -0.6564  0.1432
    5MPD2    C213934   4.075   2.921  13.588  0.4703  0.5384  0.1272
    5MPD2    C313935   4.136   2.935  13.721 -0.4475  0.3369 -0.0175
    5MPD2    C413936   4.096   3.043  13.800  0.4209  0.3157 -0.2582
    5MPD2    C513937   4.016   3.143  13.749  0.3703 -0.9779  0.2517
    5MPD2     H13938   4.090   2.834  13.525 -1.1504  1.9327 -2.1578
    5MPD2    H113939   4.132   3.053  13.901 -0.4078 -0.9436  0.1653
    5MPD2    H213940   3.881   3.197  13.600  1.2948  1.0309  1.4282
    5MPD2    H313941   3.987   3.224  13.814 -2.8853 -1.2485 -0.8685
    5MPD2     N13942   4.224   2.827  13.749 -0.1446 -0.1700  0.1964
    5MPD2    H513943   4.233   2.758  13.675  0.2083 -1.0371  1.0485
    5MPD2    N113944   3.897   3.002  13.436 -0.1957  0.8014 -0.3082
    5MPD2    H713945   3.813   3.059  13.429 -1.8471 -1.2016  3.1813
    6MPD1     C13946   3.072   4.454  13.220  0.2122  0.5111  0.8180
    6MPD1    C113947   3.098   4.427  13.094 -0.4164  0.8998 -0.2983
    6MPD1    C213948   3.143   4.297  13.059  0.1656 -0.3134 -0.3372
    6MPD1    C313949   3.134   4.197  13.154  0.6568  0.0929 -0.4464
    6MPD1    C413950   3.088   4.219  13.279  0.0282  0.1371  0.2592
    6MPD1    C513951   3.058   4.351  13.305  0.6943  0.2844 -0.2042
    6MPD1     H13952   3.200   4.285  12.968 -1.8707 -0.3428 -1.6203
    6MPD1    H113953   3.089   4.149  13.363  1.6537  2.7970  2.4884
    6MPD1    H213954   3.061   4.558  13.249  2.7024  1.6713 -2.5088
    6MPD1    H313955   3.030   4.381  13.405 -0.4567 -0.3349 -0.3414
    6MPD1     N13956   3.175   4.067  13.124  0.1379  0.1185  0.0390
    6MPD1    H513957   3.183   4.002  13.202 -0.6620 -3.4113 -2.7874
    6MPD1    N113958   3.125   4.534  13.005  0.2125 -0.4692 -0.4219
    6MPD1    H613959   3.063   4.613  13.019  1.7958  0.8191 -0.7087
    6MPD1    H713960   3.125   4.509  12.906 -0.1207  1.2018 -0.8348
    7MPD2     C13961   3.198   3.385  13.383  0.6458 -0.2281 -0.5517
    7MPD2    C113962   3.246   3.366  13.254 -0.1849  0.1638 -0.1868
    7MPD2    C213963   3.331   3.270  13.225  0.1298 -0.0021 -0.2717
    7MPD2    C313964   3.362   3.171  13.321 -0.0782 -0.1148  0.0645
    7MPD2    C413965   3.316   3.188  13.447  0.2767  0.0954  0.3933
    7MPD2    C513966   3.240   3.294  13.479 -0.3485 -0.0065 -0.1839
    7MPD2     H13967   3.385   3.260  13.132 -0.0692 -1.4375 -0.2359
    7MPD2    H113968   3.349   3.120  13.526 -1.8426 -1.8561 -0.4074
    7MPD2    H213969   3.123   3.462  13.400 -0.3721 -1.6112  1.2588
    7MPD2    H313970   3.194   3.287  13.577 -2.8511  1.3367 -1.2559
    7MPD2     N13971   3.451   3.055  13.290  0.2525 -0.1028 -0.3974
    7MPD2    H513972   3.469   2.999  13.372  0.0833  2.7284  1.5680
    7MPD2    N113973   3.214   3.453  13.152  0.3403 -0.5588 -0.0538
    7MPD2    H713974   3.239   3.412  13.062  2.5344  0.2624  0.2049
    8TMC3    C113975   3.599   2.923  13.164  0.3290  0.5148 -0.0375
    8TMC3    C213976   3.691   2.930  13.264  0.4669  0.5252  0.0826
    8TMC3    C313977   3.822   2.911  13.228  0.8258  0.0711  0.2814
    8TMC3    C413978   3.632   2.892  13.034  0.4805  0.0696 -0.4503
    8TMC3    C513979   3.766   2.888  13.004  0.2786 -0.1738 -0.1288
    8TMC3    C613980   3.861   2.883  13.101 -0.3289 -0.4491 -0.2256
    8TMC3     C13981   3.486   3.014  13.167  0.2057 -0.0615 -0.7919
    8TMC3     O13982   3.450   3.056  13.058 -0.3508  1.0082  0.0493
    8TMC3     H13983   3.667   2.977  13.358 -0.1701 -1.2041  0.7687
    8TMC3    H113984   3.553   2.879  12.961  0.0988 -0.4051  0.0524
    8TMC3    H213985   3.966   2.861  13.083 -0.7211 -0.9005 -1.9017
    8TMC3    C713986   3.794   2.986  12.901  0.3050 -0.0875 -0.9856
    8TMC3    C813987   3.924   2.914  13.336  0.2636 -0.1884 -0.2198
    8TMC3    O113988   3.906   2.991  12.853 -0.4845  0.1511  0.0874
    8TMC3    O213989   4.026   2.847  13.322  0.0744 -0.1894 -0.0635
    9TMC3    C113990   3.240   3.882  12.992  0.0736  0.0824  0.5732
    9TMC3    C213991   3.338   3.838  12.899  0.9985 -0.0671 -0.5372
    9TMC3    C313992   3.343   3.698  12.878 -0.5085  0.2202 -0.6517
    9TMC3    C413993   3.166   3.795  13.068 -0.9848  0.0642 -0.0765
    9TMC3    C513994   3.178   3.660  13.052 -0.1298 -0.4847  0.9105
    9TMC3    C613995   3.263   3.613  12.948 -0.7121 -0.3697  0.3818
    9TMC3     C13996   3.212   4.020  12.997 -0.1246 -0.4782  0.3135
    9TMC3     O13997   3.223   4.076  12.888  0.2131 -0.1028 -0.3598
    9TMC3     H13998   3.388   3.915  12.841 -2.9812  2.3136 -0.8093
    9TMC3    H113999   3.080   3.831  13.125 -0.7241 -0.7341  0.8084
    9TMC3    H214000   3.265   3.505  12.939  1.6339 -0.4038  1.1466
    9TMC3    C714001   3.167   3.580  13.170 -0.0140  0.6463  0.1118
    9TMC3    C814002   3.465   3.648  12.831 -0.5379  0.7763 -0.0959
    9TMC3    O114003   3.141   3.651  13.268 -0.3099  0.3437 -0.6690
    9TMC3    O214004   3.542   3.720  12.762 -0.1866  0.2183  0.4786
   10MPD2     C14005   3.823   3.273  12.790  0.3883  0.6268 -0.1617
   10MPD2    C114006   3.705   3.219  12.847 -0.2992 -0.1750  0.5749
   10MPD2    C214007   3.596   3.298  12.867 -0.4963 -0.4213  0.3131
   10MPD2    C314008   3.604   3.436  12.837 -0.0220  0.0098  0.2938
   10MPD2    C414009   3.718   3.483  12.785 -0.3778 -0.0376  0.2856
   10MPD2    C514010   3.822   3.405  12.752 -0.6390 -0.0669 -0.5631
   10MPD2     H14011   3.507   3.254  12.911 -1.1203  1.4231  0.9002
   10MPD2    H114012   3.732   3.589  12.767 -0.4970 -0.1738 -0.6325
   10MPD2    H214013   3.909   3.208  12.775  0.0944  0.4803 -1.2073
   10MPD2    H314014   3.895   3.449  12.685  0.7573  0.6141  1.3719
   10MPD2     N14015   3.486   3.513  12.866  0.1440  0.2455 -0.4743
   10MPD2    H514016   3.408   3.463  12.907  1.9713 -0.9019  1.5845
   10MPD2    N114017   3.696   3.087  12.898  0.2789 -0.3550  0.1096
   10MPD2    H714018   3.606   3.067  12.940  0.1980  0.4297  0.3144
   11MPD2     C14019   0.175   2.604  14.445  0.5247 -0.3730 -0.5790
   11MPD2    C114020   0.089   2.495  14.438 -0.3417  0.4813  0.6346
   11MPD2    C214021   0.017   2.480  14.321 -0.1503 -0.3008  0.7560
   11MPD2    C314022   4.728   2.582  14.235 -0.1153 -0.3185 -0.2342
   11MPD2    C414023   0.069   2.696  14.258 -0.4022 -0.2493 -0.1919
   11MPD2    C514024   0.163   2.704  14.350 -0.1124  0.2250 -0.2428
   11MPD2     H14025   4.687   2.390  14.305  1.1341 -0.9737 -0.2101
   11MPD2    H114026   0.039   2.780  14.197  0.8673 -0.3949 -1.0128
   11MPD2    H214027   0.249   2.619  14.523 -0.5741  0.6222  0.2844
   11MPD2    H314028   0.212   2.800  14.362 -1.3370  0.6421  1.4434
   11MPD2     N14029   4.637   2.583  14.125 -0.9886  0.0751  0.1297
   11MPD2    H514030   4.627   2.675  14.083 -1.0236 -0.1972 -0.4594
   11MPD2    N114031   0.095   2.390  14.535  0.8325 -0.5410 -0.2983
   11MPD2    H714032   0.043   2.306  14.515  0.0538 -0.3095  0.8100
    1MPD1     C14033   3.800   0.122  16.840  0.0127  0.8703  0.4925
    1MPD1    C114034   3.927   0.094  16.885  0.3130  0.6383 -0.5301
    1MPD1    C214035   3.947   4.702  16.961  0.0229 -0.3699 -0.0002
    1MPD1    C314036   3.843   4.604  16.968 -0.2128  0.0787  0.2476
    1MPD1    C414037   3.719   4.638  16.920  0.9183 -0.2536 -0.5805
    1MPD1    C514038   3.698   0.026  16.853  0.1685  0.8181  0.0914
    1MPD1     H14039   4.046   4.687  17.002 -0.5221  0.1757  1.4886
    1MPD1    H114040   3.634   4.570  16.924  1.9091 -1.5107 -0.9605
    1MPD1    H214041   3.780   0.209  16.778 -0.6441  0.1049 -0.3614
    1MPD1    H314042   3.598   0.053  16.822  1.0644  2.0568 -1.6959
    1MPD1     N14043   3.848   4.478  17.032  0.4543 -0.1453 -0.3207
    1MPD1    H514044   3.769   4.415  17.023 -0.4125  0.8419  0.4094
    1MPD1    N114045   4.021   0.199  16.890  0.3564 -0.5447 -0.5317
    1MPD1    H614046   4.109   0.149  16.882  0.9044 -0.1238  2.9783
    1MPD1    H714047   4.009   0.260  16.809 -0.2831 -0.8173 -0.6421
    2MPD1     C14048   3.738   3.502  16.867  0.4287  0.0134  0.5238
    2MPD1    C114049   3.816   3.507  16.987  0.2909  0.1605 -0.5670
    2MPD1    C214050   3.813   3.628  17.055  0.5496  0.6038 -0.2719
    2MPD1    C314051   3.773   3.742  16.992  0.3716 -1.0979 -0.0925
    2MPD1    C414052   3.710   3.747  16.877  0.8148 -0.2556 -0.3504
    2MPD1    C514053   3.686   3.619  16.817  0.4293 -0.1949 -1.4311
    2MPD1     H14054   3.845   3.634  17.159 -0.5783  1.3444  0.0303
    2MPD1    H114055   3.671   3.836  16.828  1.3545  0.1256 -0.0886
    2MPD1    H214056   3.716   3.407  16.820 -2.0815  1.1127 -0.5380
    2MPD1    H314057   3.637   3.622  16.720 -0.7828 -0.9092 -0.8347
    2MPD1     N14058   3.810   3.860  17.058 -0.1770  0.0859  0.2536
    2MPD1    H514059   3.855   3.862  17.149  0.3994  2.9064 -0.1153
    2MPD1    N114060   3.868   3.390  17.051 -0.5433  0.6595 -0.0382
    2MPD1    H614061   3.932   3.406  17.128 -0.7131  2.1203 -0.2078
    2MPD1    H714062   3.893   3.313  16.990 -1.3138  1.5405 -1.4706
    3TMC3    C114063   3.840   4.086  17.109  0.2833 -0.1748  0.1301
    3TMC3    C214064   3.885   4.035  17.231  0.2988 -0.3110  0.4747
    3TMC3    C314065   3.973   4.117  17.296  0.2387 -0.0213 -0.2801
    3TMC3    C414066   3.877   4.206  17.062 -0.2013 -0.2868  0.0105
    3TMC3    C514067   3.951   4.288  17.138 -0.6199  0.6494  0.0191
    3TMC3    C614068   4.008   4.243  17.253 -0.0838 -0.1865  0.0821
    3TMC3     C14069   3.775   3.993  17.019  0.9771 -0.2987  0.2729
    3TMC3     O14070   3.728   4.028  16.912 -0.0989  0.4040  0.2746
    3TMC3     H14071   3.862   3.942  17.282 -0.0951 -0.2849  0.3441
    3TMC3    H114072   3.853   4.241  16.962  2.8822 -0.2203 -0.6999
    3TMC3    H214073   4.083   4.295  17.310  1.2894 -0.9549 -1.0339
    3TMC3    C714074   3.953   4.431  17.110  0.2559 -0.4557 -0.3440
    3TMC3    C814075   4.032   4.063  17.417  0.1043 -1.1857  0.1726
    3TMC3    O114076   4.057   4.490  17.150 -0.1051  0.2196  0.0317
    3TMC3    O214077   3.965   3.977  17.476 -0.2978  0.5775 -0.0014
    4MPD1     C14078   4.417   4.004   0.040  0.0506 -0.6523 -0.0945
    4MPD1    C114079   4.471   4.051  17.643  0.8643  0.1361  0.3970
    4MPD1    C214080   4.387   4.093  17.540 -0.4069 -0.4819 -0.8075
    4MPD1    C314081   4.249   4.067  17.551 -0.1306  0.2826  0.3858
    4MPD1    C414082   4.199   4.001  17.664 -0.1187 -0.1929 -0.1359
    4MPD1    C514083   4.284   3.974   0.054  0.0776 -0.5716 -0.3438
    4MPD1     H14084   4.419   4.135  17.446  1.0741  1.0418  0.3754
    4MPD1    H114085   4.097   3.966  17.677  0.0650  0.2185  2.3367
    4MPD1    H214086   4.481   3.971   0.121 -0.5141  0.3345  0.7477
    4MPD1    H314087   4.249   3.919   0.141  0.2192  0.4069  0.3414
    4MPD1     N14088   4.168   4.103  17.438 -0.2956 -0.4104  0.1650
    4MPD1    H514089   4.214   4.163  17.371  0.5502 -1.4088 -0.1402
    4MPD1    N114090   4.601   4.083  17.649 -0.4127 -0.5449 -0.3672
    4MPD1    H614091   4.638   4.114  17.559 -0.7045 -1.8210 -0.9333
    4MPD1    H714092   4.655   4.011  17.695  3.2695  0.4851 -3.0580
    1TCq1    O114093   1.491   3.447   9.957  0.2205 -0.3197  1.0224
    1TCq1    C114094   1.409   3.442   9.852  0.3680 -1.0422 -0.5142
    1TCq1    O214095   1.400   3.529   9.771  0.7842 -0.1610  0.1217
    1TCq1    C214096   1.396   3.298   9.820 -0.3354  0.3629 -0.0863
    1TCq1    C314097   1.384   3.261   9.689 -0.5922 -0.5524  0.9981
    1TCq1    C414098   1.386   3.133   9.656  0.6751  0.2944 -0.7148
    1TCq1    C514099   1.359   3.039   9.751 -0.3544 -0.1242  0.2365
    1TCq1    C614100   1.357   3.074   9.881 -0.8830  0.7316  0.1759
    1TCq1    C714101   1.375   3.206   9.917 -0.4621  0.2635  0.2922
    1TCq1    C814102   1.334   2.969   9.983  0.2250 -0.1104  0.0995
    1TCq1    O414103   1.274   2.875   9.940  0.4950 -0.2835  0.2487
    1TCq1    C914104   1.371   3.092   9.516  0.1005 -0.4358 -0.5836
    1TCq1    O514105   1.324   3.183   9.443 -0.2737  0.4066  0.3880
    1TCq1    O614106   1.383   2.970   9.490 -0.2497  0.3044  0.1255
    1TCq1    H114107   1.518   3.365  10.003  0.8955  0.4448  1.9775
    1TCq1    H214108   1.423   3.329   9.614 -2.5373  2.8270  3.0927
    1TCq1    H314109   1.327   2.941   9.716  1.7967 -0.5689 -0.5068
    1TCq1    H414110   1.371   3.238  10.021 -0.5951 -1.7649  0.9139
    2MPD1     C14111   1.448   2.721  10.423  0.2822  0.2200 -0.3764
    2MPD1    C114112   1.508   2.841  10.423 -0.0039  0.0869 -0.0703
    2MPD1    C214113   1.480   2.931  10.324 -0.1894 -0.2869 -0.3019
    2MPD1    C314114   1.401   2.898  10.216  0.6307  0.4722  0.0826
    2MPD1    C414115   1.340   2.773  10.217  0.1772 -0.2250 -0.3215
    2MPD1    C514116   1.372   2.679  10.315 -0.1145  0.2086 -0.6193
    2MPD1     H14117   1.508   3.034  10.340  2.9109 -1.2634  0.5253
    2MPD1    H114118   1.280   2.733  10.136  1.0428  1.1071 -1.6182
    2MPD1    H214119   1.458   2.655  10.509  0.8015  2.1142  1.0385
    2MPD1    H314120   1.318   2.585  10.319 -1.6570  1.0099 -2.8475
    2MPD1     N14121   1.395   2.990  10.105  0.1884 -0.1001 -0.5192
    2MPD1    H514122   1.458   3.070  10.111  0.0051 -0.1090  1.3893
    2MPD1    N114123   1.578   2.884  10.536 -0.1840  0.3780 -0.3379
    2MPD1    H614124   1.658   2.941  10.511 -0.8432  0.4192 -2.3844
    2MPD1    H714125   1.618   2.803  10.584  0.3526 -0.4862 -2.2411
    1TMC1    C114126   3.353   4.380   0.942 -0.2364 -0.1452 -0.4792
    1TMC1    C214127   3.334   4.444   1.058 -0.3114 -0.2174  0.1667
    1TMC1    C314128   3.439   4.457   1.144  0.3550  0.6725 -0.6106
    1TMC1    C414129   3.475   4.322   0.908  0.2007  0.2640  0.1695
    1TMC1    C514130   3.570   4.332   1.003 -0.1118  0.3046 -0.4236
    1TMC1    C614131   3.556   4.394   1.123 -0.1776 -0.7425 -0.0870
    1TMC1     C14132   3.239   4.347   0.857 -0.6005 -0.2475  0.2509
    1TMC1     O14133   3.260   4.300   0.745 -0.6140 -0.1080  0.3839
    1TMC1     H14134   3.238   4.484   1.086 -1.7577 -0.9850 -3.6620
    1TMC1    H114135   3.485   4.252   0.826  1.2630 -1.5251  1.8596
    1TMC1    H214136   3.626   4.399   1.205  1.6430  0.9376 -1.7385
    1TMC1    C714137   3.701   4.272   0.979 -0.3139  0.3446  0.1701
    1TMC1    C814138   3.449   4.559   1.246 -1.0783 -0.0045 -0.4706
    1TMC1    O114139   3.746   4.274   0.862  0.2882  0.4863 -0.0998
    1TMC1    O214140   3.492   4.552   1.361  0.2986  0.1561 -0.4758
    1TMC1    O314141   3.758   4.227   1.093  0.0024 -0.8732 -0.4934
    1TMC1    H314142   3.697   4.227   1.170 -0.4950  2.2241 -0.8857
    1TMC1    O514143   3.389   4.668   1.192 -0.3948 -0.2193 -0.0673
    1TMC1    H514144   3.368   4.654   1.097 -0.2206  0.4122 -0.1993
    2MPD1     C14145   2.734   4.353   0.729  0.2350 -1.4722  0.0612
    2MPD1    C114146   2.742   4.358   0.870  0.4599 -0.2784  0.1899
    2MPD1    C214147   2.869   4.350   0.929  0.2619 -0.1084 -1.0011
    2MPD1    C314148   2.988   4.344   0.853  0.3342  0.2180 -0.5052
    2MPD1    C414149   2.974   4.357   0.717 -0.8468  0.0966 -0.4137
    2MPD1    C514150   2.846   4.347   0.654 -0.1128 -0.7903  0.8233
    2MPD1     H14151   2.874   4.339   1.037  2.4673  1.1840 -0.9565
    2MPD1    H114152   3.057   4.353   0.647 -0.5800  0.2652 -0.1090
    2MPD1    H214153   2.638   4.350   0.679  0.9160  0.1693 -1.3387
    2MPD1    H314154   2.844   4.339   0.545  1.7088 -0.8964  0.7999
    2MPD1     N14155   3.116   4.361   0.917  0.0239 -0.7384  0.2689
    2MPD1    H514156   3.112   4.370   1.018 -1.1775 -2.3506  0.3708
    2MPD1    N114157   2.633   4.331   0.954  0.2894 -0.0085 -0.4158
    2MPD1    H614158   2.549   4.381   0.926  0.3617 -0.0954 -0.7831
    2MPD1    H714159   2.653   4.339   1.053  1.5199  0.3754 -0.6959
    1MPD1     C14160   4.146   2.978  12.445 -0.3863 -0.0442  0.2132
    1MPD1    C114161   4.204   2.976  12.571  0.4273 -0.1896  0.2683
    1MPD1    C214162   4.329   2.922  12.596 -0.2688 -1.1855  0.8845
    1MPD1    C314163   4.397   2.867  12.488 -0.1637  0.5388  0.4846
    1MPD1    C414164   4.333   2.855  12.365 -0.4580  0.6708 -0.1594
    1MPD1    C514165   4.214   2.914  12.346  0.2604  0.8895  0.2901
    1MPD1     H14166   4.378   2.924  12.693  0.3712  0.6021  0.5229
    1MPD1    H114167   4.383   2.830  12.271 -1.1138 -1.0106 -0.0528
    1MPD1    H214168   4.053   3.027  12.420  0.0732  0.2755 -0.8713
    1MPD1    H314169   4.164   2.903  12.250  2.3002  0.3057 -0.7068
    1MPD1     N14170   4.526   2.814  12.519  0.3318 -0.1671  0.0378
    1MPD1    H514171   4.567   2.832  12.610  0.5239  0.7594 -0.2302
    1MPD1    N114172   4.150   3.070  12.665  0.8113 -0.0717 -0.5440
    1MPD1    H614173   4.049   3.074  12.662  0.8846  3.4806  1.2422
    1MPD1    H714174   4.180   3.040  12.757  0.5946  0.0487 -0.4355
    2MPD1     C14175   4.334   3.665  12.230  0.2031 -0.2651  0.4306
    2MPD1    C114176   4.290   3.672  12.096  1.0078  0.6681  0.3587
    2MPD1    C214177   4.364   3.629  11.992 -0.1818  0.4059 -0.2797
    2MPD1    C314178   4.484   3.559  12.021 -0.0589 -0.3808  0.4527
    2MPD1    C414179   4.514   3.536  12.156 -0.1659  0.1258  0.3492
    2MPD1    C514180   4.442   3.592  12.257  0.5731  0.6138 -0.1539
    2MPD1     H14181   4.321   3.633  11.893 -1.3935  0.2417  0.2293
    2MPD1    H114182   4.606   3.486  12.185 -1.0648 -2.1516 -0.7109
    2MPD1    H214183   4.288   3.713  12.315 -2.4598 -0.7466 -0.7388
    2MPD1    H314184   4.476   3.561  12.355  0.0253 -1.6261 -0.6639
    2MPD1     N14185   4.572   3.500  11.928  0.5229 -0.5918 -0.6043
    2MPD1    H514186   4.641   3.435  11.965 -1.8446 -2.5298  0.4290
    2MPD1    N114187   4.171   3.752  12.076  0.0246  0.0772  0.1156
    2MPD1    H614188   4.096   3.741  12.144 -0.7155  1.2415 -0.5043
    2MPD1    H714189   4.132   3.734  11.984  0.1758  0.5689 -0.0499
    3MPD1     C14190   4.512   3.050  11.016  0.4158 -0.9410  0.3444
    3MPD1    C114191   4.469   3.006  11.140 -0.3943  0.3823  0.1493
    3MPD1    C214192   4.492   3.090  11.251 -0.2725  0.0887 -0.2976
    3MPD1    C314193   4.581   3.196  11.239  0.4480 -0.3585 -0.5050
    3MPD1    C414194   4.633   3.233  11.115  0.2250  0.2082  0.0494
    3MPD1    C514195   4.582   3.170  11.002 -0.2561 -0.4847 -0.0607
    3MPD1     H14196   4.448   3.069  11.348 -0.2049  1.7218  0.0858
    3MPD1    H114197   4.694   3.319  11.092  1.4629 -0.5302  0.5879
    3MPD1    H214198   4.483   2.991  10.929 -1.7413  0.1727  0.3245
    3MPD1    H314199   4.624   3.200  10.906 -0.9527 -2.9630 -1.1503
    3MPD1     N14200   4.616   3.261  11.360 -0.2025 -0.0408 -0.3115
    3MPD1    H514201   4.570   3.225  11.443  0.2098  1.3380  0.5114
    3MPD1    N114202   4.395   2.885  11.143 -0.0691  0.5641  0.4525
    3MPD1    H614203   4.440   2.820  11.079 -0.9578 -2.1838  2.6246
    3MPD1    H714204   4.379   2.848  11.236  0.7221  1.8894  1.1174
    4MPD2     C14205   0.379   3.234  12.689 -0.1031 -0.0391  0.1942
    4MPD2    C114206   0.412   3.125  12.614  0.3454  0.3379 -0.3313
    4MPD2    C214207   0.521   3.124  12.526  1.6592 -0.6435 -0.3312
    4MPD2    C314208   0.599   3.242  12.515  0.2023  0.5599  0.2020
    4MPD2    C414209   0.567   3.348  12.608 -0.2647 -0.5311 -0.2889
    4MPD2    C514210   0.458   3.346  12.693 -0.0470 -0.3081  0.4007
    4MPD2     H14211   0.529   3.037  12.462 -1.6874 -1.6608  0.6284
    4MPD2    H114212   0.628   3.438  12.609  0.7500 -1.2329  0.9267
    4MPD2    H214213   0.288   3.239  12.748 -0.3764 -0.3706 -0.2037
    4MPD2    H314214   0.439   3.427  12.762  2.4487 -0.7436  1.5955
    4MPD2     N14215   0.713   3.259  12.433  0.2019  0.0698  0.1528
    4MPD2    H514216   0.758   3.349  12.440  1.1169 -0.2776 -1.3981
    4MPD2    N114217   0.338   3.002  12.612  0.0564 -0.0030  0.3152
    4MPD2    H714218   0.372   2.931  12.547  1.6874  0.5080  0.6018
    5TMC3    C114219   0.172   2.851  12.636 -0.9562  0.0678  0.0920
    5TMC3    C214220   0.050   2.860  12.577 -0.6932 -0.0463 -0.2657
    5TMC3    C314221   0.029   2.792  12.462  0.1644  0.0457 -1.1469
    5TMC3    C414222   0.263   2.761  12.586 -0.0896 -1.0911 -1.1453
    5TMC3    C514223   0.248   2.684  12.474  0.5295  0.5625  0.3906
    5TMC3    C614224   0.130   2.712  12.411  0.3274 -0.0622 -0.1592
    5TMC3     C14225   0.226   2.969  12.687  0.5486 -0.1233  1.0945
    5TMC3     O14226   0.153   3.046  12.748 -0.1590  0.5523 -1.0801
    5TMC3     H14227   4.720   2.947  12.605 -0.3223 -0.2649  1.1683
    5TMC3    H114228   0.352   2.745  12.645 -1.7425 -3.1763  0.7942
    5TMC3    H214229   0.104   2.668  12.315  0.1843 -1.9999  0.7652
    5TMC3    C714230   0.364   2.717  12.388  0.0962  0.3774  0.1266
    5TMC3    C814231   4.615   2.779  12.420  0.2091 -0.1912 -0.0662
    5TMC3    O114232   0.430   2.811  12.429  0.9435 -0.1732 -0.4109
    5TMC3    O214233   4.588   2.714  12.318  0.0425  0.0306  0.4721
    6TMC3    C114234   4.653   3.448  11.722  0.4366  0.7001  0.1742
    6TMC3    C214235   4.620   3.418  11.595 -0.0621 -0.6370 -0.7312
    6TMC3    C314236   4.720   3.427  11.505  0.1565 -0.2884  0.5108
    6TMC3    C414237   0.041   3.508  11.756 -0.9793  0.2784 -0.5705
    6TMC3    C514238   0.139   3.513  11.661 -0.3001 -0.2602 -0.1435
    6TMC3    C614239   0.117   3.471  11.533  0.0137 -0.3865 -0.1046
    6TMC3     C14240   4.539   3.497  11.796 -0.5684  0.9168 -0.2899
    6TMC3     O14241   4.440   3.516  11.728  0.1969 -0.5172  0.3174
    6TMC3     H14242   4.523   3.385  11.558 -0.0517  0.2242 -1.5404
    6TMC3    H114243   0.056   3.540  11.859  0.9282  1.3687 -1.1879
    6TMC3    H214244   0.199   3.471  11.462  2.1167 -2.2884  2.2941
    6TMC3    C714245   0.273   3.517  11.711 -0.2238 -0.3623 -0.2367
    6TMC3    C814246   4.695   3.378  11.372 -0.4956  0.1668 -0.5986
    6TMC3    O114247   0.293   3.468  11.820  0.8062  0.4232  0.5690
    6TMC3    O214248   0.041   3.421  11.287 -0.5997  0.0280  0.2539
    7MPD2     C14249   0.683   2.682  12.001 -0.3006  0.2836  0.7185
    7MPD2    C114250   0.675   2.787  12.087 -0.1206  0.6712  0.4256
    7MPD2    C214251   0.581   2.768  12.186 -0.1080 -0.2733  0.3301
    7MPD2    C314252   0.502   2.655  12.192 -0.1931 -0.3090  0.5333
    7MPD2    C414253   0.521   2.549  12.111 -0.4837  0.4188 -0.2955
    7MPD2    C514254   0.602   2.567  12.006  0.1874  0.1730 -0.5511
    7MPD2     H14255   0.562   2.856  12.247  0.7574 -0.3736  0.7435
    7MPD2    H114256   0.462   2.459  12.125  0.0429  0.1503  0.1689
    7MPD2    H214257   0.762   2.686  11.926 -0.6043  1.3192  0.4436
    7MPD2    H314258   0.601   2.490  11.930 -0.7401  0.0329 -0.4006
    7MPD2     N14259   0.391   2.639  12.285  0.4754  0.5162 -0.4686
    7MPD2    H514260   0.320   2.566  12.277  1.3231 -0.2921 -0.5560
    7MPD2    N114261   0.759   2.900  12.098 -0.1897  0.6666 -0.3266
    7MPD2    H714262   0.759   2.951  12.186  0.0379  0.0812  0.0099
    8TMC3    C114263   0.891   3.079  12.044 -0.2043  0.3929 -0.4351
    8TMC3    C214264   0.837   3.184  11.970  0.3978 -0.2507  0.0820
    8TMC3    C314265   0.814   3.297  12.040  0.1358  0.2654 -0.1552
    8TMC3    C414266   0.907   3.089  12.183 -0.0380 -0.7449 -0.7293
    8TMC3    C514267   0.865   3.198  12.253 -0.1378  0.2336 -0.4379
    8TMC3    C614268   0.825   3.304  12.174 -0.2507 -0.4376  0.0127
    8TMC3     C14269   0.836   2.952  12.001  0.3863  0.6532 -0.0964
    8TMC3     O14270   0.845   2.925  11.881  0.3393 -0.7965 -0.0902
    8TMC3     H14271   0.810   3.173  11.866  0.1281 -0.4104  0.1700
    8TMC3    H114272   0.947   3.000  12.230 -1.3639 -1.3179 -0.6891
    8TMC3    H214273   0.774   3.386  12.224  0.7622  0.4926 -0.4901
    8TMC3    C714274   0.764   3.165  12.354  0.3579 -0.0432 -0.6787
    8TMC3    C814275   0.728   3.397  11.969 -0.3018 -0.0180 -0.1004
    8TMC3    O114276   0.725   3.045  12.349 -0.3264 -0.2679  0.4512
    8TMC3    O214277   0.655   3.471  12.035 -0.8152  0.2536  0.2799
    9MPD2     C14278   0.758   3.513  11.623 -0.1731 -0.2675  0.1986
    9MPD2    C114279   0.697   3.479  11.739 -0.0661 -0.4339  0.4426
    9MPD2    C214280   0.563   3.506  11.753 -0.2300 -0.2515 -0.3009
    9MPD2    C314281   0.504   3.574  11.646 -1.0410  0.4830  0.0404
    9MPD2    C414282   0.576   3.632  11.542 -0.5756 -0.1364  0.6330
    9MPD2    C514283   0.703   3.590  11.524  0.5119 -0.1127  0.2786
    9MPD2     H14284   0.509   3.470  11.840  0.4102 -1.5375 -0.4219
    9MPD2    H114285   0.520   3.676  11.461  0.0338 -1.5033 -0.5430
    9MPD2    H214286   0.849   3.454  11.621 -0.4515 -0.6513 -1.4703
    9MPD2    H314287   0.751   3.591  11.427  0.6102 -1.2629  0.3129
    9MPD2     N14288   0.362   3.579  11.630  0.2764  0.1425 -0.0329
    9MPD2    H514289   0.323   3.628  11.549  0.0487 -0.5661 -0.3511
    9MPD2    N114290   0.773   3.411  11.841 -0.1182 -0.6100 -0.4388
    9MPD2    H714291   0.855   3.359  11.811  1.3196  0.2730  1.9262
    1MPD1     C14292   4.527   3.111  15.447 -0.9439  0.5782 -0.6491
    1MPD1    C114293   4.461   2.995  15.477 -0.0482  0.0250 -0.2648
    1MPD1    C214294   4.459   2.892  15.385  0.1854  0.3269 -0.2323
    1MPD1    C314295   4.521   2.912  15.262  0.1565  0.0725 -0.2308
    1MPD1    C414296   4.570   3.034  15.235 -0.0883  0.3181  0.2243
    1MPD1    C514297   4.585   3.128  15.327 -0.1205 -0.6899 -0.3553
    1MPD1     H14298   4.424   2.797  15.425  1.4434  0.4212  1.1243
    1MPD1    H114299   4.616   3.065  15.141  0.1249  1.4430  0.7033
    1MPD1    H214300   4.528   3.178  15.533  0.6701 -1.6083  1.0481
    1MPD1    H314301   4.641   3.219  15.311 -2.1357  0.7418  0.6566
    1MPD1     N14302   4.514   2.818  15.152 -0.5679 -0.3129  0.0827
    1MPD1    H514303   4.560   2.845  15.065  0.5155 -2.0870  0.1002
    1MPD1    N114304   4.435   2.973  15.612 -0.1490 -0.2393 -0.4024
    1MPD1    H614305   4.378   2.889  15.617 -1.7783  0.8048 -1.8052
    1MPD1    H714306   4.387   3.057  15.642  0.4325  0.7773 -2.3352
    2TMC2    C114307   4.517   2.618  14.806  0.0189  0.6139  0.4048
    2TMC2    C214308   4.525   2.480  14.803 -1.1940 -0.1452 -0.3078
    2TMC2    C314309   4.470   2.419  14.917  0.8814  0.3181  0.1565
    2TMC2    C414310   4.485   2.695  14.917 -0.2653 -0.3391  0.0561
    2TMC2    C514311   4.445   2.625  15.029  0.2918 -0.1853  0.2055
    2TMC2    C614312   4.428   2.488  15.035 -0.2955 -0.7162  0.7295
    2TMC2     C14313   4.556   2.677  14.676  0.8456 -0.6556 -0.4670
    2TMC2     O14314   4.523   2.624  14.569 -0.4587 -0.0252  0.3182
    2TMC2     H14315   4.563   2.428  14.716 -0.3754 -2.2068  1.2883
    2TMC2    H114316   4.478   2.803  14.910 -0.8735 -0.3153  1.1018
    2TMC2    H214317   4.397   2.439  15.126 -1.8141  3.0372  2.2598
    2TMC2    C714318   4.456   2.692  15.157 -0.2102 -0.2826  0.3279
    2TMC2    C814319   4.510   2.284  14.931  0.6335  0.2480 -0.2709
    2TMC2    O114320   4.404   2.641  15.251  0.4894  0.0262  0.4408
    2TMC2    O214321   4.526   2.223  14.825  0.0465  0.4784 -0.7500
    2TMC2    O514322   4.586   2.264  15.040  0.2840 -0.6315 -0.4368
    2TMC2    H514323   4.581   2.335  15.107 -2.4673 -1.1897 -0.0582
    3MPD1     C14324   0.049   3.036  14.406  0.7281  0.4468  0.5002
    3MPD1    C114325   0.105   3.045  14.534 -0.1104 -0.7672  0.0807
    3MPD1    C214326   0.043   2.967  14.628  0.2863 -0.5853 -0.0089
    3MPD1    C314327   4.674   2.875  14.595 -0.1914 -0.0884 -0.1602
    3MPD1    C414328   4.620   2.872  14.468 -0.3263 -0.4196 -0.5828
    3MPD1    C514329   4.665   2.961  14.384  0.3241 -0.3915 -0.5858
    3MPD1     H14330   0.080   2.979  14.729  0.9696 -1.1071 -0.1948
    3MPD1    H114331   4.543   2.803  14.436 -0.8695  0.8672 -2.0347
    3MPD1    H214332   0.093   3.082  14.319 -0.2370  3.2160  1.4946
    3MPD1    H314333   4.618   2.957  14.287  1.7133  0.7814 -1.3120
    3MPD1     N14334   4.632   2.789  14.694 -0.1118 -0.4763  0.1258
    3MPD1    H514335   4.662   2.803  14.790 -0.3811 -1.7492  0.3962
    3MPD1    N114336   0.226   3.113  14.554  0.0915  0.2112  0.1793
    3MPD1    H614337   0.217   3.199  14.501 -1.3559  0.9912  1.6964
    3MPD1    H714338   0.241   3.150  14.648 -0.5998 -0.2968  0.4912
    1TMC1    C114339   3.040   1.847  12.859  0.8719 -0.3817 -0.2795
    1TMC1    C214340   2.971   1.893  12.746 -1.1191  0.3021  0.1264
    1TMC1    C314341   2.837   1.859  12.731  0.0269  0.2679  0.7235
    1TMC1    C414342   2.985   1.755  12.938  0.3938 -0.3685 -0.8460
    1TMC1    C514343   2.856   1.710  12.920 -0.1345 -0.4508 -0.4479
    1TMC1    C614344   2.778   1.771  12.826  0.1567  0.4394  0.3208
    1TMC1     C14345   3.167   1.908  12.876 -0.5020  0.1017 -0.4257
    1TMC1     O14346   3.225   1.954  12.776 -0.1139 -0.0466 -0.1264
    1TMC1     H14347   3.007   1.977  12.687 -0.5563 -0.3034 -0.3974
    1TMC1    H114348   3.049   1.696  13.003  0.3866 -0.6421 -1.0873
    1TMC1    H214349   2.673   1.743  12.820  0.5688 -1.2790  0.8530
    1TMC1    C714350   2.803   1.620  13.017  0.8064  0.7997  0.1237
    1TMC1    C814351   2.752   1.930  12.640 -0.1087 -0.0815  0.6420
    1TMC1    O114352   2.869   1.534  13.073  0.3774  0.1565 -0.4965
    1TMC1    O214353   2.667   1.875  12.565 -0.2763  0.5314  0.7117
    1TMC1    O314354   2.682   1.668  13.060 -0.6670  0.3182  0.0402
    1TMC1    H314355   2.677   1.764  13.040  1.7226  0.6311  0.9927
    1TMC1    O514356   2.775   2.061  12.644  0.4268 -0.0973 -0.5510
    1TMC1    H514357   2.819   2.089  12.727 -0.1086  2.1230 -1.0382
    2MPD2     C14358   3.442   1.981  12.954  0.1846  0.1574 -0.7692
    2MPD2    C114359   3.357   1.923  13.042  0.4181  0.1281 -0.0645
    2MPD2    C214360   3.393   1.892  13.173 -0.2630 -0.6586 -0.1389
    2MPD2    C314361   3.530   1.907  13.209  0.2300 -0.3695 -0.4700
    2MPD2    C414362   3.622   1.943  13.112 -0.5858 -0.0089 -0.4169
    2MPD2    C514363   3.582   1.988  12.988 -0.6934  0.4032  0.1793
    2MPD2     H14364   3.322   1.854  13.245 -0.5601 -1.8577 -1.0842
    2MPD2    H114365   3.730   1.940  13.122 -0.4555 -0.0321 -1.8057
    2MPD2    H214366   3.410   2.021  12.859 -1.6645 -0.6367 -0.4794
    2MPD2    H314367   3.659   2.012  12.915  0.1011 -2.5754  0.0419
    2MPD2     N14368   3.568   1.874  13.339 -0.1440  0.2430 -0.8415
    2MPD2    H514369   3.495   1.840  13.401 -0.5271 -0.3258 -1.6140
    2MPD2    N114370   3.218   1.898  13.013 -0.5545  1.0368 -0.1486
    2MPD2    H714371   3.166   1.852  13.087 -1.5271  1.6505 -0.4451
    3TCq1    O114372   3.571   1.933  13.933  0.6067 -0.4130  0.0358
    3TCq1    C114373   3.495   1.880  13.843 -0.1602 -0.2703  0.5187
    3TCq1    O214374   3.387   1.923  13.809 -0.5490 -0.5791 -0.0341
    3TCq1    C214375   3.594   1.836  13.744  0.1115 -0.1297  0.8290
    3TCq1    C314376   3.687   1.750  13.783 -0.2720  0.5903 -0.1063
    3TCq1    C414377   3.789   1.719  13.703  0.3554  0.2877 -0.0599
    3TCq1    C514378   3.797   1.773  13.581  0.2576 -0.8166  0.4295
    3TCq1    C614379   3.694   1.852  13.536 -0.1387 -0.3047  0.4108
    3TCq1    C714380   3.584   1.880  13.610  0.4155 -0.0188 -0.7680
    3TCq1    C814381   3.692   1.876  13.393  0.0341 -0.0846  0.2057
    3TCq1    O414382   3.801   1.867  13.344  0.2517 -0.3987  0.1360
    3TCq1    C914383   3.893   1.634  13.753  0.5454 -0.0394  0.5791
    3TCq1    O514384   4.008   1.636  13.701 -0.1241  0.5302  0.5696
    3TCq1    O614385   3.845   1.539  13.827 -0.1872  0.1730  0.0461
    3TCq1    H114386   3.664   1.901  13.930  0.2794 -1.2185 -1.7106
    3TCq1    H214387   3.686   1.704  13.881  1.8049 -1.9725 -1.2856
    3TCq1    H314388   3.894   1.763  13.532  1.0038 -2.3145  2.1796
    3TCq1    H414389   3.506   1.946  13.575  1.7333  2.2748  0.6388
    1MPD2     C14390   2.474   2.960  15.095  0.4625 -0.4731 -0.1559
    1MPD2    C114391   2.393   2.883  15.020 -0.0912 -0.1743 -0.0160
    1MPD2    C214392   2.460   2.783  14.944 -0.3696 -0.6604  0.1971
    1MPD2    C314393   2.596   2.769  14.937  0.0332 -0.2711  0.3929
    1MPD2    C414394   2.671   2.853  15.016  0.6430  0.4451  0.0736
    1MPD2    C514395   2.612   2.946  15.098  0.7766  0.4457  0.5672
    1MPD2     H14396   2.398   2.713  14.889  0.9162  0.8433 -3.1839
    1MPD2    H114397   2.780   2.851  15.020  0.6009  0.1311  1.0286
    1MPD2    H214398   2.434   3.037  15.160 -1.0117 -0.2525 -1.3397
    1MPD2    H314399   2.672   3.001  15.169 -0.9583  2.4085  0.5145
    1MPD2     N14400   2.653   2.656  14.861 -0.2762  0.5158 -0.4447
    1MPD2    H514401   2.580   2.603  14.814 -0.7031 -0.0747  0.8996
    1MPD2    N114402   2.260   2.905  15.023 -0.2595  0.3231 -0.1247
    1MPD2    H714403   2.234   2.968  15.098 -1.9760  1.1756 -1.4393
    2TMC3    C114404   2.031   2.894  14.929 -0.0286 -0.4476  0.5992
    2TMC3    C214405   1.955   2.803  14.859 -0.2208 -0.3771  0.7571
    2TMC3    C314406   1.885   2.853  14.752  0.2050 -0.0669  0.2112
    2TMC3    C414407   2.021   3.024  14.909  0.2501 -0.0039 -0.4600
    2TMC3    C514408   1.941   3.065  14.813 -0.0018  0.7451  0.4366
    2TMC3    C614409   1.871   2.984  14.731 -0.2514  0.6379 -0.2569
    2TMC3     C14410   2.170   2.845  14.940 -0.4171  0.2548  0.1888
    2TMC3     O14411   2.178   2.762  14.848 -0.2027  0.0865  0.7718
    2TMC3     H14412   1.954   2.696  14.874 -3.3058 -0.4570  0.0175
    2TMC3    H114413   2.082   3.096  14.962  0.1441 -1.2807  1.3998
    2TMC3    H214414   1.815   3.006  14.641 -1.5392 -0.8214  0.1929
    2TMC3    C714415   1.944   3.199  14.765  0.0899 -0.1320 -0.4579
    2TMC3    C814416   1.899   2.760  14.639  0.2252  0.2195  0.0565
    2TMC3    O114417   1.865   3.226  14.678  0.2588 -0.3727  0.1273
    2TMC3    O214418   1.822   2.776  14.543 -0.3277  0.3382 -0.2149
    3TCq1    O114419   2.868   4.109  14.747  0.4699 -0.1964  0.1763
    3TCq1    C114420   2.741   4.077  14.731 -0.6669 -0.1763  0.5621
    3TCq1    O214421   2.646   4.152  14.712  0.2849 -0.6300  0.0446
    3TCq1    C214422   2.732   3.930  14.719  0.3979 -0.2759 -0.4417
    3TCq1    C314423   2.819   3.856  14.797  0.1543  0.3914  0.0176
    3TCq1    C414424   2.780   3.724  14.807  0.5800  0.0666 -0.1312
    3TCq1    C514425   2.652   3.676  14.768  0.2117  0.4763  0.1667
    3TCq1    C614426   2.562   3.767  14.711  0.2952  0.4860 -0.7262
    3TCq1    C714427   2.607   3.896  14.683  1.0464  0.4885  0.1906
    3TCq1    C814428   2.423   3.741  14.693  0.1855  0.4095 -0.3185
    3TCq1    O414429   2.366   3.806  14.605 -0.4837 -0.3677 -0.2336
    3TCq1    C914430   2.860   3.630  14.880  0.5605  0.4342  0.4791
    3TCq1    O514431   2.964   3.685  14.925 -0.0042 -0.1412  0.0121
    3TCq1    O614432   2.827   3.510  14.896  0.0203 -0.1795  0.0339
    3TCq1    H114433   2.920   4.026  14.754  1.4248  0.4052  0.3010
    3TCq1    H214434   2.897   3.898  14.859  0.4536 -1.2018  0.7327
    3TCq1    H314435   2.626   3.571  14.762  0.3298  0.4363  0.3541
    3TCq1    H414436   2.542   3.964  14.628 -1.4779 -0.7327  1.6860
    4MPD2     C14437   2.136   3.660  14.688 -0.0570 -0.5955  0.3853
    4MPD2    C114438   2.232   3.593  14.758  0.0455 -0.3238 -0.7543
    4MPD2    C214439   2.197   3.470  14.812  0.5559  0.5104 -0.1883
    4MPD2    C314440   2.074   3.413  14.783 -0.2682 -0.0292 -0.0148
    4MPD2    C414441   1.981   3.485  14.715  0.5749 -0.5107  0.3650
    4MPD2    C514442   2.005   3.610  14.682 -0.1157  0.4093  0.1047
    4MPD2     H14443   2.267   3.416  14.874  0.4298 -1.4129 -1.7215
    4MPD2    H114444   1.878   3.457  14.694  0.7520 -0.7151 -0.2114
    4MPD2    H214445   2.148   3.762  14.655  1.3769 -2.3543 -4.4556
    4MPD2    H314446   1.928   3.674  14.639 -0.9356 -1.2946 -0.9575
    4MPD2     N14447   2.042   3.281  14.819  0.1268  0.2159 -0.3968
    4MPD2    H514448   2.111   3.247  14.884 -1.3796  0.8440  1.5216
    4MPD2    N114449   2.369   3.636  14.765  0.3753  0.4405 -0.7038
    4MPD2    H714450   2.428   3.581  14.826 -1.0607  0.2432  0.5021
    5TMC2    C114451   2.614   2.411  14.613 -0.2334  0.1408  0.2068
    5TMC2    C214452   2.685   2.428  14.493 -0.0424 -0.3847 -0.3613
    5TMC2    C314453   2.804   2.492  14.506  0.1264 -0.4775  0.0929
    5TMC2    C414454   2.670   2.440  14.731  0.4243  0.8723 -0.1025
    5TMC2    C514455   2.783   2.514  14.738 -0.3125 -0.0258 -0.1842
    5TMC2    C614456   2.853   2.535  14.623 -0.2480 -0.7102  0.4984
    5TMC2     C14457   2.480   2.473  14.610  0.0167  0.4209 -0.4138
    5TMC2     O14458   2.465   2.569  14.683 -0.5421 -0.6689 -0.2871
    5TMC2     H14459   2.626   2.427  14.402  1.6054  1.6899 -1.4564
    5TMC2    H114460   2.623   2.406  14.823 -1.4918 -1.5608 -1.9859
    5TMC2    H214461   2.950   2.584  14.619 -1.0098  0.9935  2.6117
    5TMC2    C714462   2.780   2.626  14.832 -0.3437 -0.2012  0.1149
    5TMC2    C814463   2.899   2.458  14.402 -1.1659 -0.6358  0.4301
    5TMC2    O114464   2.880   2.694  14.859 -0.1646 -0.2925 -0.0581
    5TMC2    O214465   2.988   2.538  14.367  0.3256 -0.5508  0.5982
    5TMC2    O514466   2.896   2.330  14.387  0.0295  0.2643  0.2755
    5TMC2    H514467   2.850   2.294  14.465  1.5662  0.8992  1.4697
    6MPD2     C14468   2.010   2.551  14.447 -0.2754 -0.5421  0.2235
    6MPD2    C114469   2.076   2.600  14.554 -0.2996 -0.6420  0.0086
    6MPD2    C214470   2.207   2.566  14.580 -0.3414  0.2338 -0.2475
    6MPD2    C314471   2.269   2.473  14.498  0.3142  0.2138 -0.2893
    6MPD2    C414472   2.198   2.419  14.396 -0.3462  0.2497 -0.0466
    6MPD2    C514473   2.073   2.453  14.370 -0.4045 -0.0293  0.6519
    6MPD2     H14474   2.249   2.600  14.674  0.7915 -0.5868 -0.4535
    6MPD2    H114475   2.240   2.337  14.339  0.5054 -0.1538  1.1404
    6MPD2    H214476   1.908   2.569  14.415 -0.6929 -1.9635  0.7223
    6MPD2    H314477   2.025   2.401  14.288  0.0925  1.2766 -0.4657
    6MPD2     N14478   2.401   2.417  14.521  0.5416 -0.4385 -0.2322
    6MPD2    H514479   2.440   2.341  14.466 -3.2697 -0.9813 -2.2370
    6MPD2    N114480   2.022   2.702  14.642 -0.4887  0.4721 -0.7865
    6MPD2    H714481   2.084   2.735  14.715  1.1104 -2.5410 -0.7628
  945NH4     N114482   2.799   4.570   3.295 -0.1775 -0.5070 -0.1996
  945NH4     H214483   2.783   4.663   3.338  0.8147 -0.5449  0.2574
  945NH4     H314484   2.786   4.571   3.192 -1.8693  0.2360  0.0304
  945NH4     H414485   2.748   4.492   3.343  0.8578 -0.2674  1.3087
  945NH4     H514486   2.898   4.542   3.316 -0.9165 -1.2272  2.3854
  946SOD     NA14487   2.123   0.830   7.480 -0.0569 -0.3322 -0.2547
  947SOD     NA14488   2.894   3.325  14.817 -0.0507  0.1737  0.6657
  948SOD     NA14489   1.776   2.249  10.411  0.0103  0.0878  0.3841
  949SOD     NA14490   4.175   0.036  16.474 -0.2067 -0.1760  0.1163
  950SOD     NA14491   0.520   3.069   6.816 -0.5479 -0.5148  0.0108
  951SOD     NA14492   1.964   4.215   6.639  0.4396 -0.3349 -0.1500
  952SOD     NA14493   1.800   3.784   2.442 -0.2879  0.2261 -0.2190
  953SOL     OW14494   0.188   1.954   2.765  0.1370 -0.4550  0.1226
  953SOL    HW114495   0.094   1.962   2.747  0.4928  0.9172 -1.1416
  953SOL    HW214496   0.185   1.864   2.798  0.0130  0.0211  1.4110
  954SOL     OW14497   1.341   3.129  10.532  0.0618 -0.1956 -0.3387
  954SOL    HW114498   1.410   3.196  10.533  1.1068 -1.2665 -1.7866
  954SOL    HW214499   1.380   3.052  10.573  0.3365  0.4167  0.5565
  955SOL     OW14500   4.508   0.127   5.196  0.5163  0.0863  0.1005
  955SOL    HW114501   4.563   0.183   5.142 -0.3012  0.3659 -0.4356
  955SOL    HW214502   4.560   0.046   5.193  0.8969  0.3516 -0.4223
  956SOL     OW14503   2.510   1.374  15.979 -0.0158  0.3707  0.1194
  956SOL    HW114504   2.415   1.380  15.994 -0.0394 -1.7263  0.7065
  956SOL    HW214505   2.502   1.318  15.902 -2.0575  1.5959 -0.5779
  957SOL     OW14506   0.183   4.578  12.104  0.7358  0.1908  0.2143
  957SOL    HW114507   0.196   4.606  12.014  2.0307 -1.0098  0.0322
  957SOL    HW214508   0.137   4.660  12.124  0.2430 -0.2378  0.8595
  958SOL     OW14509   4.046   1.475  14.436 -0.7650 -0.3066  0.0692
  958SOL    HW114510   4.067   1.406  14.374 -0.2974  0.4529 -0.6175
  958SOL    HW214511   4.022   1.420  14.511  0.3415 -0.1568  0.5377
  959SOL     OW14512   4.069   4.683   6.990 -0.5769  0.1992 -0.0077
  959SOL    HW114513   4.116   4.620   7.045 -0.7909  2.0445  2.2628
  959SOL    HW214514   3.998   4.622   6.972 -0.5350 -0.1914  1.1745
  960SOL     OW14515   1.655   3.342  10.733  0.2452  0.3121  0.5967
  960SOL    HW114516   1.615   3.269  10.780 -2.5630  0.9937 -0.7112
  960SOL    HW214517   1.617   3.410  10.787  4.6181  2.5038  0.8988
  961SOL     OW14518   2.236   2.144   8.221  0.6896 -0.1949 -0.0216
  961SOL    HW114519   2.314   2.114   8.267  0.5737 -2.2640 -1.2086
  961SOL    HW214520   2.274   2.232   8.227 -0.5318  0.3828 -0.7796
  962SOL     OW14521   0.262   4.345   3.935  0.1129  0.7049 -0.0773
  962SOL    HW114522   0.169   4.343   3.912 -0.1188  0.8152  0.8557
  962SOL    HW214523   0.286   4.274   3.875  0.4710  0.3739  0.4576
  963SOL     OW14524   2.219   0.858   6.131 -0.4732  0.4975 -0.1507
  963SOL    HW114525   2.208   0.938   6.182 -2.4097  0.9901 -1.3526
  963SOL    HW214526   2.302   0.870   6.085  0.2429  0.2358  1.0651
  964SOL     OW14527   0.694   0.136  13.646  0.5590 -0.6746  0.3219
  964SOL    HW114528   0.744   0.217  13.644 -0.0367 -0.3536 -1.7297
  964SOL    HW214529   0.749   0.085  13.706 -0.5795 -1.5005  0.6626
  965SOL     OW14530   3.559   1.259   2.749  0.6112  0.0383 -0.0364
  965SOL    HW114531   3.518   1.192   2.694  1.7612  0.7833 -1.8029
  965SOL    HW214532   3.620   1.205   2.800  1.0585  0.0926 -0.5093
  966SOL     OW14533   3.499   4.192  14.260 -0.5189 -0.0297  0.8022
  966SOL    HW114534   3.500   4.180  14.165  1.3630  0.7255  0.7426
  966SOL    HW214535   3.448   4.115  14.287 -1.2298  0.0515 -0.3297
  967SOL     OW14536   4.125   4.292   2.300 -0.0296 -0.3312  0.0009
  967SOL    HW114537   4.098   4.305   2.209  0.7537 -1.1442 -0.3504
  967SOL    HW214538   4.187   4.362   2.317 -2.3625  2.1617 -1.7436
  968SOL     OW14539   0.266   1.017   1.680 -0.0578 -0.7767 -0.1715
  968SOL    HW114540   0.246   0.959   1.753  1.7498 -3.0378 -1.4558
  968SOL    HW214541   0.181   1.026   1.637 -0.4431 -2.5794  0.1986
  969SOL     OW14542   3.032   4.545   6.781  0.1709 -0.2551  0.1173
  969SOL    HW114543   3.001   4.541   6.872  0.9892 -2.2833  0.3141
  969SOL    HW214544   3.045   4.450   6.775  0.5545 -0.1785 -0.2501
  970SOL     OW14545   0.044   3.340  12.064  0.7690  0.0887 -0.2394
  970SOL    HW114546   0.089   3.407  12.115 -0.0253  0.8687 -0.5734
  970SOL    HW214547   0.078   3.266  12.114  1.2219 -0.5246 -1.4747
  971SOL     OW14548   2.461   2.176  13.299 -0.0030 -0.1031 -0.1930
  971SOL    HW114549   2.378   2.132  13.321 -1.4237  2.2700 -0.8005
  971SOL    HW214550   2.518   2.100  13.303 -0.6759 -0.5324  1.4899
  972SOL     OW14551   0.789   4.702  16.740 -0.6432 -0.1526  0.2387
  972SOL    HW114552   0.720   0.036  16.720  0.5616  1.5821  1.5813
  972SOL    HW214553   0.768   4.678  16.830 -0.3000  0.4344  0.4790
  973SOL     OW14554   2.844   3.309   7.169 -0.2671  0.3268  0.7058
  973SOL    HW114555   2.869   3.300   7.261 -1.7193 -0.8706  0.9864
  973SOL    HW214556   2.749   3.317   7.185 -0.5342 -2.6724  0.5651
  974SOL     OW14557   1.469   1.073   9.350 -0.3211  0.3843  0.4376
  974SOL    HW114558   1.396   1.012   9.345  0.6128 -0.8861  2.0672
  974SOL    HW214559   1.531   1.023   9.403 -1.6109  1.5071  3.0162
  975SOL     OW14560   2.007   1.973   8.219 -0.0318 -0.0576  0.1264
  975SOL    HW114561   2.088   2.023   8.227  0.2741 -0.7981  1.7691
  975SOL    HW214562   1.947   2.038   8.256 -0.0970 -0.3388  0.5177
  976SOL     OW14563   3.229   3.981  12.588  0.2644  0.0189  0.0969
  976SOL    HW114564   3.281   4.044  12.538  1.2152  0.1090  1.1876
  976SOL    HW214565   3.239   3.999  12.682  1.8829  1.2503 -0.3171
  977SOL     OW14566   3.750   0.965   4.079 -0.4057  0.1643 -0.3933
  977SOL    HW114567   3.677   1.013   4.119 -0.4609  0.0104 -0.3096
  977SOL    HW214568   3.780   0.921   4.158  1.3190  0.7390 -0.7229
  978SOL     OW14569   3.270   3.912   3.279 -0.3686 -0.2965  0.2383
  978SOL    HW114570   3.304   4.000   3.261 -0.3386 -0.5611 -1.0332
  978SOL    HW214571   3.275   3.910   3.374 -1.3936 -0.6520  0.2818
  979SOL     OW14572   4.001   4.329  12.350  0.6401 -0.3113  0.2787
  979SOL    HW114573   3.971   4.243  12.321  2.1125 -1.2598  1.5755
  979SOL    HW214574   4.078   4.305  12.401  0.3201 -2.5214 -0.2550
  980SOL     OW14575   1.227   2.877  13.712 -0.3233 -0.1956  0.2786
  980SOL    HW114576   1.317   2.843  13.720 -0.0127  0.3145 -1.0389
  980SOL    HW214577   1.214   2.893  13.618  0.9370 -0.7168  0.0146
  981SOL     OW14578   2.085   0.677   4.011  0.0386 -0.3544 -0.1004
  981SOL    HW114579   2.127   0.675   3.925 -1.0445  0.0528 -0.6404
  981SOL    HW214580   2.150   0.622   4.055 -1.6218 -1.9043  0.3966
  982SOL     OW14581   4.461   0.031   5.491 -0.4403  0.1055 -0.4090
  982SOL    HW114582   4.371   0.007   5.469 -0.3676  0.8965 -1.5281
  982SOL    HW214583   4.512   4.691   5.449  1.6715  1.3514  0.1005
  983SOL     OW14584   0.677   3.402   7.202 -0.0757 -0.1069 -0.0761
  983SOL    HW114585   0.767   3.432   7.215 -0.0703 -0.4141  0.6364
  983SOL    HW214586   0.684   3.306   7.204 -0.7879 -0.1401  0.9510
  984SOL     OW14587   2.651   0.596  13.555  0.4203  0.6058  0.4371
  984SOL    HW114588   2.617   0.528  13.496  1.5541  0.4074  0.0151
  984SOL    HW214589   2.588   0.665  13.535 -0.1837 -0.4477 -1.3805
  985SOL     OW14590   2.353   1.811   9.504 -0.7227 -0.2241  0.1427
  985SOL    HW114591   2.278   1.870   9.494 -0.2865 -0.2354 -3.3025
  985SOL    HW214592   2.433   1.862   9.489  0.6454 -2.2286  0.5748
  986SOL     OW14593   1.017   0.552   0.379 -0.3969 -0.3095 -0.1082
  986SOL    HW114594   0.972   0.564   0.295 -2.1733  2.1385  1.1815
  986SOL    HW214595   0.961   0.583   0.450 -3.3078 -1.1055 -2.0133
  987SOL     OW14596   2.411   3.921   0.959  0.0249  0.1918  0.1900
  987SOL    HW114597   2.506   3.936   0.963  0.2019 -1.0576  0.9413
  987SOL    HW214598   2.383   4.009   0.935  0.3516  0.1438 -0.3577
  988SOL     OW14599   4.060   3.076   8.095 -0.0307  0.4101  0.1263
  988SOL    HW114600   4.043   2.986   8.068  0.7512  0.6214 -1.0925
  988SOL    HW214601   4.069   3.127   8.014  2.7425 -2.1020 -1.1192
  989SOL     OW14602   0.119   4.576   1.304 -0.0479  0.5868 -0.4908
  989SOL    HW114603   0.027   4.557   1.323  0.4916 -1.6035 -0.0923
  989SOL    HW214604   0.161   4.501   1.345  0.5962  0.7794 -0.8018
  990SOL     OW14605   3.296   1.638   1.897  0.1121 -0.4676  0.3423
  990SOL    HW114606   3.322   1.692   1.972  0.9970  1.0269 -1.0309
  990SOL    HW214607   3.298   1.699   1.823 -1.3741  1.0072  1.5381
  991SOL     OW14608   4.134   4.384   0.974  0.4299 -0.1380  0.1129
  991SOL    HW114609   4.222   4.421   0.987  0.7405 -0.9306  0.2645
  991SOL    HW214610   4.136   4.313   1.037 -1.1533 -0.8401 -0.6330
  992SOL     OW14611   2.868   1.830  10.318  0.2891 -0.3130  0.2164
  992SOL    HW114612   2.925   1.753  10.321 -1.4505 -1.5172  2.1694
  992SOL    HW214613   2.861   1.839  10.223  1.5697  0.7075  0.2199
  993SOL     OW14614   3.602   0.477   3.336 -0.7179  0.1935 -0.1584
  993SOL    HW114615   3.616   0.383   3.328  0.6732  0.3918 -0.0329
  993SOL    HW214616   3.621   0.515   3.250  1.5501  0.3316  0.4070
  994SOL     OW14617   1.860   3.747   8.767 -0.2119  0.0684 -0.3265
  994SOL    HW114618   1.805   3.705   8.833 -0.4722  1.4949  0.3604
  994SOL    HW214619   1.821   3.833   8.749 -0.4291  0.2080  0.8042
  995SOL     OW14620   2.486   4.364  12.694 -0.2305  0.1989 -0.4902
  995SOL    HW114621   2.444   4.278  12.696  0.2957 -0.0769 -1.2227
  995SOL    HW214622   2.449   4.404  12.616  1.7122  1.9814 -0.5139
  996SOL     OW14623   3.960   1.083  16.576 -0.5286 -0.0730 -0.0766
  996SOL    HW114624   3.926   1.159  16.623  4.1711  1.5217  0.7330
  996SOL    HW214625   4.021   1.126  16.515  1.4497 -1.2640  1.0840
  997SOL     OW14626   3.230   1.320   4.931  0.1562 -0.4070  0.6682
  997SOL    HW114627   3.209   1.409   4.957  3.5824  0.5581  0.0953
  997SOL    HW214628   3.181   1.278   5.003 -1.4665  1.0900  0.4325
  998SOL     OW14629   3.743   1.898  11.052  0.3299 -0.2652 -0.3193
  998SOL    HW114630   3.686   1.821  11.043  1.1658 -0.9713  0.3664
  998SOL    HW214631   3.747   1.899  11.148  1.1300  4.1784 -0.3976
  999SOL     OW14632   2.217   0.765   9.369 -0.0548 -0.2655 -0.3759
  999SOL    HW114633   2.160   0.734   9.439  0.4282  0.7260  0.4506
  999SOL    HW214634   2.252   0.849   9.398  0.0531 -0.2147 -0.6511
 1000SOL     OW14635   0.880   3.297  10.586  0.6352 -0.3499 -0.2288
 1000SOL    HW114636   0.880   3.201  10.584 -0.7295 -0.3737  1.3062
 1000SOL    HW214637   0.904   3.320  10.676  2.0466  3.6004 -1.6076
 1001SOL     OW14638   2.373   1.804   4.175 -0.4644  0.1905  0.0694
 1001SOL    HW114639   2.421   1.733   4.133  2.3036  0.6285  2.4994
 1001SOL    HW214640   2.428   1.810   4.253 -1.5447 -0.7342  0.9032
 1002SOL     OW14641   4.451   4.377   2.189  0.2661 -0.4228  0.4953
 1002SOL    HW114642   4.419   4.401   2.276 -0.9221  1.9514 -0.5926
 1002SOL    HW214643   4.507   4.452   2.169 -0.0685 -0.6027 -1.1265
 1003SOL     OW14644   0.424   0.926   6.278  0.3221 -0.0929  0.4462
 1003SOL    HW114645   0.346   0.914   6.223  1.0450 -1.3760 -0.3043
 1003SOL    HW214646   0.483   0.875   6.222  0.1414  0.8799 -0.6440
 1004SOL     OW14647   2.339   1.192   9.662  0.1900 -0.4712 -0.2754
 1004SOL    HW114648   2.322   1.265   9.722  0.5976  0.4285 -1.2511
 1004SOL    HW214649   2.403   1.139   9.709  0.3151  1.1806  1.4176
 1005SOL     OW14650   1.617   3.217  12.255 -0.2942  0.4894 -0.1236
 1005SOL    HW114651   1.617   3.246  12.346 -0.7531 -1.6772  0.5509
 1005SOL    HW214652   1.699   3.171  12.238 -0.4915  0.5149 -1.1536
 1006SOL     OW14653   4.075   0.509   8.264 -0.4274 -0.3265 -0.0199
 1006SOL    HW114654   4.063   0.414   8.267  0.9047 -0.5347 -1.4669
 1006SOL    HW214655   4.161   0.502   8.224  0.1347  4.3595  0.3148
 1007SOL     OW14656   0.338   3.661   3.587 -0.0814 -0.3107 -0.1739
 1007SOL    HW114657   0.255   3.645   3.541 -0.6632  1.6970  0.1586
 1007SOL    HW214658   0.389   3.586   3.557 -1.2204 -0.0619 -2.7691
 1008SOL     OW14659   2.615   0.352   6.697  0.0972  0.1842  0.0734
 1008SOL    HW114660   2.645   0.349   6.606 -0.5473  1.7914 -0.1980
 1008SOL    HW214661   2.696   0.311   6.729  1.0901 -0.0049 -2.7058
 1009SOL     OW14662   1.042   0.937   8.656 -0.5390  0.3085  0.4412
 1009SOL    HW114663   1.016   0.853   8.618  1.1470  0.4867 -1.1072
 1009SOL    HW214664   1.066   0.898   8.741  0.5468 -1.0477 -0.4901
 1010SOL     OW14665   2.499   0.428   4.075 -0.0170  0.2250 -0.3120
 1010SOL    HW114666   2.443   0.351   4.093 -0.4994  0.6936  0.2121
 1010SOL    HW214667   2.487   0.470   4.160 -1.8549  2.1652 -1.5293
 1011SOL     OW14668   4.447   4.579   8.404  0.1404  0.6161 -0.0724
 1011SOL    HW114669   4.392   4.634   8.348 -0.2760 -0.5016 -0.7690
 1011SOL    HW214670   4.390   4.505   8.426 -0.3712  1.5855  1.7910
 1012SOL     OW14671   4.243   2.720   2.924 -0.1562  0.3049 -0.1935
 1012SOL    HW114672   4.243   2.812   2.953 -1.2977  0.3207 -0.2138
 1012SOL    HW214673   4.214   2.686   3.009  1.0067 -1.1143 -0.3896
 1013SOL     OW14674   1.202   3.482   3.652  0.3686 -0.0080 -0.1238
 1013SOL    HW114675   1.112   3.511   3.666  0.0791 -1.2928  0.6844
 1013SOL    HW214676   1.208   3.396   3.692  0.0248  0.0044 -0.0453
 1014SOL     OW14677   3.628   0.659   1.708  0.1565 -0.2987  0.6402
 1014SOL    HW114678   3.698   0.606   1.748  2.8438  2.3815 -0.5294
 1014SOL    HW214679   3.554   0.668   1.767  1.6642  1.3847  2.2771
 1015SOL     OW14680   2.599   1.069   6.619 -0.4244 -0.7507 -0.1975
 1015SOL    HW114681   2.534   1.140   6.620  1.7849  1.2494  0.6067
 1015SOL    HW214682   2.594   1.020   6.538 -0.3348 -0.2075 -0.5324
 1016SOL     OW14683   1.720   0.410   2.388 -0.0192  0.2584 -0.1052
 1016SOL    HW114684   1.669   0.333   2.412 -1.9480  1.2177 -1.0772
 1016SOL    HW214685   1.662   0.451   2.323  1.1866  1.0624 -0.6600
 1017SOL     OW14686   3.208   1.019   1.878 -0.1875 -0.0358 -0.4991
 1017SOL    HW114687   3.139   0.957   1.857  0.0056 -0.1133 -0.8958
 1017SOL    HW214688   3.280   0.961   1.854 -1.3008 -1.9589  0.7772
 1018SOL     OW14689   2.671   2.401   3.792  0.0671  0.1585 -0.5471
 1018SOL    HW114690   2.738   2.336   3.777  0.8700  1.0474 -0.8159
 1018SOL    HW214691   2.685   2.455   3.714 -0.0512 -2.2067 -2.2184
 1019SOL     OW14692   2.674   4.626   1.919 -0.0655  0.2152  0.0950
 1019SOL    HW114693   2.676   4.584   2.005 -0.9957  1.7002  0.8247
 1019SOL    HW214694   2.757   4.673   1.918 -0.7571  1.4488  0.7318
 1020SOL     OW14695   4.122   2.515   3.843 -0.0370 -0.1978 -0.4968
 1020SOL    HW114696   4.060   2.555   3.905  0.2394 -1.0574  0.3311
 1020SOL    HW214697   4.110   2.573   3.768 -2.5616  1.3267  1.0873
 1021SOL     OW14698   4.543   3.323   7.757  0.5411  0.0910 -0.0233
 1021SOL    HW114699   4.451   3.307   7.738  0.4648 -1.9778  2.1538
 1021SOL    HW214700   4.588   3.240   7.775 -0.8633 -0.6292  0.1476
 1022SOL     OW14701   2.711   3.975   0.199 -0.2763  0.2471  0.0172
 1022SOL    HW114702   2.721   3.966   0.293  0.5062  0.3957 -0.0511
 1022SOL    HW214703   2.702   3.883   0.175  1.9863 -0.0343  0.1907
 1023SOL     OW14704   2.569   2.915   4.051 -0.3593  0.0097 -0.0484
 1023SOL    HW114705   2.598   2.934   4.140  4.1412 -0.1384 -1.4731
 1023SOL    HW214706   2.645   2.940   3.997 -0.8787  0.3126 -0.6389
 1024SOL     OW14707   1.712   2.259   9.260 -0.5203  0.0197 -0.0829
 1024SOL    HW114708   1.757   2.175   9.262 -0.8060 -0.1348 -0.0791
 1024SOL    HW214709   1.752   2.308   9.331  0.0457  0.0060 -0.3904
 1025SOL     OW14710   0.600   2.929  15.943  0.2304 -0.2707 -0.4299
 1025SOL    HW114711   0.604   2.870  15.868  0.6972 -1.7898  0.7972
 1025SOL    HW214712   0.505   2.934  15.950  0.3076 -1.5924  1.5029
 1026SOL     OW14713   3.138   0.981   6.257 -0.0800  0.4852 -0.4971
 1026SOL    HW114714   3.181   0.896   6.244 -0.2184  0.4055 -0.4317
 1026SOL    HW214715   3.197   1.023   6.320  1.8574  0.6920 -2.4461
 1027SOL     OW14716   0.664   1.570  11.120  0.7253  0.2118  0.3417
 1027SOL    HW114717   0.718   1.646  11.141 -0.6990  1.8913 -2.1066
 1027SOL    HW214718   0.728   1.514  11.077  0.2649 -1.0745  1.3146
 1028SOL     OW14719   3.879   1.381   2.325  0.0050  1.0966 -0.2589
 1028SOL    HW114720   3.870   1.367   2.419  0.8152  0.0592 -0.3341
 1028SOL    HW214721   3.925   1.302   2.299 -0.8722  0.0791  1.2783
 1029SOL     OW14722   3.090   1.134   3.356 -0.1532 -0.1529 -0.5811
 1029SOL    HW114723   3.167   1.192   3.356 -0.1716 -0.1288 -0.3515
 1029SOL    HW214724   3.131   1.064   3.305 -1.1355 -1.2704  0.1742
 1030SOL     OW14725   2.950   3.129   4.162  0.0281 -0.2901 -0.1484
 1030SOL    HW114726   2.949   3.210   4.110 -2.1370 -1.2983 -1.6755
 1030SOL    HW214727   3.008   3.078   4.104  0.1867 -1.4832  1.0583
 1031SOL     OW14728   0.663   4.446  11.403  0.3669  0.1479  0.0819
 1031SOL    HW114729   0.630   4.518  11.457  1.2489 -1.1756  2.3600
 1031SOL    HW214730   0.730   4.420  11.466  0.9998  2.9470  0.5475
 1032SOL     OW14731   1.649   3.087  12.709 -0.1068  0.5835 -0.2877
 1032SOL    HW114732   1.652   3.078  12.804 -1.3585 -1.6220 -0.4542
 1032SOL    HW214733   1.676   2.999  12.681 -0.6223  0.6658 -1.0696
 1033SOL     OW14734   1.479   0.126   3.287 -0.2847  0.1671 -0.2010
 1033SOL    HW114735   1.399   0.138   3.337 -0.3050  1.3773 -0.5183
 1033SOL    HW214736   1.496   0.211   3.246  1.5117 -0.3765 -0.5872
 1034SOL     OW14737   1.136   0.589   6.139  0.5535 -0.6290 -0.3890
 1034SOL    HW114738   1.207   0.640   6.176 -0.1227 -1.3709  1.9288
 1034SOL    HW214739   1.158   0.502   6.174 -0.8922 -0.8371  0.0013
 1035SOL     OW14740   0.381   2.049   7.661 -0.2160  0.2137 -0.6774
 1035SOL    HW114741   0.363   1.955   7.664  0.8800 -0.0118 -1.0724
 1035SOL    HW214742   0.474   2.058   7.639 -0.3431  1.6384 -0.6487
 1036SOL     OW14743   1.359   2.210   2.774  0.0112 -0.2587 -0.8366
 1036SOL    HW114744   1.416   2.188   2.700  1.1099 -1.2739  0.3136
 1036SOL    HW214745   1.282   2.154   2.766  1.0127 -1.8421  0.7179
 1037SOL     OW14746   1.014   3.048   3.798  0.0214  0.0367 -0.2581
 1037SOL    HW114747   0.949   2.981   3.819  0.5684 -0.4258 -0.0558
 1037SOL    HW214748   0.955   3.114   3.761 -0.8535 -0.9466 -0.6203
 1038SOL     OW14749   2.115   3.903   2.184  0.0166  0.2930 -0.1272
 1038SOL    HW114750   2.175   3.976   2.169  0.0347  1.0515  3.4859
 1038SOL    HW214751   2.046   3.923   2.120  0.4566 -2.7534 -1.5575
 1039SOL     OW14752   2.190   0.321   0.929  0.1861 -0.5569 -0.2963
 1039SOL    HW114753   2.156   0.379   0.998  1.3417 -0.8148  0.5011
 1039SOL    HW214754   2.274   0.300   0.971  2.0795  1.8829 -2.7726
 1040SOL     OW14755   3.755   1.803   3.349  0.5766  0.2314  0.3974
 1040SOL    HW114756   3.828   1.801   3.288  0.1831 -1.8527 -0.0034
 1040SOL    HW214757   3.737   1.709   3.351  0.6642  0.2043 -0.3184
 1041SOL     OW14758   0.618   2.630   6.176 -0.7548 -0.4567 -0.6202
 1041SOL    HW114759   0.646   2.571   6.247  1.3480  0.7931 -0.4014
 1041SOL    HW214760   0.553   2.682   6.223  0.8688  0.8422  0.2083
 1042SOL     OW14761   2.883   4.413   8.005  0.2262 -0.5193  0.1479
 1042SOL    HW114762   2.870   4.344   7.939  0.3725  0.1393 -0.5701
 1042SOL    HW214763   2.966   4.380   8.038  1.1587 -0.0219 -1.6960
 1043SOL     OW14764   1.151   1.580   2.872  0.5405  0.4800  0.0768
 1043SOL    HW114765   1.168   1.561   2.965 -0.6205 -1.9854 -0.2097
 1043SOL    HW214766   1.087   1.650   2.879  0.5570  0.4536  0.4897
 1044SOL     OW14767   2.215   1.214   0.068  0.6625 -0.0301 -0.2461
 1044SOL    HW114768   2.190   1.124   0.089 -0.4416  0.0814 -1.1016
 1044SOL    HW214769   2.180   1.210  17.697  0.2133  0.2735 -0.0829
 1045SOL     OW14770   4.607   4.155  11.178 -0.8316  0.3120 -0.3225
 1045SOL    HW114771   4.604   4.112  11.093  0.2540 -0.6207  0.1096
 1045SOL    HW214772   4.570   4.093  11.240  2.1229 -0.6588  0.4727
 1046SOL     OW14773   4.539   1.728   5.839 -0.1098  0.2399 -0.0970
 1046SOL    HW114774   4.530   1.809   5.889 -0.3042 -0.0333  0.3073
 1046SOL    HW214775   4.632   1.730   5.818 -0.3309  0.0098 -1.0851
 1047SOL     OW14776   2.136   4.622  11.828 -0.2934 -0.6270  0.1459
 1047SOL    HW114777   2.093   4.681  11.766  0.5931 -0.7384 -0.5753
 1047SOL    HW214778   2.062   4.573  11.863  0.0075 -2.0979 -1.3003
 1048SOL     OW14779   1.286   0.650   4.234 -0.3040  0.2098  0.4845
 1048SOL    HW114780   1.367   0.662   4.284  0.1150  0.8694 -0.3467
 1048SOL    HW214781   1.229   0.628   4.308 -0.8365  1.7414  0.5273
 1049SOL     OW14782   2.610   2.334   3.433  0.2636 -0.3804  0.1721
 1049SOL    HW114783   2.642   2.244   3.432 -1.0271 -0.8487  0.2874
 1049SOL    HW214784   2.682   2.391   3.409  0.4989  0.0355  1.8486
 1050SOL     OW14785   1.620   2.022   4.507 -0.2227 -0.3464  0.3423
 1050SOL    HW114786   1.705   1.981   4.501 -1.0009 -2.1310  1.4230
 1050SOL    HW214787   1.568   1.942   4.509 -1.0146  0.1076 -2.0979
 1051SOL     OW14788   3.366   1.259   8.374 -0.0848  0.1642 -0.2873
 1051SOL    HW114789   3.357   1.186   8.435  0.1902  0.8573  0.5784
 1051SOL    HW214790   3.284   1.304   8.396 -0.1576  1.1945 -2.5841
 1052SOL     OW14791   0.980   1.959   6.123  0.0235 -0.4621 -0.0882
 1052SOL    HW114792   0.951   1.904   6.195  0.3527 -0.3185  0.1551
 1052SOL    HW214793   0.968   1.893   6.055 -2.6203  0.0062 -0.0502
 1053SOL     OW14794   2.807   3.240  17.379 -0.0102 -0.4121 -0.5685
 1053SOL    HW114795   2.771   3.325  17.352 -0.0379 -0.5282 -0.8866
 1053SOL    HW214796   2.850   3.204  17.301  0.5232 -0.0812 -0.4316
 1054SOL     OW14797   3.495   4.446   4.712  0.2626  0.2881 -0.0024
 1054SOL    HW114798   3.498   4.462   4.806  2.0342 -1.0551  0.1695
 1054SOL    HW214799   3.449   4.526   4.686 -0.1754  0.0378 -0.0005
 1055SOL     OW14800   0.715   0.726  12.023 -0.5116 -0.0835 -0.7553
 1055SOL    HW114801   0.803   0.760  12.009 -0.5991  0.5581  0.2778
 1055SOL    HW214802   0.676   0.804  12.063 -3.6968 -1.2233 -1.6269
 1056SOL     OW14803   1.330   0.377   2.845 -0.3191 -0.0953  0.2799
 1056SOL    HW114804   1.356   0.286   2.833 -0.8835 -0.1452 -0.5558
 1056SOL    HW214805   1.259   0.381   2.781 -0.8384 -1.2970  0.7778
 1057SOL     OW14806   3.674   4.550  12.182 -0.3104 -0.0613 -0.0376
 1057SOL    HW114807   3.659   4.485  12.113  2.7833  0.0466 -0.8161
 1057SOL    HW214808   3.601   4.606  12.157  0.8981  1.9674  1.0706
 1058SOL     OW14809   0.781   3.675   5.711 -0.1587 -0.3453 -0.1989
 1058SOL    HW114810   0.856   3.704   5.659  0.0899 -0.5296  0.0625
 1058SOL    HW214811   0.736   3.623   5.644 -0.9473 -2.4299  1.9372
 1059SOL     OW14812   1.228   1.898   3.770  0.0853 -0.4845  0.0291
 1059SOL    HW114813   1.299   1.835   3.769  0.4225 -0.0582 -1.8811
 1059SOL    HW214814   1.278   1.979   3.764  0.5686 -0.9087 -1.4828
 1060SOL     OW14815   0.914   0.265  15.358 -0.1207 -0.7336  0.0190
 1060SOL    HW114816   0.938   0.357  15.345 -0.6937 -0.5485  0.2573
 1060SOL    HW214817   0.989   0.228  15.312  0.8126  0.4262  0.5852
 1061SOL     OW14818   3.839   3.428  11.686  0.1792 -0.3686 -0.2518
 1061SOL    HW114819   3.932   3.446  11.674 -0.1050  2.4510  1.7117
 1061SOL    HW214820   3.836   3.355  11.747  0.8213  0.4657  0.7682
 1062SOL     OW14821   2.896   4.501  10.260 -0.1518 -0.0120  0.1410
 1062SOL    HW114822   2.925   4.412  10.281  0.5628  0.0885 -0.3922
 1062SOL    HW214823   2.803   4.491  10.279 -0.1454  0.5729  0.4915
 1063SOL     OW14824   1.805   0.352   2.722 -0.0681 -0.5546  0.6752
 1063SOL    HW114825   1.739   0.287   2.698 -0.5855  0.0719  0.3923
 1063SOL    HW214826   1.827   0.320   2.809  0.6479 -2.1025 -0.0838
 1064SOL     OW14827   4.398   3.690   7.681 -0.0380 -0.2191 -0.5155
 1064SOL    HW114828   4.389   3.782   7.656 -1.3062 -0.4400 -0.8763
 1064SOL    HW214829   4.421   3.703   7.773  0.1053  0.7227 -0.6869
 1065SOL     OW14830   2.532   3.505   5.415 -0.0537 -0.2750  0.1330
 1065SOL    HW114831   2.594   3.434   5.396  0.1468 -0.6381  2.1141
 1065SOL    HW214832   2.586   3.581   5.437 -3.0045  1.5858  1.0291
 1066SOL     OW14833   3.381   3.834   5.687  0.1754 -0.2534  0.1744
 1066SOL    HW114834   3.457   3.873   5.729  0.5781 -2.2186  1.2502
 1066SOL    HW214835   3.306   3.875   5.730  0.0685  0.7870 -1.0119
 1067SOL     OW14836   3.974   1.227   3.026  0.2246 -0.2294  0.2022
 1067SOL    HW114837   3.998   1.263   2.941 -0.8769  2.9867  1.2505
 1067SOL    HW214838   4.029   1.149   3.026  0.0291 -0.3800  2.7254
 1068SOL     OW14839   0.659   0.653   9.012 -0.3511 -0.1446 -0.0525
 1068SOL    HW114840   0.719   0.619   8.945 -1.1666  1.8465 -1.7853
 1068SOL    HW214841   0.689   0.626   9.099 -0.2209  0.1774  0.0038
 1069SOL     OW14842   3.902   2.860  16.674  0.2896 -0.4011  0.1752
 1069SOL    HW114843   3.916   2.914  16.752 -3.7791  1.4859 -0.4175
 1069SOL    HW214844   3.847   2.797  16.721  1.7442 -1.0165  1.0771
 1070SOL     OW14845   0.865   2.842  16.964  0.2528  0.4577  0.0849
 1070SOL    HW114846   0.915   2.771  17.003  0.4235 -0.7050 -2.2212
 1070SOL    HW214847   0.781   2.836  17.010  1.6032  1.7960  2.7051
 1071SOL     OW14848   3.032   4.300   3.133 -0.0966  0.3865 -0.2152
 1071SOL    HW114849   2.982   4.223   3.106  0.1636  0.4768 -0.9394
 1071SOL    HW214850   3.109   4.280   3.080 -1.0583 -1.6823 -0.8216
 1072SOL     OW14851   1.574   1.675   5.537  0.1930 -0.7764 -0.1528
 1072SOL    HW114852   1.496   1.645   5.492 -0.2009 -0.4628  0.3260
 1072SOL    HW214853   1.608   1.601   5.587 -0.6594  0.0685  1.6501
 1073SOL     OW14854   4.587   2.000  13.891 -0.2252  0.4513 -0.1501
 1073SOL    HW114855   4.503   2.009  13.848 -0.1703 -1.9551 -0.7371
 1073SOL    HW214856   4.658   2.018  13.829 -0.2091  2.9174  0.5579
 1074SOL     OW14857   1.502   0.246  15.455  0.3865 -0.1321 -0.0962
 1074SOL    HW114858   1.555   0.168  15.438 -1.7609 -0.9200 -3.2270
 1074SOL    HW214859   1.572   0.308  15.431  0.8907 -0.2537  1.0548
 1075SOL     OW14860   3.314   0.334   2.247  0.0631 -0.1852 -0.2188
 1075SOL    HW114861   3.365   0.255   2.231 -2.8398 -1.6891 -2.0058
 1075SOL    HW214862   3.335   0.384   2.168  0.0660 -2.0995 -1.4180
 1076SOL     OW14863   0.734   1.373   8.289  0.1234  0.6974  0.1080
 1076SOL    HW114864   0.764   1.460   8.265 -0.1738  0.9984  0.8388
 1076SOL    HW214865   0.811   1.339   8.335 -0.8848 -0.1970  1.1300
 1077SOL     OW14866   1.532   0.766   3.082 -0.2673  0.3579  0.3797
 1077SOL    HW114867   1.526   0.715   3.002  2.1539 -2.3445  1.9268
 1077SOL    HW214868   1.551   0.703   3.152  0.1375  1.4202  1.2348
 1078SOL     OW14869   4.571   2.662  11.025 -0.3956  0.3930  0.1727
 1078SOL    HW114870   4.666   2.647  11.027 -0.4896 -0.0647  1.3959
 1078SOL    HW214871   4.557   2.719  10.949  0.5984  1.5374  0.8405
 1079SOL     OW14872   2.487   2.395   3.187 -0.3028  0.2498  0.3316
 1079SOL    HW114873   2.526   2.358   3.267  0.6228  2.1981  0.7666
 1079SOL    HW214874   2.436   2.317   3.163  0.3311 -0.4057  1.0924
 1080SOL     OW14875   1.520   2.248  16.741 -0.6389  0.8537 -0.5230
 1080SOL    HW114876   1.565   2.296  16.671  1.8819  2.0337  1.9024
 1080SOL    HW214877   1.520   2.157  16.711 -0.7524  0.5191  0.5047
 1081SOL     OW14878   2.978   0.526   9.120  0.6055  0.1328  0.1619
 1081SOL    HW114879   2.898   0.521   9.069  1.3172  1.7880 -1.1073
 1081SOL    HW214880   2.969   0.617   9.148 -1.6249  0.4356 -1.5948
 1082SOL     OW14881   2.550   3.804   4.636 -0.6981  0.4666  0.1624
 1082SOL    HW114882   2.556   3.842   4.548 -1.3178 -0.8253 -0.4286
 1082SOL    HW214883   2.511   3.720   4.615  1.1464 -0.9810  2.5618
 1083SOL     OW14884   2.908   2.264   4.994 -0.7425  0.3792  0.2573
 1083SOL    HW114885   2.947   2.313   5.065 -1.0373  3.1838 -1.5103
 1083SOL    HW214886   2.900   2.331   4.925 -0.1125  0.5945  0.3923
 1084SOL     OW14887   3.191   2.507   2.054 -0.6752 -0.5464  0.8206
 1084SOL    HW114888   3.282   2.536   2.055 -1.2187  1.1808  0.0148
 1084SOL    HW214889   3.162   2.551   1.974  0.1486 -0.5013  0.5493
 1085SOL     OW14890   1.010   1.675   4.254  0.3934 -0.3030 -0.1963
 1085SOL    HW114891   1.027   1.691   4.347  0.8367  0.4035 -0.3981
 1085SOL    HW214892   0.915   1.688   4.251  0.3431 -0.0170  2.5372
 1086SOL     OW14893   2.888   1.127   1.763  0.1847 -0.1533 -0.2177
 1086SOL    HW114894   2.965   1.140   1.708  0.2260  1.6739  0.2500
 1086SOL    HW214895   2.815   1.157   1.708 -0.7995  0.7538  1.5794
 1087SOL     OW14896   4.043   2.109  12.441  0.1865  0.3427 -0.3868
 1087SOL    HW114897   4.021   2.070  12.356  0.0284  1.0213 -0.6515
 1087SOL    HW214898   3.960   2.109  12.487 -0.4362 -0.7843 -1.5002
 1088SOL     OW14899   3.711   0.363   8.551  0.4361  0.2437 -0.0950
 1088SOL    HW114900   3.686   0.453   8.532  0.1103  0.2605  0.4154
 1088SOL    HW214901   3.768   0.375   8.627  2.2766  1.9407 -1.7357
 1089SOL     OW14902   2.604   3.993   1.986 -0.7064 -0.6455  0.0562
 1089SOL    HW114903   2.646   4.078   1.974 -0.5102 -0.6971  0.3913
 1089SOL    HW214904   2.667   3.959   2.049 -0.5552 -0.0156  0.2411
 1090SOL     OW14905   4.623   1.496   3.207  0.3041  0.3756  0.5878
 1090SOL    HW114906   4.562   1.422   3.215 -0.2842  0.7209 -0.6971
 1090SOL    HW214907   4.622   1.507   3.112  1.7051  0.9466  0.6421
 1091SOL     OW14908   0.597   3.195  15.973 -0.6572  0.3429  0.5584
 1091SOL    HW114909   0.595   3.100  15.973 -1.0387  0.3363 -2.7756
 1091SOL    HW214910   0.690   3.215  15.962 -0.0251 -3.2427 -0.5962
 1092SOL     OW14911   0.642   4.079  12.498 -0.4671 -0.2375 -0.8007
 1092SOL    HW114912   0.575   4.130  12.545 -0.3410  0.0872 -0.9701
 1092SOL    HW214913   0.597   4.021  12.437 -3.7116  1.1674  0.2778
 1093SOL     OW14914   1.983   1.732  10.743 -0.2269 -0.2156  0.4835
 1093SOL    HW114915   1.956   1.667  10.677 -1.7154  2.9013 -2.0013
 1093SOL    HW214916   2.070   1.699  10.763  0.0846 -0.6500 -1.5809
 1094SOL     OW14917   0.039   2.275   2.467 -0.5433 -0.2751  0.4521
 1094SOL    HW114918   4.726   2.222   2.399  0.5254 -2.6168  1.6226
 1094SOL    HW214919   0.131   2.248   2.466  0.0446  1.7007  1.4016
 1095SOL     OW14920   2.995   1.254   0.567  0.0456  0.6887 -0.0044
 1095SOL    HW114921   2.989   1.287   0.657 -0.9680 -0.6449  0.4313
 1095SOL    HW214922   2.906   1.221   0.555  0.9675 -1.1883 -1.5431
 1096SOL     OW14923   4.606   1.155   6.277 -0.1892 -0.2886  0.0339
 1096SOL    HW114924   4.608   1.145   6.182  0.8743  1.9415 -0.1722
 1096SOL    HW214925   4.596   1.063   6.301 -0.0262  0.4333  2.8073
 1097SOL     OW14926   1.232   1.625  12.639  0.1989  0.4510  0.2304
 1097SOL    HW114927   1.247   1.654  12.729 -2.0133  1.7750  0.1809
 1097SOL    HW214928   1.175   1.552  12.664  0.3176 -0.1062 -1.1457
 1098SOL     OW14929   2.502   3.881  16.692  0.1137  0.8100 -0.2917
 1098SOL    HW114930   2.430   3.819  16.699  0.5771  0.2331 -0.6851
 1098SOL    HW214931   2.515   3.880  16.597 -1.6420  2.0519 -0.5333
 1099SOL     OW14932   3.082   0.249  16.078 -0.4213  0.5229 -0.3530
 1099SOL    HW114933   3.100   0.193  16.154  1.0508  0.7786 -0.5181
 1099SOL    HW214934   3.013   0.309  16.107 -1.1701  0.2535 -1.5952
 1100SOL     OW14935   4.322   2.678   5.662 -0.5396 -0.0574  0.3988
 1100SOL    HW114936   4.334   2.590   5.627  2.6807  0.2234  0.8689
 1100SOL    HW214937   4.382   2.715   5.597  1.4034 -2.1719  0.9920
 1101SOL     OW14938   0.941   2.991   1.800  0.2178 -0.2320 -0.0108
 1101SOL    HW114939   0.855   3.023   1.828  1.1547  0.4062  2.2266
 1101SOL    HW214940   0.919   2.986   1.708 -0.7492  1.7179  0.1173
 1102SOL     OW14941   0.269   0.434   6.741  0.0122  0.3153  0.6874
 1102SOL    HW114942   0.243   0.404   6.827 -2.2822 -0.7402 -0.3672
 1102SOL    HW214943   0.300   0.353   6.701  3.4919  1.7014  0.5654
 1103SOL     OW14944   4.578   3.127   2.648 -0.0424  0.0758  0.2276
 1103SOL    HW114945   4.524   3.189   2.699  0.4826  1.3615 -0.7794
 1103SOL    HW214946   4.614   3.079   2.722 -1.0880 -1.7688 -0.4531
 1104SOL     OW14947   1.150   1.982   7.210 -0.4722 -0.3508  0.5147
 1104SOL    HW114948   1.138   1.899   7.163 -1.5613  0.9986 -1.6385
 1104SOL    HW214949   1.055   1.991   7.221 -0.4503  1.0153 -0.3576
 1105SOL     OW14950   1.596   1.455  11.183  0.0139  0.1617  0.6107
 1105SOL    HW114951   1.633   1.447  11.095  0.0388 -0.6727  0.7008
 1105SOL    HW214952   1.509   1.493  11.166  0.9202  2.0709  0.2757
 1106SOL     OW14953   2.588   4.310  15.260  0.0776 -0.3500  0.7001
 1106SOL    HW114954   2.605   4.308  15.354  1.4168 -1.0480  0.4488
 1106SOL    HW214955   2.513   4.370  15.266 -0.0893 -0.3434 -1.4608
 1107SOL     OW14956   0.081   0.826  16.274  0.2595  0.0209 -0.0123
 1107SOL    HW114957   0.144   0.754  16.279 -0.5843 -0.7416 -0.1478
 1107SOL    HW214958   0.101   0.877  16.352  0.5935 -2.7657  1.7311
 1108SOL     OW14959   0.462   1.804   3.082 -0.2618 -0.3483  0.0648
 1108SOL    HW114960   0.464   1.760   2.997 -1.3686  0.3228 -0.2990
 1108SOL    HW214961   0.545   1.792   3.128  0.8314  1.6149 -1.3916
 1109SOL     OW14962   0.352   3.286   7.298 -0.6860 -0.3180  0.6903
 1109SOL    HW114963   0.267   3.300   7.338 -0.9501  0.7141 -0.2350
 1109SOL    HW214964   0.406   3.302   7.375  0.4126 -2.9011  0.4549
 1110SOL     OW14965   2.486   0.411   3.362  0.4685 -0.2666 -0.3277
 1110SOL    HW114966   2.553   0.430   3.296  0.3456 -1.3078 -0.7541
 1110SOL    HW214967   2.482   0.497   3.403  0.6042 -0.8759  0.9457
 1111SOL     OW14968   2.610   1.738  10.432 -0.4471  0.0234 -0.7271
 1111SOL    HW114969   2.583   1.687  10.356  0.6627  1.2741 -1.9624
 1111SOL    HW214970   2.664   1.811  10.403  0.0882  0.1981  0.6702
 1112SOL     OW14971   2.838   0.258   8.908  0.0635  0.3561  0.6781
 1112SOL    HW114972   2.770   0.324   8.920  1.1610  1.5085  0.5339
 1112SOL    HW214973   2.875   0.251   8.996  2.2550  1.8922 -0.1304
 1113SOL     OW14974   4.289   1.726   7.423  0.2424  0.5548 -0.2570
 1113SOL    HW114975   4.377   1.687   7.419 -0.6321 -1.6129  1.6891
 1113SOL    HW214976   4.259   1.704   7.511  0.9741  0.4746 -0.0235
 1114SOL     OW14977   1.857   2.060   5.967 -0.6698 -0.0231 -0.6039
 1114SOL    HW114978   1.789   2.039   6.031  0.6926 -2.2370  0.0928
 1114SOL    HW214979   1.814   2.124   5.910 -2.9114 -1.0665 -0.0922
 1115SOL     OW14980   1.985   1.256   3.240  0.3726  0.1479 -0.0582
 1115SOL    HW114981   2.074   1.291   3.252 -0.0044 -0.9640  6.1559
 1115SOL    HW214982   1.978   1.297   3.154  1.0937 -1.0240 -0.6849
 1116SOL     OW14983   3.492   4.545   6.672  0.3921 -0.0132 -0.3957
 1116SOL    HW114984   3.439   4.621   6.695 -1.4537 -1.2068 -0.6991
 1116SOL    HW214985   3.574   4.594   6.676 -0.5187  1.4826 -0.0520
 1117SOL     OW14986   1.904   0.575   1.990 -0.0959 -0.3944  0.1419
 1117SOL    HW114987   1.933   0.554   2.079  0.1077  0.5250  0.2894
 1117SOL    HW214988   1.912   0.669   1.999 -0.7288 -0.1657 -1.6374
 1118SOL     OW14989   0.061   3.244   6.384  0.1947 -1.0419  0.3521
 1118SOL    HW114990   0.051   3.239   6.479 -0.1162  1.1870  0.4529
 1118SOL    HW214991   0.057   3.154   6.353  1.7148 -0.6498 -0.9566
 1119SOL     OW14992   0.711   2.532   0.956 -0.4780 -0.9513  0.5453
 1119SOL    HW114993   0.764   2.464   0.915 -0.3567 -2.4353  3.1329
 1119SOL    HW214994   0.669   2.565   0.877  0.5931 -1.7013 -0.3422
 1120SOL     OW14995   1.605   0.657  10.411 -0.4721 -0.1061 -0.2242
 1120SOL    HW114996   1.691   0.633  10.378 -0.3498 -1.0949  0.8230
 1120SOL    HW214997   1.614   0.637  10.504  1.6061 -1.3980 -0.7119
 1121SOL     OW14998   0.591   1.678   8.492 -0.3030  0.3569  0.0299
 1121SOL    HW114999   0.586   1.699   8.586 -1.5367 -2.2330  0.5542
 1121SOL    HW215000   0.663   1.738   8.477 -0.2522 -0.0910 -1.5018
 1122SOL     OW15001   2.563   2.727   7.522 -0.2392 -0.1015  1.0931
 1122SOL    HW115002   2.479   2.770   7.534 -0.6782 -0.9198  0.9772
 1122SOL    HW215003   2.582   2.728   7.428 -1.4576  1.3125  0.8713
 1123SOL     OW15004   3.280   4.483  15.184 -0.3513 -0.2150  0.5508
 1123SOL    HW115005   3.244   4.465  15.097  2.4775 -0.0052 -0.6911
 1123SOL    HW215006   3.240   4.409  15.230  0.0950 -1.1218 -0.5090
 1124SOL     OW15007   1.983   4.194  11.945 -0.3165 -0.2265  0.2896
 1124SOL    HW115008   2.069   4.152  11.954 -0.4647 -1.0098 -1.8757
 1124SOL    HW215009   1.952   4.200  12.035 -1.0156  2.2883 -0.1048
 1125SOL     OW15010   4.170   4.225   5.840 -0.1713 -0.2506  0.4597
 1125SOL    HW115011   4.198   4.255   5.754 -2.1801 -3.7935 -1.4409
 1125SOL    HW215012   4.139   4.137   5.818  0.6190 -0.3091 -0.4289
 1126SOL     OW15013   3.037   0.400   2.789  0.0217  0.3038  0.0888
 1126SOL    HW115014   3.052   0.494   2.797  1.9703 -0.1591  1.7380
 1126SOL    HW215015   3.105   0.379   2.852 -0.3203  1.2217  0.7617
 1127SOL     OW15016   0.194   1.680   3.009  0.0712  0.5201 -0.4201
 1127SOL    HW115017   0.272   1.721   3.044  0.2054 -0.1199  0.0135
 1127SOL    HW215018   0.133   1.744   3.046  0.9423  1.3651 -0.4507
 1128SOL     OW15019   3.570   2.405   8.578 -0.1433  0.2605 -0.1084
 1128SOL    HW115020   3.642   2.456   8.614  0.6391 -0.8317 -0.1155
 1128SOL    HW215021   3.495   2.447   8.621  0.4358  0.6026  0.5664
 1129SOL     OW15022   4.026   3.383  10.309  0.4204 -0.0327 -0.0960
 1129SOL    HW115023   3.997   3.469  10.278 -1.1445 -1.0027 -1.3464
 1129SOL    HW215024   4.110   3.371  10.265 -0.0089 -3.5829  0.0788
 1130SOL     OW15025   4.210   2.271   3.389  0.8769  0.0882  0.1172
 1130SOL    HW115026   4.185   2.283   3.481  2.3780 -0.0168  0.5430
 1130SOL    HW215027   4.127   2.243   3.352  0.2927 -0.1793  1.6218
 1131SOL     OW15028   3.040   2.957   5.145  0.5195  0.0800 -0.0862
 1131SOL    HW115029   3.000   3.034   5.185 -1.2623 -0.6832 -0.3707
 1131SOL    HW215030   3.120   2.990   5.106 -1.0895  1.7682 -1.9429
 1132SOL     OW15031   0.164   4.191   4.276 -0.5438 -0.7531  0.4209
 1132SOL    HW115032   0.121   4.271   4.246  0.2040 -0.8556 -0.9231
 1132SOL    HW215033   0.226   4.173   4.205  1.7209 -2.3973  2.7798
 1133SOL     OW15034   1.169   4.602   3.873 -0.1022 -0.3944  0.4268
 1133SOL    HW115035   1.187   4.508   3.882 -0.4327 -0.5517 -0.5255
 1133SOL    HW215036   1.112   4.621   3.947 -0.8026 -0.3947 -0.1113
 1134SOL     OW15037   3.215   0.725   6.760  0.2876 -0.7975 -0.2427
 1134SOL    HW115038   3.123   0.749   6.757  1.0203  2.1405  0.2955
 1134SOL    HW215039   3.261   0.801   6.724 -2.6606  0.5042 -1.2748
 1135SOL     OW15040   2.875   0.572   6.258 -0.5254  0.8354  0.0503
 1135SOL    HW115041   2.906   0.548   6.170  1.1960 -0.8399  1.1045
 1135SOL    HW215042   2.930   0.519   6.315 -0.0511 -0.7826 -1.8759
 1136SOL     OW15043   2.826   0.622   0.476  0.0396 -0.3425  0.5134
 1136SOL    HW115044   2.860   0.556   0.537  1.7646  1.7897  1.8899
 1136SOL    HW215045   2.875   0.599   0.397  0.2557 -0.8312  0.7882
 1137SOL     OW15046   0.091   3.148   4.423 -0.1399  0.3299 -0.0098
 1137SOL    HW115047   0.006   3.136   4.464  1.2348 -0.1897  2.6604
 1137SOL    HW215048   0.068   3.221   4.365 -0.6158  0.1464 -0.0492
 1138SOL     OW15049   2.209   4.367   9.891  0.0999  0.1465 -0.6054
 1138SOL    HW115050   2.175   4.394   9.806  1.1404  0.0105 -1.0573
 1138SOL    HW215051   2.179   4.446   9.937 -0.8904 -1.0297  0.7731
 1139SOL     OW15052   2.442   4.575   5.274 -0.2597  0.1334 -0.0067
 1139SOL    HW115053   2.403   4.660   5.256  0.4846  0.8205  1.6127
 1139SOL    HW215054   2.535   4.597   5.283 -0.4405  1.2441 -0.8562
 1140SOL     OW15055   4.529   4.644   9.103  0.3411 -0.6802  0.1855
 1140SOL    HW115056   4.557   4.690   9.182 -2.9580  0.1528  0.8927
 1140SOL    HW215057   4.434   4.658   9.104  0.7017  1.6970  0.5768
 1141SOL     OW15058   3.100   3.902   7.896 -0.2685  0.0945  0.3157
 1141SOL    HW115059   3.136   3.826   7.850 -2.1584 -0.5797 -0.0629
 1141SOL    HW215060   3.172   3.946   7.940  1.7460 -2.2436 -0.6546
 1142SOL     OW15061   2.349   4.398   4.684 -0.4222 -0.2469 -0.4176
 1142SOL    HW115062   2.263   4.357   4.684 -0.7037  0.3430  0.0936
 1142SOL    HW215063   2.357   4.451   4.604  3.5907  0.4748  0.4562
 1143SOL     OW15064   1.738   1.668  16.092 -0.2921 -0.1326 -0.2056
 1143SOL    HW115065   1.737   1.589  16.038  1.2534  1.2653 -2.2189
 1143SOL    HW215066   1.786   1.731  16.039 -0.1004 -1.1104 -1.1896
 1144SOL     OW15067   1.499   2.779  16.580 -0.6626 -0.6717 -0.1989
 1144SOL    HW115068   1.432   2.730  16.627 -0.5768 -1.6384 -1.0766
 1144SOL    HW215069   1.568   2.763  16.645 -1.0079  0.8877  0.5389
 1145SOL     OW15070   0.568   0.635   2.107 -0.0650  0.3271  0.6434
 1145SOL    HW115071   0.626   0.650   2.032  0.4012 -0.0750  0.9236
 1145SOL    HW215072   0.601   0.692   2.176  0.9192 -1.3009  1.5272
 1146SOL     OW15073   1.091   2.866   2.315 -0.9302  0.4730  0.7165
 1146SOL    HW115074   1.066   2.800   2.251 -0.4359  1.0776 -0.1023
 1146SOL    HW215075   1.026   2.843   2.381 -0.2945 -0.4019  1.0223
 1147SOL     OW15076   1.176   4.036   4.924 -0.0016  0.0663  0.1099
 1147SOL    HW115077   1.164   4.080   4.840 -0.5634 -2.8598 -1.3176
 1147SOL    HW215078   1.269   4.021   4.904 -0.3574  1.3627 -2.5704
 1148SOL     OW15079   1.174   2.968   8.497  0.1366 -0.2572  0.5498
 1148SOL    HW115080   1.259   3.008   8.515 -0.6445  1.1580  1.1233
 1148SOL    HW215081   1.173   2.971   8.401 -0.7578 -4.1657  0.4439
 1149SOL     OW15082   0.501   1.663   6.304 -0.3642 -0.4833  0.1693
 1149SOL    HW115083   0.546   1.658   6.389 -0.8495  1.4483  0.5287
 1149SOL    HW215084   0.458   1.747   6.316 -0.2047 -0.8228  3.1062
 1150SOL     OW15085   3.326   0.094  11.153  0.3360 -0.4094 -0.3471
 1150SOL    HW115086   3.268   0.025  11.119  1.5170 -1.1575 -0.8431
 1150SOL    HW215087   3.274   0.138  11.221 -0.4419 -0.1893 -1.0868
 1151SOL     OW15088   4.721   1.620  11.776  0.3847  0.8145  0.6212
 1151SOL    HW115089   4.704   1.676  11.701 -1.7815  0.3433  0.7507
 1151SOL    HW215090   0.064   1.573  11.733 -1.7615  0.6948 -2.8140
 1152SOL     OW15091   2.603   2.702   8.686 -0.9550  0.5075 -0.4532
 1152SOL    HW115092   2.651   2.654   8.754 -1.5728 -1.7511 -1.6079
 1152SOL    HW215093   2.516   2.668   8.710 -0.3761 -2.7432 -3.0287
 1153SOL     OW15094   4.659   2.893  13.383 -0.1227  0.0752  0.0377
 1153SOL    HW115095   4.681   2.825  13.319  0.2999  0.4718 -0.2443
 1153SOL    HW215096   4.682   2.845  13.463  0.5266 -2.1856 -1.4955
 1154SOL     OW15097   3.076   2.559   0.083 -0.2035  0.5146 -0.7050
 1154SOL    HW115098   3.116   2.489   0.032  2.1973  0.7540  0.8404
 1154SOL    HW215099   3.123   2.638   0.054 -0.7537  1.5949  1.3105
 1155SOL     OW15100   3.940   1.575  10.481  0.5682  0.1859  0.2184
 1155SOL    HW115101   3.905   1.653  10.524  1.1479  0.0965  0.8670
 1155SOL    HW215102   3.894   1.580  10.398 -1.9078 -2.0947  1.4305
 1156SOL     OW15103   1.248   1.961   1.135 -0.0280 -0.7605  0.1290
 1156SOL    HW115104   1.273   1.871   1.154  2.3101 -0.0757  0.3073
 1156SOL    HW215105   1.244   1.953   1.040 -3.2283 -1.0965  0.2969
 1157SOL     OW15106   0.577   0.031   8.479  0.2345 -0.1934 -0.4806
 1157SOL    HW115107   0.614   0.118   8.498 -1.2533 -0.0783  1.9978
 1157SOL    HW215108   0.491   0.056   8.444  0.6230 -0.3604 -1.5388
 1158SOL     OW15109   0.376   2.663   7.169  0.0051  0.6087  0.1651
 1158SOL    HW115110   0.367   2.575   7.205  0.4157  0.3004 -0.4891
 1158SOL    HW215111   0.286   2.694   7.160  0.1997  1.3483  0.7243
 1159SOL     OW15112   3.542   4.134   7.191 -0.0848  0.0986  0.1635
 1159SOL    HW115113   3.612   4.072   7.215  1.4424  1.2709 -1.2874
 1159SOL    HW215114   3.587   4.184   7.123 -0.2393  3.0916  2.2543
 1160SOL     OW15115   3.485   2.362   0.484  0.3062  0.0143  0.6509
 1160SOL    HW115116   3.505   2.453   0.463 -2.6019  0.5411  0.0666
 1160SOL    HW215117   3.421   2.368   0.555  0.9235  3.0501  0.9517
 1161SOL     OW15118   1.480   3.504  10.940 -0.0983 -0.2501  0.1945
 1161SOL    HW115119   1.496   3.585  10.893 -1.0892 -0.9202 -1.2819
 1161SOL    HW215120   1.506   3.539  11.026 -1.5934  3.7728 -1.0114
 1162SOL     OW15121   0.401   3.273  11.967 -0.1465  0.2896 -0.2486
 1162SOL    HW115122   0.414   3.320  12.049  1.0692  0.9394 -0.8192
 1162SOL    HW215123   0.375   3.348  11.914  0.0624  0.5528  0.0274
 1163SOL     OW15124   3.347   0.041   5.858 -0.3386  0.5736 -0.1510
 1163SOL    HW115125   3.415   4.714   5.895 -0.0378 -0.1083 -1.7595
 1163SOL    HW215126   3.284   4.699   5.847  1.5907 -0.9350 -1.2854
 1164SOL     OW15127   2.462   3.689   6.144  0.0134 -0.2759 -0.4400
 1164SOL    HW115128   2.504   3.614   6.102 -1.2346 -0.7144 -0.8997
 1164SOL    HW215129   2.389   3.705   6.085  0.1778 -2.0751 -1.1198
 1165SOL     OW15130   3.486   0.157   8.525  0.0949  0.3021 -0.3833
 1165SOL    HW115131   3.540   0.078   8.523 -0.0877  0.2269 -1.9159
 1165SOL    HW215132   3.554   0.221   8.545  1.0937  0.1929 -3.4293
 1166SOL     OW15133   0.843   1.615   8.197 -0.2096  0.0225  0.3683
 1166SOL    HW115134   0.829   1.699   8.153  1.9253 -0.4804 -1.2517
 1166SOL    HW215135   0.919   1.633   8.251  0.2975  1.1163 -0.6955
 1167SOL     OW15136   0.537   3.485   8.931 -0.0336  0.4599 -0.2003
 1167SOL    HW115137   0.492   3.400   8.929  1.5325 -0.4606  2.7016
 1167SOL    HW215138   0.566   3.489   8.840  0.3116 -2.8474 -0.2304
 1168SOL     OW15139   1.959   1.177  14.761 -0.2340 -0.0138 -0.3828
 1168SOL    HW115140   1.866   1.172  14.739 -0.0110  0.4097 -1.4159
 1168SOL    HW215141   1.971   1.269  14.787 -2.0317  0.3554 -0.8165
 1169SOL     OW15142   3.012   1.926   6.904 -0.1522 -0.6126 -0.2557
 1169SOL    HW115143   3.067   1.917   6.982  1.3606  2.4239 -0.9783
 1169SOL    HW215144   2.957   1.848   6.911 -0.0499 -0.7119 -0.5778
 1170SOL     OW15145   0.702   0.483   6.875 -0.2734 -0.1802  0.4867
 1170SOL    HW115146   0.634   0.548   6.860 -2.5376 -2.1563  2.0625
 1170SOL    HW215147   0.665   0.396   6.856 -1.7837  0.9818 -1.9085
 1171SOL     OW15148   2.266   1.275   5.283 -0.3579  0.1244  0.4444
 1171SOL    HW115149   2.280   1.356   5.235  0.9375 -0.3911 -0.0462
 1171SOL    HW215150   2.175   1.257   5.263 -0.1468  0.2731 -0.6448
 1172SOL     OW15151   0.871   4.633  11.798 -0.6250 -0.0486  0.3867
 1172SOL    HW115152   0.807   4.704  11.805 -0.8295 -0.2907  0.9577
 1172SOL    HW215153   0.934   4.665  11.862  1.9917 -0.4221 -2.0498
 1173SOL     OW15154   0.839   4.027  14.370  0.1307 -0.4655 -0.1381
 1173SOL    HW115155   0.894   4.080  14.427  0.7220 -0.0844 -1.0609
 1173SOL    HW215156   0.906   3.961  14.353  0.6738  0.3516 -1.1396
 1174SOL     OW15157   1.062   4.495   4.666  0.0740  0.4214 -0.1154
 1174SOL    HW115158   0.997   4.482   4.597 -1.0728 -0.1451  1.0722
 1174SOL    HW215159   1.074   4.589   4.651 -0.8554  0.6702  0.6927
 1175SOL     OW15160   3.192   1.101   4.175  0.1502  0.2831  0.0962
 1175SOL    HW115161   3.210   1.038   4.105 -2.2605 -0.8631  0.5095
 1175SOL    HW215162   3.229   1.057   4.251  0.6591  0.6382  0.0466
 1176SOL     OW15163   1.194   3.520   7.034 -0.2516 -0.5517 -0.4909
 1176SOL    HW115164   1.197   3.608   6.996  0.0017 -1.4217 -2.4493
 1176SOL    HW215165   1.173   3.536   7.126 -0.2542  0.5915 -0.6850
 1177SOL     OW15166   3.475   0.137   5.494  0.0359 -0.0878  0.0883
 1177SOL    HW115167   3.546   0.138   5.559 -1.1919 -1.5260  1.4488
 1177SOL    HW215168   3.484   0.043   5.477 -0.0699 -0.0129 -0.3559
 1178SOL     OW15169   0.232   0.722  14.690  0.3452 -0.2142  0.0870
 1178SOL    HW115170   0.251   0.675  14.609 -1.3114 -0.0057 -0.4160
 1178SOL    HW215171   0.311   0.705  14.742 -0.4239 -0.1239  1.2809
 1179SOL     OW15172   3.983   0.500   1.980 -0.0696 -0.2547  0.1706
 1179SOL    HW115173   4.018   0.554   1.909  0.3985  1.5001  1.7163
 1179SOL    HW215174   3.914   0.459   1.929  0.8211 -0.1455 -1.1349
 1180SOL     OW15175   4.258   1.848   6.104 -0.1472  0.0935  0.2243
 1180SOL    HW115176   4.217   1.802   6.030 -1.6940  1.8556 -0.0125
 1180SOL    HW215177   4.190   1.911   6.128  0.3778 -0.7695  4.0531
 1181SOL     OW15178   2.187   1.525   1.808 -0.7202 -0.1658 -0.2286
 1181SOL    HW115179   2.091   1.516   1.808 -0.7891  0.5722  0.9235
 1181SOL    HW215180   2.213   1.514   1.899  1.7716  0.6109 -0.8540
 1182SOL     OW15181   2.081   1.873   2.385 -0.0848  0.3866  0.3121
 1182SOL    HW115182   2.026   1.808   2.342 -2.0691  1.2425  1.5593
 1182SOL    HW215183   2.013   1.927   2.424 -2.0328  0.1209 -2.6916
 1183SOL     OW15184   3.962   2.688   1.445  0.3155 -0.4239 -0.1036
 1183SOL    HW115185   3.977   2.782   1.437 -4.2746  0.5273  2.5433
 1183SOL    HW215186   3.878   2.694   1.492 -0.0660 -1.1399 -0.6986
 1184SOL     OW15187   0.354   4.128   8.864  0.4027 -0.1453 -0.0011
 1184SOL    HW115188   0.369   4.197   8.928 -1.2041  1.7915 -1.7376
 1184SOL    HW215189   0.339   4.187   8.790 -4.2198  0.0479  1.1425
 1185SOL     OW15190   1.700   2.744   1.838  0.0763 -0.1800 -0.9597
 1185SOL    HW115191   1.765   2.727   1.770  2.8036  2.4970  1.0080
 1185SOL    HW215192   1.628   2.778   1.785 -1.5357  0.5428  1.7206
 1186SOL     OW15193   2.223   1.580   4.346 -0.0553 -0.0591 -0.6466
 1186SOL    HW115194   2.184   1.570   4.259  0.7703 -2.5398 -0.7334
 1186SOL    HW215195   2.299   1.522   4.335  0.7496  1.0823 -1.1388
 1187SOL     OW15196   1.758   3.394   8.679  0.2404 -0.7002  0.0760
 1187SOL    HW115197   1.724   3.480   8.655 -0.2518 -0.6456  0.9808
 1187SOL    HW215198   1.688   3.335   8.653 -0.7379  1.1461 -1.4920
 1188SOL     OW15199   0.404   4.687   7.378  0.7707  0.4001  0.1322
 1188SOL    HW115200   0.356   4.638   7.445  1.1557 -0.0452  0.0831
 1188SOL    HW215201   0.489   4.643   7.371  0.6806 -0.1879  2.8758
 1189SOL     OW15202   0.032   3.402   3.530 -0.2106  0.0918  0.8041
 1189SOL    HW115203   4.710   3.367   3.457  0.8979 -1.3696  0.7212
 1189SOL    HW215204   4.706   3.446   3.595 -1.0895  0.0932  0.0527
 1190SOL     OW15205   1.686   4.069   5.650  0.0949  0.0248 -0.1940
 1190SOL    HW115206   1.594   4.060   5.675  0.5648  1.9811  2.1507
 1190SOL    HW215207   1.662   4.086   5.559  0.8577  1.5376 -0.1125
 1191SOL     OW15208   0.283   2.459   0.948  0.6512  0.2045  0.5671
 1191SOL    HW115209   0.361   2.465   0.893 -2.2627 -0.3955 -3.6990
 1191SOL    HW215210   0.285   2.533   1.009 -0.9646  2.4933 -2.1089
 1192SOL     OW15211   3.414   3.793   3.800  0.4882 -0.3538  0.3139
 1192SOL    HW115212   3.341   3.734   3.782  0.8159 -0.6204 -0.1263
 1192SOL    HW215213   3.369   3.876   3.812 -3.4419 -2.1842 -1.8910
 1193SOL     OW15214   3.086   3.524   2.057 -0.3417  0.1749  0.3984
 1193SOL    HW115215   3.018   3.534   2.123 -0.8495  0.9438 -0.2382
 1193SOL    HW215216   3.156   3.475   2.100  1.0975  0.7759 -1.2205
 1194SOL     OW15217   4.346   1.876   3.613  0.9713 -0.0334  0.3729
 1194SOL    HW115218   4.412   1.943   3.595 -0.5213  1.3582  0.1213
 1194SOL    HW215219   4.373   1.804   3.557 -0.5171  0.4558 -0.9613
 1195SOL     OW15220   0.213   1.584   6.889  0.7780  0.5380  0.5131
 1195SOL    HW115221   0.178   1.668   6.860 -1.4759 -1.7925 -3.5263
 1195SOL    HW215222   0.138   1.557   6.943 -0.0500 -0.2711 -1.0381
 1196SOL     OW15223   0.283   2.503   7.873  0.0555 -0.1725  0.6529
 1196SOL    HW115224   0.378   2.503   7.862 -0.1503 -1.4770 -1.1718
 1196SOL    HW215225   0.272   2.577   7.933  0.5484  0.5104 -0.1014
 1197SOL     OW15226   1.213   1.669   2.037 -0.0794 -0.3691 -0.6119
 1197SOL    HW115227   1.187   1.579   2.018  0.1310 -0.0696 -2.2551
 1197SOL    HW215228   1.156   1.681   2.113 -0.3818  1.9211 -1.2271
 1198SOL     OW15229   2.014   1.521  15.224 -0.4360 -0.4424 -0.7222
 1198SOL    HW115230   2.069   1.453  15.262 -0.3670 -0.2605 -0.4971
 1198SOL    HW215231   2.041   1.601  15.270 -0.2297 -1.9954  1.8031
 1199SOL     OW15232   2.490   0.466   4.698 -0.6181  0.2677 -0.2687
 1199SOL    HW115233   2.468   0.391   4.754  4.1155 -1.3228 -0.5813
 1199SOL    HW215234   2.511   0.432   4.611  0.0543 -1.7387  0.6715
 1200SOL     OW15235   4.549   0.469  12.980  0.1354 -0.4499 -0.0732
 1200SOL    HW115236   4.585   0.501  13.063 -1.6666 -0.9617  0.9009
 1200SOL    HW215237   4.494   0.402  13.019 -2.2092  1.3763 -0.2219
 1201SOL     OW15238   0.611   3.988   4.559  0.2501  0.0984 -0.2672
 1201SOL    HW115239   0.522   4.024   4.562 -1.3329 -3.8110 -0.1338
 1201SOL    HW215240   0.579   3.903   4.531  1.1107 -0.4888  0.5183
 1202SOL     OW15241   0.690   2.916   6.914  0.1896 -1.1294 -0.2196
 1202SOL    HW115242   0.652   2.828   6.916 -1.4181 -0.4565 -1.1020
 1202SOL    HW215243   0.783   2.903   6.895  0.0602 -1.8043 -0.3981
 1203SOL     OW15244   4.139   3.715   0.933  0.0558  0.2378  0.3943
 1203SOL    HW115245   4.092   3.770   0.997  0.4346 -0.8081  1.5645
 1203SOL    HW215246   4.091   3.740   0.854  0.1013 -0.6851  0.0781
 1204SOL     OW15247   1.922   3.366   7.367 -0.1242  0.4350 -0.0248
 1204SOL    HW115248   1.909   3.336   7.277  0.7508  0.2851 -0.1056
 1204SOL    HW215249   1.899   3.459   7.361 -0.4966  0.3652  0.3634
 1205SOL     OW15250   0.600   3.099   1.359 -0.1490 -0.3096  0.2868
 1205SOL    HW115251   0.659   3.041   1.312  1.5764  1.3334  0.4271
 1205SOL    HW215252   0.643   3.184   1.352  1.8408 -1.1468  2.1819
 1206SOL     OW15253   3.978   0.600   7.286  0.0063 -1.0803 -0.2918
 1206SOL    HW115254   4.068   0.570   7.270  0.5253  1.5398 -2.3192
 1206SOL    HW215255   3.952   0.544   7.359  1.9643 -1.4479  0.1436
 1207SOL     OW15256   3.402   3.695   3.129  0.2650  0.2527 -0.1696
 1207SOL    HW115257   3.336   3.747   3.174 -0.2035 -1.1274  0.7399
 1207SOL    HW215258   3.422   3.627   3.194 -2.5427  0.6075  1.0903
 1208SOL     OW15259   2.908   4.124   2.507 -0.6285  0.4434 -0.0541
 1208SOL    HW115260   2.953   4.177   2.573 -1.8644  0.1391  1.0293
 1208SOL    HW215261   2.893   4.047   2.562 -1.4203  1.4344  1.1189
 1209SOL     OW15262   4.656   0.073   7.173  0.0319 -0.0314 -0.1151
 1209SOL    HW115263   4.624   0.076   7.083  0.2188 -1.1141 -0.2181
 1209SOL    HW215264   4.619   0.155   7.205  0.0573 -0.5910  1.3504
 1210SOL     OW15265   0.849   2.095   7.737  0.4763 -0.6230 -0.1568
 1210SOL    HW115266   0.919   2.068   7.678  0.1937  2.3987 -1.8552
 1210SOL    HW215267   0.892   2.118   7.820  1.3032  1.3964 -1.1524
 1211SOL     OW15268   0.375   4.700   3.505  0.8007  0.2585  0.0275
 1211SOL    HW115269   0.360   4.607   3.525  2.2068  0.0809  0.3042
 1211SOL    HW215270   0.437   0.004   3.570  1.5679  0.0012 -0.5656
 1212SOL     OW15271   3.122   1.546   0.543  0.5806  0.2804  0.4460
 1212SOL    HW115272   3.135   1.454   0.565 -1.1612 -0.0811 -0.0287
 1212SOL    HW215273   3.049   1.536   0.482  1.8958  1.7991 -1.3420
 1213SOL     OW15274   2.529   3.338  11.246  0.3228  0.0566  0.3254
 1213SOL    HW115275   2.505   3.411  11.303  1.3037  0.8492 -0.2679
 1213SOL    HW215276   2.444   3.339  11.202 -0.1804  0.2764  1.2968
 1214SOL     OW15277   1.540   0.368   3.144 -0.1449 -0.3942 -0.1721
 1214SOL    HW115278   1.506   0.407   3.064 -1.8722 -1.4040  0.0880
 1214SOL    HW215279   1.541   0.443   3.203 -1.4114 -0.6255  0.1308
 1215SOL     OW15280   2.383   3.107   6.716 -0.3489 -0.0232  0.3090
 1215SOL    HW115281   2.340   3.184   6.754 -0.2586  0.1460  0.0690
 1215SOL    HW215282   2.301   3.066   6.691  0.0349 -0.0137 -0.9362
 1216SOL     OW15283   2.938   3.316   1.650 -0.1934 -0.5719  0.3016
 1216SOL    HW115284   3.018   3.264   1.661  0.5872  0.5255 -0.2484
 1216SOL    HW215285   2.870   3.275   1.703 -0.1393 -0.0568  0.7641
 1217SOL     OW15286   0.340   3.962   4.457  0.2205 -0.0800  0.0608
 1217SOL    HW115287   0.321   3.885   4.404 -0.6466 -0.1920  0.5362
 1217SOL    HW215288   0.251   3.991   4.482 -0.1310 -1.5336  0.4744
 1218SOL     OW15289   0.767   2.340  17.668  0.0900  0.4086 -0.4839
 1218SOL    HW115290   0.702   2.308  17.606  1.8131 -1.5198 -1.2816
 1218SOL    HW215291   0.826   2.401  17.623  2.1020  0.0449  1.6999
 1219SOL     OW15292   2.338   0.960   8.747 -0.1610  0.6181 -0.3650
 1219SOL    HW115293   2.279   1.004   8.687  0.3132 -1.1383 -2.1151
 1219SOL    HW215294   2.410   0.945   8.685  1.5494  1.0449  1.4974
 1220SOL     OW15295   0.481   1.492   3.731 -0.3647  0.1885  0.4404
 1220SOL    HW115296   0.507   1.567   3.677  3.3512 -0.1462  1.8019
 1220SOL    HW215297   0.521   1.420   3.683  2.2028  2.7979 -1.3607
 1221SOL     OW15298   0.912   1.528   5.527 -0.0015 -0.0351 -0.4580
 1221SOL    HW115299   0.844   1.488   5.581  1.6504 -0.4354  1.3436
 1221SOL    HW215300   0.980   1.462   5.537 -0.4432 -0.1175  1.9086
 1222SOL     OW15301   1.344   2.279   5.056  0.7859  0.0337 -0.4250
 1222SOL    HW115302   1.267   2.333   5.075  2.2585  1.5016  1.3905
 1222SOL    HW215303   1.386   2.284   5.142 -0.3082 -3.7634  0.3362
 1223SOL     OW15304   4.599   0.222   8.027  0.1056 -0.1884 -0.3567
 1223SOL    HW115305   4.622   0.244   7.937 -0.5228  0.7746 -0.2886
 1223SOL    HW215306   4.612   0.304   8.074  1.0456  0.3210 -1.4951
 1224SOL     OW15307   2.888   2.016   2.040  0.9050 -0.3167 -0.1797
 1224SOL    HW115308   2.915   2.106   2.024  0.5536 -0.0510  0.7677
 1224SOL    HW215309   2.932   1.995   2.122 -0.3505 -2.3571 -0.0197
 1225SOL     OW15310   4.446   1.032   2.827 -0.4659 -0.3030  0.6772
 1225SOL    HW115311   4.519   1.091   2.809  1.5571 -3.3816 -1.0757
 1225SOL    HW215312   4.480   0.950   2.793  0.3633  1.1032 -1.9509
 1226SOL     OW15313   4.108   2.211   8.997  1.0409 -0.6285 -0.1761
 1226SOL    HW115314   4.052   2.206   8.919  0.2548 -0.4102  0.3843
 1226SOL    HW215315   4.047   2.190   9.067  0.4063  0.4920 -0.3925
 1227SOL     OW15316   3.948   3.149   8.752  0.2442  0.2974 -0.1452
 1227SOL    HW115317   4.031   3.189   8.780  0.1723  0.3280  0.0260
 1227SOL    HW215318   3.966   3.060   8.783 -0.3445  0.3494  0.3426
 1228SOL     OW15319   1.932   1.468   8.610  0.5434 -0.2496  0.1387
 1228SOL    HW115320   1.854   1.422   8.639  1.8167 -1.4478  1.6766
 1228SOL    HW215321   1.926   1.436   8.521  0.3579 -1.0171  0.4268
 1229SOL     OW15322   1.891   1.465   1.756  0.1587  0.0490 -0.2349
 1229SOL    HW115323   1.839   1.408   1.813  1.2734 -0.2218  0.5204
 1229SOL    HW215324   1.834   1.485   1.682  1.4243  0.7173 -1.0281
 1230SOL     OW15325   4.193   0.655  17.280  0.4972 -0.6311 -0.1557
 1230SOL    HW115326   4.189   0.740  17.235  1.2283 -0.0015  0.9661
 1230SOL    HW215327   4.128   0.610  17.227 -0.5752  0.2434  0.4038
 1231SOL     OW15328   3.682   4.276   5.858 -0.7513 -0.2001  0.2928
 1231SOL    HW115329   3.760   4.222   5.849 -0.3000  0.3835  0.7790
 1231SOL    HW215330   3.710   4.346   5.917 -0.0924 -1.4928  1.4885
 1232SOL     OW15331   1.203   1.198   1.014  0.3060  0.0714  0.2821
 1232SOL    HW115332   1.294   1.176   1.034  0.2123  0.4671  1.1737
 1232SOL    HW215333   1.199   1.293   1.026  0.3062 -0.2097  2.5817
 1233SOL     OW15334   3.294   3.474   2.824 -0.0806 -0.3065  0.2783
 1233SOL    HW115335   3.338   3.559   2.825  1.0411 -0.8624 -2.0671
 1233SOL    HW215336   3.355   3.421   2.875 -1.0811 -1.0896  0.6590
 1234SOL     OW15337   4.220   4.129   2.974  0.4623 -0.3391  0.2399
 1234SOL    HW115338   4.241   4.053   3.027  1.6268 -0.4601 -0.3961
 1234SOL    HW215339   4.230   4.204   3.032  2.0286  0.6021 -1.2406
 1235SOL     OW15340   3.619   2.302   9.268  0.7057  0.0949  0.2660
 1235SOL    HW115341   3.701   2.287   9.314  0.2098  1.4707  1.6010
 1235SOL    HW215342   3.600   2.215   9.232 -0.0149  0.6664 -0.7564
 1236SOL     OW15343   2.014   2.591   7.907  0.0450  0.7498  0.5998
 1236SOL    HW115344   2.074   2.666   7.909 -0.3614  1.0757  0.5728
 1236SOL    HW215345   1.950   2.614   7.840  0.8496 -0.3517 -0.5430
 1237SOL     OW15346   1.596   4.699   0.399  0.3655 -0.2066  0.3974
 1237SOL    HW115347   1.674   4.650   0.373  0.0969  1.3572 -3.3532
 1237SOL    HW215348   1.632   0.058   0.412 -0.8121  0.3449 -0.1308
 1238SOL     OW15349   2.604   4.476   7.394  0.4204  0.1108 -0.1217
 1238SOL    HW115350   2.679   4.506   7.445  0.6441  1.6676 -1.3586
 1238SOL    HW215351   2.629   4.388   7.364  0.8878 -0.3423  1.6034
 1239SOL     OW15352   3.873   2.905   6.296 -0.0305 -0.1119 -0.1506
 1239SOL    HW115353   3.898   2.868   6.381 -0.9771  2.3490  1.1961
 1239SOL    HW215354   3.835   2.833   6.246  1.1089  0.2342 -1.4999
 1240SOL     OW15355   0.959   0.685  17.133 -0.1362 -0.0259  0.3604
 1240SOL    HW115356   1.022   0.631  17.085 -0.4524 -2.1367  2.3353
 1240SOL    HW215357   0.997   0.772  17.145  2.1217 -0.8408 -0.8108
 1241SOL     OW15358   2.507   1.559   6.123  0.3246 -0.0561  0.3062
 1241SOL    HW115359   2.415   1.582   6.135 -0.3477 -1.7497 -1.4173
 1241SOL    HW215360   2.552   1.606   6.192  2.3710 -0.7776 -0.5374
 1242SOL     OW15361   3.180   1.196   6.836  0.4132 -0.6267 -0.7424
 1242SOL    HW115362   3.233   1.204   6.915  0.2199 -1.3260 -0.5417
 1242SOL    HW215363   3.162   1.285   6.808 -0.9216 -0.7465 -0.2857
 1243SOL     OW15364   4.194   0.234   9.044  0.3272 -0.1862  0.1605
 1243SOL    HW115365   4.101   0.210   9.039  1.2287 -3.5952  0.3350
 1243SOL    HW215366   4.231   0.146   9.048  0.9229  0.0660  0.2458
 1244SOL     OW15367   1.543   3.203   7.449  0.2605  0.2952 -0.1140
 1244SOL    HW115368   1.617   3.219   7.507 -0.5639 -0.2711  1.0894
 1244SOL    HW215369   1.524   3.296   7.435  0.0583  0.2084 -0.4428
 1245SOL     OW15370   0.549   2.539   7.836 -0.4461  0.2212  0.1786
 1245SOL    HW115371   0.624   2.596   7.856 -1.8879  1.7089  1.3805
 1245SOL    HW215372   0.586   2.453   7.818  1.0972  0.4841  2.1020
 1246SOL     OW15373   2.565   0.456   7.515  0.0760  0.1086 -0.1987
 1246SOL    HW115374   2.482   0.407   7.521 -0.3263  0.7646 -0.4250
 1246SOL    HW215375   2.630   0.410   7.567 -0.5576 -0.1966  0.3301
 1247SOL     OW15376   4.380   1.060   8.466  0.4348  0.3274  0.5634
 1247SOL    HW115377   4.291   1.063   8.502  0.5658  1.3979  0.7734
 1247SOL    HW215378   4.432   1.039   8.544 -0.7325 -2.6322  0.5554
 1248SOL     OW15379   0.275   4.275   9.894 -0.3042 -0.6329 -0.2612
 1248SOL    HW115380   0.190   4.236   9.870  0.9719 -2.5182 -1.7274
 1248SOL    HW215381   0.335   4.201   9.887 -1.2642 -1.5134  0.5746
 1249SOL     OW15382   4.389   1.611   0.044  0.1631 -0.0336 -0.5768
 1249SOL    HW115383   4.327   1.683   0.041 -1.3188 -1.2625  0.1801
 1249SOL    HW215384   4.424   1.618  17.672 -1.5470 -1.7870 -1.3912
 1250SOL     OW15385   4.679   1.188   8.922 -0.0921 -0.0954 -0.6607
 1250SOL    HW115386   4.630   1.233   8.991  0.3584  0.4366 -0.6883
 1250SOL    HW215387   4.622   1.111   8.918  0.5978 -0.5652 -1.5570
 1251SOL     OW15388   1.595   1.776   6.935  0.3393 -0.3957  0.8520
 1251SOL    HW115389   1.536   1.726   6.993  0.0972  0.3178  1.2312
 1251SOL    HW215390   1.618   1.857   6.981 -1.0072  0.8147 -0.6239
 1252SOL     OW15391   4.184   2.758   9.048  0.2767  0.0016 -0.3117
 1252SOL    HW115392   4.255   2.791   9.103  0.7534 -2.4158  0.5319
 1252SOL    HW215393   4.122   2.740   9.118 -0.1910  0.7463 -0.5308
 1253SOL     OW15394   3.678   2.579   3.057 -0.2369  0.2093 -0.1147
 1253SOL    HW115395   3.682   2.622   2.972 -0.8884  0.4028 -0.0475
 1253SOL    HW215396   3.630   2.502   3.028 -0.0231 -0.3570  1.0427
 1254SOL     OW15397   3.122   2.176  15.597 -0.0787 -0.3005  0.4520
 1254SOL    HW115398   3.176   2.137  15.528  2.6320  3.2729  0.5524
 1254SOL    HW215399   3.078   2.096  15.626 -1.3591  0.0934 -0.4260
 1255SOL     OW15400   1.961   2.585   2.938 -0.3994 -0.1497  0.1162
 1255SOL    HW115401   2.043   2.552   2.903  0.2514 -0.7789  2.2220
 1255SOL    HW215402   1.937   2.512   2.995 -3.0018 -0.7470 -1.7694
 1256SOL     OW15403   1.864   1.445  12.921 -0.1101 -0.0008  0.1719
 1256SOL    HW115404   1.770   1.461  12.929 -0.2424 -1.0026  0.5976
 1256SOL    HW215405   1.864   1.354  12.891 -0.6771  0.4560 -1.2331
 1257SOL     OW15406   3.130   0.920   2.159  0.1093 -0.0844  0.0065
 1257SOL    HW115407   3.056   0.942   2.102  0.1862  2.2024  0.7762
 1257SOL    HW215408   3.108   0.976   2.234  0.3634  1.5199 -1.1042
 1258SOL     OW15409   3.788   0.634   4.520 -0.5287 -0.2433 -0.3703
 1258SOL    HW115410   3.830   0.550   4.499  1.7758  0.4556  1.5725
 1258SOL    HW215411   3.721   0.593   4.576  0.6408 -0.2719  0.9919
 1259SOL     OW15412   2.248   1.200  11.417  0.5736 -0.2667  0.2241
 1259SOL    HW115413   2.184   1.145  11.371 -0.4158  2.2783 -1.4213
 1259SOL    HW215414   2.309   1.212  11.344 -0.3137  0.8384 -0.3290
 1260SOL     OW15415   3.027   3.900   6.105 -0.4521  0.0595  0.4183
 1260SOL    HW115416   2.965   3.889   6.177  1.7768 -1.8350  2.0616
 1260SOL    HW215417   3.020   3.991   6.076 -1.4926 -0.1397  0.0579
 1261SOL     OW15418   4.669   3.215   6.631 -0.0593 -0.1838 -0.2315
 1261SOL    HW115419   4.581   3.222   6.594 -0.2506 -1.8306 -0.0955
 1261SOL    HW215420   4.664   3.262   6.714  0.0635  1.4190 -1.1249
 1262SOL     OW15421   3.544   2.313   1.797  0.2501  0.2848  0.2667
 1262SOL    HW115422   3.544   2.342   1.705 -0.4981  0.0513  0.1910
 1262SOL    HW215423   3.591   2.381   1.845  0.3088  0.1702  0.3714
 1263SOL     OW15424   3.471   3.552   5.738 -0.2728  0.6901  0.5713
 1263SOL    HW115425   3.540   3.585   5.796 -2.3561  4.8392  0.6850
 1263SOL    HW215426   3.414   3.629   5.735 -0.6911  0.2888 -1.8840
 1264SOL     OW15427   3.874   0.907   7.554 -0.1788  0.1112 -0.6467
 1264SOL    HW115428   3.821   0.969   7.504 -0.9479  0.4792  0.6259
 1264SOL    HW215429   3.889   0.958   7.634  0.4404 -0.8910 -0.1161
 1265SOL     OW15430   2.512   1.339   4.916 -0.3852  0.8763  0.4440
 1265SOL    HW115431   2.565   1.414   4.945 -3.4931  3.6482 -1.1395
 1265SOL    HW215432   2.568   1.298   4.850  3.2550  3.8125  1.6723
 1266SOL     OW15433   2.765   1.770   2.112  0.1541 -0.2540  0.1677
 1266SOL    HW115434   2.837   1.831   2.096 -0.1064  0.3857  1.4582
 1266SOL    HW215435   2.808   1.689   2.087  1.5866  1.0326 -1.5149
 1267SOL     OW15436   3.013   1.262  14.641 -0.2399  0.3003  0.1090
 1267SOL    HW115437   3.015   1.233  14.550 -1.3217 -1.6544  0.7260
 1267SOL    HW215438   3.105   1.250  14.667  0.6815  1.2020 -2.7970
 1268SOL     OW15439   0.814   0.397  12.782 -0.6780 -0.0550  0.1269
 1268SOL    HW115440   0.842   0.461  12.716 -0.1016 -0.4915 -0.0453
 1268SOL    HW215441   0.752   0.459  12.821 -1.9377 -1.0845 -0.2437
 1269SOL     OW15442   2.895   2.619   7.316  0.0050  0.3266 -0.3526
 1269SOL    HW115443   2.801   2.617   7.332  0.1098  1.8736  0.5299
 1269SOL    HW215444   2.907   2.707   7.280 -1.0838  0.4796 -0.3404
 1270SOL     OW15445   2.601   4.227   5.608 -0.4839  0.1987  0.1077
 1270SOL    HW115446   2.678   4.223   5.551 -0.3423 -0.0077  0.3169
 1270SOL    HW215447   2.570   4.312   5.576 -0.5302 -0.0651 -0.5617
 1271SOL     OW15448   1.979   3.716   5.965  0.4617  0.0496  0.3841
 1271SOL    HW115449   1.911   3.649   5.977  0.4497 -0.3475 -1.8175
 1271SOL    HW215450   1.947   3.773   5.896  1.8252  0.3905  0.0373
 1272SOL     OW15451   4.032   4.483   9.643  0.5615 -0.1077  0.3076
 1272SOL    HW115452   4.107   4.535   9.673 -0.0840  0.5347  0.7875
 1272SOL    HW215453   4.027   4.404   9.697 -1.5047 -0.8159 -0.9386
 1273SOL     OW15454   1.116   2.823  14.150  0.1551  0.0659  0.1581
 1273SOL    HW115455   1.198   2.793  14.189  0.4332 -0.1557 -0.5911
 1273SOL    HW215456   1.059   2.769  14.205 -0.5972 -0.7810 -1.4443
 1274SOL     OW15457   3.789   4.112   8.917 -0.4522 -0.0488 -0.4068
 1274SOL    HW115458   3.768   4.121   8.824  1.1597  0.4622 -0.7239
 1274SOL    HW215459   3.721   4.170   8.951 -0.7077  0.9454 -2.6116
 1275SOL     OW15460   0.377   0.683  15.241  0.4619  0.0123 -0.0181
 1275SOL    HW115461   0.427   0.602  15.241  0.7926  0.2267  1.3464
 1275SOL    HW215462   0.404   0.721  15.324  0.0940 -0.9899  0.5583
 1276SOL     OW15463   4.622   0.596   9.223  0.2804 -0.4700  0.3790
 1276SOL    HW115464   4.690   0.593   9.156 -0.9278 -0.2787 -0.8546
 1276SOL    HW215465   4.566   0.663   9.184  2.4379  0.7684 -0.5615
 1277SOL     OW15466   1.359   3.818   7.345  0.0302  0.1985  0.1192
 1277SOL    HW115467   1.322   3.828   7.433 -0.0336  1.7132 -0.0783
 1277SOL    HW215468   1.377   3.909   7.322  1.1628 -0.4568 -1.5496
 1278SOL     OW15469   0.759   1.994   4.378  0.6654 -0.1648  0.0248
 1278SOL    HW115470   0.688   1.930   4.377  0.5281  0.0362 -2.8443
 1278SOL    HW215471   0.703   2.070   4.392  2.9142  1.5346 -0.1966
 1279SOL     OW15472   3.197   4.550  16.366 -0.1094  0.3884  0.0915
 1279SOL    HW115473   3.241   4.529  16.283 -0.0716  0.6914  0.0343
 1279SOL    HW215474   3.254   4.513  16.433 -2.0756 -0.6654  1.1809
 1280SOL     OW15475   0.054   1.670   7.980 -0.0290 -0.3715 -0.1158
 1280SOL    HW115476   0.038   1.631   8.066  2.3504 -0.0749  0.4637
 1280SOL    HW215477   0.110   1.742   8.008 -2.4240  0.6868  1.9533
 1281SOL     OW15478   2.661   1.086   3.635  0.2845  0.4206  0.0198
 1281SOL    HW115479   2.736   1.100   3.576  1.1871  1.0658  1.3223
 1281SOL    HW215480   2.662   0.991   3.625 -0.7962  0.3813  0.2960
 1282SOL     OW15481   3.708   1.432  10.788 -0.0330 -0.0990 -0.2421
 1282SOL    HW115482   3.697   1.475  10.873  1.2111 -1.4507  0.5998
 1282SOL    HW215483   3.696   1.507  10.730  0.7802  1.0400  1.0779
 1283SOL     OW15484   1.409   0.008   4.730  0.1499 -0.1001  0.0936
 1283SOL    HW115485   1.354   4.712   4.804  1.5895  0.2923  1.3217
 1283SOL    HW215486   1.343   0.010   4.661  0.7426 -2.1047 -0.5441
 1284SOL     OW15487   1.260   2.939  12.063  0.2233 -0.0611  0.4467
 1284SOL    HW115488   1.246   3.008  11.998  0.1422 -1.2601 -0.8389
 1284SOL    HW215489   1.231   2.974  12.147 -1.0826  0.1898 -0.1113
 1285SOL     OW15490   4.134   0.127  16.268  0.1585 -0.1886 -0.0239
 1285SOL    HW115491   4.199   0.161  16.207  1.2650 -3.2406 -0.5563
 1285SOL    HW215492   4.053   0.154  16.225  0.8744 -0.2017 -1.3651
 1286SOL     OW15493   2.723   3.439  14.062  0.3398 -0.0567 -0.9173
 1286SOL    HW115494   2.729   3.535  14.059  0.0218  0.0315  1.4134
 1286SOL    HW215495   2.628   3.438  14.045 -0.0275 -1.3477  1.2233
 1287SOL     OW15496   2.281   2.037   6.798 -0.4939  0.4484  0.3130
 1287SOL    HW115497   2.283   1.941   6.800 -2.4214  0.4399  1.8345
 1287SOL    HW215498   2.207   2.057   6.856 -2.4291 -0.3428 -1.9078
 1288SOL     OW15499   1.754   0.596   0.482 -0.2980  0.4505  0.3554
 1288SOL    HW115500   1.767   0.678   0.434  0.4681 -0.5981 -1.2348
 1288SOL    HW215501   1.782   0.538   0.411 -0.1550  0.8001  0.1214
 1289SOL     OW15502   3.077   2.676   3.074 -0.1310 -0.0453  0.8692
 1289SOL    HW115503   3.148   2.674   3.010 -1.8320  0.5586 -1.0602
 1289SOL    HW215504   3.008   2.630   3.026  1.9924 -0.7869 -1.4820
 1290SOL     OW15505   4.254   2.772  13.242 -0.1517 -0.2387 -0.1744
 1290SOL    HW115506   4.168   2.812  13.256  1.0946  2.0096  0.9174
 1290SOL    HW215507   4.222   2.682  13.234  0.0675 -0.2080 -1.4689
 1291SOL     OW15508   1.375   1.481   9.096 -0.6822 -0.4375 -0.3400
 1291SOL    HW115509   1.419   1.479   9.182 -0.9003 -1.4841 -0.2452
 1291SOL    HW215510   1.320   1.404   9.108 -0.4778  0.2231  4.9320
 1292SOL     OW15511   1.433   4.510   2.133  0.1381  0.4601 -0.9584
 1292SOL    HW115512   1.441   4.417   2.113  1.0592  0.5106 -0.8675
 1292SOL    HW215513   1.492   4.511   2.209 -0.4188 -2.5595 -0.4829
 1293SOL     OW15514   0.429   1.945   7.375 -0.4723  0.2249 -0.1634
 1293SOL    HW115515   0.420   1.948   7.471  1.0989 -2.3265  0.0819
 1293SOL    HW215516   0.453   1.853   7.364  1.3589  0.3823  2.2163
 1294SOL     OW15517   2.048   1.819   7.521 -0.1445  0.5879  0.5502
 1294SOL    HW115518   2.112   1.798   7.589 -1.5829  0.7385  1.9303
 1294SOL    HW215519   1.972   1.831   7.577 -0.9605  0.0869 -0.4323
 1295SOL     OW15520   3.212   0.086   7.717 -0.3161 -0.3418 -0.0952
 1295SOL    HW115521   3.258   0.003   7.732 -0.2219 -0.2538  0.1016
 1295SOL    HW215522   3.188   0.101   7.808  0.9251 -2.0452  0.5274
 1296SOL     OW15523   3.796   3.195   6.657  0.2605 -0.0456 -0.2627
 1296SOL    HW115524   3.747   3.164   6.733 -1.0513 -2.3442 -2.0506
 1296SOL    HW215525   3.740   3.269   6.633  2.2616  0.8726 -2.1820
 1297SOL     OW15526   4.297   3.467   4.874  0.6237  0.0041  0.2049
 1297SOL    HW115527   4.218   3.471   4.928 -0.2182 -0.5278 -1.0031
 1297SOL    HW215528   4.361   3.409   4.916 -0.8252 -2.4986 -1.0683
 1298SOL     OW15529   0.356   4.497   2.040 -0.2950 -0.1112  0.4547
 1298SOL    HW115530   0.336   4.560   2.109 -1.5510  0.5613 -0.5108
 1298SOL    HW215531   0.314   4.538   1.964 -0.5431 -0.6571  0.2967
 1299SOL     OW15532   3.682   2.301  16.520  0.2425 -0.2681  0.6232
 1299SOL    HW115533   3.747   2.328  16.455 -0.5900 -0.9682 -0.4772
 1299SOL    HW215534   3.671   2.214  16.483  1.0322 -1.0374  2.2014
 1300SOL     OW15535   4.637   1.036   8.625  0.0866 -0.0321 -0.0641
 1300SOL    HW115536   4.676   1.104   8.569  2.7862 -1.4942  0.0910
 1300SOL    HW215537   4.630   0.959   8.568  1.3684  0.7175 -1.2154
 1301SOL     OW15538   2.939   4.139   8.433 -0.0360  0.3242 -0.1196
 1301SOL    HW115539   2.886   4.160   8.511 -1.7826 -1.6466 -0.7673
 1301SOL    HW215540   2.957   4.226   8.397 -0.5141  0.5200  0.1038
 1302SOL     OW15541   1.737   3.250   2.338  0.5867 -0.1843 -0.0214
 1302SOL    HW115542   1.738   3.312   2.411  0.4815 -0.7829  0.4868
 1302SOL    HW215543   1.793   3.178   2.365 -1.3378 -0.8428  2.1993
 1303SOL     OW15544   2.751   1.934   6.274  0.1382 -0.2718 -0.1008
 1303SOL    HW115545   2.812   1.997   6.237  0.7234 -1.7466 -1.6507
 1303SOL    HW215546   2.803   1.858   6.300  2.4682  0.9840 -1.0578
 1304SOL     OW15547   3.294   1.270   3.940  0.3053 -0.0825 -0.2928
 1304SOL    HW115548   3.338   1.192   3.905 -0.6956 -0.9175  0.3025
 1304SOL    HW215549   3.204   1.259   3.909 -0.5696 -1.9444  2.8667
 1305SOL     OW15550   1.230   1.094  12.677  0.3272 -0.7248  0.1155
 1305SOL    HW115551   1.241   1.113  12.770 -0.6429  1.7386 -0.2810
 1305SOL    HW215552   1.138   1.068  12.672  0.1657 -0.2769  0.8773
 1306SOL     OW15553   3.733   3.531   7.219  1.0298  0.2999  0.9888
 1306SOL    HW115554   3.650   3.577   7.212  0.5829 -0.3601  1.9947
 1306SOL    HW215555   3.728   3.458   7.158  0.0167  0.5774  0.7455
 1307SOL     OW15556   3.366   1.636  16.498  0.0763  0.6212  0.0008
 1307SOL    HW115557   3.347   1.726  16.471  1.6494  0.8479 -0.3780
 1307SOL    HW215558   3.309   1.587  16.438  0.7572  3.2328 -2.7437
 1308SOL     OW15559   3.989   1.603   5.781 -0.0435  0.1550  0.1439
 1308SOL    HW115560   4.072   1.631   5.819 -0.8439  0.6503  1.5242
 1308SOL    HW215561   3.988   1.508   5.767 -0.8297  0.6520 -3.1748
 1309SOL     OW15562   0.579   0.634   7.604 -0.5772 -0.1336 -0.5889
 1309SOL    HW115563   0.660   0.640   7.554  0.7828  0.2155  1.7117
 1309SOL    HW215564   0.536   0.557   7.566  1.2791 -3.0425  3.2646
 1310SOL     OW15565   3.327   2.207   1.303  0.5359  0.4292  0.0548
 1310SOL    HW115566   3.258   2.145   1.279  1.2407 -0.6533  0.8367
 1310SOL    HW215567   3.316   2.209   1.398  1.2685 -2.1194  0.1912
 1311SOL     OW15568   0.019   1.391   5.180 -0.2209 -0.7104 -0.2530
 1311SOL    HW115569   0.011   1.297   5.162  0.9521 -1.6424  4.0094
 1311SOL    HW215570   0.104   1.391   5.223  0.1969 -0.4150 -1.0763
 1312SOL     OW15571   3.279   4.017   0.684 -0.3617  0.6722  0.4756
 1312SOL    HW115572   3.345   4.032   0.616  0.1013  0.4779  0.8805
 1312SOL    HW215573   3.289   4.106   0.719 -1.7715  1.7319 -1.7824
 1313SOL     OW15574   4.553   1.236  15.135  0.2681  0.0142 -0.1227
 1313SOL    HW115575   4.520   1.321  15.164 -0.3816  0.1444 -1.2621
 1313SOL    HW215576   4.585   1.245  15.046 -1.0433 -0.8942 -0.6803
 1314SOL     OW15577   1.955   1.125   1.261  0.0571  0.4123  0.0619
 1314SOL    HW115578   1.889   1.068   1.222 -1.0407  1.6267  0.1499
 1314SOL    HW215579   1.903   1.172   1.326 -0.0785 -0.6168  0.6959
 1315SOL     OW15580   1.826   2.906  15.709 -0.5208 -0.6331  0.2865
 1315SOL    HW115581   1.737   2.871  15.705 -0.1143 -1.2463 -3.1205
 1315SOL    HW215582   1.818   2.978  15.647 -0.2427 -1.2392 -0.4515
 1316SOL     OW15583   3.711   0.803   6.918  0.1033 -0.8564  0.1126
 1316SOL    HW115584   3.770   0.731   6.895  0.6608  0.4037 -2.3521
 1316SOL    HW215585   3.762   0.834   6.993 -0.7803 -0.1069  0.3981
 1317SOL     OW15586   1.925   3.990   6.612  0.1733  0.7129 -0.3884
 1317SOL    HW115587   1.929   3.894   6.611 -0.3028  0.7137 -1.8032
 1317SOL    HW215588   1.844   3.994   6.561 -0.6444  2.3103  1.0246
 1318SOL     OW15589   2.400   1.256  10.393  0.3499 -0.1546  0.7175
 1318SOL    HW115590   2.412   1.190  10.325  0.7013 -1.6188  2.1959
 1318SOL    HW215591   2.455   1.216  10.460  0.5216 -0.8178  0.1810
 1319SOL     OW15592   2.900   0.287   4.804  0.4026  0.2411 -0.1716
 1319SOL    HW115593   2.850   0.223   4.754 -0.4850  1.3510 -0.7038
 1319SOL    HW215594   2.986   0.246   4.813  0.1528 -0.2348  0.0323
 1320SOL     OW15595   2.839   3.250   2.232  0.2819  0.3146  0.4218
 1320SOL    HW115596   2.786   3.183   2.189  3.3517 -0.3794 -2.2460
 1320SOL    HW215597   2.903   3.265   2.163 -0.3105 -0.0331 -0.2090
 1321SOL     OW15598   3.967   2.554   6.428  0.4552  0.0951 -0.1570
 1321SOL    HW115599   3.927   2.491   6.369  4.0946 -1.3293 -1.1356
 1321SOL    HW215600   3.913   2.632   6.422  1.9370  1.2733  1.6233
 1322SOL     OW15601   0.932   0.627   9.359  0.4130  0.6794  0.5580
 1322SOL    HW115602   0.950   0.562   9.427 -2.5471  0.5270  1.1855
 1322SOL    HW215603   0.961   0.704   9.408  0.5919  1.4532 -0.7727
 1323SOL     OW15604   3.828   1.678   4.491 -0.3142  0.1081  0.1254
 1323SOL    HW115605   3.886   1.653   4.419  1.4470  2.3201  0.7531
 1323SOL    HW215606   3.746   1.707   4.453  0.8725  1.9443 -1.0395
 1324SOL     OW15607   1.493   1.124   1.869  0.3476 -0.5589  0.2942
 1324SOL    HW115608   1.502   1.144   1.962  1.6179 -1.2950  0.3349
 1324SOL    HW215609   1.508   1.029   1.863 -1.4268 -0.7427 -1.2980
 1325SOL     OW15610   4.701   1.301   4.829  0.3181 -0.1361 -0.0668
 1325SOL    HW115611   4.668   1.331   4.744  2.1144  1.0147 -0.3718
 1325SOL    HW215612   4.682   1.378   4.882  1.4532  0.7150 -0.8911
 1326SOL     OW15613   2.872   2.637   5.900 -0.4247 -0.0821 -0.9646
 1326SOL    HW115614   2.869   2.646   5.995  0.7151 -1.5403 -0.7827
 1326SOL    HW215615   2.823   2.556   5.885 -1.7213  0.1620  2.0815
 1327SOL     OW15616   2.992   3.956  16.094  0.0920  0.3325 -0.0928
 1327SOL    HW115617   2.927   3.956  16.164  1.1973  2.0350  0.9388
 1327SOL    HW215618   3.072   3.977  16.143  0.4670  0.2076 -0.6589
 1328SOL     OW15619   3.455   4.112   7.447 -0.5584 -0.0107  0.1506
 1328SOL    HW115620   3.365   4.079   7.452 -0.3624 -0.1042  2.9845
 1328SOL    HW215621   3.474   4.111   7.353  1.3204 -1.6056  0.5517
 1329SOL     OW15622   2.565   4.203  15.531  0.1667  0.0638  0.2503
 1329SOL    HW115623   2.494   4.227  15.592  1.5688  1.9986  1.1296
 1329SOL    HW215624   2.538   4.122  15.489  0.6706 -0.2457  0.5351
 1330SOL     OW15625   3.463   3.036  11.939 -0.2206  1.0021  0.7648
 1330SOL    HW115626   3.408   3.080  11.874  1.8369  2.5723  0.1235
 1330SOL    HW215627   3.394   2.978  11.974  1.4771 -0.6582  1.3729
 1331SOL     OW15628   3.359   1.341   4.474 -0.1662 -0.0062  0.5375
 1331SOL    HW115629   3.305   1.318   4.549 -1.1389  0.5175 -0.0005
 1331SOL    HW215630   3.295   1.378   4.413  0.4590 -1.3078 -0.9020
 1332SOL     OW15631   4.689   4.178   6.156  0.1779 -0.4810 -0.5177
 1332SOL    HW115632   4.686   4.140   6.243 -0.5923  0.2207 -0.2388
 1332SOL    HW215633   4.609   4.146   6.115  1.8853 -2.3488 -2.3706
 1333SOL     OW15634   0.544   1.294   3.483 -0.2122 -0.4939  0.0548
 1333SOL    HW115635   0.517   1.375   3.439  0.1732 -0.6701 -0.5112
 1333SOL    HW215636   0.499   1.246   3.413  0.0940 -1.4808  0.5330
 1334SOL     OW15637   4.727   2.434   1.910 -0.4118  0.4429 -0.4350
 1334SOL    HW115638   4.664   2.407   1.976 -0.2144  1.9895  0.3804
 1334SOL    HW215639   4.679   2.427   1.828 -1.5943 -0.3729  0.3388
 1335SOL     OW15640   2.968   2.545   6.604 -0.3552  0.0256  0.1081
 1335SOL    HW115641   2.933   2.476   6.548  1.6777 -0.9424  0.0504
 1335SOL    HW215642   2.893   2.542   6.664 -1.6289  1.5431 -1.3860
 1336SOL     OW15643   1.555   1.197  11.517  0.3306  0.4026  0.7457
 1336SOL    HW115644   1.523   1.121  11.469  0.1993  0.3896  0.8542
 1336SOL    HW215645   1.575   1.256  11.445  1.6980 -0.3107  0.5399
 1337SOL     OW15646   0.738   0.073   8.187 -0.1902 -0.0275 -0.3369
 1337SOL    HW115647   0.768   0.006   8.248 -0.7213  1.1417  1.1930
 1337SOL    HW215648   0.727   0.160   8.224  0.3491  1.0984 -2.8215
 1338SOL     OW15649   1.187   1.829   7.439 -0.1037 -0.1561  0.4126
 1338SOL    HW115650   1.260   1.768   7.453  1.4193  0.8481 -3.0947
 1338SOL    HW215651   1.198   1.863   7.350  3.0153 -0.0192  0.8380
 1339SOL     OW15652   3.080   1.395   2.448 -0.4702 -0.5389  0.2303
 1339SOL    HW115653   3.134   1.414   2.371  1.3522 -1.9737  1.1536
 1339SOL    HW215654   3.129   1.324   2.490  0.1910 -0.2328 -0.0281
 1340SOL     OW15655   2.469   1.368   8.236  0.1074 -0.2496  0.0758
 1340SOL    HW115656   2.501   1.282   8.263 -0.0382 -0.8875 -1.7396
 1340SOL    HW215657   2.415   1.340   8.161 -2.4326  2.5938  0.8505
 1341SOL     OW15658   4.282   4.153   6.082 -0.6184  0.2390  0.0098
 1341SOL    HW115659   4.237   4.072   6.107  0.4912  0.1893  1.8641
 1341SOL    HW215660   4.235   4.188   6.007  1.8624  2.3501 -0.5540
 1342SOL     OW15661   4.456   1.131   5.502  0.2515  0.6921 -0.2040
 1342SOL    HW115662   4.475   1.186   5.426  2.0090  0.4252  0.0301
 1342SOL    HW215663   4.463   1.190   5.578 -0.8650  0.9383 -0.3030
 1343SOL     OW15664   4.437   3.169  11.614 -0.1621 -0.3423 -0.0037
 1343SOL    HW115665   4.406   3.180  11.704 -0.6759 -0.7351 -0.1307
 1343SOL    HW215666   4.357   3.155  11.563  0.0817  0.9269 -0.7385
 1344SOL     OW15667   1.827   3.841  11.282  0.2404  0.3603  0.3451
 1344SOL    HW115668   1.905   3.799  11.318 -0.3035  0.2555  1.4055
 1344SOL    HW215669   1.802   3.907  11.347  0.0679  1.0531 -0.4294
 1345SOL     OW15670   1.554   1.885  15.843  0.0595  0.4739 -0.6529
 1345SOL    HW115671   1.611   1.940  15.898 -0.2760 -0.1802  0.3416
 1345SOL    HW215672   1.532   1.952  15.778  1.4317  0.0632 -1.5240
 1346SOL     OW15673   4.070   3.499  11.482 -0.8324 -0.4615  0.6895
 1346SOL    HW115674   4.107   3.436  11.544  0.3724 -1.8519 -1.4383
 1346SOL    HW215675   4.101   3.585  11.510  0.5873 -0.3298 -1.2674
 1347SOL     OW15676   3.252   4.682   3.848 -0.4040 -0.2788  0.3942
 1347SOL    HW115677   3.156   4.688   3.854 -0.2423  0.8766  1.9570
 1347SOL    HW215678   3.265   4.610   3.909  0.6815 -1.3613 -1.1435
 1348SOL     OW15679   4.297   0.483   8.435 -0.3510  0.1711  0.2654
 1348SOL    HW115680   4.333   0.508   8.350 -0.4919 -0.9126 -0.1061
 1348SOL    HW215681   4.205   0.466   8.415 -0.0802 -0.3023 -0.5611
 1349SOL     OW15682   3.255   4.256   3.510 -0.2825  0.4719  0.1481
 1349SOL    HW115683   3.254   4.276   3.603 -0.1114  0.1264  0.2217
 1349SOL    HW215684   3.326   4.319   3.491 -1.1400  1.6183  0.7635
 1350SOL     OW15685   0.273   0.742   8.177 -0.1751  0.3059 -0.1987
 1350SOL    HW115686   0.324   0.669   8.145  1.6045  0.5591  2.0994
 1350SOL    HW215687   0.215   0.703   8.243  1.1744  1.0211  1.4223
 1351SOL     OW15688   1.859   1.591   8.191 -0.0505  0.1329 -0.2340
 1351SOL    HW115689   1.851   1.542   8.273 -0.1644  0.9998  0.2740
 1351SOL    HW215690   1.799   1.662   8.212 -0.2411 -0.2969  0.6883
 1352SOL     OW15691   1.826   4.436  12.371 -0.6181 -0.1447 -0.2885
 1352SOL    HW115692   1.759   4.502  12.393  0.7751  1.6621 -1.4525
 1352SOL    HW215693   1.871   4.427  12.454  0.7112 -3.1499 -1.3595
 1353SOL     OW15694   3.898   0.102   7.743 -0.2559  0.1746 -0.1515
 1353SOL    HW115695   3.941   0.106   7.658 -0.6899 -0.9005 -0.4214
 1353SOL    HW215696   3.885   0.007   7.748 -1.9773  0.3588 -1.1910
 1354SOL     OW15697   0.178   0.775   4.374  0.2245  0.1114 -0.1011
 1354SOL    HW115698   0.163   0.728   4.292  0.4876 -0.8930  0.4306
 1354SOL    HW215699   0.097   0.824   4.385 -0.0881 -0.4382  0.0124
 1355SOL     OW15700   2.846   3.718  10.432  0.0801  0.2300 -0.0223
 1355SOL    HW115701   2.808   3.774  10.499 -2.0384 -2.3743  0.9474
 1355SOL    HW215702   2.803   3.633  10.439  1.4964 -0.5026 -0.1320
 1356SOL     OW15703   1.639   2.668   1.488 -0.1664 -0.1958 -0.4038
 1356SOL    HW115704   1.654   2.728   1.561  0.6084  0.8220 -1.4099
 1356SOL    HW215705   1.547   2.680   1.463  0.0852 -0.0144 -1.2207
 1357SOL     OW15706   0.080   1.651  11.410 -0.6188  0.1663 -0.2093
 1357SOL    HW115707   0.077   1.725  11.470 -0.2985 -0.4962  0.6261
 1357SOL    HW215708   0.093   1.585  11.478  0.6158  0.5527 -0.0600
 1358SOL     OW15709   3.857   0.405  11.381 -0.1663 -0.0522  0.0784
 1358SOL    HW115710   3.825   0.492  11.355  1.0142  0.5172  0.5286
 1358SOL    HW215711   3.852   0.349  11.303  2.5402  0.9745 -0.8397
 1359SOL     OW15712   3.856   1.997   4.764 -0.3136 -0.1843  0.7048
 1359SOL    HW115713   3.905   2.071   4.728  0.9116 -0.9837  0.7182
 1359SOL    HW215714   3.910   1.977   4.841  0.5699 -1.7050 -0.3103
 1360SOL     OW15715   2.205   0.293   3.701  0.1189  0.0385  0.0331
 1360SOL    HW115716   2.139   0.235   3.662  1.0563 -1.2251  0.3134
 1360SOL    HW215717   2.225   0.248   3.783  0.4201 -0.5836 -0.3784
 1361SOL     OW15718   4.386   0.945  16.290 -0.0499  0.0040 -0.4094
 1361SOL    HW115719   4.349   0.988  16.213  1.7364  2.7191  0.2645
 1361SOL    HW215720   4.309   0.934  16.345  2.7664  1.2114  3.7533
 1362SOL     OW15721   0.406   0.656   4.189  0.3797 -0.3884 -0.3360
 1362SOL    HW115722   0.428   0.587   4.251  0.5415 -0.7470 -0.7950
 1362SOL    HW215723   0.329   0.624   4.143  0.8424 -0.0953 -1.3021
 1363SOL     OW15724   3.206   3.976   1.652  0.1222 -0.3999  0.5021
 1363SOL    HW115725   3.160   3.992   1.734  0.2412  2.3621  0.0045
 1363SOL    HW215726   3.169   3.889   1.638 -1.1063  0.3480 -0.8145
 1364SOL     OW15727   3.916   2.639   6.754  0.9604  0.0295 -0.0999
 1364SOL    HW115728   3.961   2.555   6.763 -0.8111 -0.7337  1.7767
 1364SOL    HW215729   3.928   2.676   6.841 -1.6687  1.7914 -0.4733
 1365SOL     OW15730   3.752   3.364   6.410  0.4376  0.0004 -0.2367
 1365SOL    HW115731   3.802   3.328   6.337 -1.9842 -1.2882 -1.2286
 1365SOL    HW215732   3.662   3.374   6.381  1.8073  3.2642 -3.3823
 1366SOL     OW15733   0.655   2.997   2.876 -0.9802  0.3099  0.6389
 1366SOL    HW115734   0.569   3.037   2.868 -1.2112 -0.9333 -2.9912
 1366SOL    HW215735   0.692   3.011   2.964 -0.0075  3.9462 -0.3513
 1367SOL     OW15736   2.938   2.491   2.948  0.2614  0.2828 -0.1482
 1367SOL    HW115737   2.934   2.469   2.855 -1.7920 -1.5515  0.3716
 1367SOL    HW215738   2.853   2.463   2.982  0.8266 -0.5155  0.5755
 1368SOL     OW15739   0.419   4.199   6.751 -0.2598  0.0522  0.3560
 1368SOL    HW115740   0.340   4.151   6.776  0.3704 -1.7752 -1.1942
 1368SOL    HW215741   0.391   4.288   6.729 -2.8402 -0.5351  1.1670
 1369SOL     OW15742   1.365   1.389   5.853  0.3381  0.0236  0.5141
 1369SOL    HW115743   1.451   1.411   5.819 -0.4022  3.1980  0.6060
 1369SOL    HW215744   1.323   1.464   5.810  0.2909  0.4000  1.2067
 1370SOL     OW15745   2.174   1.036   1.802 -0.1547  0.0550 -0.2938
 1370SOL    HW115746   2.150   1.096   1.872 -0.5855 -0.0900 -0.3147
 1370SOL    HW215747   2.140   1.079   1.724 -1.2839  1.5329  1.0397
 1371SOL     OW15748   2.966   3.953   0.650  0.2424  0.0548 -0.6342
 1371SOL    HW115749   3.049   3.936   0.694 -0.9263  0.7602  1.8005
 1371SOL    HW215750   2.976   4.020   0.582 -0.3271 -0.2981 -1.0649
 1372SOL     OW15751   2.697   4.019   0.475 -0.2361 -0.4305 -0.4632
 1372SOL    HW115752   2.784   4.054   0.491  0.0136 -0.5371 -1.5899
 1372SOL    HW215753   2.661   4.014   0.563  0.1519  0.4756 -0.2537
 1373SOL     OW15754   3.841   3.315  14.869 -0.3449  0.5871 -0.0557
 1373SOL    HW115755   3.817   3.390  14.923  1.6120 -0.0251  1.6924
 1373SOL    HW215756   3.867   3.363  14.791  0.6044 -0.0786 -0.1454
 1374SOL     OW15757   3.015   3.117  14.756  0.0370 -0.0337 -0.1938
 1374SOL    HW115758   2.942   3.066  14.720 -1.3346  0.7435  1.5083
 1374SOL    HW215759   3.034   3.065  14.834 -0.5100  1.5407  0.9989
 1375SOL     OW15760   3.017   0.595  15.963  0.3779  0.2011 -0.5691
 1375SOL    HW115761   2.960   0.602  16.039  0.6146 -1.8817 -0.2173
 1375SOL    HW215762   2.996   0.677  15.917  1.4444 -0.0485 -1.4968
 1376SOL     OW15763   1.790   3.498   4.589 -0.2649  0.0085  0.1168
 1376SOL    HW115764   1.801   3.587   4.623  0.2734  0.6310 -1.7056
 1376SOL    HW215765   1.878   3.478   4.558  0.4321  1.4036  1.1633
 1377SOL     OW15766   3.195   0.419   3.018  0.2095 -0.0046  0.6839
 1377SOL    HW115767   3.210   0.347   3.078  1.2725 -2.1936 -2.2238
 1377SOL    HW215768   3.114   0.451   3.058  0.1723  1.8233 -0.8509
 1378SOL     OW15769   1.982   3.039   8.807  0.2529  0.4928 -0.0487
 1378SOL    HW115770   2.049   3.100   8.776  1.5802  0.0630  1.9700
 1378SOL    HW215771   1.914   3.050   8.741 -0.5308  1.8934  0.9815
 1379SOL     OW15772   3.433   0.164   3.893 -0.6910 -0.2599 -0.1485
 1379SOL    HW115773   3.346   0.126   3.882  0.4182 -3.2949  1.7166
 1379SOL    HW215774   3.493   0.095   3.919  2.0093  2.7093  1.4545
 1380SOL     OW15775   1.672   2.916   9.825  0.2073  0.0341 -0.1211
 1380SOL    HW115776   1.639   2.830   9.799 -0.0460  0.1564 -0.2111
 1380SOL    HW215777   1.740   2.896   9.889 -0.2707  0.0844  0.4005
 1381SOL     OW15778   3.457   2.966   8.519 -0.0524 -0.1128  0.5458
 1381SOL    HW115779   3.380   3.004   8.562 -0.3133 -0.7295  0.6211
 1381SOL    HW215780   3.443   2.880   8.559 -0.0335 -0.3215  0.1043
 1382SOL     OW15781   0.235   2.246   5.406  0.3764  0.0282  0.3682
 1382SOL    HW115782   0.194   2.160   5.409  0.4151  0.0346  1.2760
 1382SOL    HW215783   0.164   2.296   5.446 -1.7904 -1.9430 -1.0283
 1383SOL     OW15784   0.595   1.210   6.263  0.6337 -0.2815 -0.5950
 1383SOL    HW115785   0.664   1.157   6.304 -0.7032 -1.1413  0.5366
 1383SOL    HW215786   0.526   1.144   6.250 -1.5250  1.8350  0.3000
 1384SOL     OW15787   4.194   3.679   2.990 -0.2753 -0.6803 -0.0256
 1384SOL    HW115788   4.217   3.726   2.910 -1.1141 -0.9996 -0.4467
 1384SOL    HW215789   4.153   3.603   2.949  0.1505 -1.0964  0.2981
 1385SOL     OW15790   3.260   0.434   0.555  0.1723  0.3390 -0.0094
 1385SOL    HW115791   3.251   0.483   0.474  1.0898  1.6883  0.7063
 1385SOL    HW215792   3.354   0.416   0.552 -0.1106 -1.1496  0.0774
 1386SOL     OW15793   3.576   3.347   6.027  0.2507 -0.9859 -0.0242
 1386SOL    HW115794   3.510   3.313   5.967  1.2373 -0.4278 -1.4303
 1386SOL    HW215795   3.530   3.359   6.110 -0.4558 -0.7415 -0.4505
 1387SOL     OW15796   4.486   1.935   0.423 -0.1708  0.3485  0.2491
 1387SOL    HW115797   4.573   1.895   0.418 -0.4338 -0.0977 -0.8287
 1387SOL    HW215798   4.482   1.985   0.341  0.8133 -1.5131 -0.9264
 1388SOL     OW15799   3.408   0.727   2.417 -0.0552 -0.0367 -0.2600
 1388SOL    HW115800   3.447   0.654   2.464 -2.4290  0.2612  2.1184
 1388SOL    HW215801   3.389   0.784   2.491  0.0352 -0.8339  0.3729
 1389SOL     OW15802   0.370   1.490   3.358 -0.3176 -0.1717 -0.0826
 1389SOL    HW115803   0.324   1.572   3.344  1.5000  1.1775  1.8449
 1389SOL    HW215804   0.366   1.438   3.278 -1.0829 -0.6992  0.3048
 1390SOL     OW15805   0.533   0.898   4.242  0.2495 -0.0580  0.4519
 1390SOL    HW115806   0.480   0.818   4.242  1.3433 -0.7821  2.0207
 1390SOL    HW215807   0.467   0.946   4.192  0.4590 -1.3037 -1.0312
 1391SOL     OW15808   1.158   1.443  15.204 -0.1343  0.2861  0.4300
 1391SOL    HW115809   1.127   1.352  15.202  1.1816 -0.0959 -2.4031
 1391SOL    HW215810   1.224   1.443  15.273 -0.8008  0.4982  1.0647
 1392SOL     OW15811   0.921   3.889   3.532 -0.5288 -0.0672 -0.6683
 1392SOL    HW115812   0.876   3.947   3.470  0.7433 -0.1260 -1.6293
 1392SOL    HW215813   0.856   3.819   3.535  0.7350 -1.1111  2.2687
 1393SOL     OW15814   1.415   1.413  11.399  0.3916  0.1748 -0.6719
 1393SOL    HW115815   1.484   1.411  11.333  1.6387  0.4599  0.6420
 1393SOL    HW215816   1.342   1.468  11.370 -0.4476  0.5903  2.2378
 1394SOL     OW15817   2.138   2.990   6.473  0.0563  0.2402 -0.0384
 1394SOL    HW115818   2.100   3.030   6.394 -0.0132 -1.6467 -0.9722
 1394SOL    HW215819   2.224   2.968   6.438  0.4544 -1.7329  2.2026
 1395SOL     OW15820   1.141   0.580   7.242  0.2523  0.0023  0.3199
 1395SOL    HW115821   1.171   0.570   7.332  0.1384  0.3806  0.3967
 1395SOL    HW215822   1.105   0.493   7.227  0.0572 -0.0907  1.3180
 1396SOL     OW15823   0.755   0.307   8.492  0.2008 -0.7817  0.0676
 1396SOL    HW115824   0.777   0.387   8.540 -1.4209 -0.0053 -0.4884
 1396SOL    HW215825   0.736   0.339   8.404  0.2717 -0.0414  0.3186
 1397SOL     OW15826   4.469   1.888   7.582  0.5205 -0.0519  0.2696
 1397SOL    HW115827   4.413   1.845   7.517 -0.3609 -0.5102  1.3262
 1397SOL    HW215828   4.547   1.923   7.539  0.3046 -1.4400 -1.2523
 1398SOL     OW15829   3.999   3.049   4.943 -0.6686 -0.2078 -0.6155
 1398SOL    HW115830   3.962   3.098   4.869  1.1946  2.2045  0.0710
 1398SOL    HW215831   4.012   3.115   5.011 -1.0424  1.7485 -2.4436
 1399SOL     OW15832   4.712   2.622   5.383  0.2152 -0.2721  0.5666
 1399SOL    HW115833   0.025   2.613   5.297 -2.7660 -0.6674 -0.8835
 1399SOL    HW215834   0.051   2.682   5.411  1.5238 -2.6714  2.4794
 1400SOL     OW15835   2.355   1.122   7.925 -0.5142 -0.1541  0.2964
 1400SOL    HW115836   2.400   1.042   7.897  0.6686  0.3462  0.7983
 1400SOL    HW215837   2.432   1.177   7.915 -1.0812  1.1143  2.8021
 1401SOL     OW15838   4.651   4.080   7.641  0.5705  0.1982 -0.3927
 1401SOL    HW115839   4.657   4.112   7.551 -0.6849 -2.1621 -1.3195
 1401SOL    HW215840   4.702   4.149   7.684  0.7348 -1.0215  1.3792
 1402SOL     OW15841   2.184   3.503   6.386  0.2033  0.5756 -0.2707
 1402SOL    HW115842   2.114   3.438   6.382  0.0635  0.6215  1.2206
 1402SOL    HW215843   2.217   3.490   6.297  0.0528  0.0964 -0.2556
 1403SOL     OW15844   0.720   1.484   2.757 -0.3326  0.0038  0.1923
 1403SOL    HW115845   0.787   1.501   2.823 -0.1855 -1.3899  0.3992
 1403SOL    HW215846   0.771   1.469   2.677 -0.1541  0.0623  0.2932
 1404SOL     OW15847   1.936   1.325   8.385  0.6481 -0.2415 -0.3947
 1404SOL    HW115848   2.022   1.291   8.360  0.8336  0.0162 -0.1072
 1404SOL    HW215849   1.883   1.277   8.321 -1.8380  2.8623 -0.6499
 1405SOL     OW15850   1.744   2.792   7.969  0.1754  0.4127 -0.0421
 1405SOL    HW115851   1.820   2.735   7.973  0.8926  1.1973 -2.1163
 1405SOL    HW215852   1.688   2.755   8.037 -1.0937  2.1733 -0.1198
 1406SOL     OW15853   0.827   0.738   4.858 -0.1471 -0.6385  0.2329
 1406SOL    HW115854   0.897   0.802   4.864  0.1111 -0.7934 -0.9877
 1406SOL    HW215855   0.855   0.707   4.771 -1.0941 -0.1294 -0.2620
 1407SOL     OW15856   1.220   1.386  13.235  0.2031 -0.0533  0.5775
 1407SOL    HW115857   1.255   1.318  13.292  1.4536 -1.6408 -2.0822
 1407SOL    HW215858   1.143   1.346  13.195  0.7565 -1.0579  0.5178
 1408SOL     OW15859   2.426   1.545  15.673  0.1255  0.5580  0.0617
 1408SOL    HW115860   2.370   1.469  15.658 -0.8453  0.9952  1.4737
 1408SOL    HW215861   2.514   1.508  15.670  0.2798  0.8746  0.7962
 1409SOL     OW15862   1.003   1.918  14.271 -0.2792  0.1198 -0.0069
 1409SOL    HW115863   0.979   2.003  14.236  1.3667  1.1499  1.3713
 1409SOL    HW215864   1.019   1.936  14.364 -3.0023  0.6190  0.3793
 1410SOL     OW15865   0.584   3.369  13.536  0.3896 -0.3218  0.1592
 1410SOL    HW115866   0.517   3.341  13.599 -0.3267  0.3502 -0.3001
 1410SOL    HW215867   0.631   3.440  13.580 -0.4546  0.6337 -0.4966
 1411SOL     OW15868   2.592   2.981   4.324  0.1476 -0.2358 -0.1744
 1411SOL    HW115869   2.523   2.935   4.372  2.5327 -1.2947  2.2408
 1411SOL    HW215870   2.673   2.936   4.349  0.1623 -1.3020 -2.2298
 1412SOL     OW15871   4.014   0.911   4.008 -0.4427 -0.2055 -0.6124
 1412SOL    HW115872   3.999   0.835   3.953 -2.5059 -0.7428  0.7108
 1412SOL    HW215873   3.922   0.930   4.028 -0.4752  0.2288 -1.1914
 1413SOL     OW15874   0.228   1.362   7.567 -0.3292  0.2778 -0.2536
 1413SOL    HW115875   0.254   1.343   7.477 -2.2870  2.9415 -1.3735
 1413SOL    HW215876   0.313   1.373   7.609 -0.1318 -2.2062 -0.0277
 1414SOL     OW15877   0.775   1.593   1.213 -0.3566  0.2473  0.3280
 1414SOL    HW115878   0.870   1.593   1.207 -0.5654  2.5604 -2.5691
 1414SOL    HW215879   0.750   1.547   1.133 -1.3420  1.9431 -0.3253
 1415SOL     OW15880   0.183   0.224   9.177  0.1892  0.3051  0.1197
 1415SOL    HW115881   0.125   0.271   9.238 -0.6124 -0.2036 -0.2474
 1415SOL    HW215882   0.124   0.215   9.102 -0.0097 -1.1153  0.4403
 1416SOL     OW15883   3.876   2.483   9.184  0.3943  0.4084 -0.1350
 1416SOL    HW115884   3.838   2.499   9.270  1.4666 -0.1677  0.4546
 1416SOL    HW215885   3.966   2.459   9.207  0.4575 -0.9377 -1.7771
 1417SOL     OW15886   0.296   2.040   4.231 -0.5161  0.2248  0.1511
 1417SOL    HW115887   0.257   1.965   4.186  1.5451 -0.3040 -0.7774
 1417SOL    HW215888   0.272   2.022   4.322 -0.7735  1.3831  0.3109
 1418SOL     OW15889   4.011   2.043   8.607  0.1596  0.3261  0.6256
 1418SOL    HW115890   4.061   1.962   8.618 -0.7623 -0.7015 -2.7755
 1418SOL    HW215891   4.072   2.115   8.592 -1.1408  0.4871 -3.7770
 1419SOL     OW15892   2.638   2.471   8.416  0.4198  0.0793  0.2657
 1419SOL    HW115893   2.570   2.444   8.477 -0.9789 -1.0213 -1.8078
 1419SOL    HW215894   2.692   2.392   8.418 -0.8819 -0.7843  1.0293
 1420SOL     OW15895   1.783   4.201   7.602 -0.2642 -0.4315 -0.2779
 1420SOL    HW115896   1.773   4.121   7.654  1.0020 -0.9795 -0.8625
 1420SOL    HW215897   1.760   4.256   7.677 -2.0955  1.7791 -2.4923
 1421SOL     OW15898   2.263   1.345   6.979  0.4158 -0.1801 -0.5673
 1421SOL    HW115899   2.236   1.393   7.057  0.0687  1.4643 -1.7047
 1421SOL    HW215900   2.182   1.345   6.928  0.7928  0.2414 -1.1762
 1422SOL     OW15901   0.268   0.572   2.019 -0.1873 -0.1246  0.6738
 1422SOL    HW115902   0.322   0.523   2.081  1.4115  0.4086 -0.2985
 1422SOL    HW215903   0.250   0.505   1.953 -0.4175 -1.5029  2.1265
 1423SOL     OW15904   0.489   2.141   8.148  0.5564  0.4455 -0.2702
 1423SOL    HW115905   0.582   2.131   8.125  0.7829  0.2593  0.7270
 1423SOL    HW215906   0.442   2.116   8.068  1.5509 -0.5659 -0.5523
 1424SOL     OW15907   0.797   1.144  16.250  0.5690  0.2139 -0.3843
 1424SOL    HW115908   0.713   1.183  16.225  0.5631 -0.0642 -0.8122
 1424SOL    HW215909   0.862   1.214  16.242 -0.6971  1.5840  1.4661
 1425SOL     OW15910   2.514   3.940   7.128  0.2781  0.3521 -0.3293
 1425SOL    HW115911   2.489   3.884   7.055 -0.0087  0.2995 -0.1884
 1425SOL    HW215912   2.450   4.008   7.109  0.6090  1.2425  1.6648
 1426SOL     OW15913   2.372   4.188  11.814 -0.8232  0.0190 -0.2101
 1426SOL    HW115914   2.308   4.244  11.857 -1.1508 -0.6280  0.1357
 1426SOL    HW215915   2.324   4.116  11.774 -0.7225 -1.2503  1.9654
 1427SOL     OW15916   0.131   3.755   4.502  0.4660 -0.1961  0.5079
 1427SOL    HW115917   0.104   3.847   4.496  2.1585  0.2234 -0.4578
 1427SOL    HW215918   0.057   3.722   4.554  1.4664 -1.4576  1.1039
 1428SOL     OW15919   4.086   2.271  15.215 -0.2872  0.4996  0.4078
 1428SOL    HW115920   4.003   2.238  15.249 -0.3709 -0.6933 -0.9939
 1428SOL    HW215921   4.093   2.361  15.246  1.7695 -0.1072  1.7591
 1429SOL     OW15922   2.963   3.470  15.421 -0.2455 -0.1903 -0.1188
 1429SOL    HW115923   2.998   3.529  15.355  1.3497 -0.8706  0.0995
 1429SOL    HW215924   2.871   3.496  15.423 -0.4588 -1.0149  0.7712
 1430SOL     OW15925   1.263   0.309   8.445  0.0079 -0.5724  0.2955
 1430SOL    HW115926   1.200   0.334   8.513  1.4566 -1.7946  2.0744
 1430SOL    HW215927   1.303   0.236   8.492  0.5286 -0.3352  0.2240
 1431SOL     OW15928   0.858   4.172   6.290 -0.4171 -0.2499  0.0105
 1431SOL    HW115929   0.936   4.167   6.235 -1.3954 -0.0618 -1.3969
 1431SOL    HW215930   0.804   4.107   6.244 -0.0994 -1.2937  1.1203
 1432SOL     OW15931   0.948   0.101   8.559  0.0339 -0.4313  0.5937
 1432SOL    HW115932   0.888   0.176   8.553  0.9043  0.2409  0.3475
 1432SOL    HW215933   1.017   0.135   8.617  0.2452  0.6373 -0.2871
 1433SOL     OW15934   0.466   3.003   3.302  0.1332  0.2003  0.0929
 1433SOL    HW115935   0.509   3.084   3.275 -0.1081 -0.0361 -0.9827
 1433SOL    HW215936   0.435   2.973   3.217 -1.6266  1.9290  0.1308
 1434SOL     OW15937   0.833   2.136  16.562  0.1661  0.0296 -0.3182
 1434SOL    HW115938   0.911   2.084  16.544  0.5322  0.6593 -0.5418
 1434SOL    HW215939   0.818   2.117  16.654  0.4226 -0.4820 -0.3831
 1435SOL     OW15940   3.821   2.263   8.473  0.1988  0.4421 -0.2567
 1435SOL    HW115941   3.849   2.178   8.439 -1.5291  0.4311 -1.6527
 1435SOL    HW215942   3.727   2.248   8.470  0.6712 -2.8220  1.0896
 1436SOL     OW15943   1.647   0.533  16.739 -0.2914  0.0580  0.2543
 1436SOL    HW115944   1.627   0.585  16.817  4.5189  1.6234  0.4559
 1436SOL    HW215945   1.562   0.520  16.697  0.0638 -1.8629  0.0978
 1437SOL     OW15946   2.121   2.790   3.103  0.7346  0.0276  0.0753
 1437SOL    HW115947   2.075   2.717   3.143  0.2224  0.2127 -0.1691
 1437SOL    HW215948   2.088   2.783   3.013  0.6504  1.8517 -0.0344
 1438SOL     OW15949   0.713   0.629  17.260 -0.3129  0.1627 -0.4027
 1438SOL    HW115950   0.793   0.645  17.211 -0.8188 -0.3924 -1.4135
 1438SOL    HW215951   0.731   0.551  17.312  0.9771  1.3428  0.9319
 1439SOL     OW15952   4.262   3.973  12.240  0.3193 -0.0598  0.0235
 1439SOL    HW115953   4.354   3.979  12.216  0.2221  0.0444 -0.3268
 1439SOL    HW215954   4.248   3.890  12.195  1.8366 -0.4100  0.2215
 1440SOL     OW15955   2.028   2.362   2.743  0.3491  0.0898 -0.0464
 1440SOL    HW115956   2.007   2.386   2.653 -0.2722  0.5206  0.2076
 1440SOL    HW215957   2.122   2.375   2.737  0.1370  1.2992 -0.7827
 1441SOL     OW15958   1.404   0.657   2.572  0.3323  0.4388  0.0743
 1441SOL    HW115959   1.461   0.718   2.618  0.2330  0.5018  0.1126
 1441SOL    HW215960   1.320   0.669   2.616  0.2538 -0.4407  0.1748
 1442SOL     OW15961   2.494   1.676   3.802 -0.2597 -0.2694 -0.4877
 1442SOL    HW115962   2.462   1.600   3.850  0.7072 -1.0582 -1.0846
 1442SOL    HW215963   2.443   1.665   3.722  0.0512  0.5514 -0.7976
 1443SOL     OW15964   0.933   2.288  12.137  0.5167  0.0199  0.0654
 1443SOL    HW115965   0.932   2.248  12.050 -1.0726 -0.2158  0.1927
 1443SOL    HW215966   0.937   2.210  12.193 -0.9424 -0.1298 -0.0347
 1444SOL     OW15967   2.078   0.097   9.029  0.1343 -0.1346 -0.2214
 1444SOL    HW115968   2.095   0.187   9.000 -1.4692  0.4897  0.7683
 1444SOL    HW215969   1.995   0.121   9.069  0.5784 -0.1177  0.6941
 1445SOL     OW15970   1.789   2.513   4.686  0.2028 -0.6336  0.6705
 1445SOL    HW115971   1.802   2.536   4.594  0.9475 -2.5163  0.2917
 1445SOL    HW215972   1.718   2.449   4.676  0.0310 -0.2409 -0.6646
 1446SOL     OW15973   2.075   1.160  17.542  0.0535  0.4232 -0.2330
 1446SOL    HW115974   2.075   1.065  17.530 -0.3360  0.4448 -0.3918
 1446SOL    HW215975   1.995   1.173  17.491  0.6468 -0.9231 -1.5192
 1447SOL     OW15976   0.875   1.842   8.773  0.4624  0.3124  0.0009
 1447SOL    HW115977   0.888   1.937   8.780  2.1134 -0.1281  3.0520
 1447SOL    HW215978   0.828   1.849   8.691 -0.9930 -1.6115  0.6703
 1448SOL     OW15979   3.454   4.644   3.295  0.4460 -0.0114  0.3725
 1448SOL    HW115980   3.428   4.581   3.228 -0.8016  1.6280 -0.6847
 1448SOL    HW215981   3.369   4.682   3.321  0.9339  0.8331  0.7266
 1449SOL     OW15982   1.827   2.408   9.432  0.1147  0.1975 -0.5487
 1449SOL    HW115983   1.792   2.497   9.424 -2.1981 -0.7411 -0.6370
 1449SOL    HW215984   1.921   2.426   9.428  0.2041 -0.2724 -0.5989
 1450SOL     OW15985   1.972   4.034  12.351  0.4152 -0.2759 -0.3358
 1450SOL    HW115986   1.998   4.089  12.424 -1.4168  1.8551 -1.2753
 1450SOL    HW215987   1.958   3.950  12.396 -1.4425  0.5703  0.6760
 1451SOL     OW15988   4.471   0.884  10.633  0.0261 -0.5232 -0.0464
 1451SOL    HW115989   4.550   0.925  10.667  0.0184 -0.5198 -0.0323
 1451SOL    HW215990   4.495   0.858  10.544  0.1432  1.2028 -0.5062
 1452SOL     OW15991   4.423   4.107  12.859 -0.2890 -0.7986 -0.2497
 1452SOL    HW115992   4.434   4.201  12.849  1.6438 -1.1200 -1.3273
 1452SOL    HW215993   4.431   4.081  12.767 -0.3518 -1.5717 -0.0418
 1453SOL     OW15994   0.887   1.304   3.942 -0.0563  0.3133 -0.1417
 1453SOL    HW115995   0.894   1.218   3.983 -0.9259  0.6852  0.7766
 1453SOL    HW215996   0.965   1.348   3.977  0.9733  0.6631 -2.8125
 1454SOL     OW15997   0.823   0.965   2.909 -0.0262 -0.2718 -0.3595
 1454SOL    HW115998   0.860   0.880   2.933 -0.0626 -0.8222 -2.2766
 1454SOL    HW215999   0.807   0.999   2.997 -2.5784 -1.0176 -0.5398
 1455SOL     OW16000   3.240   2.847   1.928  0.7403 -0.1714  0.4013
 1455SOL    HW116001   3.282   2.866   2.012  0.9392 -0.1940  0.3076
 1455SOL    HW216002   3.317   2.856   1.871 -0.3681 -1.7136 -1.3339
 1456SOL     OW16003   0.448   2.598   2.682  0.2482 -0.0420 -0.3104
 1456SOL    HW116004   0.354   2.615   2.683  0.3261  0.4904 -2.2935
 1456SOL    HW216005   0.441   2.531   2.614  3.4330 -0.8751  0.1922
 1457SOL     OW16006   3.332   4.434   6.482 -0.2401  0.2127  0.3679
 1457SOL    HW116007   3.392   4.478   6.542 -2.2841 -1.9824  3.9925
 1457SOL    HW216008   3.285   4.374   6.540  0.1865 -0.7549 -0.2872
 1458SOL     OW16009   2.690   3.930   1.725 -0.1856 -0.1266 -0.3306
 1458SOL    HW116010   2.629   3.921   1.652 -2.7376  1.1317  1.6656
 1458SOL    HW216011   2.635   3.948   1.801 -1.6112 -0.9500 -1.1591
 1459SOL     OW16012   4.540   3.788   2.399 -0.3882  0.5382 -0.5899
 1459SOL    HW116013   4.525   3.852   2.469 -2.2520  0.0196 -0.5118
 1459SOL    HW216014   4.593   3.840   2.338  0.2948  1.9007  1.1529
 1460SOL     OW16015   0.386   0.671   9.801 -0.4134 -0.2263 -0.1997
 1460SOL    HW116016   0.390   0.594   9.858  0.3718 -1.8886 -2.4507
 1460SOL    HW216017   0.291   0.680   9.794 -0.8400 -2.6584  2.3563
 1461SOL     OW16018   3.744   1.456  17.623 -0.1090 -0.1994 -0.0702
 1461SOL    HW116019   3.791   1.526  17.669  0.6581 -1.1424  0.5810
 1461SOL    HW216020   3.659   1.450  17.667  0.9779  2.3166  2.3491
 1462SOL     OW16021   2.685   2.787   1.557 -0.2403  0.1014  0.0186
 1462SOL    HW116022   2.608   2.785   1.613 -0.2404  0.7910  0.0430
 1462SOL    HW216023   2.688   2.883   1.563 -1.5580  0.3090 -2.6700
 1463SOL     OW16024   1.752   1.511  14.179  0.1549  0.7679  0.0549
 1463SOL    HW116025   1.813   1.532  14.250 -0.5232  1.7627  0.3472
 1463SOL    HW216026   1.787   1.578  14.120 -1.8392  0.5023 -1.4276
 1464SOL     OW16027   2.430   1.266   6.646 -0.3351  0.6638 -0.2242
 1464SOL    HW116028   2.403   1.280   6.737  0.8659  2.0285 -0.0820
 1464SOL    HW216029   2.463   1.353   6.626 -3.0790  1.3959 -1.5978
 1465SOL     OW16030   4.606   3.713   3.028  0.2336  0.5194 -0.1642
 1465SOL    HW116031   4.586   3.802   2.997  0.4227 -0.2846 -2.5791
 1465SOL    HW216032   4.669   3.732   3.097  1.5875 -0.2785 -1.1735
 1466SOL     OW16033   2.749   1.451   5.984  0.6024 -0.2756 -0.0006
 1466SOL    HW116034   2.797   1.530   5.960 -0.9562  0.7657  0.2792
 1466SOL    HW216035   2.698   1.483   6.059 -1.4566 -4.2138  0.3004
 1467SOL     OW16036   1.665   4.602   6.964 -0.4732 -0.1148  0.4350
 1467SOL    HW116037   1.571   4.607   6.979 -0.2527 -0.8962  2.1122
 1467SOL    HW216038   1.703   4.636   7.045 -0.2047 -2.5404  1.3476
 1468SOL     OW16039   0.783   0.827   6.683  0.6162 -0.6879  0.3211
 1468SOL    HW116040   0.794   0.882   6.761  0.3821  1.2259 -0.9861
 1468SOL    HW216041   0.690   0.845   6.665  0.9652 -2.2380 -3.0482
 1469SOL     OW16042   2.185   3.103   5.624  0.1064  0.2484  0.0388
 1469SOL    HW116043   2.146   3.016   5.616  0.9462 -0.1903  0.7799
 1469SOL    HW216044   2.265   3.089   5.572  0.2467  3.1826 -0.5722
 1470SOL     OW16045   0.489   2.477   0.015 -0.1417  0.2541 -0.2730
 1470SOL    HW116046   0.511   2.540   0.083  1.2923 -0.2800 -0.2450
 1470SOL    HW216047   0.567   2.451  17.683  0.3698 -0.2338  0.8201
 1471SOL     OW16048   1.888   4.425   8.727 -0.1533  0.1900  0.8671
 1471SOL    HW116049   1.916   4.515   8.744  0.0071  0.6854 -1.9364
 1471SOL    HW216050   1.962   4.390   8.776  1.4185  0.1828 -1.5134
 1472SOL     OW16051   2.935   2.932   5.918  0.3780 -0.0099  0.5656
 1472SOL    HW116052   2.962   2.930   6.010 -1.6458 -1.6912  1.1057
 1472SOL    HW216053   2.876   2.857   5.913  1.0756 -0.4792 -0.7440
 1473SOL     OW16054   4.410   1.096   9.804  0.4212  0.2044 -0.0870
 1473SOL    HW116055   4.475   1.165   9.807  0.6790 -0.1038  1.4967
 1473SOL    HW216056   4.397   1.091   9.899  0.3036 -1.6508 -0.2024
 1474SOL     OW16057   4.450   1.535  10.682 -0.0207 -0.1320  0.3439
 1474SOL    HW116058   4.488   1.447  10.693  2.0545  0.6868 -0.2616
 1474SOL    HW216059   4.357   1.512  10.678 -0.5867  2.1615  0.6544
 1475SOL     OW16060   2.137   4.122   9.937  0.3054 -0.1085  0.5801
 1475SOL    HW116061   2.157   4.215   9.928 -1.1242  0.1466  0.0139
 1475SOL    HW216062   2.045   4.115   9.910 -0.5242  1.8489  2.9061
 1476SOL     OW16063   4.298   3.393   5.813 -0.0259  0.7746  0.0242
 1476SOL    HW116064   4.215   3.431   5.784 -0.8454 -1.2628 -0.2946
 1476SOL    HW216065   4.321   3.454   5.883  1.4583 -0.4652  0.6081
 1477SOL     OW16066   3.961   0.132  16.533 -0.0142 -0.2983 -0.5182
 1477SOL    HW116067   3.912   0.091  16.604 -3.4885  1.9911 -1.5902
 1477SOL    HW216068   3.968   0.225  16.557  1.8089 -1.3320  2.8703
 1478SOL     OW16069   4.030   0.600  15.422  0.0646 -0.2002  0.0176
 1478SOL    HW116070   4.119   0.624  15.399 -0.0587  1.8591  1.7425
 1478SOL    HW216071   4.029   0.509  15.391 -1.8706  0.3616 -1.5757
 1479SOL     OW16072   1.455   1.116   8.861 -0.5717  0.1080 -0.0059
 1479SOL    HW116073   1.394   1.157   8.799 -1.2159 -2.4386 -1.0549
 1479SOL    HW216074   1.423   1.153   8.943 -0.1304  0.1574  0.1441
 1480SOL     OW16075   4.631   1.799   5.325 -0.9252  0.3536 -0.2708
 1480SOL    HW116076   4.569   1.863   5.360 -0.1354  0.6092  0.6429
 1480SOL    HW216077   4.634   1.823   5.232  0.6212 -1.6277 -0.7485
 1481SOL     OW16078   1.983   4.030  17.000  0.2568 -0.3401 -0.3395
 1481SOL    HW116079   2.008   3.940  16.977 -0.2958 -0.5305 -0.1857
 1481SOL    HW216080   1.929   4.009  17.076 -0.1728 -0.3696 -0.6501
 1482SOL     OW16081   3.416   1.386   7.072  0.4280 -0.3428 -0.6020
 1482SOL    HW116082   3.398   1.295   7.095 -2.2331 -0.4400 -3.0921
 1482SOL    HW216083   3.509   1.370   7.053  0.5621 -0.4985  0.2070
 1483SOL     OW16084   4.368   1.425   4.863  0.4058 -0.3013  0.2895
 1483SOL    HW116085   4.309   1.497   4.885  0.1496 -0.3733 -0.1682
 1483SOL    HW216086   4.443   1.440   4.921  0.9371 -0.5957 -0.3273
 1484SOL     OW16087   3.254   3.211   3.667 -0.1307  0.3134 -0.0353
 1484SOL    HW116088   3.297   3.199   3.583 -1.7216 -0.7364 -0.6922
 1484SOL    HW216089   3.305   3.282   3.706  1.6639 -1.7766  1.4975
 1485SOL     OW16090   4.279   2.744  15.592  0.0052  0.0710 -0.6664
 1485SOL    HW116091   4.204   2.748  15.650  0.3940 -1.4466 -0.0584
 1485SOL    HW216092   4.269   2.658  15.551 -0.0076 -0.5816  0.7076
 1486SOL     OW16093   0.717   4.585   5.636 -0.1495 -0.2144 -0.1142
 1486SOL    HW116094   0.724   4.520   5.706 -0.4641  1.1331  1.1592
 1486SOL    HW216095   0.760   4.660   5.677  0.2562 -1.4072  1.6510
 1487SOL     OW16096   3.863   4.027   8.359 -0.3176  0.0255 -0.3291
 1487SOL    HW116097   3.868   4.066   8.446 -0.1942  0.6419 -0.6143
 1487SOL    HW216098   3.940   4.070   8.321  0.0598  0.1016  0.5379
 1488SOL     OW16099   1.836   2.380  11.781 -1.0392 -0.0438  0.0827
 1488SOL    HW116100   1.866   2.394  11.871  0.2183  0.6589 -0.4435
 1488SOL    HW216101   1.902   2.322  11.741 -1.2745 -1.9826  2.5015
 1489SOL     OW16102   3.048   2.646   4.048  0.0260 -0.2358 -0.2906
 1489SOL    HW116103   3.031   2.740   4.057  0.9594 -0.0332 -0.6506
 1489SOL    HW216104   2.960   2.610   4.052  0.5084 -1.8337 -4.0379
 1490SOL     OW16105   4.236   2.555   2.123  0.0211  0.3367 -0.1592
 1490SOL    HW116106   4.272   2.478   2.079 -1.7851  0.2748 -1.5367
 1490SOL    HW216107   4.153   2.518   2.153 -0.3878  0.2779 -1.3600
 1491SOL     OW16108   0.126   0.960   3.309 -0.2071  0.2354  0.1794
 1491SOL    HW116109   0.105   0.867   3.306  0.7150  0.1012 -2.6278
 1491SOL    HW216110   0.126   0.997   3.221 -4.5877 -0.6433 -0.1800
 1492SOL     OW16111   2.919   3.720   6.420 -0.3689  0.1444 -0.0172
 1492SOL    HW116112   3.012   3.732   6.437 -0.0687  0.6018 -1.9488
 1492SOL    HW216113   2.883   3.803   6.451 -3.1889 -1.4191  0.9007
 1493SOL     OW16114   2.432   4.524   2.144 -0.4157  0.3779 -0.3730
 1493SOL    HW116115   2.491   4.452   2.165  0.8867  1.5304 -0.0970
 1493SOL    HW216116   2.486   4.600   2.164 -0.2532  0.2326 -0.2602
 1494SOL     OW16117   0.535   0.941  14.396 -0.3297 -0.1490  0.7441
 1494SOL    HW116118   0.601   1.009  14.386  1.3058 -1.8399 -0.0315
 1494SOL    HW216119   0.528   0.934  14.491 -0.7389  2.7508  0.9400
 1495SOL     OW16120   1.977   1.569   2.571 -0.1889 -0.8202  0.2894
 1495SOL    HW116121   1.909   1.569   2.504  0.3315 -3.5006 -0.2303
 1495SOL    HW216122   1.941   1.621   2.644 -0.0702  1.5369 -1.3205
 1496SOL     OW16123   2.521   1.891   7.046  0.2348  0.0988 -0.1718
 1496SOL    HW116124   2.548   1.812   7.093 -0.5228 -1.1367 -1.8242
 1496SOL    HW216125   2.589   1.959   7.045  0.4505 -0.1300 -1.5017
 1497SOL     OW16126   1.972   2.520   4.013 -0.0440 -0.0456 -0.2044
 1497SOL    HW116127   1.913   2.594   4.029 -0.1522 -0.0682 -0.4808
 1497SOL    HW216128   1.918   2.443   4.031  1.0846 -0.7211  0.2263
 1498SOL     OW16129   4.646   3.326   2.162 -0.5427 -0.0829  0.2602
 1498SOL    HW116130   4.617   3.409   2.200  1.0250  1.4410 -1.8610
 1498SOL    HW216131   4.685   3.285   2.239 -0.5780 -0.9475 -0.1918
 1499SOL     OW16132   0.751   2.786   2.099  0.2059 -0.6911  0.3068
 1499SOL    HW116133   0.777   2.877   2.114 -0.7166 -0.5564  1.1337
 1499SOL    HW216134   0.704   2.783   2.016 -0.5487 -0.0120  0.7096
 1500SOL     OW16135   1.162   0.715   5.276  0.2824 -0.1182 -0.2095
 1500SOL    HW116136   1.166   0.732   5.371  2.0740  0.7677 -0.4224
 1500SOL    HW216137   1.197   0.627   5.265 -1.4751 -0.9411  0.9156
 1501SOL     OW16138   1.767   0.694  15.370  0.4438 -1.3043 -0.3516
 1501SOL    HW116139   1.779   0.698  15.275 -1.7704 -2.4515 -0.6669
 1501SOL    HW216140   1.729   0.782  15.377  1.5698 -0.8619  0.1058
 1502SOL     OW16141   3.464   2.783   8.895 -0.0177  0.2128 -0.5216
 1502SOL    HW116142   3.549   2.816   8.924  0.7403 -3.0302  0.9830
 1502SOL    HW216143   3.403   2.850   8.925 -0.3770 -0.4067  0.1463
 1503SOL     OW16144   3.713   2.599   3.540 -0.1986 -0.0755  0.2813
 1503SOL    HW116145   3.765   2.679   3.533 -1.3309  0.9112  3.2661
 1503SOL    HW216146   3.677   2.587   3.452  1.3226 -3.4421  0.1107
 1504SOL     OW16147   1.468   2.143   4.269  0.1464 -0.3846 -0.0178
 1504SOL    HW116148   1.517   2.131   4.350  0.0583 -0.7931 -0.0228
 1504SOL    HW216149   1.456   2.238   4.277  0.3164 -0.3524 -0.1348
 1505SOL     OW16150   0.889   3.661   4.364 -0.6228  0.9509  0.2469
 1505SOL    HW116151   0.872   3.683   4.272  3.7762  0.0002 -0.7868
 1505SOL    HW216152   0.917   3.571   4.345 -0.7222  1.3530 -1.8424
 1506SOL     OW16153   4.437   1.034   8.962 -0.4333 -0.5229 -0.5248
 1506SOL    HW116154   4.429   0.940   8.979 -0.1682 -0.6950 -1.3889
 1506SOL    HW216155   4.362   1.060   8.908 -0.1412  3.2778  0.9198
 1507SOL     OW16156   2.781   4.421   6.344 -0.2765 -0.7061  0.7515
 1507SOL    HW116157   2.858   4.444   6.396  1.1988 -2.1042 -0.7946
 1507SOL    HW216158   2.719   4.405   6.416 -0.8218 -0.1857  0.3954
 1508SOL     OW16159   1.082   2.714   9.715 -0.1759  0.2272  0.0235
 1508SOL    HW116160   1.095   2.623   9.739  0.4603  0.2210 -0.3569
 1508SOL    HW216161   0.986   2.717   9.713 -0.2614 -0.7123  2.2919
 1509SOL     OW16162   1.831   2.227   2.820  0.0691 -0.0521 -0.3119
 1509SOL    HW116163   1.779   2.297   2.860  0.6914  0.1305  0.1788
 1509SOL    HW216164   1.900   2.280   2.780  1.4239 -0.3316  1.6458
 1510SOL     OW16165   0.307   4.493   7.572  0.1757  0.4864  0.0181
 1510SOL    HW116166   0.234   4.432   7.563  0.8736 -0.5435  1.2605
 1510SOL    HW216167   0.363   4.451   7.638  2.2582  0.2321 -1.9199
 1511SOL     OW16168   0.491   2.405   2.464 -0.1241 -0.0074  0.0122
 1511SOL    HW116169   0.567   2.431   2.411 -0.0921  0.7628  0.4350
 1511SOL    HW216170   0.428   2.449   2.408  0.1157  0.3215 -0.0040
 1512SOL     OW16171   2.770   2.583  12.914  0.1715  0.3695  0.0278
 1512SOL    HW116172   2.738   2.666  12.878 -4.3648 -0.3121  2.3873
 1512SOL    HW216173   2.754   2.593  13.008 -1.1034 -0.1448 -0.1206
 1513SOL     OW16174   3.675   2.759   8.261 -0.1216 -0.1569 -0.6416
 1513SOL    HW116175   3.713   2.841   8.292  0.8135 -0.9673  0.3547
 1513SOL    HW216176   3.721   2.707   8.326 -1.2417 -0.1401  0.1637
 1514SOL     OW16177   1.237   3.248   7.059 -0.1343 -0.5856 -0.2683
 1514SOL    HW116178   1.265   3.234   7.150  1.4028 -0.1516 -0.6674
 1514SOL    HW216179   1.220   3.342   7.053  0.6154 -0.3546  1.1950
 1515SOL     OW16180   1.322   0.685  11.583 -0.5397 -0.2767  0.3726
 1515SOL    HW116181   1.236   0.669  11.620 -1.8184  1.8834 -1.6798
 1515SOL    HW216182   1.369   0.637  11.651 -1.5579  0.3211  1.4865
 1516SOL     OW16183   3.361   4.589   7.702 -0.0886 -0.1439 -0.4926
 1516SOL    HW116184   3.402   4.510   7.667  1.5703  0.7725 -0.6046
 1516SOL    HW216185   3.373   4.575   7.796  0.5577 -1.9322 -0.8320
 1517SOL     OW16186   2.362   0.767   1.934 -0.0549  0.1239 -0.0021
 1517SOL    HW116187   2.368   0.771   1.838 -3.3450 -1.9542 -0.2885
 1517SOL    HW216188   2.267   0.761   1.940 -0.0610  0.4115  0.1843
 1518SOL     OW16189   4.559   0.563   5.025 -0.3115  0.6806  0.2456
 1518SOL    HW116190   4.600   0.578   5.111 -0.7795  0.0782  0.5755
 1518SOL    HW216191   4.549   0.649   4.985  1.2827 -0.1626 -1.9454
 1519SOL     OW16192   3.385   4.290   5.163  0.3099  0.3213  0.3364
 1519SOL    HW116193   3.431   4.297   5.247  2.1174 -1.9271 -0.4814
 1519SOL    HW216194   3.294   4.272   5.186  0.8644 -0.8244  1.6404
 1520SOL     OW16195   4.526   4.283   5.025 -0.1851  0.4329  0.6405
 1520SOL    HW116196   4.496   4.309   4.938 -1.1242  0.6560  1.0403
 1520SOL    HW216197   4.618   4.308   5.015 -0.7793  2.2813 -0.2355
 1521SOL     OW16198   4.275   0.745   3.015 -0.5196  0.1221  0.2024
 1521SOL    HW116199   4.361   0.758   2.974 -0.6510  2.9767  0.7905
 1521SOL    HW216200   4.224   0.745   2.934 -0.0123  0.0434 -0.1188
 1522SOL     OW16201   0.359   1.052  14.872 -0.5745 -0.1531  0.2951
 1522SOL    HW116202   0.336   1.121  14.810  1.2826  0.5988  0.4179
 1522SOL    HW216203   0.277   1.049  14.920 -0.9966 -1.1507 -0.5145
 1523SOL     OW16204   4.007   0.704   1.768  0.0284  0.4601  0.2502
 1523SOL    HW116205   3.951   0.764   1.817 -1.7708 -1.6321  0.7856
 1523SOL    HW216206   4.093   0.741   1.785 -0.8529  1.5746  2.2254
 1524SOL     OW16207   2.256   1.048   5.780  0.4026  0.6759 -0.1438
 1524SOL    HW116208   2.341   1.084   5.805  0.5198  0.6963 -0.5776
 1524SOL    HW216209   2.262   1.085   5.692  0.8285 -0.2216 -0.4865
 1525SOL     OW16210   1.722   0.118   0.736  0.1414  0.8675 -0.4531
 1525SOL    HW116211   1.753   0.126   0.826  0.2611  0.8342 -0.4914
 1525SOL    HW216212   1.734   0.026   0.713 -0.4746  0.6648  0.0437
 1526SOL     OW16213   1.106   0.083   2.575  0.7505 -0.0208  0.2552
 1526SOL    HW116214   1.120   0.170   2.613 -1.1560  0.5839 -0.3952
 1526SOL    HW216215   1.130   0.033   2.653  1.3575 -1.0481 -0.6026
 1527SOL     OW16216   4.114   3.222  16.948  0.2086  0.0042 -0.4478
 1527SOL    HW116217   4.162   3.244  17.028  1.1135  2.8129 -1.7516
 1527SOL    HW216218   4.095   3.311  16.919 -0.5638 -0.2334 -0.6768
 1528SOL     OW16219   3.000   1.899   5.291 -0.1838 -0.1337  0.1653
 1528SOL    HW116220   2.971   1.873   5.379 -0.5256 -5.0760 -1.3722
 1528SOL    HW216221   2.986   1.993   5.300  1.3043  0.0764  0.2242
 1529SOL     OW16222   2.963   3.893   2.313  0.0125  0.1586  0.9128
 1529SOL    HW116223   2.981   3.921   2.402  0.4271  0.1872  0.8174
 1529SOL    HW216224   3.005   3.958   2.257 -1.3390  0.3977  0.1575
 1530SOL     OW16225   4.051   1.253  15.896  0.4220  0.0008  0.1240
 1530SOL    HW116226   3.998   1.180  15.864 -1.6946  1.6360 -0.0270
 1530SOL    HW216227   4.134   1.236  15.851  1.5526  2.6963  1.1820
 1531SOL     OW16228   1.365   3.967   6.278 -0.1111  0.3876  0.1177
 1531SOL    HW116229   1.346   3.962   6.371 -2.2545  0.0080 -0.3357
 1531SOL    HW216230   1.459   3.951   6.268 -0.0607  0.4764  0.4815
 1532SOL     OW16231   2.762   2.350  12.021  0.3038  0.6143 -0.0634
 1532SOL    HW116232   2.763   2.377  12.113 -0.8714  1.2410 -0.2301
 1532SOL    HW216233   2.696   2.281  12.021 -2.5002  3.2904 -0.5633
 1533SOL     OW16234   1.597   0.180   8.997  0.3223  0.8520 -0.0223
 1533SOL    HW116235   1.603   0.089   9.025 -2.5237  0.1042 -1.9409
 1533SOL    HW216236   1.550   0.216   9.072 -1.3744 -0.7186 -0.3226
 1534SOL     OW16237   4.001   3.522   9.462  0.4265 -0.0388  0.0262
 1534SOL    HW116238   3.916   3.486   9.485  0.3919  0.0874  0.0939
 1534SOL    HW216239   3.993   3.566   9.377  0.5719 -0.4435 -0.1980
 1535SOL     OW16240   1.525   3.685   2.187 -0.2880 -0.0218 -0.2645
 1535SOL    HW116241   1.572   3.684   2.270  1.0271  2.1810 -0.9924
 1535SOL    HW216242   1.529   3.591   2.167  0.2435  0.0211 -0.3531
 1536SOL     OW16243   1.293   4.103   6.757  0.3753 -0.9253 -0.0986
 1536SOL    HW116244   1.360   4.083   6.822 -1.1523  0.7537  1.9786
 1536SOL    HW216245   1.299   4.198   6.752 -1.5936 -0.7995  0.0265
 1537SOL     OW16246   1.983   1.725   7.277 -0.0362 -0.4945  0.2085
 1537SOL    HW116247   1.985   1.633   7.304 -2.0080 -0.0527  1.8978
 1537SOL    HW216248   1.977   1.753   7.369 -0.5700 -1.4084  0.4569
 1538SOL     OW16249   1.853   4.707   3.706  0.0454  0.1307  0.4162
 1538SOL    HW116250   1.796   0.050   3.681  0.4849  0.7345  1.1416
 1538SOL    HW216251   1.800   4.627   3.708 -0.5700  0.5179 -0.3707
 1539SOL     OW16252   3.576   0.387   9.689 -0.1075  0.0874  0.6519
 1539SOL    HW116253   3.620   0.312   9.649  0.8937  1.0964 -0.1288
 1539SOL    HW216254   3.580   0.368   9.783  1.4073 -0.0480  0.5586
 1540SOL     OW16255   3.305   0.526  13.374  0.1726 -0.3758  0.4580
 1540SOL    HW116256   3.343   0.542  13.461  0.7742 -1.8524  0.4619
 1540SOL    HW216257   3.211   0.510  13.385 -0.3705  1.9747 -0.7677
 1541SOL     OW16258   0.659   3.542   8.667  0.1231 -0.3817 -0.0496
 1541SOL    HW116259   0.753   3.533   8.650  0.1098  1.0190 -0.8050
 1541SOL    HW216260   0.651   3.636   8.654  0.7227 -0.1582  1.0921
 1542SOL     OW16261   4.035   2.632   2.808 -0.3823 -0.6751 -0.1937
 1542SOL    HW116262   3.980   2.711   2.810  1.4127  0.6003 -1.1654
 1542SOL    HW216263   4.107   2.669   2.860 -0.8573  0.9325 -0.6837
 1543SOL     OW16264   0.012   2.435   0.911  0.0842  0.0022  0.0476
 1543SOL    HW116265   0.083   2.482   0.867 -0.8217 -0.4046 -1.8206
 1543SOL    HW216266   4.680   2.509   0.916  1.5291  1.3216 -1.6783
 1544SOL     OW16267   3.212   1.863   4.324 -0.3922 -0.0451 -0.0208
 1544SOL    HW116268   3.263   1.817   4.257 -1.4104 -1.2377  0.0072
 1544SOL    HW216269   3.258   1.843   4.405  0.2550 -1.0346 -0.6280
 1545SOL     OW16270   3.267   3.338  10.009 -0.2004  0.0942  0.1676
 1545SOL    HW116271   3.346   3.386   9.985 -0.3037 -1.3797 -3.0857
 1545SOL    HW216272   3.291   3.265  10.066  2.0902 -1.7549 -3.1608
 1546SOL     OW16273   2.945   0.433  16.223  0.4695  0.1742 -0.2444
 1546SOL    HW116274   2.931   0.420  16.317  0.0278  0.2106 -0.3097
 1546SOL    HW216275   2.949   0.528  16.224  2.4546  0.1117 -1.0572
 1547SOL     OW16276   1.116   3.087   5.735 -0.5161  0.2509 -0.7146
 1547SOL    HW116277   1.186   3.150   5.748 -0.8892  0.5745 -0.2701
 1547SOL    HW216278   1.169   3.007   5.738 -1.1991 -0.2002 -0.6191
 1548SOL     OW16279   0.978   2.094   6.913 -0.3495  0.7101 -0.8413
 1548SOL    HW116280   1.003   2.093   6.820 -0.4702  3.1465 -0.8960
 1548SOL    HW216281   1.063   2.083   6.955 -0.7774 -1.0745 -0.4327
 1549SOL     OW16282   1.258   4.703   9.185  0.7616  0.1078  0.1647
 1549SOL    HW116283   1.323   4.637   9.209  2.1442 -0.5459 -5.3034
 1549SOL    HW216284   1.235   4.664   9.101 -3.1528  0.8024  0.9356
 1550SOL     OW16285   0.625   3.598   7.562  0.0004 -0.5390  0.0021
 1550SOL    HW116286   0.686   3.628   7.495  0.0362 -0.1204  0.2200
 1550SOL    HW216287   0.645   3.656   7.635 -0.7863 -0.6797  0.3260
 1551SOL     OW16288   2.658   4.020   1.031  0.4068 -0.1004 -0.0249
 1551SOL    HW116289   2.704   3.973   0.961  0.7828 -0.3738  0.4123
 1551SOL    HW216290   2.662   4.112   1.004 -1.6880 -0.6022 -2.0917
 1552SOL     OW16291   3.363   4.057   6.830  0.5318 -0.5552  0.1320
 1552SOL    HW116292   3.388   4.147   6.809 -0.1807 -0.1057  1.2155
 1552SOL    HW216293   3.348   4.059   6.924 -1.8655 -2.6910 -0.1891
 1553SOL     OW16294   0.838   0.032   2.392 -0.1498 -0.0029  0.0269
 1553SOL    HW116295   0.867   0.116   2.428  0.5871 -0.7459  1.1945
 1553SOL    HW216296   0.905   0.018   2.325 -1.5599  0.6569 -1.5057
 1554SOL     OW16297   2.458   0.558   5.726 -0.2709 -0.2954  0.0887
 1554SOL    HW116298   2.473   0.651   5.743  0.8665 -0.3795 -0.4533
 1554SOL    HW216299   2.395   0.575   5.657 -1.0809  0.6723  1.0734
 1555SOL     OW16300   1.425   2.075  14.669  0.3555  0.1702  0.0063
 1555SOL    HW116301   1.414   2.055  14.761  0.4873 -1.8276 -0.4072
 1555SOL    HW216302   1.477   2.155  14.662  0.5884  0.0204  0.0642
 1556SOL     OW16303   2.035   2.793   4.389 -0.0457  0.1103  0.0111
 1556SOL    HW116304   2.025   2.738   4.466  3.8481  0.6191  0.8847
 1556SOL    HW216305   2.131   2.788   4.382 -0.0832 -0.3257 -0.1941
 1557SOL     OW16306   2.309   4.191   0.499  0.0494  0.9070 -0.2028
 1557SOL    HW116307   2.290   4.282   0.476  0.5671  1.4981  1.6766
 1557SOL    HW216308   2.220   4.157   0.504  0.3550 -0.0697 -1.6606
 1558SOL     OW16309   2.238   2.604   2.451  0.1153 -0.0013  0.5360
 1558SOL    HW116310   2.323   2.559   2.454  1.7954  3.0920 -0.4571
 1558SOL    HW216311   2.197   2.565   2.373 -0.9138  0.6446  0.7616
 1559SOL     OW16312   3.613   3.053   6.844 -0.0727 -0.4066 -0.4351
 1559SOL    HW116313   3.608   2.958   6.855 -1.3947 -0.2272  0.5479
 1559SOL    HW216314   3.582   3.083   6.930  1.4057 -0.8844  0.2585
 1560SOL     OW16315   3.697   1.530   7.674  0.4527 -0.0077  0.2480
 1560SOL    HW116316   3.641   1.607   7.664 -0.1401 -0.8773 -3.2479
 1560SOL    HW216317   3.734   1.525   7.585 -0.4575 -1.0715 -0.0763
 1561SOL     OW16318   1.973   1.863  11.955 -0.1564  0.0713 -0.0314
 1561SOL    HW116319   2.021   1.780  11.952 -0.8796 -0.2237 -3.2469
 1561SOL    HW216320   1.889   1.855  12.000  1.4042 -2.4101  2.3785
 1562SOL     OW16321   1.581   0.316   6.478 -0.0767  0.0651 -0.0588
 1562SOL    HW116322   1.598   0.408   6.461  0.1222  0.3393  1.6684
 1562SOL    HW216323   1.635   0.303   6.556 -1.6430  1.2992  1.2300
 1563SOL     OW16324   3.799   2.105  10.339 -0.8902 -0.4485 -0.5219
 1563SOL    HW116325   3.845   2.133  10.261 -1.5862  1.4038 -0.2582
 1563SOL    HW216326   3.876   2.110  10.396 -0.0598 -1.2729 -1.5866
 1564SOL     OW16327   0.769   4.495   8.928 -0.6594  0.0425  0.2482
 1564SOL    HW116328   0.780   4.562   8.995 -0.7555  1.4004 -1.0754
 1564SOL    HW216329   0.713   4.433   8.973 -1.8946  0.5951 -0.5157
 1565SOL     OW16330   4.182   0.429   3.055  0.6446  0.2081 -0.2403
 1565SOL    HW116331   4.243   0.484   3.105  0.1635 -0.7984  1.4576
 1565SOL    HW216332   4.162   0.355   3.112 -1.8297 -1.4860 -3.3384
 1566SOL     OW16333   2.557   0.022   7.901 -0.0639 -0.3095  0.2423
 1566SOL    HW116334   2.562   0.111   7.867  2.9668 -0.2941  0.7262
 1566SOL    HW216335   2.467   0.016   7.933 -0.3890  2.3649 -0.1893
 1567SOL     OW16336   4.307   2.871   6.426  0.5991  0.1357 -0.0331
 1567SOL    HW116337   4.384   2.821   6.451  0.1926 -0.6186 -0.2826
 1567SOL    HW216338   4.287   2.837   6.339 -0.9239 -2.1212  1.1917
 1568SOL     OW16339   3.745   3.830  12.942 -0.1808  0.1266 -0.0577
 1568SOL    HW116340   3.665   3.801  12.984  0.0127  0.8770  0.8250
 1568SOL    HW216341   3.709   3.905  12.894 -2.0175 -0.4307  0.4537
 1569SOL     OW16342   2.143   2.027   9.500 -0.2496  0.0046 -0.6121
 1569SOL    HW116343   2.085   2.099   9.477  0.0781 -0.2238 -2.1468
 1569SOL    HW216344   2.112   2.014   9.589 -1.1295 -0.2993 -0.9606
 1570SOL     OW16345   2.320   0.197   2.089 -0.0985  0.2142 -1.2907
 1570SOL    HW116346   2.379   0.269   2.112  0.0383 -0.7779  1.4929
 1570SOL    HW216347   2.300   0.166   2.177  1.6804 -0.9622 -1.2941
 1571SOL     OW16348   0.481   2.480   3.357 -0.0129 -0.7506  0.4358
 1571SOL    HW116349   0.459   2.573   3.363  1.0587 -0.3852 -1.3611
 1571SOL    HW216350   0.423   2.450   3.286 -0.8470  2.5154 -0.2765
 1572SOL     OW16351   2.845   0.099   1.957  0.3671  1.0322  0.0828
 1572SOL    HW116352   2.930   0.105   2.001  0.5142  0.2124 -0.0882
 1572SOL    HW216353   2.806   0.185   1.975 -0.2329  1.3763 -2.8467
 1573SOL     OW16354   4.435   3.108   6.552  0.4860  0.2408 -0.1751
 1573SOL    HW116355   4.350   3.083   6.517 -0.6773  3.6309  0.2522
 1573SOL    HW216356   4.425   3.063   6.636 -0.5982  1.1696  0.2026
 1574SOL     OW16357   4.638   3.806   6.792 -0.5478  0.6029  0.1340
 1574SOL    HW116358   4.553   3.851   6.790 -0.1828  1.3053  0.4329
 1574SOL    HW216359   4.618   3.755   6.870 -0.4702 -0.3381 -0.4549
 1575SOL     OW16360   1.897   4.509   1.599  0.3467  0.8560  0.2600
 1575SOL    HW116361   1.884   4.587   1.545  1.8112  0.1596 -1.1317
 1575SOL    HW216362   1.992   4.510   1.614  0.3676  2.1202  0.0664
 1576SOL     OW16363   4.512   0.758   2.877 -0.0452  0.1356  0.0360
 1576SOL    HW116364   4.577   0.727   2.940  0.7243 -0.5043 -1.0709
 1576SOL    HW216365   4.541   0.714   2.797  1.2284  0.4818  0.3048
 1577SOL     OW16366   1.871   4.636   6.482  0.0921  0.5090  0.2092
 1577SOL    HW116367   1.810   4.563   6.471  0.7229 -0.1788  1.2116
 1577SOL    HW216368   1.882   4.666   6.392 -0.2054 -2.4246 -0.8162
 1578SOL     OW16369   0.874   0.394   0.847 -0.0506  0.2335  0.1497
 1578SOL    HW116370   0.833   0.366   0.930 -0.7372 -1.5433 -0.7905
 1578SOL    HW216371   0.793   0.415   0.800  1.2613  0.8650 -1.8415
 1579SOL     OW16372   3.582   1.616   2.469 -0.6416 -0.1271  0.3027
 1579SOL    HW116373   3.512   1.572   2.517 -0.4428  0.2856  0.9838
 1579SOL    HW216374   3.631   1.657   2.541 -0.1469 -1.4900  0.7485
 1580SOL     OW16375   2.000   1.642   2.212  0.2225  0.5169  0.3618
 1580SOL    HW116376   2.055   1.590   2.154 -0.4709  0.0856  0.0874
 1580SOL    HW216377   1.915   1.639   2.167 -0.7271  3.5719  1.9449
 1581SOL     OW16378   2.270   4.488   6.450 -0.3191  0.5942  0.2591
 1581SOL    HW116379   2.207   4.464   6.382 -1.3777 -0.3106  1.5630
 1581SOL    HW216380   2.256   4.430   6.525 -0.2902 -0.3731 -0.4894
 1582SOL     OW16381   0.354   3.170   6.705 -0.6069 -0.5374 -0.1855
 1582SOL    HW116382   0.364   3.176   6.610  1.3102  1.3673  0.1350
 1582SOL    HW216383   0.278   3.113   6.716 -0.5319 -0.2118  2.0101
 1583SOL     OW16384   3.156   1.166   1.268  0.3013  0.2607 -0.3209
 1583SOL    HW116385   3.231   1.201   1.219  0.8191 -0.8266 -0.3088
 1583SOL    HW216386   3.197   1.143   1.351 -0.4100 -1.5095 -0.4569
 1584SOL     OW16387   4.006   4.480  11.284  0.3455 -0.1812  0.5087
 1584SOL    HW116388   4.008   4.574  11.266 -1.6280  0.2356  2.5223
 1584SOL    HW216389   3.958   4.489  11.366 -0.3012 -0.3118  0.1446
 1585SOL     OW16390   0.549   4.149   7.627  0.7308  0.0440  0.1616
 1585SOL    HW116391   0.634   4.109   7.608  0.1744 -0.8679 -0.4576
 1585SOL    HW216392   0.542   4.149   7.722  3.1031  1.5710  0.3305
 1586SOL     OW16393   2.110   2.365   4.780  0.2307 -0.5611 -0.0599
 1586SOL    HW116394   2.194   2.339   4.742 -0.2094 -3.3152  0.8531
 1586SOL    HW216395   2.051   2.342   4.708  2.4214 -0.8448 -1.7524
 1587SOL     OW16396   1.787   3.509   8.933  0.2370  0.4879 -0.2907
 1587SOL    HW116397   1.786   3.484   8.840 -0.9914 -2.1696  0.4292
 1587SOL    HW216398   1.817   3.429   8.976 -1.8661 -0.0539  0.1992
 1588SOL     OW16399   3.700   1.097   7.435 -0.2003  0.3522  0.4167
 1588SOL    HW116400   3.736   1.130   7.353  1.1527 -1.6575  0.2092
 1588SOL    HW216401   3.613   1.075   7.401 -0.1156  1.0449 -0.2584
 1589SOL     OW16402   3.845   3.409   3.096 -0.2421  0.0409  0.4813
 1589SOL    HW116403   3.830   3.435   3.187 -0.8182 -3.6638  1.4730
 1589SOL    HW216404   3.844   3.499   3.066 -0.4490  0.1119  0.7026
 1590SOL     OW16405   1.183   3.390   9.435 -0.0984 -0.1237  0.8740
 1590SOL    HW116406   1.234   3.310   9.448  0.6372  0.0817 -0.8571
 1590SOL    HW216407   1.258   3.449   9.427 -1.1688  0.9473 -1.3006
 1591SOL     OW16408   4.688   3.670   5.391  0.8324 -0.7089 -0.9561
 1591SOL    HW116409   4.695   3.600   5.455 -0.0212 -0.0319 -0.1299
 1591SOL    HW216410   0.020   3.732   5.430  0.4167 -0.3994 -0.7904
 1592SOL     OW16411   4.304   2.607  17.077 -0.3592 -0.2982 -0.0790
 1592SOL    HW116412   4.224   2.597  17.024 -0.9283 -0.6368  0.8533
 1592SOL    HW216413   4.374   2.578  17.018  0.4418  0.3757  0.5483
 1593SOL     OW16414   1.280   2.814   6.304 -0.3638 -0.3726 -0.4996
 1593SOL    HW116415   1.254   2.797   6.214  2.2152  0.3015 -1.3834
 1593SOL    HW216416   1.223   2.883   6.337  0.4320 -0.2867  0.7089
 1594SOL     OW16417   0.065   1.158  12.385  0.2729  0.3889 -0.2613
 1594SOL    HW116418   4.722   1.219  12.368  0.3502  0.4925 -0.2173
 1594SOL    HW216419   0.138   1.195  12.335  0.1939  0.0249 -0.6469
 1595SOL     OW16420   1.372   2.578  13.752  0.0540 -0.2080  0.8880
 1595SOL    HW116421   1.286   2.567  13.791 -0.5089 -0.4998 -0.4438
 1595SOL    HW216422   1.352   2.632  13.676 -0.3631 -3.2578 -1.1581
 1596SOL     OW16423   4.135   3.931   6.142 -0.0179 -0.1540 -0.4641
 1596SOL    HW116424   4.147   3.870   6.215  3.9595  1.2367  0.0261
 1596SOL    HW216425   4.042   3.952   6.156  0.1697  0.2251  0.2051
 1597SOL     OW16426   3.678   4.071   4.058  0.6271 -0.5307 -0.1342
 1597SOL    HW116427   3.619   4.037   4.126  0.1150 -0.1116 -0.3648
 1597SOL    HW216428   3.616   4.133   4.019 -0.5961 -1.0014  1.0365
 1598SOL     OW16429   3.682   4.326   3.088 -0.2652 -0.3292  0.3099
 1598SOL    HW116430   3.697   4.259   3.022 -2.5871 -0.0813 -0.4729
 1598SOL    HW216431   3.602   4.373   3.066  1.4204  2.3638 -0.1661
 1599SOL     OW16432   2.775   2.184   5.577  0.4614 -0.1670 -0.1259
 1599SOL    HW116433   2.796   2.169   5.669  0.4591 -0.3174 -0.1505
 1599SOL    HW216434   2.746   2.096   5.557 -0.7659  0.2968 -0.3892
 1600SOL     OW16435   2.328   2.198   4.681  0.0374  0.3221  0.1529
 1600SOL    HW116436   2.401   2.213   4.742  0.3034 -0.4736  0.0287
 1600SOL    HW216437   2.370   2.164   4.602  1.5882  3.7941 -0.5325
 1601SOL     OW16438   3.792   1.903  10.036 -0.0276 -0.3254  0.0239
 1601SOL    HW116439   3.739   1.874  10.110 -0.9954 -0.7224 -0.8283
 1601SOL    HW216440   3.730   1.966  10.000  1.9249  0.5370 -1.8662
 1602SOL     OW16441   2.285   2.346  12.207  0.5433 -0.1766 -0.2207
 1602SOL    HW116442   2.216   2.410  12.187  2.3376  1.5523 -0.8837
 1602SOL    HW216443   2.245   2.303  12.283 -0.0139 -0.8861 -0.9174
 1603SOL     OW16444   3.438   2.141   8.672 -0.4220 -0.0169  0.6383
 1603SOL    HW116445   3.389   2.126   8.591  1.5306 -0.9277 -0.3633
 1603SOL    HW216446   3.468   2.229   8.650 -0.5238  0.0302  0.6861
 1604SOL     OW16447   4.515   1.071  15.579 -0.5160 -0.7181  0.5324
 1604SOL    HW116448   4.578   1.103  15.515 -0.6776 -1.3057  0.0852
 1604SOL    HW216449   4.543   0.980  15.576 -0.5967 -0.7298  0.1563
 1605SOL     OW16450   2.146   4.559   1.728  0.2656  0.2290 -0.5321
 1605SOL    HW116451   2.204   4.483   1.725  0.1628  0.1079  0.6029
 1605SOL    HW216452   2.145   4.571   1.823  0.0041  0.2341 -0.5344
 1606SOL     OW16453   4.301   3.014   2.995  0.1820 -0.1356  0.2287
 1606SOL    HW116454   4.287   2.988   3.086  1.0137 -2.2767 -0.2374
 1606SOL    HW216455   4.284   3.107   3.011  0.2605 -0.0303 -0.2886
 1607SOL     OW16456   4.014   1.387  15.662 -0.2389 -0.3331 -0.4562
 1607SOL    HW116457   4.018   1.368  15.756 -0.6057  0.4057 -0.2892
 1607SOL    HW216458   3.973   1.309  15.625 -2.9402  0.6034  0.5470
 1608SOL     OW16459   0.793   0.202   1.612  0.2887  0.2119 -0.4817
 1608SOL    HW116460   0.814   0.281   1.562 -0.7302  0.0356 -1.1885
 1608SOL    HW216461   0.875   0.154   1.604  0.7697  1.0422 -0.5708
 1609SOL     OW16462   0.281   3.045   1.158 -0.3669 -0.3431  0.4592
 1609SOL    HW116463   0.266   3.131   1.197 -1.5186  0.1958 -1.1862
 1609SOL    HW216464   0.299   3.074   1.069 -1.0143  0.6765  0.6595
 1610SOL     OW16465   0.771   1.175   1.613 -0.1135  0.1143 -0.5284
 1610SOL    HW116466   0.839   1.239   1.593 -0.4463  1.6765  3.3378
 1610SOL    HW216467   0.694   1.230   1.601  0.0256  0.1235 -1.3716
 1611SOL     OW16468   3.897   0.947   8.394  0.5863 -0.0435  0.2377
 1611SOL    HW116469   3.809   0.979   8.373 -0.1969  0.8404  4.7278
 1611SOL    HW216470   3.885   0.949   8.489  1.5716 -1.4580  0.3924
 1612SOL     OW16471   2.619   4.487  10.975 -0.2540 -0.3105  0.1460
 1612SOL    HW116472   2.659   4.543  11.041  0.5961 -0.0855 -0.5604
 1612SOL    HW216473   2.605   4.548  10.903 -0.8739  1.4461  1.7753
 1613SOL     OW16474   2.544   2.994   8.690  0.6604  0.0873 -0.1452
 1613SOL    HW116475   2.581   2.908   8.710 -1.1241 -0.5795  0.2735
 1613SOL    HW216476   2.575   3.033   8.772 -1.3083 -0.1001  0.6783
 1614SOL     OW16477   3.074   0.038   3.126  0.6594  0.1547  0.3508
 1614SOL    HW116478   3.128   0.115   3.142 -0.2833  0.1795  3.5937
 1614SOL    HW216479   3.138   0.000   3.066  2.0329  1.3548  1.0711
 1615SOL     OW16480   1.351   3.481  14.567  0.6116  0.5663 -0.4333
 1615SOL    HW116481   1.369   3.574  14.585 -0.7183  0.2437  2.5751
 1615SOL    HW216482   1.440   3.452  14.587  0.0047 -1.6973 -1.0821
 1616SOL     OW16483   1.668   2.538  14.237 -0.4911 -0.5488  0.0273
 1616SOL    HW116484   1.686   2.627  14.266  0.2717 -0.8987  0.6429
 1616SOL    HW216485   1.661   2.503  14.325 -1.4239  2.2954  1.0698
 1617SOL     OW16486   2.480   3.657   0.785 -0.4731  0.3874  0.3692
 1617SOL    HW116487   2.510   3.711   0.712 -0.3013  0.3373  0.4025
 1617SOL    HW216488   2.468   3.727   0.849 -1.6490  0.8434 -0.3528
 1618SOL     OW16489   4.537   1.694   2.624  0.0116  0.4245  0.3708
 1618SOL    HW116490   4.548   1.600   2.609  0.9873  0.6795 -0.4981
 1618SOL    HW216491   4.474   1.719   2.557  0.2277 -2.5161 -0.9447
 1619SOL     OW16492   3.544   2.364   4.903 -0.0846  0.0434 -0.3052
 1619SOL    HW116493   3.502   2.280   4.917  0.3740 -0.2879 -0.9298
 1619SOL    HW216494   3.630   2.342   4.938  0.4583  2.6608  0.0074
 1620SOL     OW16495   0.624   1.091   9.188  0.6783 -0.0727  0.3007
 1620SOL    HW116496   0.713   1.107   9.219  1.6197 -1.2492 -1.7952
 1620SOL    HW216497   0.637   1.069   9.096 -0.2509 -0.1431  0.1898
 1621SOL     OW16498   2.208   3.464   6.123  0.2975 -0.1867  0.4311
 1621SOL    HW116499   2.232   3.391   6.066  1.6203 -0.9033  1.9123
 1621SOL    HW216500   2.209   3.535   6.059  0.0128  0.5826  1.2867
 1622SOL     OW16501   3.166   3.738   8.508 -0.8422 -0.0374  0.5261
 1622SOL    HW116502   3.202   3.684   8.438  0.8938  1.1084  0.5431
 1622SOL    HW216503   3.075   3.749   8.479  0.0519  0.9742 -1.9031
 1623SOL     OW16504   2.807   2.545   0.179 -0.0494 -0.0794  0.1500
 1623SOL    HW116505   2.894   2.550   0.138 -0.3330  0.7574 -0.3455
 1623SOL    HW216506   2.802   2.630   0.222 -0.5374 -0.0450  0.0209
 1624SOL     OW16507   0.808   0.117  16.328  0.1709 -0.1225 -0.4141
 1624SOL    HW116508   0.894   0.076  16.331 -0.1358 -0.8188 -1.0606
 1624SOL    HW216509   0.835   0.208  16.327 -1.7522  0.4505  0.2678
 1625SOL     OW16510   1.378   0.828  16.476  0.1059  0.0474 -0.1509
 1625SOL    HW116511   1.339   0.855  16.559 -0.5576  0.7979 -0.7069
 1625SOL    HW216512   1.412   0.741  16.497  0.5954  0.2506 -0.1014
 1626SOL     OW16513   0.753   4.412   0.690  0.0849 -0.7593  0.5279
 1626SOL    HW116514   0.840   4.417   0.729  0.0026  0.5100  0.5236
 1626SOL    HW216515   0.747   4.497   0.646  2.2214  0.3046  2.2989
 1627SOL     OW16516   4.305   1.237  13.614  0.0400 -0.2446  0.3898
 1627SOL    HW116517   4.348   1.322  13.630 -0.5383 -0.0157  0.7073
 1627SOL    HW216518   4.227   1.245  13.668  0.6106  1.4455  0.9901
 1628SOL     OW16519   1.625   3.787  11.085  0.7484  0.2467 -0.0235
 1628SOL    HW116520   1.691   3.789  11.154  0.2761  0.7609  0.4111
 1628SOL    HW216521   1.629   3.870  11.038  0.0834  0.8942  1.0832
 1629SOL     OW16522   2.079   3.030  12.667  0.6577  0.1263 -0.2225
 1629SOL    HW116523   2.113   3.012  12.755 -1.8674  1.9464  1.1176
 1629SOL    HW216524   2.111   3.119  12.652 -1.7892  1.4159  2.2166
 1630SOL     OW16525   0.356   2.481   5.156 -0.1164  0.1118 -0.0562
 1630SOL    HW116526   0.413   2.458   5.230 -0.4364  0.5783  0.3359
 1630SOL    HW216527   0.348   2.575   5.171  0.1710 -0.2834  2.5946
 1631SOL     OW16528   4.558   2.707   3.212  0.2208  0.3776  0.0199
 1631SOL    HW116529   4.614   2.657   3.152  0.1714 -0.7760  0.9394
 1631SOL    HW216530   4.499   2.642   3.249 -1.5329  1.3772 -1.0369
 1632SOL     OW16531   1.419   3.198   8.255  0.7015 -0.2778  0.0712
 1632SOL    HW116532   1.426   3.224   8.163  0.5637  0.2595  0.2121
 1632SOL    HW216533   1.342   3.142   8.249  1.9589 -1.8113 -1.5967
 1633SOL     OW16534   1.223   0.261  15.332 -0.3797 -0.4322  0.1175
 1633SOL    HW116535   1.226   0.168  15.309  0.1307 -0.4236  0.1442
 1633SOL    HW216536   1.302   0.264  15.386 -0.0300 -0.8738 -0.3692
 1634SOL     OW16537   2.791   2.124   3.032 -0.0643 -0.3562  0.2827
 1634SOL    HW116538   2.737   2.163   2.963 -1.2641  0.1466  1.5256
 1634SOL    HW216539   2.720   2.109   3.093  1.3222  1.1298  2.2623
 1635SOL     OW16540   2.826   3.500   2.569 -0.0411  0.0189  0.2696
 1635SOL    HW116541   2.803   3.593   2.569 -1.5154 -0.3301  0.5918
 1635SOL    HW216542   2.747   3.465   2.612  0.2938  1.1112  1.7821
 1636SOL     OW16543   4.436   3.424   6.292  0.1081  0.3513 -0.2035
 1636SOL    HW116544   4.384   3.424   6.372  0.3921  1.4935 -0.0146
 1636SOL    HW216545   4.425   3.332   6.269  0.7578  0.0202  0.8438
 1637SOL     OW16546   2.548   3.476   5.976  0.2386  0.5908  0.1804
 1637SOL    HW116547   2.470   3.445   5.931  1.2315  0.1896 -1.2601
 1637SOL    HW216548   2.574   3.399   6.027 -0.0960 -0.1170 -0.7261
 1638SOL     OW16549   1.960   4.699   6.211  0.0216  0.3207  0.0107
 1638SOL    HW116550   1.882   0.024   6.198 -1.1217 -0.8071  2.1526
 1638SOL    HW216551   2.017   0.042   6.238 -0.9545  1.2574 -0.4080
 1639SOL     OW16552   1.114   3.660   8.358  0.3643  0.0108  0.1342
 1639SOL    HW116553   1.190   3.611   8.388  0.9326 -0.1098 -1.5266
 1639SOL    HW216554   1.122   3.640   8.265 -0.0765 -0.9362  0.2914
 1640SOL     OW16555   1.279   1.302  12.500  0.1084 -0.2754 -0.0162
 1640SOL    HW116556   1.274   1.208  12.482  2.0719 -0.1082 -1.4281
 1640SOL    HW216557   1.212   1.312  12.568 -0.3770 -0.5054 -0.4549
 1641SOL     OW16558   3.442   1.855   2.080 -0.2256  0.1890 -0.6157
 1641SOL    HW116559   3.427   1.823   2.169  0.7680 -1.5500 -1.0561
 1641SOL    HW216560   3.443   1.950   2.092  3.0293 -0.2407  2.5941
 1642SOL     OW16561   2.328   4.501   9.034  0.2762 -0.4708 -0.4050
 1642SOL    HW116562   2.320   4.566   8.964  1.1622  0.1703  0.0898
 1642SOL    HW216563   2.293   4.556   9.104 -0.2019  0.5961 -1.4800
 1643SOL     OW16564   2.649   3.830   5.942  0.2283  0.0845 -0.0675
 1643SOL    HW116565   2.650   3.838   6.038  0.7942  1.0467 -0.1551
 1643SOL    HW216566   2.603   3.747   5.932 -2.1116  1.6247 -1.8642
 1644SOL     OW16567   2.740   4.220   5.872  0.1904  0.0204 -0.3974
 1644SOL    HW116568   2.757   4.314   5.878  0.5280 -0.1492  1.3673
 1644SOL    HW216569   2.678   4.218   5.798 -0.1750 -0.0309 -0.0902
 1645SOL     OW16570   2.085   3.499   4.524 -0.1071  0.1457  0.2739
 1645SOL    HW116571   2.122   3.583   4.549 -0.7320  0.6185 -0.3941
 1645SOL    HW216572   2.105   3.455   4.607  2.8165 -0.3351 -0.7029
 1646SOL     OW16573   0.243   4.590   4.383  0.4219 -0.2988  0.1785
 1646SOL    HW116574   0.207   4.514   4.338  2.1494 -1.7323  1.2268
 1646SOL    HW216575   0.331   4.596   4.346  0.2313 -0.9817 -0.3686
 1647SOL     OW16576   4.052   1.438  13.490 -0.5050 -0.0081 -0.5074
 1647SOL    HW116577   4.013   1.503  13.549  1.2385 -1.2734  2.0353
 1647SOL    HW216578   4.066   1.366  13.552 -0.9417  0.8284  0.5656
 1648SOL     OW16579   2.950   1.450   4.310  0.1105 -0.2270  0.5023
 1648SOL    HW116580   3.034   1.486   4.337  0.5491  0.6858 -2.0890
 1648SOL    HW216581   2.973   1.400   4.232 -0.9588 -1.5173  0.9911
 1649SOL     OW16582   2.449   4.326   6.013 -0.6495 -0.8868  0.1332
 1649SOL    HW116583   2.544   4.331   5.999 -0.4423 -0.3859  1.6998
 1649SOL    HW216584   2.418   4.274   5.939 -3.0185  0.0936  0.4389
 1650SOL     OW16585   0.678   0.649  12.865 -0.3128 -0.3945  0.3904
 1650SOL    HW116586   0.603   0.646  12.924  0.0560  1.8403  0.9758
 1650SOL    HW216587   0.649   0.701  12.790  0.2591  0.7744  0.9668
 1651SOL     OW16588   2.090   0.699  14.841 -0.4791 -0.0646 -0.5415
 1651SOL    HW116589   2.035   0.769  14.875  0.0187 -0.2340  0.6109
 1651SOL    HW216590   2.032   0.630  14.876 -0.5707 -0.0775 -0.7175
 1652SOL     OW16591   3.941   0.092   3.853  0.1868 -0.0533  0.3039
 1652SOL    HW116592   4.035   0.109   3.844  0.0052  1.5111  1.3652
 1652SOL    HW216593   3.948   0.066   3.945  0.5523 -0.8658  0.0447
 1653SOL     OW16594   0.243   1.126  15.479  0.4528 -0.7684  0.4273
 1653SOL    HW116595   0.316   1.186  15.462  0.8139 -1.1365  0.6691
 1653SOL    HW216596   0.208   1.127  15.390  1.0723  0.9859  0.2103
 1654SOL     OW16597   1.745   2.162   8.548  0.1405  0.5021 -0.0242
 1654SOL    HW116598   1.757   2.209   8.631  1.2419 -1.0636  0.7109
 1654SOL    HW216599   1.835   2.136   8.529  0.5279  2.3301 -0.7514
 1655SOL     OW16600   0.706   2.439  15.780 -0.2175 -0.4174 -0.5862
 1655SOL    HW116601   0.780   2.381  15.798 -0.9941 -1.3929 -0.5970
 1655SOL    HW216602   0.736   2.522  15.817 -1.3630  0.4067 -1.5117
 1656SOL     OW16603   1.010   3.246  13.085  0.2080 -0.1749 -0.3986
 1656SOL    HW116604   0.965   3.329  13.099 -0.3856 -0.5632 -0.0109
 1656SOL    HW216605   0.964   3.191  13.149  0.6386  0.7275  0.6831
 1657SOL     OW16606   1.150   1.906   8.628 -0.3995 -0.2559  0.3395
 1657SOL    HW116607   1.153   1.812   8.609 -1.9687 -0.1344 -0.5074
 1657SOL    HW216608   1.160   1.908   8.723 -2.2685 -0.7073  0.5555
 1658SOL     OW16609   4.265   1.670  16.194 -0.2412 -0.1219  0.3448
 1658SOL    HW116610   4.221   1.748  16.159  2.4129  0.8351 -0.8479
 1658SOL    HW216611   4.195   1.620  16.236 -1.5569  0.2757 -1.3988
 1659SOL     OW16612   2.512   3.083  10.235  0.1912  0.0114 -0.0777
 1659SOL    HW116613   2.558   3.048  10.311 -2.1324 -1.0770  0.8378
 1659SOL    HW216614   2.435   3.117  10.281  1.7317  4.1237 -0.4634
 1660SOL     OW16615   0.434   3.946   8.534 -0.0224 -1.1877 -0.1795
 1660SOL    HW116616   0.348   3.921   8.500 -0.9873  1.4874  0.3261
 1660SOL    HW216617   0.421   3.929   8.628  0.4525  2.2954  0.5160
 1661SOL     OW16618   2.686   0.886   2.392  0.1115  0.1690 -0.3534
 1661SOL    HW116619   2.737   0.941   2.452 -0.1611  0.6599 -0.5738
 1661SOL    HW216620   2.626   0.834   2.444  1.6482 -1.4482 -0.1979
 1662SOL     OW16621   1.129   2.894  10.541  0.7647  0.9324  0.1011
 1662SOL    HW116622   1.160   2.960  10.479  1.1312 -0.1236 -0.8381
 1662SOL    HW216623   1.200   2.898  10.605 -0.7796  1.7223  1.7921
 1663SOL     OW16624   2.711   1.806  15.938  0.4848 -0.3942  0.4820
 1663SOL    HW116625   2.670   1.882  15.979  0.3531 -0.7903  1.0833
 1663SOL    HW216626   2.634   1.752  15.918  0.7385 -0.5855  0.0155
 1664SOL     OW16627   0.104   3.941   3.953  0.3233 -0.3172 -0.0007
 1664SOL    HW116628   0.084   3.891   3.874  0.4759 -0.8046  0.2702
 1664SOL    HW216629   0.022   3.990   3.961  0.9457  0.7369 -0.0334
 1665SOL     OW16630   0.465   2.946   4.339  0.0552 -0.2307 -0.1207
 1665SOL    HW116631   0.381   2.957   4.295 -0.6943  0.7488  1.5682
 1665SOL    HW216632   0.442   2.907   4.423  0.3707  0.0469  0.0961
 1666SOL     OW16633   0.312   1.049   5.223  0.3777  0.9672  0.1852
 1666SOL    HW116634   0.367   1.023   5.149  4.4795  2.7275  2.5971
 1666SOL    HW216635   0.320   0.971   5.278  0.2690  0.8632  0.0547
 1667SOL     OW16636   1.852   4.072  13.040 -0.4311  0.2990 -0.0408
 1667SOL    HW116637   1.933   4.092  13.087  0.5567 -0.8875 -1.1999
 1667SOL    HW216638   1.871   3.983  13.009  0.5814 -0.0549  1.6220
 1668SOL     OW16639   0.931   3.103   3.001  0.3132 -0.3440  0.3602
 1668SOL    HW116640   1.014   3.078   3.041  1.0686  1.6371  0.0459
 1668SOL    HW216641   0.952   3.168   2.934  3.5883  0.6611  2.4193
 1669SOL     OW16642   1.818   1.171   5.853 -0.0511  0.0548  0.2415
 1669SOL    HW116643   1.906   1.137   5.870 -1.0851 -2.1575  1.1749
 1669SOL    HW216644   1.802   1.236   5.921 -2.7456  1.3824 -1.6730
 1670SOL     OW16645   1.032   1.569   6.973  0.2216 -0.1170 -0.2460
 1670SOL    HW116646   1.094   1.570   7.046  0.5464  0.4436 -0.5282
 1670SOL    HW216647   1.047   1.657   6.938 -2.8919  0.3400 -0.3528
 1671SOL     OW16648   0.173   0.557  14.431 -0.4453 -0.3843 -0.3468
 1671SOL    HW116649   0.226   0.624  14.387 -1.4668  0.2827 -0.5714
 1671SOL    HW216650   0.096   0.562  14.374 -0.5905  1.8576  0.0194
 1672SOL     OW16651   0.278   1.567   5.647  0.1916 -0.0879  0.0465
 1672SOL    HW116652   0.357   1.513   5.654 -0.1003 -0.5928 -0.5373
 1672SOL    HW216653   0.261   1.563   5.553 -1.4186  0.9103  0.2980
 1673SOL     OW16654   1.477   2.544   7.725 -0.1236 -0.2636  0.2810
 1673SOL    HW116655   1.396   2.590   7.702  1.2761  1.7734 -0.6009
 1673SOL    HW216656   1.500   2.492   7.648  0.1251 -0.1009  0.2439
 1674SOL     OW16657   3.739   2.558   8.742  0.4685  0.0426 -0.4067
 1674SOL    HW116658   3.828   2.583   8.718  1.9810 -2.2770  2.8371
 1674SOL    HW216659   3.738   2.582   8.835 -0.1811  0.9503 -0.6459
 1675SOL     OW16660   2.446   4.090  12.686  0.1820 -0.0363  0.1440
 1675SOL    HW116661   2.519   4.081  12.747  0.7034  0.7081 -0.3740
 1675SOL    HW216662   2.439   4.002  12.649 -0.0390  0.4568 -0.9912
 1676SOL     OW16663   0.863   0.965   6.918 -0.2504  0.2463  0.2204
 1676SOL    HW116664   0.840   1.058   6.911 -0.0005  0.1828 -1.4890
 1676SOL    HW216665   0.837   0.944   7.007  0.3227  1.3818  0.6619
 1677SOL     OW16666   1.322   3.426  14.314 -0.0196  0.0531 -0.2850
 1677SOL    HW116667   1.277   3.463  14.389 -0.2928 -0.4575 -0.1952
 1677SOL    HW216668   1.409   3.466  14.316  0.6003 -1.3812  1.7292
 1678SOL     OW16669   0.905   0.133   7.728 -0.7445 -0.1229  0.0810
 1678SOL    HW116670   0.841   0.137   7.799 -2.7270 -2.1716 -1.5813
 1678SOL    HW216671   0.849   0.087   7.666 -0.2233  0.1756 -0.6128
 1679SOL     OW16672   0.440   3.519   7.147 -0.1530  0.0087 -0.5773
 1679SOL    HW116673   0.512   3.501   7.207 -2.0692 -0.1859  1.6382
 1679SOL    HW216674   0.381   3.444   7.157 -1.7605  1.3678  0.2549
 1680SOL     OW16675   1.159   2.879   1.014 -0.2642 -0.3398  0.1900
 1680SOL    HW116676   1.138   2.787   0.993  1.2188 -0.4446 -0.7921
 1680SOL    HW216677   1.113   2.921   0.941  2.6380  0.0727 -1.4218
 1681SOL     OW16678   3.101   3.664   5.949  0.4630  0.0007 -0.5126
 1681SOL    HW116679   3.013   3.648   5.915  0.0155 -0.3293  0.8080
 1681SOL    HW216680   3.083   3.748   5.993  3.2486 -0.5283  1.6583
 1682SOL     OW16681   0.541   4.220   0.276 -0.3363 -0.0726  0.5218
 1682SOL    HW116682   0.576   4.306   0.300  0.2286 -0.5000  1.2335
 1682SOL    HW216683   0.501   4.199   0.360 -1.3588 -0.0337  0.0358
 1683SOL     OW16684   3.174   3.111   9.170 -0.5477 -0.3809  0.3180
 1683SOL    HW116685   3.141   3.021   9.171 -3.7092  0.7280 -1.9562
 1683SOL    HW216686   3.166   3.127   9.264  0.6315  3.7951 -0.2887
 1684SOL     OW16687   1.950   0.929   2.934 -0.2684  0.5627 -0.1704
 1684SOL    HW116688   1.982   0.932   3.024 -2.0912 -3.2702  0.6178
 1684SOL    HW216689   1.968   0.837   2.916  3.1360  1.4864 -1.4800
 1685SOL     OW16690   0.484   3.795   2.624  0.5607  0.4738  0.9035
 1685SOL    HW116691   0.459   3.718   2.673 -0.0202 -0.9378 -1.6142
 1685SOL    HW216692   0.405   3.828   2.582  0.1331  0.1142  1.4398
 1686SOL     OW16693   0.038   0.270   5.756 -0.1309  0.5361 -0.5346
 1686SOL    HW116694   4.709   0.237   5.687 -2.5034  3.3076  0.1323
 1686SOL    HW216695   0.101   0.323   5.708  0.7373 -1.7605 -1.9411
 1687SOL     OW16696   2.876   2.853   9.606 -0.0115  0.0016 -0.0653
 1687SOL    HW116697   2.971   2.847   9.594  0.2766 -0.0842  2.1217
 1687SOL    HW216698   2.861   2.932   9.555 -0.6991  0.0604  0.2208
 1688SOL     OW16699   1.735   4.704   5.423 -0.6535 -0.0485 -0.1806
 1688SOL    HW116700   1.783   4.683   5.343 -1.0220 -0.8952 -0.1762
 1688SOL    HW216701   1.810   4.719   5.481 -0.5960  0.8825 -0.4946
 1689SOL     OW16702   1.876   2.380  10.213  0.0861  0.4098 -0.2295
 1689SOL    HW116703   1.926   2.384  10.132 -1.0916  3.0374 -0.8462
 1689SOL    HW216704   1.861   2.473  10.234  0.5243  0.1697  1.1237
 1690SOL     OW16705   3.324   2.037   7.840 -0.3286 -0.0975 -0.9277
 1690SOL    HW116706   3.352   2.001   7.756  0.6016 -1.5809  0.0179
 1690SOL    HW216707   3.325   2.130   7.817 -2.0976 -0.0206 -0.7097
 1691SOL     OW16708   2.463   2.350  10.372 -0.2027 -0.0424  0.5031
 1691SOL    HW116709   2.367   2.352  10.379 -0.3395  1.2844 -1.8306
 1691SOL    HW216710   2.480   2.380  10.461 -2.6211  1.6534  0.4126
 1692SOL     OW16711   0.232   2.650   3.140  0.2588 -0.1450 -0.4171
 1692SOL    HW116712   0.262   2.584   3.078  0.3001  1.7957 -2.4725
 1692SOL    HW216713   0.136   2.650   3.133  0.2963  0.2576 -0.9743
 1693SOL     OW16714   4.357   0.766  11.951  0.1473  0.5004  0.4227
 1693SOL    HW116715   4.446   0.749  11.921  0.6038  1.9136  0.9875
 1693SOL    HW216716   4.301   0.693  11.922 -1.2522  1.7848 -0.1193
 1694SOL     OW16717   2.577   4.198  11.625 -0.1095 -0.2807 -0.1633
 1694SOL    HW116718   2.597   4.105  11.618 -0.7945 -0.4643  0.2769
 1694SOL    HW216719   2.510   4.194  11.694  0.9169 -1.1642  0.7768
 1695SOL     OW16720   0.661   2.850  10.494  0.2395 -0.3358 -0.0622
 1695SOL    HW116721   0.719   2.919  10.464 -1.5773 -0.1447 -3.1081
 1695SOL    HW216722   0.673   2.861  10.588 -1.3140  0.8557 -0.0095
 1696SOL     OW16723   4.591   2.523  17.562 -0.1122  0.3150 -0.6175
 1696SOL    HW116724   4.645   2.459  17.518  1.6551  1.0543  0.4900
 1696SOL    HW216725   4.518   2.462  17.575  1.2659 -0.8738  1.5800
 1697SOL     OW16726   2.727   2.620   3.623 -0.0276 -0.4700 -0.1986
 1697SOL    HW116727   2.760   2.576   3.544  1.2683  3.1945 -1.6916
 1697SOL    HW216728   2.636   2.643   3.606 -0.0050 -0.3195 -0.1091
 1698SOL     OW16729   2.277   1.302   3.289  0.5839  0.1994 -0.0596
 1698SOL    HW116730   2.285   1.216   3.248  0.4973  0.2648 -0.2149
 1698SOL    HW216731   2.322   1.357   3.224  2.6438  0.7044  1.8114
 1699SOL     OW16732   1.816   3.650  10.340 -0.2354 -0.2448 -0.1218
 1699SOL    HW116733   1.886   3.711  10.365 -1.4038  0.6974  0.8783
 1699SOL    HW216734   1.812   3.593  10.416  1.9390 -0.0673  0.1126
 1700SOL     OW16735   0.480   2.591  15.290 -0.0514 -0.0290  0.1673
 1700SOL    HW116736   0.552   2.643  15.327  0.1301 -0.7469  0.8298
 1700SOL    HW216737   0.449   2.642  15.215 -1.8437  0.3248  1.1660
 1701SOL     OW16738   2.637   0.694  16.147  0.1644 -0.0218  0.6104
 1701SOL    HW116739   2.541   0.696  16.148  0.1162 -2.3814  0.5548
 1701SOL    HW216740   2.662   0.706  16.056 -1.3773 -1.3369  0.0171
 1702SOL     OW16741   2.996   0.997   2.789  0.2256  0.1514 -0.1723
 1702SOL    HW116742   3.077   0.988   2.840  0.4048  1.7047 -0.1923
 1702SOL    HW216743   2.933   1.009   2.859  2.0711 -0.8162  1.6527
 1703SOL     OW16744   3.543   2.742   8.643 -0.3468 -0.7759  0.4659
 1703SOL    HW116745   3.530   2.752   8.737  0.5497 -0.8838  0.6020
 1703SOL    HW216746   3.619   2.685   8.649 -2.1136 -3.4686 -2.5267
 1704SOL     OW16747   0.543   1.972   5.412 -0.0633  0.2617 -0.1002
 1704SOL    HW116748   0.480   1.928   5.469  0.8251  0.9844  1.4334
 1704SOL    HW216749   0.591   2.027   5.474  1.5180 -0.9767 -0.2337
 1705SOL     OW16750   0.167   1.003   9.748 -0.1870 -0.3398 -0.1784
 1705SOL    HW116751   0.111   0.986   9.824  2.4215  0.4788  1.9391
 1705SOL    HW216752   0.243   1.033   9.797  0.0450 -2.6236  0.8483
 1706SOL     OW16753   1.994   1.205   7.055 -0.1015 -0.4946  0.0047
 1706SOL    HW116754   1.966   1.208   7.146  1.6247  0.9647  0.4882
 1706SOL    HW216755   1.929   1.142   7.024  0.5732  0.2748 -2.9809
 1707SOL     OW16756   1.634   1.856  13.619  0.2575  0.3530  0.0422
 1707SOL    HW116757   1.616   1.778  13.566 -1.7734 -0.3943  1.8453
 1707SOL    HW216758   1.542   1.876  13.634 -0.1069 -0.4562 -1.1086
 1708SOL     OW16759   3.570   0.734   2.741  0.1566 -0.3093  0.0437
 1708SOL    HW116760   3.486   0.716   2.784 -1.6652  0.0705 -3.3054
 1708SOL    HW216761   3.577   0.654   2.689 -0.9509 -0.0132 -0.5624
 1709SOL     OW16762   2.298   1.518   8.919 -0.6404 -0.5459  0.8187
 1709SOL    HW116763   2.211   1.479   8.917 -1.3484  1.1521 -1.7328
 1709SOL    HW216764   2.271   1.603   8.883  2.1225  0.0603  0.1988
 1710SOL     OW16765   2.195   3.839   6.133  0.0506  0.4550  0.0679
 1710SOL    HW116766   2.151   3.835   6.217 -0.5152 -0.9142 -0.2950
 1710SOL    HW216767   2.132   3.794   6.077  0.4719  0.4709 -0.4240
 1711SOL     OW16768   2.328   1.135   3.510 -0.2351 -0.0547  0.4646
 1711SOL    HW116769   2.328   1.204   3.443  0.8792 -0.4068  0.1093
 1711SOL    HW216770   2.239   1.152   3.540 -0.8493 -1.5377 -0.5211
 1712SOL     OW16771   2.072   2.707   6.237 -0.1057 -0.1587  0.0952
 1712SOL    HW116772   2.149   2.763   6.241  0.1998 -0.6832  1.4580
 1712SOL    HW216773   2.013   2.751   6.299  0.1830 -1.3332  1.2058
 1713SOL     OW16774   1.925   2.225  12.297 -0.1198  0.0600 -0.2384
 1713SOL    HW116775   1.958   2.296  12.352 -1.6386  1.7787 -1.5270
 1713SOL    HW216776   1.978   2.146  12.307  0.1406  0.6218  2.8564
 1714SOL     OW16777   1.583   4.265  12.678  0.3636 -0.3569 -0.0904
 1714SOL    HW116778   1.676   4.244  12.682  0.1908 -0.6786  2.2967
 1714SOL    HW216779   1.588   4.358  12.656  1.5900  0.0288  1.8955
 1715SOL     OW16780   3.420   4.137   3.183  0.0580 -0.3114  0.0554
 1715SOL    HW116781   3.446   4.228   3.173 -1.0335 -0.0619 -0.4320
 1715SOL    HW216782   3.500   4.096   3.149 -0.5020 -1.1068 -0.2997
 1716SOL     OW16783   3.988   1.642   4.277 -0.3182 -0.4359  0.0915
 1716SOL    HW116784   3.999   1.611   4.188  0.7380 -0.9747  0.4101
 1716SOL    HW216785   4.078   1.644   4.311 -1.2457  2.2056  2.4219
 1717SOL     OW16786   3.414   3.728   7.692 -0.3751 -0.7960 -0.3410
 1717SOL    HW116787   3.471   3.800   7.663  1.7939 -0.6814  4.1671
 1717SOL    HW216788   3.448   3.663   7.630 -2.4151 -1.8215 -0.3719
 1718SOL     OW16789   4.239   2.941   8.564  0.6534 -0.3878  0.4083
 1718SOL    HW116790   4.319   2.962   8.611  1.1968 -0.3051 -0.5693
 1718SOL    HW216791   4.267   2.942   8.473 -0.4389 -0.5901  0.0679
 1719SOL     OW16792   1.981   4.073   3.754 -0.3055  0.6008 -0.1178
 1719SOL    HW116793   2.020   4.084   3.667  0.5800 -0.0162  0.2047
 1719SOL    HW216794   2.055   4.033   3.799 -0.5107 -0.8741 -1.0699
 1720SOL     OW16795   1.727   1.653   6.714  0.2360 -0.0905  0.2944
 1720SOL    HW116796   1.697   1.718   6.777 -1.8306  0.8677 -1.6617
 1720SOL    HW216797   1.705   1.572   6.759  1.7790 -2.2699 -2.8690
 1721SOL     OW16798   2.930   1.414   7.752 -0.5516  0.1118 -0.2270
 1721SOL    HW116799   2.929   1.476   7.825 -0.2618  0.8547 -0.8596
 1721SOL    HW216800   2.845   1.430   7.711 -0.9501 -0.3451  0.4057
 1722SOL     OW16801   3.837   2.813  14.703 -0.1214 -0.5418  0.0482
 1722SOL    HW116802   3.827   2.890  14.759 -1.1402 -0.8209  0.2480
 1722SOL    HW216803   3.905   2.843  14.643  1.5086  0.2233  2.2807
 1723SOL     OW16804   1.399   4.586   3.275  0.1371 -0.0109  0.4773
 1723SOL    HW116805   1.434   4.675   3.264 -1.8368  0.4961 -1.7882
 1723SOL    HW216806   1.477   4.542   3.309  1.7653  2.0158 -0.6147
 1724SOL     OW16807   3.158   2.056   6.562 -0.1150  0.6887 -0.0277
 1724SOL    HW116808   3.067   2.049   6.589  0.0587  0.0125  0.3819
 1724SOL    HW216809   3.193   1.967   6.563  1.6182  1.3434 -1.2099
 1725SOL     OW16810   0.124   2.650   3.454  0.6400 -0.3454 -0.1088
 1725SOL    HW116811   0.213   2.659   3.419  0.9159  0.2931  0.7423
 1725SOL    HW216812   0.122   2.722   3.517 -0.7185  0.2088 -0.7931
 1726SOL     OW16813   3.365   3.844   2.544 -0.0439 -0.1768  0.2626
 1726SOL    HW116814   3.443   3.878   2.588  1.9369 -0.2256 -3.1458
 1726SOL    HW216815   3.329   3.930   2.523  0.1792 -0.0966  0.2086
 1727SOL     OW16816   4.644   0.342   0.177  0.7248 -0.0417  0.1211
 1727SOL    HW116817   4.667   0.291   0.100  2.4087  1.6719 -0.5017
 1727SOL    HW216818   4.658   0.432   0.148  0.2762 -0.8507 -2.6488
 1728SOL     OW16819   3.866   2.319   4.653  0.6322  0.2081  0.1350
 1728SOL    HW116820   3.820   2.346   4.574  2.6959  0.4584 -0.9754
 1728SOL    HW216821   3.931   2.259   4.617  1.9096  1.4915  0.2587
 1729SOL     OW16822   2.021   0.150   3.118  0.0978  0.1873  0.0406
 1729SOL    HW116823   2.035   0.207   3.194  0.4495 -0.9725  0.8358
 1729SOL    HW216824   1.932   0.116   3.125 -0.2229  0.8419 -0.8072
 1730SOL     OW16825   4.595   0.883  14.119 -0.4138  0.1805  0.6297
 1730SOL    HW116826   4.523   0.822  14.134  0.9681 -1.6780 -0.3678
 1730SOL    HW216827   4.656   0.861  14.189 -0.5107 -2.2715 -0.0535
 1731SOL     OW16828   2.472   0.706  10.999  0.1683 -0.8974  0.4712
 1731SOL    HW116829   2.467   0.785  11.053 -1.0873  0.3561 -1.4781
 1731SOL    HW216830   2.564   0.704  10.974  0.7998 -0.0678  2.7926
 1732SOL     OW16831   4.726   0.598   0.111  0.1139  0.5208  0.0293
 1732SOL    HW116832   0.063   0.665   0.094  1.7338 -1.2109 -0.4151
 1732SOL    HW216833   4.660   0.617   0.044 -0.3355 -0.8923  0.0674
 1733SOL     OW16834   3.649   0.180   4.618  0.5116  0.0207 -0.0746
 1733SOL    HW116835   3.704   0.188   4.696 -0.0037 -0.2036  0.3064
 1733SOL    HW216836   3.560   0.178   4.652  0.1421  1.4680 -0.9540
 1734SOL     OW16837   3.354   2.814   7.112 -0.4355  0.1533  0.5566
 1734SOL    HW116838   3.365   2.819   7.207 -0.9104 -1.2668  0.6861
 1734SOL    HW216839   3.281   2.754   7.092  0.5669 -0.6702 -0.6000
 1735SOL     OW16840   1.123   1.682   2.524 -0.1158  0.3583 -0.2892
 1735SOL    HW116841   1.151   1.615   2.586 -1.1660  0.5345  0.3948
 1735SOL    HW216842   1.153   1.762   2.568 -1.1171 -1.3224  3.5089
 1736SOL     OW16843   0.318   1.833   5.529  0.1362 -0.1800 -0.4498
 1736SOL    HW116844   0.285   1.822   5.440  2.0727  1.7156 -1.4001
 1736SOL    HW216845   0.281   1.758   5.575  1.8441  0.7224  2.4317
 1737SOL     OW16846   0.370   3.999   7.134 -0.2810  0.2389 -0.1412
 1737SOL    HW116847   0.348   4.086   7.168 -0.0328  0.1367  0.2794
 1737SOL    HW216848   0.354   4.010   7.040 -0.1808 -0.3173 -0.2202
 1738SOL     OW16849   1.312   2.686  11.917 -0.3345  0.1030  0.1245
 1738SOL    HW116850   1.263   2.767  11.931  1.3789  1.2271 -0.3667
 1738SOL    HW216851   1.248   2.621  11.886 -0.5690  0.2492  0.3027
 1739SOL     OW16852   1.699   4.271   8.609 -0.1170  0.0395 -0.2294
 1739SOL    HW116853   1.770   4.322   8.648  0.4160  0.2197 -1.4350
 1739SOL    HW216854   1.626   4.328   8.632 -0.3905 -1.2507  2.1039
 1740SOL     OW16855   4.321   1.543   6.367 -0.0804 -0.1255  0.2874
 1740SOL    HW116856   4.314   1.457   6.325  0.4160 -0.3489  0.6577
 1740SOL    HW216857   4.227   1.561   6.364 -0.1056 -0.1006  1.1437
 1741SOL     OW16858   1.718   4.240   0.029  0.1062  0.1169 -0.4967
 1741SOL    HW116859   1.659   4.315   0.041  0.8812  0.4616  1.0223
 1741SOL    HW216860   1.736   4.225   0.121  0.1598  0.0030 -0.5262
 1742SOL     OW16861   3.875   4.716  14.194 -0.0910 -0.1167 -0.2631
 1742SOL    HW116862   3.952   0.037  14.167  0.9101 -0.7963  1.3617
 1742SOL    HW216863   3.880   4.634  14.146  0.4863 -1.3250  1.8602
 1743SOL     OW16864   3.168   0.122   5.657 -0.1594 -0.3119 -0.6301
 1743SOL    HW116865   3.239   0.122   5.721 -1.7479 -1.8776  1.1603
 1743SOL    HW216866   3.173   0.039   5.609 -0.8913 -0.9332  0.3346
 1744SOL     OW16867   4.707   1.818  11.595 -0.0143  0.8387  0.0180
 1744SOL    HW116868   4.627   1.860  11.562 -0.0024  2.5638  2.1577
 1744SOL    HW216869   0.018   1.891  11.643  0.2245 -0.3194  1.5749
 1745SOL     OW16870   1.933   4.352   3.696  0.2070 -0.4112 -0.1407
 1745SOL    HW116871   1.887   4.387   3.772  0.6659 -0.7853  0.3158
 1745SOL    HW216872   1.967   4.268   3.729 -0.0501 -0.1395  0.8094
 1746SOL     OW16873   0.208   2.286   8.674 -0.1393  0.2705  0.4482
 1746SOL    HW116874   0.137   2.347   8.651 -1.0895 -0.7730  0.6176
 1746SOL    HW216875   0.280   2.349   8.675 -0.9024  1.1366  0.6167
 1747SOL     OW16876   2.952   1.125   6.700  0.4165 -0.1297  0.3578
 1747SOL    HW116877   2.885   1.075   6.747 -0.3355  2.7379  2.3182
 1747SOL    HW216878   3.026   1.135   6.760  1.0987  0.3733 -0.5697
 1748SOL     OW16879   0.216   0.914   8.973 -0.2478  0.5640 -0.5053
 1748SOL    HW116880   0.261   0.830   8.960 -0.0971  0.1037  2.9958
 1748SOL    HW216881   0.129   0.875   8.979  0.4421 -0.8281  0.5902
 1749SOL     OW16882   3.201   1.925   8.086  0.0235  0.1573 -0.0032
 1749SOL    HW116883   3.229   1.973   8.008 -1.5829 -0.9739 -1.2642
 1749SOL    HW216884   3.279   1.874   8.108 -0.1017 -0.4746 -1.0166
 1750SOL     OW16885   1.550   2.499   2.539 -0.2243 -0.2433 -0.0863
 1750SOL    HW116886   1.608   2.533   2.471  0.1439  1.2337  0.9538
 1750SOL    HW216887   1.499   2.576   2.564 -2.7855 -1.8081 -0.4762
 1751SOL     OW16888   1.971   1.913   6.868  0.1047 -0.1776  0.7350
 1751SOL    HW116889   1.983   1.818   6.869 -0.5335 -0.2601  0.4552
 1751SOL    HW216890   1.985   1.937   6.777 -0.3732  1.6660  1.1499
 1752SOL     OW16891   2.835   2.490   3.429 -0.1432 -0.4575  0.4349
 1752SOL    HW116892   2.886   2.412   3.449 -2.0726 -2.0311 -0.7690
 1752SOL    HW216893   2.902   2.551   3.397 -0.2418 -0.6363 -0.1149
 1753SOL     OW16894   1.775   2.969   7.533 -0.3654 -0.0088 -0.1242
 1753SOL    HW116895   1.740   2.960   7.621  0.7651 -0.3651  0.2906
 1753SOL    HW216896   1.835   3.043   7.531  1.0036 -1.1351 -1.6448
 1754SOL     OW16897   1.704   1.010   5.372  0.1086  0.2103 -0.0451
 1754SOL    HW116898   1.627   1.067   5.368  0.4104  0.8163  2.5340
 1754SOL    HW216899   1.661   0.925   5.384  1.1884 -0.2455  0.6533
 1755SOL     OW16900   0.786   3.983   1.137  0.2299  0.1671 -0.1312
 1755SOL    HW116901   0.775   3.895   1.173 -0.1991  0.5959  0.7897
 1755SOL    HW216902   0.834   4.011   1.215 -1.1407 -1.5946  1.3168
 1756SOL     OW16903   1.611   0.025   1.106 -0.1015  0.6393  0.2252
 1756SOL    HW116904   1.556   0.054   1.179  1.1641  1.7998  0.7223
 1756SOL    HW216905   1.618   0.105   1.053  0.0260 -0.4844 -1.4475
 1757SOL     OW16906   0.445   0.050  14.016 -0.5173  0.4009  0.1832
 1757SOL    HW116907   0.406   4.703  13.975  0.9316 -2.0031  3.3155
 1757SOL    HW216908   0.531   0.019  14.045 -1.2815 -0.0343  1.9656
 1758SOL     OW16909   3.265   4.227   5.665  0.1425 -0.4611 -0.0096
 1758SOL    HW116910   3.179   4.268   5.653  0.9896  1.2702 -0.0230
 1758SOL    HW216911   3.233   4.138   5.680  1.6258 -0.8628  0.7244
 1759SOL     OW16912   2.943   0.530   3.931  0.3414  0.4958  0.1156
 1759SOL    HW116913   2.973   0.579   4.008 -0.1665  1.1024 -0.0625
 1759SOL    HW216914   2.957   0.598   3.865 -0.7184 -0.3986 -1.0173
 1760SOL     OW16915   0.481   2.918   1.760 -0.3507  0.2136  0.0731
 1760SOL    HW116916   0.546   2.976   1.721 -0.7955 -0.8530 -2.2314
 1760SOL    HW216917   0.549   2.864   1.802  2.5195  1.9720 -2.3420
 1761SOL     OW16918   4.726   0.404  15.845 -0.2906  0.2422  0.0749
 1761SOL    HW116919   0.072   0.346  15.859  1.4616  2.9068  1.7860
 1761SOL    HW216920   0.024   0.485  15.887 -0.8104  0.8974 -0.8493
 1762SOL     OW16921   2.110   3.591   8.880 -0.0314  0.3056 -0.1287
 1762SOL    HW116922   2.120   3.521   8.815 -0.0115 -0.3815  0.6271
 1762SOL    HW216923   2.023   3.628   8.864  0.7531  0.9405 -3.0217
 1763SOL     OW16924   0.713   2.571   5.117  0.1004 -0.1576 -0.2073
 1763SOL    HW116925   0.755   2.522   5.046  4.0939 -0.0364  2.0452
 1763SOL    HW216926   0.781   2.632   5.146  0.6809 -0.0857 -1.7018
 1764SOL     OW16927   2.009   2.946  14.133  0.1978  0.2686 -0.3616
 1764SOL    HW116928   1.963   2.863  14.119 -2.1180  1.4910  0.1032
 1764SOL    HW216929   1.955   2.985  14.201 -0.8973 -2.0532  0.1063
 1765SOL     OW16930   0.023   2.356   7.245 -0.2483 -0.3337 -0.0102
 1765SOL    HW116931   4.694   2.355   7.322  0.1886  0.4900  0.3257
 1765SOL    HW216932   0.083   2.427   7.264 -1.4112  0.8868 -0.9026
 1766SOL     OW16933   0.510   1.702   7.468 -0.4625 -0.3616 -0.3634
 1766SOL    HW116934   0.514   1.611   7.499 -1.9135 -1.1732 -2.5691
 1766SOL    HW216935   0.604   1.720   7.468 -1.0774  2.8680  0.1244
 1767SOL     OW16936   1.053   1.526   1.867  0.1085  0.4692 -0.2234
 1767SOL    HW116937   0.975   1.474   1.845 -1.8808  3.0764  0.7141
 1767SOL    HW216938   1.023   1.615   1.853 -0.5710  0.1652 -0.7042
 1768SOL     OW16939   3.118   3.072  17.039  0.4691 -0.1448  0.1872
 1768SOL    HW116940   3.204   3.089  17.001  1.1405 -1.8925  0.8893
 1768SOL    HW216941   3.068   3.061  16.959  2.9111 -2.8802 -1.0039
 1769SOL     OW16942   2.607   3.954  10.799  0.3518 -0.5328  0.1126
 1769SOL    HW116943   2.622   4.035  10.848  1.6299 -1.5087  1.3282
 1769SOL    HW216944   2.662   3.898  10.853  0.1639 -0.3167  0.5313
 1770SOL     OW16945   4.395   0.706  11.598  0.2231  0.1900 -0.0683
 1770SOL    HW116946   4.369   0.669  11.682  3.1018 -1.0595  0.2684
 1770SOL    HW216947   4.345   0.652  11.536  0.4993  1.8251 -1.7140
 1771SOL     OW16948   0.396   3.260   8.900  0.8496  0.1699 -0.5423
 1771SOL    HW116949   0.417   3.217   8.817 -0.2024 -0.3839 -0.5226
 1771SOL    HW216950   0.459   3.224   8.962  0.2148 -0.9045 -0.5026
 1772SOL     OW16951   3.277   4.685   6.727 -0.5117 -0.2624 -0.8481
 1772SOL    HW116952   3.235   0.039   6.748  1.4662  0.7177 -0.7851
 1772SOL    HW216953   3.204   4.624   6.740  0.2837 -0.5317  2.1237
 1773SOL     OW16954   0.648   1.087   7.393 -0.6571 -0.4296 -0.3837
 1773SOL    HW116955   0.710   1.137   7.341 -0.7783 -0.6077 -0.6947
 1773SOL    HW216956   0.705   1.023   7.436 -1.7030 -1.0927  0.0177
 1774SOL     OW16957   0.164   2.759   8.893  0.0368  0.2234  0.8204
 1774SOL    HW116958   0.150   2.742   8.986  2.2627 -1.3460  0.8584
 1774SOL    HW216959   0.100   2.830   8.884  0.9915  0.8745 -0.8886
 1775SOL     OW16960   2.939   3.188   5.817  0.5890  0.3297  0.1105
 1775SOL    HW116961   2.921   3.096   5.837  0.7573 -0.1259 -1.8361
 1775SOL    HW216962   2.920   3.187   5.723 -3.0622  0.0368  0.8232
 1776SOL     OW16963   2.311   2.608   9.461  0.0258 -0.3554 -0.1472
 1776SOL    HW116964   2.374   2.646   9.522  0.1720 -0.6072 -0.1394
 1776SOL    HW216965   2.368   2.558   9.401 -0.5301 -1.1602 -0.0067
 1777SOL     OW16966   4.709   3.780   9.822  0.3766 -0.1933  0.2244
 1777SOL    HW116967   4.707   3.815   9.733 -0.7474  0.7861  0.6363
 1777SOL    HW216968   4.651   3.705   9.806 -2.2002  1.5273  1.5345
 1778SOL     OW16969   3.695   3.203  17.315 -0.0531  0.2674 -0.2035
 1778SOL    HW116970   3.733   3.171  17.397  1.4995  0.5380 -0.8063
 1778SOL    HW216971   3.751   3.280  17.309 -0.8375  0.8440 -0.0267
 1779SOL     OW16972   3.556   2.331   2.292  0.4104  0.2038  0.4873
 1779SOL    HW116973   3.461   2.341   2.289  0.3034 -2.1679 -4.2120
 1779SOL    HW216974   3.565   2.281   2.373 -1.4384 -1.1968 -0.1807
 1780SOL     OW16975   3.979   1.887   5.672 -0.1019 -0.1684 -0.1810
 1780SOL    HW116976   3.956   1.896   5.579 -1.4017  3.2045  0.4552
 1780SOL    HW216977   3.943   1.799   5.682  0.5187 -0.2561  1.3117
 1781SOL     OW16978   3.589   4.233   2.139 -0.4104  0.3666  0.3238
 1781SOL    HW116979   3.528   4.161   2.125  1.0916 -0.5051 -1.7050
 1781SOL    HW216980   3.626   4.231   2.051  0.2738  0.9810  0.5925
 1782SOL     OW16981   0.393   0.213  13.167  0.1967  0.1115 -0.5694
 1782SOL    HW116982   0.451   0.217  13.090  0.2720  0.8731 -0.4724
 1782SOL    HW216983   0.445   0.257  13.234  0.4116  0.2670 -0.8380
 1783SOL     OW16984   3.186   2.399   4.747  0.0972  0.3610  0.3898
 1783SOL    HW116985   3.094   2.395   4.773 -0.8598  1.2346 -2.7481
 1783SOL    HW216986   3.215   2.312   4.773  0.4379  0.3031 -0.1787
 1784SOL     OW16987   4.244   1.928   6.494  0.1263 -0.3166 -0.9325
 1784SOL    HW116988   4.150   1.933   6.509  0.1514 -0.6002 -0.6711
 1784SOL    HW216989   4.259   1.953   6.403  1.5180  3.5599  0.3496
 1785SOL     OW16990   0.381   1.943   3.827 -0.1475 -0.4403 -0.5335
 1785SOL    HW116991   0.467   1.952   3.869 -0.2308  0.2337 -0.5088
 1785SOL    HW216992   0.380   2.008   3.757 -0.7945 -0.8407 -0.8980
 1786SOL     OW16993   3.044   4.539  16.047  0.1452  0.5063 -0.3142
 1786SOL    HW116994   3.090   4.457  16.066  0.2208  0.2230 -1.7659
 1786SOL    HW216995   2.967   4.499  16.007 -0.7483 -0.4784  2.3996
 1787SOL     OW16996   1.425   2.394   9.824 -0.2230 -0.2581 -0.1565
 1787SOL    HW116997   1.338   2.411   9.789 -0.8183 -0.2419  1.3238
 1787SOL    HW216998   1.486   2.407   9.751  1.7623  0.5750  1.6472
 1788SOL     OW16999   3.680   3.341   8.002 -0.5421  0.1088  0.0375
 1788SOL    HW117000   3.672   3.250   7.972 -2.0253  0.7455 -1.5222
 1788SOL    HW217001   3.772   3.353   8.023 -0.7445  0.0902  0.9015
 1789SOL     OW17002   1.006   3.376   5.614 -0.2780  0.8092 -0.2139
 1789SOL    HW117003   0.938   3.324   5.658 -1.1900  2.7651  0.6930
 1789SOL    HW217004   0.965   3.395   5.530  2.3013  0.0020 -1.6587
 1790SOL     OW17005   1.059   4.165   2.228 -0.2195 -1.2788  0.1958
 1790SOL    HW117006   1.066   4.153   2.133  0.4266 -0.8524  0.1871
 1790SOL    HW217007   1.033   4.257   2.220  0.7393 -0.7983  2.4864
 1791SOL     OW17008   4.630   1.791  17.574 -0.1899  0.6006 -0.1446
 1791SOL    HW117009   4.574   1.725  17.534  2.6379 -2.0326  0.2201
 1791SOL    HW217010   4.578   1.871  17.560 -0.3934  0.0723 -2.4335
 1792SOL     OW17011   2.478   0.442   2.719 -0.0983  0.5712  0.7785
 1792SOL    HW117012   2.410   0.394   2.672  0.1640  0.6922  0.2775
 1792SOL    HW217013   2.567   0.412   2.700 -0.8195 -1.6250  0.9050
 1793SOL     OW17014   0.501   0.077   7.802  1.1160 -0.0680 -0.3694
 1793SOL    HW117015   0.440   0.003   7.801  0.9418  0.0849 -1.2584
 1793SOL    HW217016   0.468   0.145   7.743 -0.7025  0.2659  1.0280
 1794SOL     OW17017   3.419   2.197   3.406  0.2467  0.2937 -0.5510
 1794SOL    HW117018   3.430   2.182   3.312 -2.9158 -1.7646 -0.5762
 1794SOL    HW217019   3.347   2.259   3.405  0.5254  0.5666 -2.9310
 1795SOL     OW17020   1.381   1.103   5.907  0.1189  0.5986  0.4730
 1795SOL    HW117021   1.424   1.096   5.822 -0.4594  0.2218  0.2156
 1795SOL    HW217022   1.357   1.196   5.902  0.4496  0.6202 -0.6501
 1796SOL     OW17023   3.437   0.020  17.082 -0.0661 -0.1545  0.1131
 1796SOL    HW117024   3.479   0.102  17.057 -0.5124  0.4432  1.3443
 1796SOL    HW217025   3.455   0.009  17.175  3.2408  2.7556 -0.1905
 1797SOL     OW17026   2.507   0.671   9.071  0.1875  0.0215  0.0111
 1797SOL    HW117027   2.517   0.701   9.161 -3.1119 -1.6725  0.9431
 1797SOL    HW217028   2.577   0.715   9.023  0.9197  0.6109  1.6330
 1798SOL     OW17029   4.527   2.447   1.727 -0.0732 -0.1680 -0.3981
 1798SOL    HW117030   4.516   2.506   1.653  0.7549  1.0754  0.4837
 1798SOL    HW217031   4.468   2.491   1.788 -0.8723 -2.8215  0.7477
 1799SOL     OW17032   0.763   0.637   3.637 -0.0414 -0.2104  0.2829
 1799SOL    HW117033   0.720   0.704   3.690 -2.5418 -1.7503  0.1664
 1799SOL    HW217034   0.852   0.642   3.673  0.0700  0.6704 -0.1021
 1800SOL     OW17035   2.446   1.524   6.846  0.2360 -0.0947 -0.3772
 1800SOL    HW117036   2.406   1.455   6.899 -0.5268  1.1582  0.6863
 1800SOL    HW217037   2.413   1.599   6.895 -0.7347 -0.7780  0.0199
 1801SOL     OW17038   3.760   4.428   5.059  0.1040 -0.0962 -0.8526
 1801SOL    HW117039   3.744   4.412   5.152  0.7693  2.7896 -0.2349
 1801SOL    HW217040   3.672   4.446   5.025  0.4521  0.2748 -1.5595
 1802SOL     OW17041   3.725   2.630  10.693  0.4883  0.5473 -0.0325
 1802SOL    HW117042   3.815   2.659  10.708 -0.0068  2.8431 -1.4524
 1802SOL    HW217043   3.699   2.702  10.635  0.2495 -1.0774 -1.9357
 1803SOL     OW17044   3.103   1.126   8.365  0.6129 -0.2254 -0.0950
 1803SOL    HW117045   3.104   1.220   8.385 -1.3364 -0.2504  0.0651
 1803SOL    HW217046   3.104   1.119   8.270 -0.1203  0.6732 -0.1637
 1804SOL     OW17047   1.653   0.661   3.793 -0.2217 -1.0862  0.3623
 1804SOL    HW117048   1.700   0.647   3.711  2.2240  0.5537  1.4817
 1804SOL    HW217049   1.691   0.589   3.843 -0.2718  0.1034  2.1483
 1805SOL     OW17050   3.475   1.035   6.167 -0.2230 -0.5357 -0.0586
 1805SOL    HW117051   3.441   0.977   6.235 -1.8384 -1.4338 -1.6369
 1805SOL    HW217052   3.497   1.109   6.222 -0.1997 -1.0809  0.6590
 1806SOL     OW17053   0.514   1.541   8.246 -0.3573  0.0291 -0.1040
 1806SOL    HW117054   0.565   1.467   8.278 -2.2728 -1.6754 -0.9891
 1806SOL    HW217055   0.519   1.603   8.319 -1.5775 -1.9446  1.6272
 1807SOL     OW17056   4.176   3.101   3.637  0.5238 -0.0363  0.0760
 1807SOL    HW117057   4.240   3.048   3.685  0.5544  1.0466  1.2408
 1807SOL    HW217058   4.188   3.181   3.690 -1.0242 -0.2902  0.8166
 1808SOL     OW17059   2.711   1.106  10.264  0.0250  0.5407  0.1229
 1808SOL    HW117060   2.696   1.012  10.269  0.3447  0.3806 -2.0270
 1808SOL    HW217061   2.757   1.113  10.348  0.7369 -0.8685 -0.1582
 1809SOL     OW17062   3.706   3.947   4.385  0.0825  0.2380 -0.1019
 1809SOL    HW117063   3.770   3.919   4.319  0.2709  3.2541 -1.1600
 1809SOL    HW217064   3.775   3.957   4.450 -0.8799  0.8344  0.8301
 1810SOL     OW17065   4.231   1.891  14.381 -0.1150 -0.2569  0.4966
 1810SOL    HW117066   4.229   1.797  14.400 -0.3212 -0.3153  0.1911
 1810SOL    HW217067   4.322   1.901  14.353 -0.4476 -1.2547 -0.9581
 1811SOL     OW17068   0.912   1.474   2.561 -0.2991  0.4891 -0.0309
 1811SOL    HW117069   1.005   1.454   2.552 -0.0187  1.4905  0.6853
 1811SOL    HW217070   0.881   1.408   2.498  1.5476 -1.2566  0.8879
 1812SOL     OW17071   2.863   0.996   4.080 -0.0247 -0.4803  0.2725
 1812SOL    HW117072   2.772   0.966   4.083 -1.4218  3.5871 -0.7346
 1812SOL    HW217073   2.905   0.937   4.141  1.8918  1.3005  0.6635
 1813SOL     OW17074   4.547   2.312   7.488  0.5272  0.1074  0.2193
 1813SOL    HW117075   4.545   2.396   7.533 -2.3561  0.1496  0.0223
 1813SOL    HW217076   4.486   2.256   7.537 -0.8792  0.5200 -1.0677
 1814SOL     OW17077   2.245   1.375  15.904 -0.1678  0.2102 -0.2354
 1814SOL    HW117078   2.161   1.329  15.899  1.6100 -3.2358  1.4455
 1814SOL    HW217079   2.223   1.457  15.861  3.0265  0.6577 -1.0444
 1815SOL     OW17080   0.847   2.345   2.048  0.6057 -0.0094  0.4049
 1815SOL    HW117081   0.852   2.250   2.056 -1.5698 -0.2001 -0.7395
 1815SOL    HW217082   0.935   2.377   2.071  0.0651 -0.5236  3.1726
 1816SOL     OW17083   1.661   2.153  11.789  0.7331  0.3947  0.4181
 1816SOL    HW117084   1.570   2.178  11.775  1.3362  1.7917 -0.9823
 1816SOL    HW217085   1.702   2.238  11.773  1.3626  0.0367  0.1092
 1817SOL     OW17086   3.714   3.227   2.890 -0.4735 -0.6201  0.0915
 1817SOL    HW117087   3.756   3.265   2.967 -2.9284  0.4626  0.8860
 1817SOL    HW217088   3.750   3.139   2.904 -2.6033 -1.3741  0.8111
 1818SOL     OW17089   3.468   0.208   7.609  0.0084  0.1751  0.4026
 1818SOL    HW117090   3.374   0.189   7.615 -0.4889  2.5519  0.3948
 1818SOL    HW217091   3.508   0.136   7.657 -2.6449 -1.0945  0.7272
 1819SOL     OW17092   1.949   1.883   7.981 -0.1620 -0.5378 -0.3140
 1819SOL    HW117093   1.977   1.906   8.070 -0.1906 -0.1339 -0.4106
 1819SOL    HW217094   1.897   1.960   7.957  0.2012 -0.0250  0.5490
 1820SOL     OW17095   3.150   3.362   7.600 -0.1170 -0.1230  0.5600
 1820SOL    HW117096   3.114   3.450   7.609  2.6809  0.9434  1.3430
 1820SOL    HW217097   3.122   3.318   7.680  0.9644 -3.3364 -0.8109
 1821SOL     OW17098   0.650   0.120   0.914 -0.0677  0.0792  0.1832
 1821SOL    HW117099   0.718   0.120   0.846 -0.3260 -0.0579 -0.0775
 1821SOL    HW217100   0.665   0.206   0.954 -0.7022  1.3602 -2.3030
 1822SOL     OW17101   3.685   1.534  14.309 -0.2684  0.5005  0.1722
 1822SOL    HW117102   3.704   1.506  14.219 -0.3101 -0.5107  0.4846
 1822SOL    HW217103   3.767   1.580  14.330 -0.0296  0.7928 -1.3976
 1823SOL     OW17104   1.148   4.195   7.446  0.5257 -0.5536  0.0523
 1823SOL    HW117105   1.095   4.253   7.392 -0.9621 -1.9558  0.0128
 1823SOL    HW217106   1.084   4.159   7.507 -0.6280 -1.1798 -1.5208
 1824SOL     OW17107   1.533   2.437  12.667  0.0340  0.0753 -0.0930
 1824SOL    HW117108   1.534   2.392  12.582  0.3241  1.4126 -0.8067
 1824SOL    HW217109   1.449   2.412  12.704  0.0003  0.9225  0.4157
 1825SOL     OW17110   2.622   1.763  14.812 -0.5884  0.1358 -0.1033
 1825SOL    HW117111   2.681   1.729  14.745 -0.9232 -2.6673  1.0473
 1825SOL    HW217112   2.549   1.701  14.808 -0.8705  0.4487  0.0736
 1826SOL     OW17113   0.745   3.958   8.767 -0.2629  0.1044  0.2839
 1826SOL    HW117114   0.749   4.044   8.808 -0.8237 -0.1813  0.9343
 1826SOL    HW217115   0.826   3.927   8.808 -0.6137 -0.6201  0.4374
 1827SOL     OW17116   0.398   2.124   5.800 -0.5191  0.1230 -0.0804
 1827SOL    HW117117   0.462   2.135   5.729  0.7007  0.3431  1.0560
 1827SOL    HW217118   0.411   2.202   5.854 -3.2945 -1.1143  2.2955
 1828SOL     OW17119   1.774   3.293   7.098 -0.4533 -0.0021  0.1903
 1828SOL    HW117120   1.734   3.289   7.011  0.2453 -0.8090 -0.1016
 1828SOL    HW217121   1.761   3.200   7.118  4.5177 -0.8505 -0.4721
 1829SOL     OW17122   4.287   2.102   6.687 -0.1968 -0.2108  1.0673
 1829SOL    HW117123   4.272   2.051   6.607  2.9438  0.8233 -0.1572
 1829SOL    HW217124   4.273   2.032   6.750  0.9728 -1.0917  0.3457
 1830SOL     OW17125   2.146   1.899  10.930 -0.1856 -0.0618  0.3878
 1830SOL    HW117126   2.078   1.891  10.997  0.5610 -2.6669  0.8527
 1830SOL    HW217127   2.150   1.806  10.909 -0.5974 -0.0367  0.2132
 1831SOL     OW17128   0.176   2.173   1.754  0.2969  0.9796  0.4130
 1831SOL    HW117129   0.115   2.202   1.685  0.2169  0.4070  0.2446
 1831SOL    HW217130   0.231   2.249   1.775 -2.1747  2.1886  2.5769
 1832SOL     OW17131   3.972   1.933   9.807 -0.4199  0.9863 -0.4043
 1832SOL    HW117132   4.013   1.847   9.809 -0.6826  0.8472 -1.1780
 1832SOL    HW217133   3.919   1.924   9.887 -0.3238 -1.7794 -0.6501
 1833SOL     OW17134   0.533   4.622   4.697  0.2923 -0.0515  0.0545
 1833SOL    HW117135   0.542   4.629   4.792  1.1177 -2.0279  0.1208
 1833SOL    HW217136   0.526   4.527   4.689 -1.1856 -0.0421  1.2144
 1834SOL     OW17137   0.729   1.186   8.087 -0.1327  0.0621  0.3067
 1834SOL    HW117138   0.805   1.230   8.049  0.8824 -2.3189 -0.3968
 1834SOL    HW217139   0.715   1.237   8.167 -0.6656 -0.4380  0.5300
 1835SOL     OW17140   4.274   4.281   7.021  0.0413  0.2992  0.3078
 1835SOL    HW117141   4.265   4.367   7.063  4.3445 -0.8998  3.7668
 1835SOL    HW217142   4.202   4.286   6.959 -1.5681  0.0746  2.1486
 1836SOL     OW17143   4.611   1.789   5.054  0.0932 -0.5225  0.2264
 1836SOL    HW117144   4.644   1.878   5.055  0.0436 -0.4865 -1.0548
 1836SOL    HW217145   4.518   1.808   5.040  0.0223 -0.5180  0.6896
 1837SOL     OW17146   4.714   0.241   4.760  0.1159 -0.5672  0.4072
 1837SOL    HW117147   0.003   0.319   4.707  2.1842 -1.7498 -0.6261
 1837SOL    HW217148   4.723   0.175   4.692  1.0432 -0.4052  0.3768
 1838SOL     OW17149   1.053   0.130   9.463  0.2552  0.2475  0.2996
 1838SOL    HW117150   1.124   0.131   9.526  0.2081 -1.0978  0.3782
 1838SOL    HW217151   0.999   0.074   9.519  0.6853  1.8705  2.3093
 1839SOL     OW17152   2.969   3.461   4.699  0.3005 -0.0774 -0.0019
 1839SOL    HW117153   3.005   3.388   4.649  0.9692  0.5178 -0.3870
 1839SOL    HW217154   2.910   3.437   4.771 -0.5290 -1.7128 -1.2308
 1840SOL     OW17155   1.158   2.772  17.030  0.3424 -0.3263  0.2203
 1840SOL    HW117156   1.250   2.777  17.057  0.9303 -1.2045 -1.6618
 1840SOL    HW217157   1.157   2.694  16.975  0.4865  0.1566 -0.4663
 1841SOL     OW17158   1.604   2.757   0.714 -0.6188 -0.6125 -0.5140
 1841SOL    HW117159   1.583   2.669   0.747 -0.8436  0.1187  1.3007
 1841SOL    HW217160   1.526   2.776   0.662  0.0223  0.1475 -1.1899
 1842SOL     OW17161   3.540   4.575   5.949 -0.0216  0.1629  0.1123
 1842SOL    HW117162   3.537   4.530   5.865 -0.3443 -1.0530  0.7826
 1842SOL    HW217163   3.488   4.521   6.009 -1.1304 -0.4149 -1.3619
 1843SOL     OW17164   0.645   0.808   8.198  0.1240  0.1336  0.0129
 1843SOL    HW117165   0.636   0.743   8.268 -3.4013  2.4377  1.7061
 1843SOL    HW217166   0.562   0.855   8.205 -0.3464 -0.3727 -2.2960
 1844SOL     OW17167   3.757   3.648   6.487  0.0551 -0.1994 -0.3481
 1844SOL    HW117168   3.764   3.553   6.485  3.3901 -0.0235  4.0024
 1844SOL    HW217169   3.756   3.664   6.393 -0.3939  0.6659 -0.2010
 1845SOL     OW17170   3.203   0.086   8.313  0.6398 -0.7381  0.2105
 1845SOL    HW117171   3.277   0.026   8.320  0.1263 -1.1218  2.2801
 1845SOL    HW217172   3.154   0.037   8.379  2.3229 -3.3188 -0.4710
 1846SOL     OW17173   1.357   4.410   6.814 -0.0476  0.8330  0.1167
 1846SOL    HW117174   1.437   4.365   6.790  0.2138  1.8669 -0.9345
 1846SOL    HW217175   1.387   4.491   6.857  0.5083  0.5205  0.3090
 1847SOL     OW17176   4.330   1.787  10.653  1.0498  0.3301  0.2683
 1847SOL    HW117177   4.261   1.783  10.719  0.4586  1.3846 -0.2832
 1847SOL    HW217178   4.384   1.710  10.671  0.6497  0.3321  1.4769
 1848SOL     OW17179   3.349   1.236  15.961 -0.4322  0.4148  0.1331
 1848SOL    HW117180   3.274   1.182  15.938  0.2143  0.0084 -1.0082
 1848SOL    HW217181   3.419   1.173  15.977 -0.0866 -0.1463 -3.5012
 1849SOL     OW17182   2.677   4.680   2.891 -0.3733  0.5476  0.0812
 1849SOL    HW117183   2.695   4.604   2.945 -0.9744 -1.2885 -2.2954
 1849SOL    HW217184   2.716   4.644   2.811  1.2762  0.1241  1.0664
 1850SOL     OW17185   3.667   4.011   5.412  0.0667  0.7066 -0.3149
 1850SOL    HW117186   3.743   4.067   5.395 -0.2982  1.6841  1.2833
 1850SOL    HW217187   3.698   3.954   5.482 -1.9196 -1.3523 -1.1283
 1851SOL     OW17188   3.772   2.230   6.002 -0.1661  0.6426 -0.4136
 1851SOL    HW117189   3.745   2.157   5.946 -0.8937  0.2856  0.3987
 1851SOL    HW217190   3.854   2.198   6.039  0.8803  1.5943 -1.8833
 1852SOL     OW17191   2.180   4.066   4.604 -0.2673  0.1908  0.5809
 1852SOL    HW117192   2.230   4.046   4.682 -0.8670  0.4173  1.0252
 1852SOL    HW217193   2.151   4.153   4.634 -0.9672  1.4292 -3.6400
 1853SOL     OW17194   2.433   2.237   5.385 -0.4145 -0.2861  0.2690
 1853SOL    HW117195   2.514   2.275   5.420  0.1866 -0.9079 -0.4477
 1853SOL    HW217196   2.371   2.265   5.453 -0.0864  0.0309  0.4407
 1854SOL     OW17197   4.269   1.545   3.550  0.3134  0.2981 -0.0437
 1854SOL    HW117198   4.280   1.506   3.637  2.0394  0.3104 -0.2585
 1854SOL    HW217199   4.235   1.465   3.510 -1.2739  0.8097  0.2735
 1855SOL     OW17200   1.277   0.948   7.481 -0.2643  0.0202 -0.0450
 1855SOL    HW117201   1.281   0.984   7.569 -0.7285  0.3793 -0.1704
 1855SOL    HW217202   1.263   0.856   7.504  0.0616 -0.0860 -0.2760
 1856SOL     OW17203   3.495   4.143   4.799  0.3359  0.2883  0.4972
 1856SOL    HW117204   3.515   4.171   4.710  0.7970 -0.0477  0.4979
 1856SOL    HW217205   3.442   4.221   4.815 -1.9462 -1.3612  0.8664
 1857SOL     OW17206   3.181   4.145   7.345 -0.5299  0.2305  0.2341
 1857SOL    HW117207   3.107   4.148   7.406 -1.3432  0.6442 -0.7674
 1857SOL    HW217208   3.183   4.234   7.309  1.3956  0.3651  0.6689
 1858SOL     OW17209   4.156   2.070   8.311  0.1322 -0.4702  0.2383
 1858SOL    HW117210   4.160   2.157   8.271 -1.8264 -0.2901  0.3910
 1858SOL    HW217211   4.210   2.086   8.388  0.9785 -1.6206 -0.1248
 1859SOL     OW17212   4.378   0.936   6.263 -0.9718  0.1621 -0.3684
 1859SOL    HW117213   4.386   0.977   6.350  0.9476  2.5872 -1.6742
 1859SOL    HW217214   4.285   0.916   6.255 -0.8088 -0.2642 -1.1735
 1860SOL     OW17215   0.304   1.036   4.099 -0.8956 -0.0150 -0.2624
 1860SOL    HW117216   0.288   1.045   4.006  1.3322 -0.0638 -0.6557
 1860SOL    HW217217   0.230   0.986   4.133 -0.0534  0.1848  1.9159
 1861SOL     OW17218   2.273   2.120   1.616 -0.0479 -0.1820 -0.0333
 1861SOL    HW117219   2.360   2.100   1.649 -0.3497 -0.5733  0.5252
 1861SOL    HW217220   2.258   2.040   1.565  1.7078 -0.5267 -0.0187
 1862SOL     OW17221   4.105   2.340   4.320 -0.2548  0.2890  0.0344
 1862SOL    HW117222   4.046   2.274   4.282  0.6414  0.2789 -1.3501
 1862SOL    HW217223   4.166   2.275   4.354  1.5014  1.0171 -1.7188
 1863SOL     OW17224   4.415   1.853   7.860  0.1578  0.3725 -0.0460
 1863SOL    HW117225   4.494   1.892   7.823 -1.7788  1.6359 -2.8087
 1863SOL    HW217226   4.351   1.871   7.791 -0.5256  1.2900  0.8185
 1864SOL     OW17227   0.107   2.516  11.464 -0.3351  0.5575 -1.0478
 1864SOL    HW117228   0.057   2.442  11.433  0.3101  0.1357 -1.0877
 1864SOL    HW217229   0.039   2.582  11.477 -0.4303  0.2783 -0.1289
 1865SOL     OW17230   1.195   4.047   1.653 -0.1745 -0.1170  0.1316
 1865SOL    HW117231   1.254   4.120   1.637 -1.0271  0.6853  0.6705
 1865SOL    HW217232   1.247   3.988   1.707 -0.3326 -0.1567  0.2405
 1866SOL     OW17233   0.901   2.965   1.532 -0.5021 -0.3754  0.9071
 1866SOL    HW117234   0.875   2.919   1.453  0.9355  0.4484 -0.0419
 1866SOL    HW217235   0.994   2.943   1.537  0.2466  2.0636 -2.1849
 1867SOL     OW17236   2.048   3.796  10.255 -0.3038  0.0702  0.2741
 1867SOL    HW117237   2.026   3.804  10.163 -1.1464 -1.4895  0.3298
 1867SOL    HW217238   2.050   3.886  10.289  0.2995 -1.2452  3.7021
 1868SOL     OW17239   0.453   2.628  14.755 -0.2155 -0.2266  0.0890
 1868SOL    HW117240   0.373   2.576  14.746 -1.4210  1.9873 -2.2035
 1868SOL    HW217241   0.419   2.717  14.770 -0.5962 -0.3526 -0.0207
 1869SOL     OW17242   4.270   1.956   2.763 -0.0489 -0.0429 -0.7808
 1869SOL    HW117243   4.347   2.006   2.733  1.5904 -1.6818  0.6917
 1869SOL    HW217244   4.212   1.977   2.689 -0.8447  0.8952  0.1065
 1870SOL     OW17245   2.472   4.043   5.429  0.0051 -0.7484 -0.2124
 1870SOL    HW117246   2.490   4.124   5.382  0.2670 -0.0923  1.0183
 1870SOL    HW217247   2.541   4.048   5.495  0.3706 -1.0151 -0.5802
 1871SOL     OW17248   3.987   4.626  11.881  0.2554 -0.3347  0.2997
 1871SOL    HW117249   4.004   4.582  11.964 -0.6916  0.2636  0.8116
 1871SOL    HW217250   3.913   4.576  11.845 -0.4758  0.2126  1.0350
 1872SOL     OW17251   0.691   2.690   6.554  0.3772 -0.0231 -0.6917
 1872SOL    HW117252   0.707   2.781   6.527  1.2323 -0.0014 -0.1181
 1872SOL    HW217253   0.596   2.699   6.564  0.2120 -1.9271 -0.7035
 1873SOL     OW17254   1.786   4.285   3.484 -0.1821 -0.2180 -0.4503
 1873SOL    HW117255   1.840   4.228   3.429 -2.7204 -3.2705  0.1893
 1873SOL    HW217256   1.844   4.313   3.554 -2.1381 -0.4817  1.2780
 1874SOL     OW17257   0.603   0.093   5.543 -0.0958 -0.1583 -0.0646
 1874SOL    HW117258   0.594   0.130   5.631  1.3022  0.0665 -0.0196
 1874SOL    HW217259   0.658   0.015   5.554 -2.3599 -1.9445 -1.4377
 1875SOL     OW17260   1.586   0.568  11.277  0.0943  0.1737 -0.0828
 1875SOL    HW117261   1.635   0.486  11.279  0.0648  0.1554 -0.1233
 1875SOL    HW217262   1.588   0.581  11.372  0.2284 -0.0045 -0.0602
 1876SOL     OW17263   4.033   1.958   4.989 -0.2737 -0.5257 -0.4159
 1876SOL    HW117264   4.109   1.985   4.938  0.1187 -0.3990  0.2307
 1876SOL    HW217265   4.017   2.039   5.037  0.4147 -1.8388  2.0572
 1877SOL     OW17266   1.705   3.056   6.430 -0.0609 -0.2193  0.3070
 1877SOL    HW117267   1.677   2.965   6.427 -1.5460  0.3344 -1.8371
 1877SOL    HW217268   1.692   3.091   6.342  2.3904 -2.6257 -1.0253
 1878SOL     OW17269   1.074   1.805   9.576  0.3248  0.4569  0.4570
 1878SOL    HW117270   1.117   1.890   9.568 -1.1478  1.1156 -0.5263
 1878SOL    HW217271   0.987   1.834   9.549  1.9906  1.7169 -3.5355
 1879SOL     OW17272   3.578   3.276   8.328  0.6948  0.0640  0.2048
 1879SOL    HW117273   3.662   3.306   8.363  0.2921  0.1712  1.0853
 1879SOL    HW217274   3.600   3.281   8.235  0.7427  2.0957  0.3393
 1880SOL     OW17275   2.304   2.605   4.843  0.1237  0.2502 -0.1692
 1880SOL    HW117276   2.335   2.572   4.759  0.9131  2.1831 -0.6449
 1880SOL    HW217277   2.224   2.553   4.858  0.5429 -0.3296  0.0527
 1881SOL     OW17278   2.928   0.791   6.736 -0.0495 -0.1433  0.7616
 1881SOL    HW117279   2.849   0.839   6.758 -0.5756 -1.2730  1.3712
 1881SOL    HW217280   2.892   0.722   6.681 -0.3416 -0.5431  1.4464
 1882SOL     OW17281   0.965   0.157   4.732 -0.5388  0.1402  0.1982
 1882SOL    HW117282   0.935   0.073   4.699  0.9170 -0.6702  0.9688
 1882SOL    HW217283   0.894   0.185   4.789 -0.3813  2.3794 -0.6793
 1883SOL     OW17284   0.886   4.046   9.246 -0.1504  0.5328 -0.6276
 1883SOL    HW117285   0.819   4.074   9.308  0.1389 -0.8767  0.3394
 1883SOL    HW217286   0.884   3.953   9.270 -1.0947  0.7591  0.1625
 1884SOL     OW17287   0.899   1.743   5.969 -0.0543 -0.0254  0.2748
 1884SOL    HW117288   0.809   1.765   5.944 -0.3909 -0.4835  1.0755
 1884SOL    HW217289   0.891   1.689   6.048  0.4901 -1.2727 -0.5125
 1885SOL     OW17290   0.303   2.206   2.512 -0.3726 -0.0897  0.0994
 1885SOL    HW117291   0.375   2.143   2.517  0.2312  0.5830 -0.1812
 1885SOL    HW217292   0.356   2.284   2.498 -2.0406  0.9173 -0.7155
 1886SOL     OW17293   4.404   1.537   9.934 -0.1432 -0.0536 -0.1753
 1886SOL    HW117294   4.317   1.506   9.960 -0.3115  1.1500  0.6898
 1886SOL    HW217295   4.432   1.600  10.000  3.1911 -1.1186 -0.5775
 1887SOL     OW17296   2.339   4.389  16.732  0.4318  0.1795  0.3080
 1887SOL    HW117297   2.429   4.362  16.750 -0.1309 -0.9011  1.5557
 1887SOL    HW217298   2.306   4.402  16.821 -1.0974 -1.8324  0.0454
 1888SOL     OW17299   4.043   3.521  15.008 -0.0408  0.0690 -0.3193
 1888SOL    HW117300   4.020   3.608  14.975 -0.5023 -1.2126 -3.3583
 1888SOL    HW217301   4.048   3.543  15.101  2.0032 -0.8635 -0.1945
 1889SOL     OW17302   0.206   2.425  16.933  0.2286 -0.3942 -0.0603
 1889SOL    HW117303   0.169   2.441  17.020 -1.5885 -2.2369 -0.5035
 1889SOL    HW217304   0.129   2.439  16.878  0.9835 -0.1735 -1.0398
 1890SOL     OW17305   2.859   4.156  13.060 -0.1903 -0.1161  0.4248
 1890SOL    HW117306   2.817   4.199  13.135 -1.1776 -2.4146  1.1941
 1890SOL    HW217307   2.952   4.177  13.065 -0.6737  2.0804  0.2668
 1891SOL     OW17308   1.250   1.957   8.084  0.1677 -0.1781  0.5250
 1891SOL    HW117309   1.328   1.936   8.031 -0.0405 -1.0349  0.5580
 1891SOL    HW217310   1.301   1.966   8.165  2.3693 -4.0188 -0.4366
 1892SOL     OW17311   4.524   2.129   8.601  0.3849 -0.1500 -0.5970
 1892SOL    HW117312   4.472   2.174   8.668  0.9410 -0.6777  0.1971
 1892SOL    HW217313   4.449   2.119   8.542  0.1628 -0.3804 -0.2760
 1893SOL     OW17314   3.133   2.567   1.111  0.9576  0.3889  0.0175
 1893SOL    HW117315   3.118   2.501   1.043  2.2498 -0.1400  0.2285
 1893SOL    HW217316   3.082   2.543   1.189  1.4753 -0.4132  0.1168
 1894SOL     OW17317   3.262   4.456   7.016 -0.4370  0.2793 -0.2975
 1894SOL    HW117318   3.237   4.546   6.999  0.7925  0.5719 -0.5364
 1894SOL    HW217319   3.298   4.428   6.932 -0.1362  1.8503 -0.6876
 1895SOL     OW17320   3.150   2.895   2.344 -0.2840  0.1975 -0.4975
 1895SOL    HW117321   3.232   2.944   2.343 -1.8174  2.7855 -0.4348
 1895SOL    HW217322   3.112   2.920   2.260 -1.0496 -0.7115 -0.4286
 1896SOL     OW17323   2.257   1.277  12.998  0.4358  0.7197  0.1407
 1896SOL    HW117324   2.332   1.334  13.013  1.1674 -0.5521  1.3547
 1896SOL    HW217325   2.188   1.343  13.003 -1.2861 -1.0332 -0.3587
 1897SOL     OW17326   3.185   3.130   9.446 -0.2786  0.1004 -0.2622
 1897SOL    HW117327   3.205   3.187   9.520 -0.6818 -1.7239  1.2460
 1897SOL    HW217328   3.151   3.051   9.488  0.1744 -0.0263 -0.1322
 1898SOL     OW17329   3.451   4.040   5.056 -0.3071 -0.6079 -0.3041
 1898SOL    HW117330   3.429   4.096   5.130  0.0121  0.0364 -0.6951
 1898SOL    HW217331   3.418   4.104   4.993  0.7880  0.5336  0.2744
 1899SOL     OW17332   1.570   4.592   7.282  0.1915  0.1073  0.5239
 1899SOL    HW117333   1.611   4.520   7.331 -1.8519  0.0877  2.2031
 1899SOL    HW217334   1.488   4.603   7.331 -1.5160 -1.6340 -1.9413
 1900SOL     OW17335   2.949   4.029   4.899 -0.6742  0.1020 -0.3720
 1900SOL    HW117336   2.996   3.946   4.883 -0.3580 -0.7397  4.9635
 1900SOL    HW217337   2.887   4.026   4.825  1.4665  1.1415 -2.2077
 1901SOL     OW17338   2.664   2.485   8.112 -0.8099 -0.1492 -0.4414
 1901SOL    HW117339   2.630   2.546   8.046  1.6733  0.7570 -0.8606
 1901SOL    HW217340   2.652   2.527   8.198  0.7058  1.2778 -0.9203
 1902SOL     OW17341   1.413   2.368   5.341 -0.1756 -0.5358 -0.1049
 1902SOL    HW117342   1.448   2.419   5.414  1.2293 -0.7743 -0.6168
 1902SOL    HW217343   1.340   2.316   5.375 -0.2424 -0.3642  0.0129
 1903SOL     OW17344   4.240   4.014  13.035 -0.2237  1.0862  0.6626
 1903SOL    HW117345   4.297   4.048  12.966 -2.7526  0.3356 -1.7727
 1903SOL    HW217346   4.217   4.094  13.083  0.4734  3.5708 -3.1075
 1904SOL     OW17347   1.972   2.638   7.072 -0.1128 -0.2777 -0.1864
 1904SOL    HW117348   2.020   2.606   6.996 -0.3292 -3.0361  0.8253
 1904SOL    HW217349   2.034   2.637   7.145 -0.8805 -1.1438  0.4654
 1905SOL     OW17350   4.307   1.935   1.886 -0.4089  0.0120  0.2980
 1905SOL    HW117351   4.213   1.954   1.882 -0.3642  0.4465  1.2692
 1905SOL    HW217352   4.333   2.010   1.832 -0.3114  1.4346  2.3203
 1906SOL     OW17353   0.195   0.247   7.794  0.2183 -0.3906 -0.0428
 1906SOL    HW117354   0.212   0.166   7.841  0.9994 -2.2635 -3.5707
 1906SOL    HW217355   0.256   0.247   7.721 -1.6586 -2.9539 -1.5925
 1907SOL     OW17356   2.752   0.834  10.190  0.2215  0.1479  0.0481
 1907SOL    HW117357   2.672   0.782  10.181 -0.1895  1.0102 -1.1951
 1907SOL    HW217358   2.751   0.831  10.286 -2.0174  1.4210  0.0678
 1908SOL     OW17359   0.144   3.287   5.924  0.2066  0.5512  0.4448
 1908SOL    HW117360   0.053   3.258   5.920 -0.9423  3.8765  2.6810
 1908SOL    HW217361   0.147   3.332   6.008  0.1334  1.6059 -0.1204
 1909SOL     OW17362   2.869   4.417  11.987 -0.0511  0.4209  0.7085
 1909SOL    HW117363   2.937   4.375  12.040 -1.1325 -0.4737  1.3837
 1909SOL    HW217364   2.840   4.342  11.935  2.3883  0.8865 -1.3543
 1910SOL     OW17365   0.784   3.582   2.255  0.4411 -0.3187 -0.2973
 1910SOL    HW117366   0.872   3.619   2.244  0.6392 -0.8223 -0.4016
 1910SOL    HW217367   0.734   3.663   2.244  2.1258  0.6923 -0.5548
 1911SOL     OW17368   1.168   2.496   9.417  0.0223  1.2266  0.4813
 1911SOL    HW117369   1.234   2.565   9.424  0.6337  0.6909  0.0478
 1911SOL    HW217370   1.109   2.538   9.355 -2.3783 -2.2919  0.3932
 1912SOL     OW17371   0.086   3.428   7.752  0.5944 -0.0150  0.3263
 1912SOL    HW117372   0.003   3.385   7.774  0.1218  0.7796  0.0758
 1912SOL    HW217373   0.054   3.518   7.756 -0.5542 -0.4056  0.0218
 1913SOL     OW17374   3.257   3.886   4.264  0.2433  0.2041 -0.2060
 1913SOL    HW117375   3.251   3.828   4.340 -1.8804 -1.0437 -1.3265
 1913SOL    HW217376   3.215   3.834   4.195  1.6593 -1.2082 -0.0120
 1914SOL     OW17377   4.393   4.495   0.454  0.6547  0.2560 -0.1363
 1914SOL    HW117378   4.484   4.522   0.442  0.8220 -0.4980 -0.5781
 1914SOL    HW217379   4.392   4.407   0.492 -1.1045  0.3243 -0.0337
 1915SOL     OW17380   0.746   2.053   5.920 -0.3862  0.1562  0.5779
 1915SOL    HW117381   0.676   2.078   5.980 -0.4294  1.5677 -0.0582
 1915SOL    HW217382   0.710   2.079   5.835 -2.3198 -1.5706  0.8794
 1916SOL     OW17383   2.965   0.577  10.029  0.4761 -0.1893 -0.4681
 1916SOL    HW117384   2.896   0.609   9.970 -0.6209  0.6027  1.2443
 1916SOL    HW217385   2.910   0.531  10.091  0.3198  0.8216  0.1519
 1917SOL     OW17386   0.251   1.197   4.359  0.0720  0.2057 -0.3274
 1917SOL    HW117387   0.273   1.140   4.433  2.8368  1.9368  0.1575
 1917SOL    HW217388   0.294   1.137   4.299 -2.3966 -2.5098  0.5903
 1918SOL     OW17389   3.407   3.521  17.462 -0.1869 -0.9720 -0.0936
 1918SOL    HW117390   3.421   3.495  17.370 -2.0478  1.4806 -1.0797
 1918SOL    HW217391   3.497   3.518  17.493 -0.2902  1.7191  0.3993
 1919SOL     OW17392   2.331   2.868   2.468 -0.0943 -0.0483 -0.7608
 1919SOL    HW117393   2.352   2.882   2.560 -1.1987  0.1917 -0.5539
 1919SOL    HW217394   2.316   2.773   2.465  2.0620 -0.5126  2.6234
 1920SOL     OW17395   0.560   2.884   4.077  0.1748 -0.3412 -0.4953
 1920SOL    HW117396   0.522   2.906   4.162  1.4782  0.3039 -0.0871
 1920SOL    HW217397   0.494   2.822   4.046 -1.3256  0.3674  1.2808
 1921SOL     OW17398   1.357   1.279   8.287  0.6207  0.2942  0.4703
 1921SOL    HW117399   1.389   1.236   8.367 -0.4907 -0.5954  0.4468
 1921SOL    HW217400   1.435   1.290   8.233  0.3819 -1.0911 -0.1651
 1922SOL     OW17401   2.546   4.140   3.405  0.3439 -0.0150  0.1759
 1922SOL    HW117402   2.587   4.056   3.383  1.9151  1.3381 -2.0431
 1922SOL    HW217403   2.459   4.104   3.423  0.4774 -0.9552 -1.0227
 1923SOL     OW17404   3.880   3.036   2.312  0.0873  0.2467  0.2854
 1923SOL    HW117405   3.826   2.957   2.320  2.2959 -1.1550  1.4519
 1923SOL    HW217406   3.813   3.099   2.287 -1.1110 -0.6558  1.1821
 1924SOL     OW17407   0.477   1.954   6.355 -0.4307  0.3169  0.0301
 1924SOL    HW117408   0.538   1.982   6.423  1.8891  1.6542 -2.6291
 1924SOL    HW217409   0.397   1.981   6.400 -0.6132  0.5413 -0.4258
 1925SOL     OW17410   0.029   3.552   8.393  0.0742  0.0213  0.2259
 1925SOL    HW117411   0.001   3.643   8.407  0.8397  0.3967 -0.6633
 1925SOL    HW217412   0.121   3.566   8.372  0.2132 -1.0722  0.1459
 1926SOL     OW17413   4.648   1.814  14.494 -0.0139 -0.6041 -0.0020
 1926SOL    HW117414   0.008   1.848  14.503 -0.1356 -0.5272  0.9145
 1926SOL    HW217415   4.619   1.864  14.418  1.9165  0.9605  0.2674
 1927SOL     OW17416   4.255   0.134  14.428 -0.2519  0.4029 -0.3487
 1927SOL    HW117417   4.207   0.140  14.345 -0.6616  1.6784 -0.0258
 1927SOL    HW217418   4.199   0.164  14.500 -0.3380  0.2987 -0.3720
 1928SOL     OW17419   3.311   2.018   8.453  0.2997  0.1174  0.0006
 1928SOL    HW117420   3.257   1.958   8.505 -1.7423  0.9090 -1.2014
 1928SOL    HW217421   3.368   1.952   8.414 -0.1285 -0.9475  1.1585
 1929SOL     OW17422   0.447   0.327  13.404 -0.0413 -0.0512 -0.0552
 1929SOL    HW117423   0.516   0.271  13.440  0.4751  0.3739 -0.3757
 1929SOL    HW217424   0.478   0.416  13.389  0.5277 -0.5753 -2.0320
 1930SOL     OW17425   4.452   1.314   3.253  0.3198 -0.0686  0.2298
 1930SOL    HW117426   4.378   1.334   3.310 -0.2769 -2.8526  0.4423
 1930SOL    HW217427   4.422   1.231   3.215  1.4641 -0.3553 -0.0463
 1931SOL     OW17428   3.005   4.414   5.240  0.1895 -0.2302  0.4288
 1931SOL    HW117429   3.048   4.331   5.223 -0.3520 -0.3129 -0.5648
 1931SOL    HW217430   3.065   4.483   5.210 -0.5757  0.5821  0.7633
 1932SOL     OW17431   2.518   1.758   5.851 -0.0502  0.1356 -0.1708
 1932SOL    HW117432   2.459   1.768   5.926 -2.1207 -1.0563 -1.6472
 1932SOL    HW217433   2.591   1.804   5.892 -0.0064  0.3029 -0.4386
 1933SOL     OW17434   0.942   1.363   1.539 -0.2355  0.1387  0.2046
 1933SOL    HW117435   1.028   1.405   1.532  0.0042 -0.0536  1.9044
 1933SOL    HW217436   0.913   1.356   1.448  1.6128 -0.4230 -0.3525
 1934SOL     OW17437   4.500   2.589   3.650  0.3625  0.2506  0.6074
 1934SOL    HW117438   4.465   2.511   3.691 -3.3638  2.4288  1.6068
 1934SOL    HW217439   4.573   2.549   3.602 -0.4618  0.0826 -0.5168
 1935SOL     OW17440   4.099   1.114   7.463  0.3508  0.4913 -0.2799
 1935SOL    HW117441   4.146   1.131   7.381  1.0884 -1.6750 -0.3058
 1935SOL    HW217442   4.080   1.021   7.470  1.4300  0.4613  2.1103
 1936SOL     OW17443   0.748   4.714  17.706 -0.1381 -0.6979 -0.3593
 1936SOL    HW117444   0.819   0.044  17.679 -0.2117 -0.3971  0.0926
 1936SOL    HW217445   0.786   4.628  17.689 -2.3639 -2.0710  1.6119
 1937SOL     OW17446   1.112   4.065   2.687  0.0965  0.7550  0.0378
 1937SOL    HW117447   1.130   4.115   2.608  1.6217 -0.0383 -0.1192
 1937SOL    HW217448   1.046   4.120   2.728 -0.4121  0.6688 -0.6718
 1938SOL     OW17449   1.004   4.344   7.215 -0.3584  0.0643  0.2869
 1938SOL    HW117450   1.057   4.416   7.183  0.4806 -1.5640 -2.0278
 1938SOL    HW217451   1.017   4.281   7.143  0.5808  0.9855 -0.3389
 1939SOL     OW17452   2.958   0.967   5.363  0.1953 -0.2290 -0.0782
 1939SOL    HW117453   3.014   1.012   5.426  0.3648 -2.3728  1.2868
 1939SOL    HW217454   2.913   0.909   5.423 -0.2293  0.0264 -0.1511
 1940SOL     OW17455   3.526   1.695  11.571  0.0119  0.0618 -0.2051
 1940SOL    HW117456   3.619   1.684  11.594 -1.4417 -1.5659  4.8909
 1940SOL    HW217457   3.487   1.675  11.656 -4.1007  1.0624 -1.8804
 1941SOL     OW17458   3.399   0.828   6.354 -0.1219 -0.0184 -0.2729
 1941SOL    HW117459   3.420   0.801   6.443  0.8734  2.0502  0.1135
 1941SOL    HW217460   3.373   0.741   6.323  3.3130 -2.2994  3.2920
 1942SOL     OW17461   1.401   1.303   4.379 -0.6200  0.1204  0.2696
 1942SOL    HW117462   1.474   1.346   4.423  1.2700 -0.3625 -2.3916
 1942SOL    HW217463   1.384   1.366   4.308  1.9105  0.2661 -0.2313
 1943SOL     OW17464   0.702   2.114   6.517  0.5372  0.1637  0.1273
 1943SOL    HW117465   0.779   2.127   6.461 -0.7140 -0.6063 -1.7473
 1943SOL    HW217466   0.667   2.202   6.531 -1.2679 -0.3623 -1.0943
 1944SOL     OW17467   4.579   2.977  10.287 -0.1378  0.0963 -0.5531
 1944SOL    HW117468   4.616   2.911  10.230 -0.2817  0.5086 -1.1178
 1944SOL    HW217469   4.629   3.053  10.258 -1.4463  0.5522 -1.5855
 1945SOL     OW17470   4.030   3.153   8.429  0.5522 -0.4937 -0.2890
 1945SOL    HW117471   4.117   3.138   8.391  0.2022  0.9192 -1.6295
 1945SOL    HW217472   4.045   3.129   8.521 -3.0527  2.8299  1.1366
 1946SOL     OW17473   1.416   4.058   5.961  0.4568 -0.2667  0.1331
 1946SOL    HW117474   1.479   4.126   5.986 -0.7937  1.1555 -0.6211
 1946SOL    HW217475   1.402   4.086   5.870 -1.8717  1.7924  1.1403
 1947SOL     OW17476   3.921   2.743   7.018  0.7155  0.4483 -0.6564
 1947SOL    HW117477   3.946   2.693   7.096 -0.5984  0.8814  0.0329
 1947SOL    HW217478   3.957   2.829   7.038  1.7437  0.0687 -0.8538
 1948SOL     OW17479   2.395   2.318  11.958 -0.7052 -0.1543  0.3770
 1948SOL    HW117480   2.464   2.370  12.000 -0.0873 -1.3194  0.8093
 1948SOL    HW217481   2.336   2.313  12.033 -0.9616  1.7503  0.2985
 1949SOL     OW17482   2.481   1.706   2.302  0.0957  0.0508 -0.0916
 1949SOL    HW117483   2.486   1.613   2.280 -0.7603  0.2623 -1.1658
 1949SOL    HW217484   2.561   1.740   2.261 -0.6397  1.0868 -0.6737
 1950SOL     OW17485   1.663   0.874   2.355 -0.0427  0.1062 -0.0823
 1950SOL    HW117486   1.575   0.907   2.338 -0.1141  0.3405  0.7255
 1950SOL    HW217487   1.676   0.883   2.449  1.0351  0.3074 -0.2441
 1951SOL     OW17488   3.237   1.027   9.073 -0.0233 -0.2639 -0.2554
 1951SOL    HW117489   3.182   0.966   9.024 -0.3218 -0.6951  0.6186
 1951SOL    HW217490   3.230   0.989   9.160 -2.3441 -0.0051 -0.3305
 1952SOL     OW17491   2.854   4.148   7.863 -0.7120 -0.0669 -0.0440
 1952SOL    HW117492   2.783   4.126   7.923  1.5618  0.2593  2.7399
 1952SOL    HW217493   2.916   4.077   7.880 -0.0608  0.1526 -1.4600
 1953SOL     OW17494   4.108   3.565   6.071  0.2470  0.3739 -0.0192
 1953SOL    HW117495   4.109   3.489   6.129  0.4259  0.7252  0.4376
 1953SOL    HW217496   4.179   3.612   6.115  0.1512  1.9511 -1.5599
 1954SOL     OW17497   1.575   0.515   0.664  0.5264 -0.3129  0.1617
 1954SOL    HW117498   1.646   0.475   0.713  1.7081  1.3295 -0.2084
 1954SOL    HW217499   1.628   0.541   0.589 -2.2163  1.5918 -1.1238
 1955SOL     OW17500   1.728   3.643   8.492 -0.3158 -0.2629 -0.3353
 1955SOL    HW117501   1.738   3.726   8.538  1.1786  0.9573 -2.9102
 1955SOL    HW217502   1.633   3.629   8.500 -0.1443 -0.9371  0.5130
 1956SOL     OW17503   3.813   0.118   5.249  0.0754  0.4679 -0.3574
 1956SOL    HW117504   3.755   0.193   5.242 -1.0730 -0.3753  0.0883
 1956SOL    HW217505   3.868   0.135   5.173  2.3600  1.4962  1.5019
 1957SOL     OW17506   0.325   4.439   3.576  0.0586 -0.1431  0.1499
 1957SOL    HW117507   0.388   4.392   3.631  3.9877  1.0422 -3.3054
 1957SOL    HW217508   0.284   4.367   3.529  0.7844 -0.9386  0.7305
 1958SOL     OW17509   1.090   3.226  16.131 -0.0587 -0.0928 -0.3436
 1958SOL    HW117510   1.007   3.209  16.175  0.9952 -1.2399  1.2284
 1958SOL    HW217511   1.142   3.149  16.155 -0.4339 -0.5652 -1.0615
 1959SOL     OW17512   3.835   3.569  10.663 -0.2791 -0.5108 -0.2000
 1959SOL    HW117513   3.901   3.523  10.715  0.9714  1.7114  0.2217
 1959SOL    HW217514   3.883   3.598  10.586  0.7459  1.1504  1.0454
 1960SOL     OW17515   0.438   2.382  16.604 -0.0389 -0.2546  0.9744
 1960SOL    HW117516   0.402   2.469  16.589  0.9421  0.1578  0.9993
 1960SOL    HW217517   0.371   2.325  16.565  0.4734 -0.0649 -0.1992
 1961SOL     OW17518   3.728   3.266   2.232  0.5898  0.0281 -0.3639
 1961SOL    HW117519   3.805   3.315   2.204 -0.5881  1.3169 -1.3181
 1961SOL    HW217520   3.709   3.324   2.306 -0.8609 -2.8803  1.5600
 1962SOL     OW17521   2.652   2.141   7.036 -0.1133  0.0550 -0.1430
 1962SOL    HW117522   2.700   2.223   7.052  1.2021 -0.9606  1.1742
 1962SOL    HW217523   2.574   2.183   6.999  0.6845  1.0899 -0.6557
 1963SOL     OW17524   3.806   4.726   2.986  0.8695 -0.1652  0.4886
 1963SOL    HW117525   3.858   0.077   2.999 -0.0639  0.5836 -0.3833
 1963SOL    HW217526   3.783   4.717   3.078  1.6850  1.9315  0.8894
 1964SOL     OW17527   1.212   2.065   9.539 -0.7755 -0.1266 -0.1055
 1964SOL    HW117528   1.162   2.053   9.459 -1.6459  0.6963  0.3026
 1964SOL    HW217529   1.189   2.155   9.562 -1.2235 -0.1884 -0.3137
 1965SOL     OW17530   2.162   0.600  14.605  0.0781  0.3312 -0.4952
 1965SOL    HW117531   2.073   0.632  14.590  0.2328  1.5700  1.2224
 1965SOL    HW217532   2.154   0.607  14.700  1.1549 -0.0801 -0.3884
 1966SOL     OW17533   4.258   2.070  16.607 -0.1483 -0.0671  0.2307
 1966SOL    HW117534   4.310   2.007  16.558 -2.0230 -0.0487 -1.7376
 1966SOL    HW217535   4.254   2.027  16.692 -0.0098 -0.1002  0.2199
 1967SOL     OW17536   1.207   1.931   2.990 -0.3621  0.1690 -0.0762
 1967SOL    HW117537   1.290   1.886   3.007 -1.3596 -2.0703 -1.0694
 1967SOL    HW217538   1.162   1.916   3.073  0.3312  1.0545  0.4677
 1968SOL     OW17539   1.368   0.075   4.141 -0.4985 -0.4563 -0.5791
 1968SOL    HW117540   1.420   0.080   4.222 -0.5998 -1.6954 -0.4373
 1968SOL    HW217541   1.368   4.712   4.114  0.3024 -0.8505  0.7172
 1969SOL     OW17542   1.838   0.237   4.629  0.0139  0.2921  0.1908
 1969SOL    HW117543   1.820   0.147   4.602  0.4994  0.4069 -0.5301
 1969SOL    HW217544   1.756   0.253   4.676  0.1968  0.4982  0.4433
 1970SOL     OW17545   1.410   0.957   2.282 -0.6284  0.3300 -0.6702
 1970SOL    HW117546   1.367   0.951   2.367  2.0074  0.6673  0.6639
 1970SOL    HW217547   1.353   0.902   2.228 -0.5637  0.8384 -1.2554
 1971SOL     OW17548   0.038   3.063   3.057  0.6843 -0.1955 -0.2382
 1971SOL    HW117549   4.723   3.148   3.063  2.4850  0.9234 -2.7114
 1971SOL    HW217550   4.709   3.012   3.001 -0.2114 -3.6737  3.9082
 1972SOL     OW17551   1.339   0.009   0.340 -0.2700  0.0615 -0.9117
 1972SOL    HW117552   1.426   4.706   0.365 -0.2171  0.6264 -0.3897
 1972SOL    HW217553   1.339   0.096   0.380 -0.0031  0.3291 -1.5028
 1973SOL     OW17554   2.456   0.814   9.900  0.7105 -0.3869  0.1419
 1973SOL    HW117555   2.486   0.902   9.879  0.5050 -0.6771 -1.3778
 1973SOL    HW217556   2.497   0.757   9.836  1.3922 -0.8384  0.9813
 1974SOL     OW17557   2.679   1.694   9.689 -0.3230 -0.4586  0.4540
 1974SOL    HW117558   2.738   1.619   9.683  0.1238 -0.2315  1.9701
 1974SOL    HW217559   2.678   1.720   9.781 -1.2688  2.0077 -0.2321
 1975SOL     OW17560   3.352   1.147  11.221 -0.2146  0.4455 -0.0364
 1975SOL    HW117561   3.359   1.165  11.315 -0.5414  0.2002  0.0370
 1975SOL    HW217562   3.340   1.237  11.191 -0.9099  0.0067 -1.0750
 1976SOL     OW17563   1.903   3.281   8.426 -0.6592 -0.5794 -0.2194
 1976SOL    HW117564   1.813   3.271   8.395 -1.1279  4.3434 -0.5283
 1976SOL    HW217565   1.880   3.329   8.505  0.4668  1.9840 -1.4158
 1977SOL     OW17566   2.006   2.227   6.512  0.7323 -0.0498 -0.1357
 1977SOL    HW117567   1.926   2.258   6.554  0.0566 -2.0887  0.1029
 1977SOL    HW217568   2.061   2.305   6.521  0.6148 -0.2272  2.1859
 1978SOL     OW17569   0.405   3.804  12.916 -0.1160  0.1129 -0.2026
 1978SOL    HW117570   0.372   3.874  12.972  0.5866  0.4928 -0.2552
 1978SOL    HW217571   0.484   3.771  12.959  0.5566  0.6782 -0.9843
 1979SOL     OW17572   2.058   0.088   2.684 -0.1497 -0.0045  0.2401
 1979SOL    HW117573   1.968   0.058   2.677 -0.7022  1.7541 -0.4378
 1979SOL    HW217574   2.085   0.059   2.771 -0.8689  2.4361  1.2829
 1980SOL     OW17575   2.370   1.434   3.852 -0.4187 -0.3889 -0.0431
 1980SOL    HW117576   2.386   1.362   3.791  0.3129  0.4321 -0.8109
 1980SOL    HW217577   2.316   1.389   3.917 -0.5562 -0.0175  0.1004
 1981SOL     OW17578   1.095   0.940  13.110 -0.1733 -0.1776 -0.3997
 1981SOL    HW117579   1.014   0.926  13.160  1.5398  0.5931  2.6247
 1981SOL    HW217580   1.078   0.879  13.039 -1.1539 -0.3496 -0.0111
 1982SOL     OW17581   4.568   2.770  11.456 -0.7553 -0.4420  0.1801
 1982SOL    HW117582   4.514   2.710  11.405 -0.2828 -0.8979  0.2069
 1982SOL    HW217583   4.635   2.792  11.390 -0.6138 -0.6886  0.2402
 1983SOL     OW17584   3.435   1.818   1.718  0.3348 -0.0292 -0.1826
 1983SOL    HW117585   3.364   1.881   1.702  0.6910  0.9116  1.9441
 1983SOL    HW217586   3.499   1.868   1.769 -0.4741  1.6749 -0.8146
 1984SOL     OW17587   3.073   2.210   8.517  0.1030 -0.5951  0.7106
 1984SOL    HW117588   3.036   2.164   8.592 -3.1622 -0.0208 -0.5476
 1984SOL    HW217589   3.141   2.146   8.495 -0.4174 -1.5311  1.8546
 1985SOL     OW17590   0.343   1.719   6.567  0.1130 -0.0614 -0.0292
 1985SOL    HW117591   0.276   1.659   6.534 -0.0242  0.6721 -1.0731
 1985SOL    HW217592   0.281   1.766   6.623 -0.5176 -0.0023 -0.7737
 1986SOL     OW17593   4.239   2.482  17.340 -0.0039  1.0164  0.1137
 1986SOL    HW117594   4.207   2.399  17.304 -0.6953  0.9149  0.9585
 1986SOL    HW217595   4.282   2.525  17.266 -0.2284 -1.1415 -1.2739
 1987SOL     OW17596   2.130   2.194   5.929  0.6493 -0.2922  0.3096
 1987SOL    HW117597   2.052   2.147   5.959 -0.3780  1.1435 -0.1253
 1987SOL    HW217598   2.153   2.134   5.858  1.0041  1.7759 -1.3309
 1988SOL     OW17599   3.202   4.665  12.059  0.4147 -0.0785  0.4344
 1988SOL    HW117600   3.118   4.688  12.018  0.4626 -0.1906  0.2724
 1988SOL    HW217601   3.255   4.619  11.994 -0.4443  1.3257 -1.2734
 1989SOL     OW17602   3.806   2.013  16.829  0.2116 -0.6114 -0.2693
 1989SOL    HW117603   3.718   2.003  16.793 -0.4719  1.2169  0.9161
 1989SOL    HW217604   3.860   1.999  16.752  0.8852  1.8925 -0.2255
 1990SOL     OW17605   3.095   2.104  14.374  0.4011 -0.2246  0.2456
 1990SOL    HW117606   3.016   2.154  14.395 -1.0064 -1.8924 -1.0699
 1990SOL    HW217607   3.103   2.054  14.455  0.0368 -0.9846 -0.1932
 1991SOL     OW17608   1.615   3.164  16.177  0.1762 -0.8898  0.2308
 1991SOL    HW117609   1.592   3.256  16.188  2.3299 -0.0890 -1.9378
 1991SOL    HW217610   1.649   3.144  16.264 -0.5957 -0.1789  0.6954
 1992SOL     OW17611   2.717   0.151   4.654  0.0199  0.3061 -0.5208
 1992SOL    HW117612   2.634   0.163   4.701 -1.2691  1.4403 -3.0296
 1992SOL    HW217613   2.697   0.074   4.600 -1.2693 -0.3246  0.8524
 1993SOL     OW17614   3.002   1.370  13.235  0.2837 -0.5980 -0.0544
 1993SOL    HW117615   2.971   1.453  13.198 -2.0495 -0.7487  1.5154
 1993SOL    HW217616   3.078   1.350  13.180 -0.3005 -0.4104 -0.9310
 1994SOL     OW17617   4.292   1.089   0.910 -0.2056 -0.0083  0.0594
 1994SOL    HW117618   4.281   1.153   0.838 -1.4207  0.2014  0.4321
 1994SOL    HW217619   4.238   1.121   0.982  1.3688 -1.8377  2.0462
 1995SOL     OW17620   2.361   4.454  12.450  0.3789  0.1267 -0.1886
 1995SOL    HW117621   2.290   4.425  12.392  1.3058 -1.4669 -0.5491
 1995SOL    HW217622   2.343   4.548  12.444 -2.4037 -0.5545 -2.5920
 1996SOL     OW17623   3.162   3.380   6.225  0.8536  0.2354  0.3845
 1996SOL    HW117624   3.202   3.463   6.198  2.3274 -0.1891  1.2964
 1996SOL    HW217625   3.083   3.412   6.270  1.3923 -1.6780  2.6744
 1997SOL     OW17626   1.802   3.741  17.270 -0.6566  0.0719  0.1226
 1997SOL    HW117627   1.858   3.788  17.332  0.6640 -2.0576  0.5557
 1997SOL    HW217628   1.745   3.807  17.231  0.2223 -0.3042 -1.8146
 1998SOL     OW17629   4.239   3.302   6.995 -0.4122 -0.3783 -0.2405
 1998SOL    HW117630   4.303   3.303   6.924  0.2132  2.4358  0.3498
 1998SOL    HW217631   4.261   3.224   7.046  0.5892  0.0239 -0.0501
 1999SOL     OW17632   4.110   4.461   2.738 -0.0146 -0.2370  0.0311
 1999SOL    HW117633   4.149   4.392   2.685  1.4719  0.6314 -0.0106
 1999SOL    HW217634   4.188   4.494   2.781  0.0205 -1.2425  0.7345
 2000SOL     OW17635   1.850   2.076  13.612  0.5972  0.1488 -0.0813
 2000SOL    HW117636   1.840   2.171  13.610  1.5065  0.1362 -4.3697
 2000SOL    HW217637   1.761   2.042  13.612  1.3995 -1.9613 -0.1454
 2001SOL     OW17638   3.186   2.905  11.034 -0.0842 -0.2681  0.2879
 2001SOL    HW117639   3.232   2.837  10.985 -0.3562  1.6853 -2.6553
 2001SOL    HW217640   3.172   2.975  10.970 -0.6571 -1.3880 -0.8134
 2002SOL     OW17641   2.873   4.281   8.671  0.0390 -0.3070  0.0924
 2002SOL    HW117642   2.876   4.376   8.676 -0.1063 -0.2514 -0.9603
 2002SOL    HW217643   2.808   4.270   8.740 -1.0171 -0.9705 -1.0154
 2003SOL     OW17644   1.772   3.594   6.996  0.2505  0.0370 -0.8839
 2003SOL    HW117645   1.702   3.581   7.060  0.8705  0.7709 -0.0534
 2003SOL    HW217646   1.732   3.656   6.936  2.2518  1.3341 -0.8941
 2004SOL     OW17647   2.403   4.145   5.794  0.5340  0.1255 -0.1201
 2004SOL    HW117648   2.416   4.051   5.809  0.7479  0.4940  2.0361
 2004SOL    HW217649   2.471   4.163   5.729  0.6009 -3.6021 -1.0640
 2005SOL     OW17650   1.684   1.507  10.922 -0.3147  0.4726  0.6041
 2005SOL    HW117651   1.676   1.471  10.834  2.7718  0.8362  0.1832
 2005SOL    HW217652   1.607   1.563  10.910 -1.3843 -0.9412  0.9025
 2006SOL     OW17653   2.518   0.595   6.814  0.1006 -0.1389  0.3555
 2006SOL    HW117654   2.548   0.505   6.802  1.3704  0.2591  0.5705
 2006SOL    HW217655   2.484   0.610   6.726  0.8926  0.4238  0.1459
 2007SOL     OW17656   2.119   0.418   5.399  0.3209 -0.0242 -0.4123
 2007SOL    HW117657   2.025   0.403   5.411  0.5498 -0.0596  1.2948
 2007SOL    HW217658   2.153   0.349   5.456  0.8802  1.2411  0.7918
 2008SOL     OW17659   4.417   1.766  14.038  0.0446  0.1793  0.0508
 2008SOL    HW117660   4.407   1.683  13.993  0.2227 -0.2045  0.7122
 2008SOL    HW217661   4.355   1.820  13.990  1.1889  1.8152  0.3868
 2009SOL     OW17662   1.663   1.774  11.301  0.0946 -0.6836 -0.4408
 2009SOL    HW117663   1.701   1.858  11.274 -0.0437 -0.6807 -0.6277
 2009SOL    HW217664   1.610   1.804  11.374  2.2340  0.1152  0.7816
 2010SOL     OW17665   3.235   4.023   8.593 -0.0903 -0.0541  0.0052
 2010SOL    HW117666   3.313   4.000   8.644 -0.0743  0.0033  0.0066
 2010SOL    HW217667   3.180   3.947   8.612 -0.6058 -0.1062 -1.7485
 2011SOL     OW17668   1.697   2.126  10.227 -0.0645  0.4448 -0.9854
 2011SOL    HW117669   1.677   2.134  10.134 -0.9997  1.9323 -0.6569
 2011SOL    HW217670   1.780   2.078  10.223  0.1757  0.8595 -0.9931
 2012SOL     OW17671   2.332   0.881  10.740 -0.3299  0.2601  0.8119
 2012SOL    HW117672   2.251   0.855  10.697 -1.3542  1.5395  2.0136
 2012SOL    HW217673   2.393   0.808  10.724 -0.1253  0.4668  0.6331
 2013SOL     OW17674   1.091   3.666   5.939 -0.2570  0.0925 -0.3970
 2013SOL    HW117675   1.011   3.616   5.953 -0.2076 -0.4081 -1.8704
 2013SOL    HW217676   1.147   3.641   6.013 -0.5969  0.5614  0.0195
 2014SOL     OW17677   2.429   1.129   6.928 -0.3233  0.0667 -0.3728
 2014SOL    HW117678   2.482   1.191   6.978 -2.6207 -1.0728  3.5096
 2014SOL    HW217679   2.348   1.179   6.922 -0.7018 -0.6579 -1.2849
 2015SOL     OW17680   2.059   2.668   4.645  0.2639 -0.3684  0.4878
 2015SOL    HW117681   2.123   2.597   4.644  1.3134  0.5858 -2.4748
 2015SOL    HW217682   1.986   2.618   4.682  0.5101  0.7098  2.4032
 2016SOL     OW17683   4.392   1.395   2.761 -0.3141  0.3734  0.1466
 2016SOL    HW117684   4.338   1.326   2.724 -1.5536  1.0726  0.6591
 2016SOL    HW217685   4.447   1.408   2.684  0.8539 -3.0662  0.4242
 2017SOL     OW17686   1.507   3.116   4.029  0.1767  0.4589 -0.2267
 2017SOL    HW117687   1.481   3.055   3.960 -1.7960 -0.0365  0.9321
 2017SOL    HW217688   1.528   3.063   4.106  0.4929  0.2918 -0.4313
 2018SOL     OW17689   3.235   1.896   1.459 -0.1465  0.0276 -0.5166
 2018SOL    HW117690   3.168   1.908   1.392 -0.3587 -0.0581 -0.3200
 2018SOL    HW217691   3.203   1.915   1.547  0.9756 -0.8800  0.0978
 2019SOL     OW17692   2.003   0.653  10.576  0.6930 -0.1948 -0.0691
 2019SOL    HW117693   2.073   0.599  10.611  0.8399  0.0890  0.0789
 2019SOL    HW217694   2.045   0.740  10.581  0.7894 -0.0852 -2.5543
 2020SOL     OW17695   4.529   2.009   8.196 -0.3262 -0.0150 -0.6024
 2020SOL    HW117696   4.483   2.029   8.115 -1.8238  2.2218  0.7887
 2020SOL    HW217697   4.533   2.094   8.240 -1.1945  0.0186 -0.5922
 2021SOL     OW17698   2.172   4.496   3.629  0.4770 -0.0546  0.2844
 2021SOL    HW117699   2.119   4.533   3.558 -0.1200  0.3160  0.9235
 2021SOL    HW217700   2.148   4.403   3.628  2.4535 -0.5493  1.1681
 2022SOL     OW17701   3.235   3.047   6.262 -0.0366  0.4107  0.2692
 2022SOL    HW117702   3.314   3.007   6.298 -1.3850 -1.4889  1.0947
 2022SOL    HW217703   3.230   3.128   6.314  1.3558 -1.7065  3.7002
 2023SOL     OW17704   0.870   1.140   9.306 -0.1387  0.2104  0.3542
 2023SOL    HW117705   0.834   1.108   9.389 -0.1596  1.5744  0.8759
 2023SOL    HW217706   0.925   1.214   9.331  0.2569 -0.4432  1.3887
 2024SOL     OW17707   2.623   3.913   7.838  0.2488  0.1659 -0.8490
 2024SOL    HW117708   2.600   3.954   7.922  1.2935 -1.0864  0.0550
 2024SOL    HW217709   2.690   3.853   7.871  0.9207  2.1586  1.4128
 2025SOL     OW17710   1.604   2.640   2.174 -0.1591  0.2695  0.0178
 2025SOL    HW117711   1.611   2.728   2.212  1.4615 -0.0752  0.5229
 2025SOL    HW217712   1.564   2.659   2.089 -0.8403 -0.4002  0.1877
 2026SOL     OW17713   2.509   2.047   1.724 -0.3735 -0.0261 -0.0271
 2026SOL    HW117714   2.536   1.957   1.737 -2.0399 -0.4324  0.6277
 2026SOL    HW217715   2.499   2.077   1.815  1.5318 -1.3049  0.5903
 2027SOL     OW17716   0.154   2.091   7.498  0.3895  0.2965  0.0031
 2027SOL    HW117717   0.131   2.173   7.542 -2.1981 -0.3407 -0.1875
 2027SOL    HW217718   0.238   2.066   7.535 -0.7242  0.0331  2.3684
 2028SOL     OW17719   1.414   1.917   3.255  0.3034 -0.4876  0.5442
 2028SOL    HW117720   1.341   1.908   3.316  0.3523  3.3246  1.1572
 2028SOL    HW217721   1.487   1.922   3.317  1.0671 -1.7517 -0.2474
 2029SOL     OW17722   2.464   2.043   6.039 -0.5405  0.9185  0.0102
 2029SOL    HW117723   2.389   1.983   6.034  1.1349 -1.1021 -0.9501
 2029SOL    HW217724   2.458   2.059   6.134 -1.4330 -0.8738  0.2642
 2030SOL     OW17725   3.890   3.984   4.575  0.2456 -0.1564 -0.1134
 2030SOL    HW117726   3.976   3.942   4.585  0.9964  1.6722  1.1423
 2030SOL    HW217727   3.882   4.021   4.663  0.0293  0.2523 -0.3012
 2031SOL     OW17728   4.382   1.230  11.266  0.3753 -0.0113 -0.4046
 2031SOL    HW117729   4.454   1.178  11.302 -1.1549 -0.6028  1.7993
 2031SOL    HW217730   4.418   1.318  11.262 -1.5987  0.8056 -0.1031
 2032SOL     OW17731   0.877   3.345   3.704  0.4939  0.0830 -0.0125
 2032SOL    HW117732   0.871   3.329   3.610  3.5260 -0.1966 -0.1586
 2032SOL    HW217733   0.818   3.418   3.721 -1.9748 -2.1866  1.2562
 2033SOL     OW17734   4.115   2.865   2.028  0.0887 -0.4804 -0.2291
 2033SOL    HW117735   4.160   2.871   2.113  1.2811  0.4795 -0.9331
 2033SOL    HW217736   4.188   2.884   1.970 -0.4575  2.4764  0.0362
 2034SOL     OW17737   2.220   0.072   8.573 -0.1353 -0.1837 -0.1130
 2034SOL    HW117738   2.128   0.100   8.571 -0.8875 -2.5026  1.3698
 2034SOL    HW217739   2.228   0.049   8.480  0.8628  0.8450 -0.2761
 2035SOL     OW17740   3.839   1.722   6.688 -0.1293 -0.0061  0.2077
 2035SOL    HW117741   3.779   1.672   6.632 -1.5095  1.6717  0.2017
 2035SOL    HW217742   3.876   1.779   6.620  1.9941  0.2313  1.5539
 2036SOL     OW17743   3.903   4.162   3.218 -0.5354  0.1989 -0.1449
 2036SOL    HW117744   3.941   4.129   3.136  0.8393  0.4973  0.3647
 2036SOL    HW217745   3.859   4.081   3.244 -0.9070  0.3130 -0.4234
 2037SOL     OW17746   4.487   1.599  17.430  0.8033 -0.7421 -0.1585
 2037SOL    HW117747   4.557   1.563  17.374  0.8401 -0.5726 -0.2222
 2037SOL    HW217748   4.407   1.620  17.382  0.0812 -0.8619  1.0022
 2038SOL     OW17749   2.897   2.813   2.290  0.1976 -0.2521  0.3404
 2038SOL    HW117750   2.971   2.851   2.338 -0.8517  0.8726  1.0897
 2038SOL    HW217751   2.917   2.819   2.197  1.3368 -1.6011  0.5011
 2039SOL     OW17752   2.100   0.224  12.828  0.2920 -0.5498  0.5391
 2039SOL    HW117753   2.068   0.305  12.789 -1.4245 -1.8989 -0.8779
 2039SOL    HW217754   2.168   0.201  12.764 -1.2859  2.5051 -2.2791
 2040SOL     OW17755   2.150   2.041   2.173  0.1112  0.1163  0.3468
 2040SOL    HW117756   2.113   2.014   2.257 -0.9401  1.0107  0.1776
 2040SOL    HW217757   2.185   1.962   2.131  1.4030  0.6526  0.4102
 2041SOL     OW17758   2.209   3.231   2.964  0.5266 -0.4523  0.2743
 2041SOL    HW117759   2.224   3.206   2.873 -0.6781 -2.0915  0.5362
 2041SOL    HW217760   2.298   3.228   3.000  0.4418  0.5776  0.5852
 2042SOL     OW17761   1.063   0.786   8.889  0.1443 -0.4316  0.2740
 2042SOL    HW117762   1.088   0.694   8.892 -2.8068 -1.2252  0.4324
 2042SOL    HW217763   1.068   0.815   8.980 -2.1720 -3.2843  1.2789
 2043SOL     OW17764   2.597   0.427  13.379 -0.5586 -0.2059 -0.3690
 2043SOL    HW117765   2.620   0.496  13.315  0.2840 -1.0409 -0.9593
 2043SOL    HW217766   2.552   0.364  13.323  0.0470 -0.6301 -0.3739
 2044SOL     OW17767   2.593   1.353   9.907  0.1332 -0.3075  0.2274
 2044SOL    HW117768   2.587   1.293   9.982  0.6979 -0.6404  0.0024
 2044SOL    HW217769   2.505   1.390   9.899 -0.4409 -1.2933  1.9188
 2045SOL     OW17770   3.449   3.390   6.253 -0.0390 -0.5364  0.3097
 2045SOL    HW117771   3.373   3.332   6.255 -1.3634  1.2102  0.5383
 2045SOL    HW217772   3.411   3.472   6.221 -2.3896 -1.2850  1.1731
 2046SOL     OW17773   1.337   2.894  10.710 -0.0117 -0.3722  0.1672
 2046SOL    HW117774   1.363   2.900  10.801 -2.3673 -0.7672  0.8822
 2046SOL    HW217775   1.420   2.894  10.662  1.0139 -0.5002  1.9360
 2047SOL     OW17776   1.742   1.487   7.217 -0.2134 -0.0994  0.0727
 2047SOL    HW117777   1.727   1.396   7.193  0.1603  0.4375 -2.1528
 2047SOL    HW217778   1.832   1.490   7.250 -1.7107  0.0303  4.1899
 2048SOL     OW17779   0.187   3.907   6.544 -0.1358  0.4648 -0.4435
 2048SOL    HW117780   0.198   3.820   6.507  2.8379  0.2852  0.8875
 2048SOL    HW217781   0.178   3.884   6.637  1.7826 -1.6144 -0.7830
 2049SOL     OW17782   2.318   2.567   3.361 -0.5543 -0.6618  0.0340
 2049SOL    HW117783   2.375   2.511   3.309  1.9009  3.2830 -1.5315
 2049SOL    HW217784   2.287   2.634   3.300 -1.7551 -1.1683  0.0762
 2050SOL     OW17785   2.375   3.542   5.636  0.0724  0.2536  0.1746
 2050SOL    HW117786   2.431   3.526   5.560 -1.0585  1.7055 -0.9893
 2050SOL    HW217787   2.342   3.630   5.617  2.2316  1.5547  2.4699
 2051SOL     OW17788   2.924   1.445   3.608  0.0640  0.0548  0.0884
 2051SOL    HW117789   2.875   1.390   3.547 -0.8534 -0.0138  0.9033
 2051SOL    HW217790   2.867   1.511   3.646  1.3145 -0.2790  2.5180
 2052SOL     OW17791   2.432   1.188   3.740 -0.3235 -0.3204 -0.1597
 2052SOL    HW117792   2.383   1.198   3.658  1.7357 -0.6406 -1.4570
 2052SOL    HW217793   2.519   1.160   3.710  0.5851  1.1392  1.1330
 2053SOL     OW17794   0.390   1.338   7.334 -0.1162  0.4686  0.3712
 2053SOL    HW117795   0.362   1.259   7.287 -2.1537 -0.0947  2.5627
 2053SOL    HW217796   0.456   1.364   7.270 -0.3057 -1.0309 -0.4235
 2054SOL     OW17797   0.033   1.267   7.809 -0.7944 -0.0756  0.6965
 2054SOL    HW117798   4.694   1.325   7.841 -1.9971 -0.2071 -1.6049
 2054SOL    HW217799   0.106   1.328   7.822 -0.0094 -1.1354  1.2238
 2055SOL     OW17800   3.889   1.712   5.046 -0.3766  0.4809 -0.1222
 2055SOL    HW117801   3.957   1.778   5.032 -0.1551  0.2229 -0.2361
 2055SOL    HW217802   3.891   1.685   4.954  0.2859 -1.5070  0.4904
 2056SOL     OW17803   4.246   0.636   4.330 -0.1069 -0.0658 -0.7622
 2056SOL    HW117804   4.214   0.725   4.341 -1.5887 -0.6318 -0.4271
 2056SOL    HW217805   4.338   0.643   4.355 -0.3258  3.3788 -0.9835
 2057SOL     OW17806   4.516   1.026  10.074  0.4444  0.6081  0.0839
 2057SOL    HW117807   4.548   1.073  10.150  0.5564  1.4722 -0.5032
 2057SOL    HW217808   4.597   0.992  10.035  0.3090  1.2481 -0.7641
 2058SOL     OW17809   1.162   2.970   7.823  0.5376  0.5384 -0.4745
 2058SOL    HW117810   1.134   3.032   7.890  0.2786  0.1600 -0.2375
 2058SOL    HW217811   1.222   3.015   7.763  1.1451  1.2015  0.6469
 2059SOL     OW17812   3.019   2.118   7.832  0.0573  0.2022 -0.4643
 2059SOL    HW117813   3.027   2.204   7.873  0.2960 -0.6371  1.2485
 2059SOL    HW217814   3.105   2.077   7.842 -0.0174  0.0296 -0.5305
 2060SOL     OW17815   3.117   1.853   4.942 -0.2502 -0.4735 -0.6374
 2060SOL    HW117816   3.112   1.776   4.885  3.0414 -0.3881 -1.0460
 2060SOL    HW217817   3.033   1.897   4.953  0.5861  1.4636 -1.9652
 2061SOL     OW17818   4.154   2.492   7.821 -0.5599 -0.0627 -0.0784
 2061SOL    HW117819   4.066   2.474   7.855 -0.5878 -0.1008 -0.1699
 2061SOL    HW217820   4.143   2.548   7.744 -0.5050  2.1140  1.4686
 2062SOL     OW17821   2.128   0.540  17.566  0.5838  0.0099 -0.2865
 2062SOL    HW117822   2.217   0.576  17.568  0.7414 -0.4047  0.1355
 2062SOL    HW217823   2.134   0.463  17.509 -0.0967 -0.2897  0.0512
 2063SOL     OW17824   1.303   2.719  14.341 -0.4064 -0.2959  0.4964
 2063SOL    HW117825   1.310   2.654  14.271 -2.2854 -2.0103  1.8707
 2063SOL    HW217826   1.384   2.706  14.389  0.1741 -0.0155 -0.4133
 2064SOL     OW17827   0.523   0.328   2.814  0.2321 -0.4896 -0.1309
 2064SOL    HW117828   0.468   0.381   2.872 -1.9277 -0.2315 -2.4360
 2064SOL    HW217829   0.546   0.249   2.864  0.2611 -0.1162  0.4550
 2065SOL     OW17830   0.379   0.115  11.416  0.4965  0.0328  0.5947
 2065SOL    HW117831   0.471   0.102  11.394  0.5787 -0.5079  1.2605
 2065SOL    HW217832   0.337   0.101  11.331  1.1792  1.6540 -0.0056
 2066SOL     OW17833   4.594   4.457  10.413  0.0050 -0.1115 -0.1886
 2066SOL    HW117834   4.564   4.548  10.414 -0.4651 -0.3119  2.6529
 2066SOL    HW217835   4.688   4.459  10.396 -0.2022 -1.1413 -1.4114
 2067SOL     OW17836   1.686   2.517   3.546  0.3034 -0.0240  0.5306
 2067SOL    HW117837   1.684   2.559   3.461  0.6428 -0.4379  0.3170
 2067SOL    HW217838   1.751   2.448   3.533 -1.6905 -1.5415 -1.4308
 2068SOL     OW17839   1.111   0.192   4.190 -0.2204  0.4922  0.6447
 2068SOL    HW117840   1.138   0.283   4.180 -1.9981  0.8943 -0.5114
 2068SOL    HW217841   1.196   0.154   4.166 -1.1807 -2.1872  1.5483
 2069SOL     OW17842   0.280   0.874   9.298 -0.1836 -0.8167 -0.0688
 2069SOL    HW117843   0.369   0.839   9.295  0.5005  0.9798 -0.3482
 2069SOL    HW217844   0.269   0.902   9.207 -1.6400 -0.2066  0.3010
 2070SOL     OW17845   2.754   2.012   7.783  0.3432  0.3704 -0.1678
 2070SOL    HW117846   2.839   2.051   7.804 -0.6065  2.6466 -0.6463
 2070SOL    HW217847   2.725   2.070   7.713  1.0994 -0.0292 -0.8184
 2071SOL     OW17848   1.610   3.122   3.662  0.1684  0.4477  0.4383
 2071SOL    HW117849   1.543   3.056   3.646  2.2575 -1.5873 -0.0134
 2071SOL    HW217850   1.606   3.169   3.579 -0.6794 -1.4455 -0.5860
 2072SOL     OW17851   3.194   3.720   6.483  0.2137  0.1712  0.1562
 2072SOL    HW117852   3.258   3.744   6.417  1.0356  0.7353  1.1498
 2072SOL    HW217853   3.228   3.778   6.552 -0.4206 -0.4849  1.0321
 2073SOL     OW17854   4.722   1.647  14.079 -0.1178 -0.0318  0.3896
 2073SOL    HW117855   0.032   1.561  14.062 -3.0984 -1.4047  0.5180
 2073SOL    HW217856   4.669   1.654  14.000  0.7190 -1.5408 -0.3055
 2074SOL     OW17857   2.073   1.513  11.093 -0.0269 -0.1528  0.3749
 2074SOL    HW117858   1.986   1.544  11.118 -0.6085 -0.6928 -0.9844
 2074SOL    HW217859   2.054   1.420  11.080 -1.4577  0.2174 -0.1671
 2075SOL     OW17860   2.339   0.109  13.574  0.7544 -0.0843  0.5447
 2075SOL    HW117861   2.423   0.149  13.548  1.6766 -0.4725  2.9500
 2075SOL    HW217862   2.325   0.067  13.489 -0.4439  0.3961  0.5121
 2076SOL     OW17863   3.715   1.512  11.054  0.1270 -0.1787 -0.6026
 2076SOL    HW117864   3.789   1.532  11.112 -1.3170  0.5223  0.9575
 2076SOL    HW217865   3.700   1.598  11.016  1.7728 -0.0231 -0.9272
 2077SOL     OW17866   2.490   1.223  15.421 -0.5325 -0.1308 -0.1180
 2077SOL    HW117867   2.544   1.171  15.361  1.6553  0.5980  1.2235
 2077SOL    HW217868   2.547   1.293  15.455 -1.1560  1.7765 -2.9304
 2078SOL     OW17869   4.043   3.855   7.223  0.3867  0.3661 -0.2713
 2078SOL    HW117870   4.084   3.897   7.147  0.4046 -2.0876 -1.6192
 2078SOL    HW217871   4.117   3.801   7.250 -1.3009 -0.3972  2.7875
 2079SOL     OW17872   0.921   1.977   4.686  0.4796 -0.0083  0.1594
 2079SOL    HW117873   0.914   2.024   4.602  1.2043  1.2883  0.8229
 2079SOL    HW217874   0.832   1.945   4.699  0.5572 -0.6899 -0.9189
 2080SOL     OW17875   1.915   3.403  11.851  0.4466  0.4033 -0.1034
 2080SOL    HW117876   1.863   3.323  11.843  1.6940 -0.4911  0.7162
 2080SOL    HW217877   1.934   3.413  11.944 -0.1342  2.2087 -0.1886
 2081SOL     OW17878   4.544   2.460   5.145  0.1932  0.0448  0.0186
 2081SOL    HW117879   4.471   2.509   5.183  0.0917  1.3837 -1.9126
 2081SOL    HW217880   4.628   2.501   5.166 -0.4164  1.1922  0.2228
 2082SOL     OW17881   0.312   3.735   5.142  0.5338 -0.7538 -0.2343
 2082SOL    HW117882   0.371   3.748   5.068 -0.2100 -0.2886 -0.7411
 2082SOL    HW217883   0.230   3.718   5.096 -0.1962  3.3179 -0.4436
 2083SOL     OW17884   3.303   3.078   4.996 -0.4039  0.3436  0.0872
 2083SOL    HW117885   3.389   3.099   5.032  0.7496 -1.4467 -1.5851
 2083SOL    HW217886   3.314   2.987   4.969 -3.8931 -0.0389 -0.0348
 2084SOL     OW17887   0.185   2.757  16.581 -0.3440 -0.6697  0.4085
 2084SOL    HW117888   0.190   2.850  16.557 -1.1519 -0.6894  0.1530
 2084SOL    HW217889   0.094   2.739  16.559 -0.7009 -0.1133  1.4321
 2085SOL     OW17890   4.333   0.989   4.437 -0.3087 -0.1495  0.4334
 2085SOL    HW117891   4.316   1.079   4.409  2.9576  0.8181  1.6180
 2085SOL    HW217892   4.252   0.944   4.414 -0.0388  0.4285 -1.6374
 2086SOL     OW17893   2.329   1.407   9.857 -0.5068  0.2068  0.2759
 2086SOL    HW117894   2.274   1.477   9.822 -0.8071 -0.1341  0.0698
 2086SOL    HW217895   2.297   1.387   9.945 -0.8323  2.2274  0.6104
 2087SOL     OW17896   4.445   0.384   4.416  0.4240 -0.6164 -0.0348
 2087SOL    HW117897   4.400   0.335   4.348 -1.7660 -0.5695  1.3744
 2087SOL    HW217898   4.419   0.327   4.489 -0.1254 -2.4519 -1.6788
 2088SOL     OW17899   2.119   3.081   1.983  0.0537  0.6168 -0.0139
 2088SOL    HW117900   2.127   3.124   1.898 -2.5389 -0.9367 -1.0255
 2088SOL    HW217901   2.024   3.086   1.994  0.1791  0.2151  1.3053
 2089SOL     OW17902   4.054   4.220   4.419 -0.0098  0.2681 -0.2523
 2089SOL    HW117903   4.057   4.127   4.396  4.2966  0.6192 -1.1516
 2089SOL    HW217904   3.987   4.226   4.487 -1.4328  1.4025 -1.7401
 2090SOL     OW17905   2.369   3.235  10.408  0.3030  0.3076 -0.6237
 2090SOL    HW117906   2.351   3.319  10.450 -0.4178  0.4026 -1.1229
 2090SOL    HW217907   2.354   3.164  10.470  1.6488  0.7725  0.2246
 2091SOL     OW17908   2.845   3.238   6.354  0.0999 -0.3801 -0.7807
 2091SOL    HW117909   2.903   3.311   6.377  0.3407 -0.0557 -2.4098
 2091SOL    HW217910   2.851   3.250   6.260  0.4455  0.0763 -0.6986
 2092SOL     OW17911   2.880   1.718  16.257 -0.1430 -0.0686 -0.4813
 2092SOL    HW117912   2.848   1.795  16.305  0.6871  0.3399 -0.5649
 2092SOL    HW217913   2.801   1.669  16.235 -0.8491 -0.1191  2.1695
 2093SOL     OW17914   0.623   1.234   3.892 -0.4186  0.2857 -0.1657
 2093SOL    HW117915   0.580   1.247   3.976  0.4398 -0.9005  0.4626
 2093SOL    HW217916   0.714   1.244   3.920  0.3959  2.0495 -3.3836
 2094SOL     OW17917   1.543   1.274   3.171 -0.3123  0.1602 -0.7420
 2094SOL    HW117918   1.578   1.185   3.177  1.7066  0.9793 -0.4310
 2094SOL    HW217919   1.550   1.289   3.077 -1.4555 -1.7410 -1.1465
 2095SOL     OW17920   4.161   1.835  13.633  0.2072  0.1067  0.0657
 2095SOL    HW117921   4.168   1.839  13.537  0.0586  1.0451  0.0919
 2095SOL    HW217922   4.108   1.756  13.635  2.8335 -1.6184  0.9195
 2096SOL     OW17923   1.455   0.054   9.832 -0.5094 -0.2671  0.5154
 2096SOL    HW117924   1.441   0.068   9.926  0.4493  2.9368  0.1804
 2096SOL    HW217925   1.522   4.715   9.840 -0.0124  0.0640 -0.8137
 2097SOL     OW17926   1.696   0.940   1.475  0.2287 -0.4833  0.6349
 2097SOL    HW117927   1.770   0.880   1.467 -0.0208 -0.5884 -0.8182
 2097SOL    HW217928   1.730   1.013   1.527  1.3611  1.5492 -2.9050
 2098SOL     OW17929   3.645   3.916  15.395  0.0221  0.1310 -0.0255
 2098SOL    HW117930   3.561   3.894  15.355  0.1437 -0.7621  0.2038
 2098SOL    HW217931   3.616   3.969  15.469 -0.6790  0.6180 -0.6466
 2099SOL     OW17932   3.371   0.790   8.804  0.0749  0.0851 -0.0393
 2099SOL    HW117933   3.381   0.799   8.899 -1.2296  1.8929 -0.0501
 2099SOL    HW217934   3.456   0.809   8.766 -0.3526  0.8482 -0.6192
 2100SOL     OW17935   2.836   0.479   0.003 -0.3338 -0.1368  0.3267
 2100SOL    HW117936   2.810   0.487  17.628  1.3642  0.2462 -0.1203
 2100SOL    HW217937   2.859   0.387  17.714  1.4777  0.3884 -0.6801
 2101SOL     OW17938   3.372   1.746   2.338  0.1181  0.4447  0.7518
 2101SOL    HW117939   3.434   1.690   2.385 -2.1792 -3.2794 -0.6233
 2101SOL    HW217940   3.291   1.726   2.386  2.1118 -2.4304  2.8996
 2102SOL     OW17941   0.783   1.531   4.400 -0.0661  0.0815  0.6369
 2102SOL    HW117942   0.767   1.584   4.322  2.4539  0.7132  0.5646
 2102SOL    HW217943   0.738   1.573   4.474  0.2467  2.9818 -0.8052
 2103SOL     OW17944   2.214   3.158   8.740 -0.2897  0.4572 -0.5118
 2103SOL    HW117945   2.266   3.192   8.813  0.8697  0.5292 -1.3696
 2103SOL    HW217946   2.274   3.107   8.685 -2.7670 -1.2749 -1.5943
 2104SOL     OW17947   4.568   1.297   9.497 -0.0946 -0.2655 -0.4523
 2104SOL    HW117948   4.558   1.282   9.403  3.1278 -1.9394 -0.5117
 2104SOL    HW217949   4.621   1.230   9.541 -0.8311 -2.1566 -2.4355
 2105SOL     OW17950   1.999   0.808   8.061 -0.7058 -0.1654  0.1000
 2105SOL    HW117951   2.052   0.852   7.994 -0.3261 -1.8096 -0.6742
 2105SOL    HW217952   2.037   0.850   8.138 -0.7768 -1.1370  0.6585
 2106SOL     OW17953   2.476   0.257   7.177 -0.3192  0.1917 -0.3850
 2106SOL    HW117954   2.542   0.317   7.213 -0.7256  0.5608 -0.2609
 2106SOL    HW217955   2.435   0.311   7.110 -1.4995  0.3101  0.4285
 2107SOL     OW17956   4.093   4.382   5.135 -0.2808  0.0649 -0.1887
 2107SOL    HW117957   4.158   4.319   5.164  0.6572  1.5305  0.9425
 2107SOL    HW217958   4.035   4.369   5.210  2.0824 -2.7609  1.1353
 2108SOL     OW17959   0.200   3.455  11.085  0.2275  0.1970  0.1935
 2108SOL    HW117960   0.277   3.473  11.140 -1.1115  3.8884  0.8308
 2108SOL    HW217961   0.134   3.450  11.153 -0.8209 -0.8923 -0.9129
 2109SOL     OW17962   0.521   4.625   4.270  0.1694 -0.6063 -0.4001
 2109SOL    HW117963   0.531   4.610   4.176 -1.1684 -3.5511 -0.0607
 2109SOL    HW217964   0.612   4.647   4.289 -0.1336  1.0251 -0.8370
 2110SOL     OW17965   3.545   3.791   6.008 -0.6017 -0.5936 -0.2839
 2110SOL    HW117966   3.620   3.748   5.968 -0.8883  0.9549 -2.4969
 2110SOL    HW217967   3.503   3.851   5.946 -1.3514 -3.1514 -2.2676
 2111SOL     OW17968   1.929   2.614   2.010 -0.0781 -0.6257  0.4620
 2111SOL    HW117969   1.864   2.548   1.986 -2.2689  2.2521 -1.3457
 2111SOL    HW217970   1.964   2.648   1.928 -2.7012  2.3807  0.6311
 2112SOL     OW17971   1.069   3.273   8.279 -0.1156 -0.4154 -0.3956
 2112SOL    HW117972   1.005   3.206   8.303  0.1349  0.9966  4.2157
 2112SOL    HW217973   1.116   3.269   8.362  0.5372 -0.4851 -0.7775
 2113SOL     OW17974   3.539   3.592   2.449  0.5240  0.3537 -0.2274
 2113SOL    HW117975   3.463   3.648   2.430  0.7017 -0.4582 -3.2834
 2113SOL    HW217976   3.533   3.619   2.540  2.6741  0.7789 -0.2131
 2114SOL     OW17977   1.239   3.079   2.835 -0.8150 -0.3327 -0.1561
 2114SOL    HW117978   1.183   3.005   2.857 -0.4919 -0.5052  0.0789
 2114SOL    HW217979   1.221   3.083   2.741  0.7278 -1.4029 -0.4944
 2115SOL     OW17980   4.292   1.609   9.021 -0.0755  0.1232  0.0109
 2115SOL    HW117981   4.379   1.626   9.056  0.4494 -2.7937  0.0927
 2115SOL    HW217982   4.325   1.571   8.939  1.4908 -0.2417  0.8143
 2116SOL     OW17983   2.077   2.291   4.245  0.1701  0.6903  0.4065
 2116SOL    HW117984   2.131   2.293   4.166  0.2908  0.8149  0.4934
 2116SOL    HW217985   1.989   2.300   4.209 -0.3038  0.5270  1.5189
 2117SOL     OW17986   2.095   0.070   5.168  0.4493 -0.0733 -0.2056
 2117SOL    HW117987   2.132   0.001   5.113  1.0057  0.1553 -0.1142
 2117SOL    HW217988   2.165   0.110   5.220 -1.1089  0.1794  1.6785
 2118SOL     OW17989   0.068   0.941  14.696  0.1790  0.0327  0.1791
 2118SOL    HW117990   0.116   0.866  14.663  2.4893  2.1881 -1.3507
 2118SOL    HW217991   0.001   0.907  14.756 -0.1167 -1.6538 -1.1395
 2119SOL     OW17992   0.338   2.784   7.972 -0.0496 -0.3313  0.0890
 2119SOL    HW117993   0.392   2.864   7.968 -2.0861  0.9222 -2.0451
 2119SOL    HW217994   0.262   2.815   8.021  1.9302  0.9670  2.3682
 2120SOL     OW17995   4.165   0.686  14.304 -0.8098  0.1035  0.2473
 2120SOL    HW117996   4.089   0.661  14.251 -0.0735  1.8399 -1.6400
 2120SOL    HW217997   4.128   0.692  14.391  1.5515 -3.1464  1.4944
 2121SOL     OW17998   0.988   1.565  16.371  0.2338 -0.1928 -0.0319
 2121SOL    HW117999   0.902   1.591  16.337  1.3095  0.8297 -1.9682
 2121SOL    HW218000   0.973   1.576  16.465 -1.8019 -2.2633 -0.1333
 2122SOL     OW18001   2.453   3.747  14.150  0.0401 -0.1294 -0.2158
 2122SOL    HW118002   2.476   3.686  14.081  2.5088  0.3334  0.2090
 2122SOL    HW218003   2.477   3.828  14.105  1.7168 -0.6672 -0.2695
 2123SOL     OW18004   4.108   3.223  14.676  0.4175  0.1878 -0.2589
 2123SOL    HW118005   4.165   3.293  14.706  0.9714 -0.0467 -0.7631
 2123SOL    HW218006   4.152   3.150  14.719  2.8103  1.2018 -0.9869
 2124SOL     OW18007   1.383   0.694   6.235  0.1499  0.1760 -0.1145
 2124SOL    HW118008   1.414   0.749   6.164  2.2425  0.3369  0.9260
 2124SOL    HW218009   1.375   0.763   6.301  0.8752  0.5961 -0.4765
 2125SOL     OW18010   1.872   3.738   4.637 -0.2483  0.3148 -0.0473
 2125SOL    HW118011   1.942   3.742   4.702 -0.3497  2.3007 -0.0435
 2125SOL    HW218012   1.858   3.830   4.614  0.1402 -0.2539 -2.5346
 2126SOL     OW18013   2.217   0.975   8.109  0.7897 -0.0110 -0.2320
 2126SOL    HW118014   2.291   0.917   8.127  1.8368  1.1543 -0.7758
 2126SOL    HW218015   2.249   1.026   8.034 -2.3798  0.3623 -1.3147
 2127SOL     OW18016   2.629   4.171   1.445 -0.2347 -0.7454  0.0248
 2127SOL    HW118017   2.562   4.138   1.506  1.7474 -0.8952  2.1068
 2127SOL    HW218018   2.579   4.236   1.395 -0.0050  1.8846  3.1788
 2128SOL     OW18019   3.652   2.814   6.952  0.3005 -0.0688  0.0527
 2128SOL    HW118020   3.601   2.741   6.987 -1.0287  0.5574 -0.5732
 2128SOL    HW218021   3.740   2.778   6.953  1.2938  2.3128 -2.1609
 2129SOL     OW18022   2.998   0.212   2.548 -0.2565 -0.4427 -0.5960
 2129SOL    HW118023   3.020   0.280   2.612 -2.9398 -1.5397  1.4834
 2129SOL    HW218024   3.078   0.206   2.496 -0.1076 -0.9347 -0.3032
 2130SOL     OW18025   2.599   2.752   8.414  0.4604  0.1360  0.1599
 2130SOL    HW118026   2.601   2.760   8.510 -0.6586 -1.0609  0.2705
 2130SOL    HW218027   2.652   2.672   8.419  1.4938  0.7672 -0.7220
 2131SOL     OW18028   1.769   1.647   9.867 -0.0447  0.0517 -0.7692
 2131SOL    HW118029   1.736   1.655   9.957 -2.7996  1.2591 -1.8892
 2131SOL    HW218030   1.814   1.563   9.856  0.4023  0.3772 -1.3894
 2132SOL     OW18031   0.759   3.110   6.370 -0.0132 -0.6543  0.1731
 2132SOL    HW118032   0.810   3.115   6.290  1.5236  1.1905  1.2741
 2132SOL    HW218033   0.679   3.061   6.349  0.3993 -1.2100 -0.0828
 2133SOL     OW18034   4.306   2.881   9.229  0.0893  0.3008 -0.3411
 2133SOL    HW118035   4.228   2.861   9.280  0.3109 -1.0414 -0.5318
 2133SOL    HW218036   4.379   2.864   9.289 -1.4211 -0.9768  1.0966
 2134SOL     OW18037   4.358   0.758   5.542 -0.0540  0.2245 -0.2795
 2134SOL    HW118038   4.360   0.680   5.486  0.2801 -0.4060  0.6090
 2134SOL    HW218039   4.322   0.725   5.624  1.8900  2.9153  1.6643
 2135SOL     OW18040   0.915   2.978   8.576  0.2328 -0.1770 -0.0253
 2135SOL    HW118041   0.862   2.925   8.517 -0.0761  1.6039 -1.3559
 2135SOL    HW218042   1.004   2.973   8.539  0.5622  2.4346  0.3821
 2136SOL     OW18043   3.645   0.314  15.382 -0.2898 -0.2966 -1.3807
 2136SOL    HW118044   3.629   0.360  15.465 -0.9634  0.5855 -2.0006
 2136SOL    HW218045   3.559   0.286  15.350 -1.7470 -1.3059  3.3520
 2137SOL     OW18046   4.721   3.713  15.788 -0.6280 -0.6490 -0.1722
 2137SOL    HW118047   0.028   3.794  15.754  1.6796 -1.4837  0.3165
 2137SOL    HW218048   4.634   3.725  15.750 -0.8650 -0.1519  0.5142
 2138SOL     OW18049   1.281   2.800   1.688  0.2113 -0.3180  0.2890
 2138SOL    HW118050   1.322   2.717   1.664  0.6352 -0.5234  1.6912
 2138SOL    HW218051   1.205   2.772   1.738 -0.3409 -1.6745 -1.3137
 2139SOL     OW18052   2.758   3.471  15.130  0.6222  0.4065 -0.1725
 2139SOL    HW118053   2.780   3.561  15.155  3.5262 -0.2905 -0.2510
 2139SOL    HW218054   2.793   3.470  15.041  0.3806  1.4234 -0.2788
 2140SOL     OW18055   1.970   3.489   4.263  0.4534 -0.1338  0.7622
 2140SOL    HW118056   2.034   3.458   4.327 -0.5141 -0.6941  1.4700
 2140SOL    HW218057   1.944   3.404   4.225  1.0722 -1.0005  2.2709
 2141SOL     OW18058   4.698   0.698   7.420  0.3464 -0.6536 -0.4859
 2141SOL    HW118059   4.724   0.738   7.503 -1.2276  0.1148 -0.3529
 2141SOL    HW218060   4.665   0.614   7.453  0.4268 -0.6766 -0.4653
 2142SOL     OW18061   1.695   0.966   9.044  0.1455  0.4514  0.5666
 2142SOL    HW118062   1.774   0.931   9.085 -0.7837 -1.0780  1.0371
 2142SOL    HW218063   1.697   1.057   9.073 -2.0344  0.5274  0.4281
 2143SOL     OW18064   3.608   3.993   5.835 -0.4888  0.1106 -0.1611
 2143SOL    HW118065   3.594   4.087   5.838  1.5390  0.4034  0.2461
 2143SOL    HW218066   3.702   3.980   5.850 -0.3628  0.6568 -0.4714
 2144SOL     OW18067   2.723   2.036   9.076  0.3953 -0.2508 -0.5179
 2144SOL    HW118068   2.699   1.964   9.018  0.5329 -2.3240  2.0003
 2144SOL    HW218069   2.810   2.003   9.098  0.3569 -0.0724 -0.0941
 2145SOL     OW18070   1.908   0.443   4.465  0.3411 -0.2997  0.5088
 2145SOL    HW118071   1.895   0.369   4.524 -3.5517 -0.2745 -0.3103
 2145SOL    HW218072   1.881   0.510   4.528  0.3347  2.2146 -2.1918
 2146SOL     OW18073   3.612   0.445   7.479  0.3374  0.2469 -0.1868
 2146SOL    HW118074   3.577   0.360   7.507  1.4064 -0.7289 -1.8216
 2146SOL    HW218075   3.579   0.505   7.546 -0.5074  0.2965 -0.6461
 2147SOL     OW18076   2.268   3.625  17.642  0.4135 -0.2043  0.8250
 2147SOL    HW118077   2.290   3.711  17.606  0.8153 -0.7393 -0.2241
 2147SOL    HW218078   2.353   3.581  17.653  1.2054  1.6367  2.0727
 2148SOL     OW18079   2.918   2.993   1.873  0.5934 -0.5764 -0.1229
 2148SOL    HW118080   2.944   3.082   1.898 -0.5806 -0.3026  0.1386
 2148SOL    HW218081   2.898   3.002   1.780  0.1497  0.8024  0.1050
 2149SOL     OW18082   0.248   3.052   8.965 -0.4447  0.2357 -0.3989
 2149SOL    HW118083   0.250   3.125   8.903  0.0804 -0.8378 -1.6626
 2149SOL    HW218084   0.193   2.989   8.918 -0.6999 -1.4857  2.2418
 2150SOL     OW18085   3.730   1.961   5.896  0.2146  0.0292 -0.4984
 2150SOL    HW118086   3.763   1.876   5.923  0.2884 -0.1570 -1.1777
 2150SOL    HW218087   3.673   1.941   5.821  0.3237 -2.2774  0.0525
 2151SOL     OW18088   0.625   2.614   0.712  0.2288 -0.0907  0.0364
 2151SOL    HW118089   0.719   2.630   0.719  0.4368 -1.1215 -0.3569
 2151SOL    HW218090   0.609   2.596   0.619 -0.8507  0.5007  0.1031
 2152SOL     OW18091   1.139   1.180   5.283  0.1490  0.1244 -0.4561
 2152SOL    HW118092   1.103   1.264   5.312  1.0086  0.0875  0.7267
 2152SOL    HW218093   1.194   1.207   5.209 -0.1414 -1.2870 -1.1861
 2153SOL     OW18094   2.018   0.090  16.007  0.1118  0.5220 -0.4428
 2153SOL    HW118095   2.107   0.074  16.036 -0.3724  0.7784  1.1672
 2153SOL    HW218096   1.997   0.164  16.063 -3.2964 -1.3511  0.7579
 2154SOL     OW18097   2.990   2.200   7.014 -0.6196 -0.4557 -0.2542
 2154SOL    HW118098   3.008   2.119   6.965  0.2644  0.8827 -2.1645
 2154SOL    HW218099   2.975   2.159   7.099  0.9781 -0.5565 -0.0242
 2155SOL     OW18100   2.294   3.919   2.608 -0.2199 -0.0755 -0.3661
 2155SOL    HW118101   2.229   3.849   2.611  2.1554 -2.3669 -1.5689
 2155SOL    HW218102   2.352   3.887   2.538  0.2719  1.4376 -0.6581
 2156SOL     OW18103   2.485   3.730   2.732 -0.9251  0.0215  0.8605
 2156SOL    HW118104   2.516   3.706   2.645 -1.3863 -0.0939  0.7266
 2156SOL    HW218105   2.400   3.762   2.702 -0.5220  0.7839  0.5442
 2157SOL     OW18106   0.034   3.109  13.260 -1.0014  0.1382  0.2265
 2157SOL    HW118107   4.721   3.034  13.303 -1.0537 -0.2453 -0.4839
 2157SOL    HW218108   4.724   3.108  13.173  1.3291  1.4293 -0.8418
 2158SOL     OW18109   0.568   2.037  15.771 -0.1424 -0.2520  0.2286
 2158SOL    HW118110   0.508   1.997  15.707 -0.9294  1.9313 -0.4158
 2158SOL    HW218111   0.528   2.009  15.853 -0.8966  1.2577  0.3892
 2159SOL     OW18112   2.323   4.488  16.208 -0.1884 -0.2950  0.5682
 2159SOL    HW118113   2.418   4.477  16.200 -0.0909 -1.4863  3.1289
 2159SOL    HW218114   2.282   4.437  16.138 -0.4059  0.2174  0.3280
 2160SOL     OW18115   3.722   2.950   8.542 -0.1372  0.1214 -0.0547
 2160SOL    HW118116   3.636   2.974   8.508 -0.3346 -0.5416 -0.0238
 2160SOL    HW218117   3.699   2.891   8.614 -3.1346  2.8013  1.1796
 2161SOL     OW18118   0.506   0.985  11.870 -0.1232  0.1915 -0.1976
 2161SOL    HW118119   0.562   0.929  11.922 -1.5922  0.9141  2.1586
 2161SOL    HW218120   0.433   0.994  11.931 -0.4631  1.9013 -0.8372
 2162SOL     OW18121   2.611   1.547   1.681 -0.5799 -0.1894  0.4703
 2162SOL    HW118122   2.539   1.485   1.671  1.0140 -1.8264 -0.7388
 2162SOL    HW218123   2.686   1.490   1.668 -0.0972  0.4659  0.3826
 2163SOL     OW18124   3.522   4.240   2.407  0.3291  0.1233 -0.4287
 2163SOL    HW118125   3.534   4.249   2.312  0.6965 -0.6701 -0.4596
 2163SOL    HW218126   3.603   4.281   2.438  0.1120  1.3130 -1.4296
 2164SOL     OW18127   4.216   3.798   5.075 -0.3404  0.1668 -0.2318
 2164SOL    HW118128   4.204   3.775   5.167  0.8985  0.0649 -0.0923
 2164SOL    HW218129   4.292   3.747   5.046 -1.5374 -1.4225 -0.5706
 2165SOL     OW18130   3.771   1.730   5.477  0.6090 -0.5472  0.3835
 2165SOL    HW118131   3.737   1.726   5.388 -1.0723  2.3152  0.8892
 2165SOL    HW218132   3.816   1.646   5.481 -0.5851 -1.1558  1.2939
 2166SOL     OW18133   2.258   2.020   3.723  0.3321  0.6277  0.6484
 2166SOL    HW118134   2.196   2.000   3.793  0.4086 -0.0619  0.5239
 2166SOL    HW218135   2.252   2.115   3.711 -1.3961  0.6335  1.5120
 2167SOL     OW18136   4.225   1.885  15.512 -0.0927 -0.4571 -0.6419
 2167SOL    HW118137   4.238   1.790  15.504  1.3304 -0.2879 -0.3459
 2167SOL    HW218138   4.258   1.891  15.602 -1.5476  0.7118 -0.1928
 2168SOL     OW18139   1.316   1.528  14.996  0.1439 -0.0846 -0.2010
 2168SOL    HW118140   1.269   1.459  15.042  1.6215 -0.8493  0.1733
 2168SOL    HW218141   1.262   1.605  15.015  1.4979  0.6890  0.5323
 2169SOL     OW18142   2.486   3.937  13.954  0.2376 -0.2898  0.0592
 2169SOL    HW118143   2.405   3.889  13.936  0.3147 -1.6424  3.3541
 2169SOL    HW218144   2.452   4.026  13.941  1.7677  0.3585  0.4285
 2170SOL     OW18145   4.061   0.711  14.546  0.0360  0.8189 -0.1639
 2170SOL    HW118146   3.967   0.698  14.534  0.6636  0.1140 -4.3286
 2170SOL    HW218147   4.074   0.692  14.639  0.6159 -0.7118 -0.5526
 2171SOL     OW18148   4.461   2.908   8.705  0.1638 -0.9590  0.3827
 2171SOL    HW118149   4.516   2.831   8.693 -0.0165 -1.1013  0.4752
 2171SOL    HW218150   4.469   2.923   8.799 -1.5515 -0.4587  0.4571
 2172SOL     OW18151   1.209   2.497   3.347  0.0599  0.2285 -0.1088
 2172SOL    HW118152   1.255   2.418   3.376  0.9449  1.2891  1.4115
 2172SOL    HW218153   1.119   2.481   3.375  0.7324 -1.9437  0.7846
 2173SOL     OW18154   1.899   3.728   2.640  0.7264 -0.2764 -0.0269
 2173SOL    HW118155   1.989   3.700   2.625  0.4352 -1.5551  0.6085
 2173SOL    HW218156   1.914   3.806   2.693 -0.5472 -0.6676  0.9129
 2174SOL     OW18157   2.068   3.600   3.657  0.1375 -0.0531  0.5072
 2174SOL    HW118158   2.091   3.538   3.727 -2.3846 -0.7309  0.7306
 2174SOL    HW218159   2.009   3.539   3.612 -0.1739  0.9597 -0.4445
 2175SOL     OW18160   2.818   4.158   5.454 -0.3806 -0.1960  0.2121
 2175SOL    HW118161   2.820   4.155   5.359  0.3444  1.0765  0.1820
 2175SOL    HW218162   2.862   4.074   5.461 -0.6515 -0.3708 -0.1761
 2176SOL     OW18163   3.311   4.388   8.308  0.0664 -0.0704 -0.1005
 2176SOL    HW118164   3.354   4.468   8.340  0.2760 -1.2775  2.5831
 2176SOL    HW218165   3.326   4.334   8.385  2.3979  0.4371 -0.2132
 2177SOL     OW18166   0.634   2.030   9.312 -0.9006  0.4320  0.3256
 2177SOL    HW118167   0.568   2.089   9.277 -0.5537  0.2631 -0.6265
 2177SOL    HW218168   0.653   2.072   9.396  4.9986 -2.0780  0.2963
 2178SOL     OW18169   2.197   3.253   8.344  0.5331 -0.0411  0.1049
 2178SOL    HW118170   2.194   3.158   8.328 -0.5655  0.3276 -1.8619
 2178SOL    HW218171   2.105   3.275   8.359  0.2919 -1.3510  0.5712
 2179SOL     OW18172   0.814   3.549   6.936  0.0521  0.1999  0.0185
 2179SOL    HW118173   0.825   3.625   6.992  0.5122  0.2400 -0.1203
 2179SOL    HW218174   0.719   3.553   6.924 -0.3550  0.8500  3.6319
 2180SOL     OW18175   3.700   1.203   7.693  0.6799  0.9063  0.2381
 2180SOL    HW118176   3.713   1.164   7.607 -1.6758 -1.2236  0.8475
 2180SOL    HW218177   3.624   1.257   7.674 -1.7269 -2.5992 -0.0436
 2181SOL     OW18178   2.588   3.918  13.490  0.4629  0.4783 -0.2351
 2181SOL    HW118179   2.547   3.849  13.542  0.3869  1.1721  0.6396
 2181SOL    HW218180   2.537   3.991  13.526 -0.6060 -1.0222  1.3017
 2182SOL     OW18181   1.444   2.403   4.387  0.4184 -0.8147  0.1390
 2182SOL    HW118182   1.349   2.410   4.380  0.2478 -1.6542  1.6876
 2182SOL    HW218183   1.452   2.459   4.464 -1.7784  1.6049 -1.4105
 2183SOL     OW18184   4.053   3.486   5.054  0.0990 -0.4772 -0.0016
 2183SOL    HW118185   4.099   3.524   5.128 -1.0599 -0.0678  0.4994
 2183SOL    HW218186   3.998   3.554   5.017  0.0603 -0.3225  0.3468
 2184SOL     OW18187   4.604   3.448  12.566 -0.8756 -0.5113  0.7868
 2184SOL    HW118188   4.578   3.375  12.509 -0.9105 -1.4422  1.9942
 2184SOL    HW218189   4.685   3.406  12.596  1.0280  1.5289 -1.4777
 2185SOL     OW18190   2.374   2.053   9.810  0.4709  0.2698  0.2336
 2185SOL    HW118191   2.415   1.966   9.812  4.5454  2.2610  1.7928
 2185SOL    HW218192   2.444   2.108   9.776  0.1274  0.4317 -0.2069
 2186SOL     OW18193   2.129   0.896   2.574 -0.4568 -0.0366 -0.2634
 2186SOL    HW118194   2.043   0.861   2.597 -0.4453  0.4672  0.5635
 2186SOL    HW218195   2.157   0.831   2.510 -0.4089  1.2049 -1.4999
 2187SOL     OW18196   2.927   4.685  11.971 -0.5952 -0.4290 -0.0975
 2187SOL    HW118197   2.890   4.596  11.970 -0.6937 -0.4105  1.5112
 2187SOL    HW218198   2.927   4.688  12.067 -1.1962 -1.9470 -0.0401
 2188SOL     OW18199   2.889   1.820   3.592 -0.2340  0.1713  0.0160
 2188SOL    HW118200   2.923   1.828   3.681 -0.2133 -1.5185  0.1653
 2188SOL    HW218201   2.838   1.740   3.604 -0.4166  0.1395 -0.9616
 2189SOL     OW18202   1.680   4.164   4.675 -0.1902  0.0529  0.2794
 2189SOL    HW118203   1.605   4.170   4.733 -0.6573 -2.0298 -0.1054
 2189SOL    HW218204   1.655   4.105   4.604  0.8471 -1.6112  1.2905
 2190SOL     OW18205   2.278   1.807   2.103  0.0542  0.8461  0.1748
 2190SOL    HW118206   2.355   1.794   2.048 -0.9188 -0.2964 -0.9215
 2190SOL    HW218207   2.312   1.769   2.184 -0.1648  0.5714  0.1385
 2191SOL     OW18208   3.961   0.679   5.256 -0.3469  0.1398  0.2105
 2191SOL    HW118209   3.982   0.700   5.165 -0.7893 -0.0318  0.0733
 2191SOL    HW218210   4.012   0.746   5.301  0.6996 -0.7727  0.4115
 2192SOL     OW18211   3.792   2.987  17.494  0.1692  0.7815 -0.6967
 2192SOL    HW118212   3.809   2.896  17.470 -1.5701 -0.4648  2.7843
 2192SOL    HW218213   3.763   2.980  17.585  1.4079  1.8057 -0.2271
 2193SOL     OW18214   0.032   3.854  10.989 -0.5616  0.3174 -0.0850
 2193SOL    HW118215   4.726   3.813  11.068 -0.3756  1.2142  0.4623
 2193SOL    HW218216   0.080   3.923  11.034  0.7132 -0.7342  0.1996
 2194SOL     OW18217   0.838   4.092   4.701 -0.0902  0.3484  0.0811
 2194SOL    HW118218   0.888   4.073   4.622  3.0077 -1.0422  2.3707
 2194SOL    HW218219   0.755   4.073   4.658 -0.7205  0.5243  1.2178
 2195SOL     OW18220   3.967   2.440  11.532  0.6826  0.0926 -0.1784
 2195SOL    HW118221   3.879   2.413  11.509  1.2751 -1.2555 -0.8831
 2195SOL    HW218222   3.957   2.534  11.550  0.5172  0.1563 -0.6057
 2196SOL     OW18223   2.176   2.120   6.306 -0.2359 -0.8623  0.0153
 2196SOL    HW118224   2.228   2.199   6.296 -1.4573 -0.3397 -2.1144
 2196SOL    HW218225   2.115   2.157   6.369  0.1186  2.3846 -1.5631
 2197SOL     OW18226   0.271   3.387   9.200  0.5382 -0.4759  0.1214
 2197SOL    HW118227   0.239   3.447   9.134  0.0176 -1.1046 -0.1993
 2197SOL    HW218228   0.365   3.403   9.201  0.5691 -0.6709  0.4718
 2198SOL     OW18229   4.470   0.972   9.567  0.1280 -0.7317  0.1996
 2198SOL    HW118230   4.562   0.979   9.593 -0.3994 -1.5815  2.2798
 2198SOL    HW218231   4.428   0.984   9.653  1.3924  0.0067  0.7160
 2199SOL     OW18232   4.689   3.363   9.836  0.1003  0.2874 -0.3537
 2199SOL    HW118233   4.720   3.284   9.792  1.4705  0.5547  0.1322
 2199SOL    HW218234   0.037   3.388   9.886 -1.2138  0.0435  1.7762
 2200SOL     OW18235   2.556   1.517   3.407  0.3882 -0.5234  0.1967
 2200SOL    HW118236   2.622   1.574   3.368  2.5515 -1.6461  2.1814
 2200SOL    HW218237   2.508   1.569   3.472  0.8195 -0.6492  0.6162
 2201SOL     OW18238   4.290   1.640   5.024  0.2802 -0.4977  0.0828
 2201SOL    HW118239   4.323   1.729   5.030  1.2634 -0.8402 -0.2618
 2201SOL    HW218240   4.303   1.607   5.113  1.5362  0.1881  0.1455
 2202SOL     OW18241   1.444   1.228  17.063  0.6064 -0.0688 -0.0659
 2202SOL    HW118242   1.475   1.151  17.016  0.0945 -1.6501  2.1913
 2202SOL    HW218243   1.385   1.267  16.999  2.2845 -0.9684 -2.1498
 2203SOL     OW18244   3.569   3.670  11.096  0.1319 -0.4710 -0.1881
 2203SOL    HW118245   3.620   3.614  11.038 -1.7659 -0.9468 -1.4268
 2203SOL    HW218246   3.626   3.681  11.172 -0.4900 -0.0977  0.2349
 2204SOL     OW18247   1.724   4.267   6.575 -0.5458  0.4337  0.8780
 2204SOL    HW118248   1.761   4.318   6.502 -2.3034 -2.2728 -1.9085
 2204SOL    HW218249   1.702   4.328   6.645  1.3323  2.4394 -0.2646
 2205SOL     OW18250   0.425   3.922   3.001 -0.6307 -0.2979  0.0741
 2205SOL    HW118251   0.396   3.953   3.086  0.7593  0.3221  0.3252
 2205SOL    HW218252   0.504   3.873   3.022 -0.6516  0.3466  1.6415
 2206SOL     OW18253   3.719   2.191   2.854 -0.5491  0.3267 -0.1316
 2206SOL    HW118254   3.813   2.194   2.835 -0.6496 -0.6078 -0.8143
 2206SOL    HW218255   3.697   2.099   2.872 -0.7495 -0.0651 -2.3566
 2207SOL     OW18256   4.627   3.694  14.817  0.2159  0.2019 -0.1300
 2207SOL    HW118257   4.642   3.618  14.760  2.4246  1.2524 -0.9306
 2207SOL    HW218258   4.585   3.654  14.893  1.5943 -1.3347 -0.1888
 2208SOL     OW18259   3.268   0.658  16.233  0.5517 -0.1428  0.4526
 2208SOL    HW118260   3.226   0.639  16.316  0.8330  0.6610  0.7783
 2208SOL    HW218261   3.243   0.586  16.175  0.0526  1.6166 -1.5324
 2209SOL     OW18262   2.773   1.248   5.830 -0.0262  0.6742  0.1714
 2209SOL    HW118263   2.770   1.176   5.894  3.0967  0.8179  0.4918
 2209SOL    HW218264   2.770   1.326   5.885 -0.9262  1.2935 -0.7683
 2210SOL     OW18265   2.920   1.803   8.779 -0.0585  0.2162 -0.0828
 2210SOL    HW118266   2.974   1.735   8.820  2.0717  2.1247  0.2423
 2210SOL    HW218267   2.835   1.784   8.817 -0.1289 -1.1681 -0.9318
 2211SOL     OW18268   0.688   0.909  13.032  0.7450  0.4097  0.5971
 2211SOL    HW118269   0.725   0.899  13.119 -1.7651  0.2171  1.6382
 2211SOL    HW218270   0.718   0.830  12.986 -1.2574  0.6156 -1.0655
 2212SOL     OW18271   2.432   0.929  10.487 -0.0786 -0.4655 -0.2039
 2212SOL    HW118272   2.347   0.919  10.531 -0.7174  0.4445 -1.2396
 2212SOL    HW218273   2.468   1.010  10.525 -0.0857 -0.4033 -0.3321
 2213SOL     OW18274   4.465   4.037   9.681 -0.1392  0.2003  0.7837
 2213SOL    HW118275   4.425   3.966   9.732  0.5212 -0.3277  0.5560
 2213SOL    HW218276   4.543   3.997   9.644  1.8232  4.0409  0.7724
 2214SOL     OW18277   0.668   3.038  16.587 -0.0085  0.1730 -0.1823
 2214SOL    HW118278   0.628   3.089  16.658  0.5560  3.4637 -2.2422
 2214SOL    HW218279   0.607   2.964  16.581 -2.5240  2.4740 -3.1264
 2215SOL     OW18280   3.714   3.750   6.243  0.0630  0.3603  0.0307
 2215SOL    HW118281   3.697   3.843   6.232 -2.5006  0.1136  1.7941
 2215SOL    HW218282   3.652   3.731   6.173 -0.4438 -0.9714  0.8381
 2216SOL     OW18283   0.470   2.281  14.869 -0.4508  0.0605  0.0160
 2216SOL    HW118284   0.491   2.218  14.800  1.2317  1.8302 -1.0618
 2216SOL    HW218285   0.461   2.360  14.817 -0.5550  1.5782  2.3197
 2217SOL     OW18286   1.157   3.490   4.002 -0.1245  0.4555 -0.5251
 2217SOL    HW118287   1.147   3.401   3.967 -0.6245  0.7387 -1.0862
 2217SOL    HW218288   1.117   3.538   3.930 -0.3604 -1.1844 -1.4826
 2218SOL     OW18289   0.315   4.105   5.699  0.0303  0.5298 -0.3374
 2218SOL    HW118290   0.245   4.090   5.762 -2.0830 -0.4962 -2.9438
 2218SOL    HW218291   0.390   4.055   5.733 -1.2001 -2.2096 -1.5866
 2219SOL     OW18292   2.801   2.484   9.956 -0.0955 -0.0982 -0.0283
 2219SOL    HW118293   2.720   2.472  10.005  0.1044  3.5545  1.2356
 2219SOL    HW218294   2.770   2.548   9.893  1.8534 -0.2623 -1.1572
 2220SOL     OW18295   4.489   0.765   7.261  0.2180  0.0009 -0.4896
 2220SOL    HW118296   4.563   0.775   7.321  1.3399  0.0104 -1.8707
 2220SOL    HW218297   4.423   0.795   7.324 -0.3986 -0.1415 -1.0602
 2221SOL     OW18298   1.506   0.163   4.375  0.5175  0.0034  0.5330
 2221SOL    HW118299   1.483   0.254   4.392 -1.6201 -0.6224  1.0546
 2221SOL    HW218300   1.530   0.121   4.457 -0.3331  0.2513  0.9067
 2222SOL     OW18301   0.026   3.591  10.930 -0.2256  0.6541 -0.5847
 2222SOL    HW118302   0.061   3.680  10.919 -2.1109  1.7286  2.1489
 2222SOL    HW218303   0.090   3.546  10.984 -0.1994  0.9904 -0.3337
 2223SOL     OW18304   0.713   1.183  14.383  0.4812 -0.0200 -0.7282
 2223SOL    HW118305   0.791   1.238  14.390 -1.6688  2.6794  1.9920
 2223SOL    HW218306   0.671   1.225  14.308  0.0759  1.0540  0.1008
 2224SOL     OW18307   2.497   0.849   5.755 -0.2813 -0.6324 -0.3779
 2224SOL    HW118308   2.456   0.935   5.744  0.8252  0.0167  0.6484
 2224SOL    HW218309   2.577   0.868   5.707 -1.8907  0.4029 -2.6643
 2225SOL     OW18310   3.868   2.086  14.291 -0.5366 -1.0064 -0.2709
 2225SOL    HW118311   3.946   2.044  14.253 -0.0993  1.1513 -1.7487
 2225SOL    HW218312   3.905   2.124  14.371 -1.5577 -0.8463  0.1233
 2226SOL     OW18313   0.056   2.467  16.210 -0.5282  0.0245  0.1296
 2226SOL    HW118314   4.719   2.399  16.215  1.6055 -2.0827 -0.3968
 2226SOL    HW218315   0.027   2.520  16.135 -0.4761 -0.2332 -0.0724
 2227SOL     OW18316   3.953   3.643   4.691  0.6173  0.3436 -0.0579
 2227SOL    HW118317   3.960   3.690   4.775 -0.2314 -0.8206  0.6602
 2227SOL    HW218318   4.007   3.702   4.638 -1.0718  1.4114 -0.5776
 2228SOL     OW18319   0.889   2.248   1.677  0.5843 -0.2823  0.1869
 2228SOL    HW118320   0.945   2.173   1.658  1.6043  0.4486  0.2799
 2228SOL    HW218321   0.811   2.207   1.715  0.8132 -1.0693 -0.2019
 2229SOL     OW18322   1.574   1.660   6.275  0.3456  0.1002  0.7863
 2229SOL    HW118323   1.661   1.697   6.282 -0.0375  1.2362 -0.5964
 2229SOL    HW218324   1.526   1.712   6.210  0.3837 -0.8076  0.0341
 2230SOL     OW18325   4.466   3.904   4.639  0.4698 -0.2772 -0.3115
 2230SOL    HW118326   4.463   3.989   4.597 -1.1497 -0.7397 -1.1179
 2230SOL    HW218327   4.386   3.898   4.691 -0.1190 -0.3064 -1.2153
 2231SOL     OW18328   2.512   4.294   4.346 -0.1314  0.7825  0.1495
 2231SOL    HW118329   2.486   4.376   4.389  0.7510 -0.0155  2.2251
 2231SOL    HW218330   2.557   4.242   4.413  0.1983  1.7999  0.7098
 2232SOL     OW18331   3.022   1.590   5.233 -0.2503  0.0920 -0.9380
 2232SOL    HW118332   2.937   1.602   5.275  0.1232  0.0252 -0.1531
 2232SOL    HW218333   3.059   1.536   5.304 -3.9715 -3.2301 -1.5456
 2233SOL     OW18334   0.121   3.201   2.762 -0.4334 -0.3201 -0.3572
 2233SOL    HW118335   0.125   3.146   2.684  1.9924 -2.2345  1.1184
 2233SOL    HW218336   0.151   3.132   2.821 -1.2835 -0.9438 -0.6426
 2234SOL     OW18337   1.660   2.809   5.010 -0.2933  0.4847 -0.2309
 2234SOL    HW118338   1.727   2.742   4.994 -3.7929 -2.9035 -0.6002
 2234SOL    HW218339   1.581   2.757   5.026 -1.2725  2.0103 -0.1285
 2235SOL     OW18340   2.322   1.028   8.447 -0.4263  0.5173 -0.1442
 2235SOL    HW118341   2.349   0.978   8.369  1.5513  0.3269  0.6643
 2235SOL    HW218342   2.404   1.029   8.497 -1.1387 -0.8837  1.0760
 2236SOL     OW18343   1.739   3.040   4.631  0.1761 -0.0987 -0.3278
 2236SOL    HW118344   1.667   2.979   4.650  0.0897 -0.6425 -2.4449
 2236SOL    HW218345   1.699   3.124   4.653  1.8086  0.6903 -0.3711
 2237SOL     OW18346   2.137   0.542   5.103  0.3469  0.1845 -0.8393
 2237SOL    HW118347   2.161   0.617   5.157 -0.5948 -0.3406  0.2890
 2237SOL    HW218348   2.132   0.477   5.173 -1.2354  0.0944 -1.0337
 2238SOL     OW18349   2.641   4.383  14.849 -0.4497 -0.1793 -0.2773
 2238SOL    HW118350   2.561   4.359  14.896 -1.3272  0.2778 -1.5465
 2238SOL    HW218351   2.640   4.321  14.776 -0.6344 -0.6314  0.1106
 2239SOL     OW18352   2.511   0.715   5.086 -0.0128 -0.2319 -0.5729
 2239SOL    HW118353   2.462   0.663   5.023  1.0290  0.6234 -2.0962
 2239SOL    HW218354   2.485   0.680   5.171 -1.0571 -2.7085 -1.9208
 2240SOL     OW18355   1.435   4.033   2.155 -0.0789  0.2446 -0.0039
 2240SOL    HW118356   1.521   3.995   2.139 -1.0614 -0.8382 -2.8534
 2240SOL    HW218357   1.448   4.117   2.109 -3.3338  0.1414 -1.0808
 2241SOL     OW18358   1.077   0.633   8.327  0.0234  0.2980 -0.7461
 2241SOL    HW118359   0.989   0.617   8.295 -0.6422 -0.4308  1.4293
 2241SOL    HW218360   1.110   0.710   8.280  0.2245 -0.7772 -2.3599
 2242SOL     OW18361   4.291   2.684   0.331 -0.5072 -0.3766 -0.2173
 2242SOL    HW118362   4.213   2.674   0.385  0.0881 -0.9467  0.5453
 2242SOL    HW218363   4.249   2.703   0.247 -1.4063  2.4459  0.8753
 2243SOL     OW18364   0.979   0.223  17.038 -0.1317  0.1119  0.0807
 2243SOL    HW118365   0.971   0.216  16.943  3.1073  1.4872 -0.2970
 2243SOL    HW218366   0.900   0.275  17.058 -1.7546 -1.0900 -3.3709
 2244SOL     OW18367   3.346   4.325   4.495  0.3239  0.1191 -0.8073
 2244SOL    HW118368   3.354   4.367   4.580 -1.4099 -0.8207 -0.1859
 2244SOL    HW218369   3.315   4.238   4.522  1.1715  0.6350  1.8121
 2245SOL     OW18370   4.547   2.352   8.286  0.1252 -0.3252 -0.2403
 2245SOL    HW118371   4.577   2.365   8.196  1.6519 -1.3527  0.1044
 2245SOL    HW218372   4.624   2.316   8.330 -0.5888  1.1824  2.2651
 2246SOL     OW18373   0.707   2.837  10.772 -0.3877  0.6841 -0.3616
 2246SOL    HW118374   0.711   2.920  10.819 -0.1564  0.7680 -0.5278
 2246SOL    HW218375   0.777   2.800  10.827 -0.7611  0.3103 -0.1406
 2247SOL     OW18376   2.856   1.011   2.570 -0.7176 -0.3881 -0.0621
 2247SOL    HW118377   2.883   0.980   2.656 -1.0265 -0.2906  0.0717
 2247SOL    HW218378   2.804   1.088   2.595 -1.8112 -1.3723  0.6943
 2248SOL     OW18379   1.321   1.517  11.138 -0.3032 -0.0863 -0.0049
 2248SOL    HW118380   1.297   1.425  11.122  1.4409 -0.6265  0.4883
 2248SOL    HW218381   1.238   1.564  11.145 -0.6610 -0.5878 -0.8637
 2249SOL     OW18382   0.340   0.881   2.762  0.3942 -0.3797 -0.0982
 2249SOL    HW118383   0.280   0.955   2.758  1.5161  0.7063  3.7412
 2249SOL    HW218384   0.406   0.907   2.826 -1.3571  3.0081  0.3380
 2250SOL     OW18385   0.235   0.580   4.568  0.2405 -0.3545 -0.1133
 2250SOL    HW118386   0.144   0.607   4.580  0.8988  2.0002 -0.4380
 2250SOL    HW218387   0.249   0.639   4.495  1.3367  0.6598  0.9127
 2251SOL     OW18388   4.661   3.546   4.334 -0.1382  0.0951 -0.5736
 2251SOL    HW118389   4.632   3.599   4.408 -1.7345  1.6089 -2.2867
 2251SOL    HW218390   4.585   3.488   4.331 -0.0480  0.1429 -4.3257
 2252SOL     OW18391   1.131   2.067  16.725  0.3202 -0.0005  0.7066
 2252SOL    HW118392   1.120   2.033  16.636  0.7123 -0.8196  0.9668
 2252SOL    HW218393   1.049   2.048  16.770 -0.0214 -0.9345 -0.3203
 2253SOL     OW18394   4.476   1.821   4.490  0.3118  0.2974  0.1079
 2253SOL    HW118395   4.450   1.745   4.438  0.5235  0.6193 -0.4608
 2253SOL    HW218396   4.458   1.900   4.439 -2.0401 -0.5673 -0.4227
 2254SOL     OW18397   2.594   3.156  16.787 -0.0446 -0.3610  0.4921
 2254SOL    HW118398   2.604   3.086  16.722 -0.8754 -0.5837  0.6011
 2254SOL    HW218399   2.664   3.216  16.761  0.3076 -1.2822 -0.6618
 2255SOL     OW18400   1.927   0.120   7.545  0.5734 -0.2797  0.3409
 2255SOL    HW118401   2.012   0.083   7.569  0.1620 -2.2211 -1.1606
 2255SOL    HW218402   1.900   0.130   7.636 -0.1831 -3.3588  0.4681
 2256SOL     OW18403   1.855   2.812  11.546 -0.7495  0.7757  0.0252
 2256SOL    HW118404   1.931   2.810  11.604  0.3798 -0.4551 -1.5283
 2256SOL    HW218405   1.796   2.750  11.589 -0.4788  0.8649  0.5272
 2257SOL     OW18406   2.272   2.236  10.532  0.3121 -0.6195  0.3106
 2257SOL    HW118407   2.299   2.195  10.451  2.4508  0.6835  0.3492
 2257SOL    HW218408   2.238   2.161  10.581 -3.9918 -0.2819 -2.1933
 2258SOL     OW18409   3.098   3.576   3.490  0.1025  0.7691 -0.4311
 2258SOL    HW118410   3.056   3.491   3.503  1.1334  0.5088  1.2090
 2258SOL    HW218411   3.178   3.548   3.444  0.9081  1.1225  0.7474
 2259SOL     OW18412   0.975   1.604   7.505 -0.0929 -0.3959  0.1203
 2259SOL    HW118413   0.937   1.599   7.593 -1.1838 -0.7425 -0.3766
 2259SOL    HW218414   1.046   1.668   7.513  0.0519 -0.4298 -0.9452
 2260SOL     OW18415   3.182   1.542   3.614 -0.4495 -0.6832 -0.6281
 2260SOL    HW118416   3.238   1.464   3.609  0.7117  0.1900 -1.3529
 2260SOL    HW218417   3.094   1.506   3.605 -2.7187  3.4689  4.5932
 2261SOL     OW18418   1.999   1.815   1.543 -0.1581  0.0973  0.1568
 2261SOL    HW118419   2.089   1.784   1.546 -0.6874 -1.5763 -1.2665
 2261SOL    HW218420   1.980   1.835   1.634  1.2847 -0.0781  0.4832
 2262SOL     OW18421   2.152   1.278   3.984 -0.2465  0.8211 -0.2746
 2262SOL    HW118422   2.158   1.205   3.923  2.8092  0.8747 -0.0642
 2262SOL    HW218423   2.179   1.218   4.053  2.1436  0.6532 -1.3371
 2263SOL     OW18424   0.729   1.770   3.186  0.2782  0.1603 -0.4512
 2263SOL    HW118425   0.736   1.847   3.129  0.9665 -0.5844 -1.3757
 2263SOL    HW218426   0.757   1.813   3.266 -1.6837 -1.8804  1.3272
 2264SOL     OW18427   3.946   0.606   5.589 -0.3438  0.4009 -0.1339
 2264SOL    HW118428   3.941   0.617   5.494  0.0335  2.7112  0.1316
 2264SOL    HW218429   3.852   0.612   5.605 -0.6051  1.6037 -2.1335
 2265SOL     OW18430   0.618   0.793  11.609 -0.7563  0.4873 -0.0365
 2265SOL    HW118431   0.595   0.880  11.641  1.6103  0.8372  0.7597
 2265SOL    HW218432   0.535   0.776  11.565 -0.6180 -2.5072  0.8642
 2266SOL     OW18433   1.424   4.456   7.626 -0.0601  0.4662  0.2673
 2266SOL    HW118434   1.395   4.522   7.563  0.8655  1.6138  1.0515
 2266SOL    HW218435   1.398   4.497   7.708  1.6215  1.5147  0.2861
 2267SOL     OW18436   0.881   3.849   7.081  0.3918  0.3042  0.4314
 2267SOL    HW118437   0.945   3.902   7.033 -0.9283  0.9651 -0.6283
 2267SOL    HW218438   0.806   3.908   7.070  0.3769  0.1347 -0.4322
 2268SOL     OW18439   3.468   4.374  15.674 -0.5021  0.3004 -0.0360
 2268SOL    HW118440   3.488   4.332  15.590 -0.1122 -0.4586  0.4268
 2268SOL    HW218441   3.415   4.448  15.647  0.5019  0.6764 -0.9311
 2269SOL     OW18442   0.794   3.588   5.980 -0.0544 -0.4745  0.0821
 2269SOL    HW118443   0.782   3.633   5.896  0.8098 -0.5554 -0.0876
 2269SOL    HW218444   0.716   3.534   5.973 -0.9213  0.8749 -0.7702
 2270SOL     OW18445   1.013   4.321   6.611  0.4763 -0.1396 -0.1455
 2270SOL    HW118446   0.960   4.259   6.661 -0.6867  1.9623  1.1809
 2270SOL    HW218447   0.940   4.373   6.579 -0.2741  0.6118  2.7929
 2271SOL     OW18448   1.325   3.169  13.042  0.1145  0.0742  0.5182
 2271SOL    HW118449   1.366   3.100  12.991 -0.4418  0.1355 -0.0198
 2271SOL    HW218450   1.250   3.201  12.991  1.8249  0.2200 -1.9113
 2272SOL     OW18451   0.237   0.356   3.652  0.7846  0.0176 -0.0865
 2272SOL    HW118452   0.246   0.309   3.569  2.3019 -1.8948  1.1520
 2272SOL    HW218453   0.241   0.448   3.628 -0.9070  0.5584  1.7705
 2273SOL     OW18454   1.403   4.249   4.760 -0.4479  0.0668  0.3717
 2273SOL    HW118455   1.381   4.309   4.689  0.0851  0.8247  0.8469
 2273SOL    HW218456   1.394   4.171   4.705 -0.1163 -0.3463  0.9024
 2274SOL     OW18457   1.901   0.495   4.964 -0.8118 -0.4376 -0.1209
 2274SOL    HW118458   1.889   0.551   4.887  1.4928 -1.7029 -1.4016
 2274SOL    HW218459   1.993   0.510   4.989 -0.3987 -0.6154 -1.5365
 2275SOL     OW18460   2.151   4.637  12.698 -0.2065  0.0961  0.2663
 2275SOL    HW118461   2.212   4.701  12.662 -0.7153 -0.3059 -1.3120
 2275SOL    HW218462   2.192   4.610  12.780  1.5627 -0.1286 -0.6992
 2276SOL     OW18463   1.494   0.180   9.235  0.0776  0.0057  0.1176
 2276SOL    HW118464   1.398   0.176   9.226 -0.1544  0.3262  2.2647
 2276SOL    HW218465   1.524   0.143   9.318 -0.0025 -0.6817 -0.1606
 2277SOL     OW18466   3.451   2.655  13.301  0.2580  0.2243  0.2363
 2277SOL    HW118467   3.408   2.654  13.386  1.4489  0.6318  0.8383
 2277SOL    HW218468   3.394   2.721  13.261 -0.0726  0.3109  0.8448
 2278SOL     OW18469   4.708   0.394   3.732 -0.1011 -0.3954  0.1392
 2278SOL    HW118470   0.070   0.406   3.706 -0.3141 -0.0147 -0.4166
 2278SOL    HW218471   4.715   0.373   3.825  0.7268  1.2082  0.4567
 2279SOL     OW18472   4.456   4.221   7.884 -0.2043  0.2604 -0.2036
 2279SOL    HW118473   4.386   4.206   7.820  1.6999 -0.1786 -2.1738
 2279SOL    HW218474   4.417   4.279   7.949 -1.6422 -0.7669 -0.1542
 2280SOL     OW18475   3.467   0.322  13.714 -0.1848 -0.4146 -0.1860
 2280SOL    HW118476   3.559   0.340  13.699  0.0590 -0.4917  1.2670
 2280SOL    HW218477   3.468   0.233  13.750  0.7034 -1.2568 -2.2830
 2281SOL     OW18478   4.552   4.462   6.801  0.0039  0.3113 -0.1819
 2281SOL    HW118479   4.521   4.372   6.804  1.9092 -0.3055  0.9374
 2281SOL    HW218480   4.594   4.462   6.715 -0.4688 -2.7174 -0.4185
 2282SOL     OW18481   2.174   3.749   5.644  0.6053 -0.9234  0.0608
 2282SOL    HW118482   2.084   3.731   5.617  0.1637 -2.8449  2.6876
 2282SOL    HW218483   2.185   3.839   5.614  0.6544 -0.6788  0.8086
 2283SOL     OW18484   4.073   2.344   2.330 -0.4791  0.5604 -0.2740
 2283SOL    HW118485   3.987   2.344   2.287 -1.0423  1.1105  0.8572
 2283SOL    HW218486   4.064   2.410   2.398 -0.7727  0.0666  0.1650
 2284SOL     OW18487   0.205   3.014   7.750 -0.1185 -0.4094  0.2040
 2284SOL    HW118488   0.285   3.028   7.699 -1.0890  0.2470 -1.1383
 2284SOL    HW218489   0.226   3.064   7.829 -0.6032 -0.3361  0.2889
 2285SOL     OW18490   1.953   1.937   2.688  0.0975  0.0321 -0.2950
 2285SOL    HW118491   2.039   1.895   2.686 -0.8608 -1.8800 -1.7746
 2285SOL    HW218492   1.923   1.894   2.768 -0.0878  0.0064 -0.3783
 2286SOL     OW18493   3.514   4.216  10.082  0.4460 -0.5880  0.4955
 2286SOL    HW118494   3.460   4.290  10.108 -0.4957 -1.2769  0.4977
 2286SOL    HW218495   3.582   4.198  10.147  1.0677  0.8107  0.2431
 2287SOL     OW18496   3.266   3.724   7.072  0.0377 -0.4259 -1.1065
 2287SOL    HW118497   3.351   3.703   7.109 -0.1334 -0.9746 -1.0241
 2287SOL    HW218498   3.225   3.749   7.155 -0.9821 -2.5431 -0.9623
 2288SOL     OW18499   0.241   4.515   6.880 -0.4094  0.1252 -0.3276
 2288SOL    HW118500   0.293   4.487   6.955 -0.2940 -2.4315 -1.3516
 2288SOL    HW218501   0.293   4.586   6.844  0.8574 -0.8878 -0.4645
 2289SOL     OW18502   1.328   3.717   3.337  0.1157 -0.7545  0.3927
 2289SOL    HW118503   1.368   3.673   3.262  0.0279  0.9038 -0.6150
 2289SOL    HW218504   1.394   3.785   3.350  0.1896 -0.3766 -1.9968
 2290SOL     OW18505   3.790   1.428   4.629  0.0439 -0.1017 -0.8629
 2290SOL    HW118506   3.735   1.360   4.589 -0.6792 -0.2060  0.3238
 2290SOL    HW218507   3.798   1.502   4.568  1.0016  0.7020  0.2368
 2291SOL     OW18508   0.884   1.015   3.948  0.0622 -0.5013 -0.0113
 2291SOL    HW118509   0.802   0.978   3.915  0.2331 -1.0310  0.1604
 2291SOL    HW218510   0.916   0.964   4.023  1.1134  0.4425  0.1843
 2292SOL     OW18511   3.156   4.602   5.509  0.0172  0.3279  0.0815
 2292SOL    HW118512   3.065   4.582   5.529  0.5441  0.1985  2.3185
 2292SOL    HW218513   3.154   4.618   5.414 -2.2736 -2.5806 -0.3542
 2293SOL     OW18514   3.981   3.713  16.260  0.0310 -0.7692 -0.0371
 2293SOL    HW118515   4.037   3.773  16.310  0.4799 -0.7929 -0.5062
 2293SOL    HW218516   3.903   3.699  16.314  0.6482 -1.5769  0.6663
 2294SOL     OW18517   0.356   2.721   0.744  0.3550  0.1881 -0.3616
 2294SOL    HW118518   0.299   2.654   0.707 -1.8199  0.7630  2.0173
 2294SOL    HW218519   0.432   2.663   0.737  1.6447  1.4961  2.9137
 2295SOL     OW18520   2.145   4.181   2.352  0.0685 -0.2619  0.4008
 2295SOL    HW118521   2.231   4.153   2.319  2.1001  2.9483  2.8746
 2295SOL    HW218522   2.105   4.241   2.289  0.8415  0.7793  0.8893
 2296SOL     OW18523   0.012   1.156   1.892 -0.5868  0.3846  0.7464
 2296SOL    HW118524   0.045   1.103   1.965  0.0556  1.7902  1.4722
 2296SOL    HW218525   0.076   1.226   1.879  0.6005 -0.8665 -0.1874
 2297SOL     OW18526   0.760   4.526   8.256 -0.5312  0.4388  0.1463
 2297SOL    HW118527   0.717   4.505   8.339 -1.3493  1.6356  0.0293
 2297SOL    HW218528   0.854   4.524   8.277 -0.7187 -1.7068  0.7637
 2298SOL     OW18529   3.342   2.088   4.103 -0.2774 -0.2019 -0.5224
 2298SOL    HW118530   3.301   2.002   4.093  0.0145 -0.3748 -0.2211
 2298SOL    HW218531   3.412   2.067   4.165  0.5923  0.8288 -1.1649
 2299SOL     OW18532   1.313   3.367   0.156  0.5163 -0.2055  0.2716
 2299SOL    HW118533   1.322   3.457   0.127 -0.2377 -0.0429  0.5471
 2299SOL    HW218534   1.227   3.360   0.198 -0.5530  0.3297 -1.7898
 2300SOL     OW18535   4.077   1.843   1.743  0.1008  0.7076 -0.6693
 2300SOL    HW118536   4.017   1.831   1.670 -1.0298 -0.8802  0.5160
 2300SOL    HW218537   4.024   1.805   1.813 -0.0260 -1.1842 -1.8097
 2301SOL     OW18538   0.243   4.349   7.987  0.1944 -0.4134  0.1439
 2301SOL    HW118539   0.193   4.348   8.068 -0.5787 -3.1368 -0.3675
 2301SOL    HW218540   0.263   4.443   7.986  4.7819 -1.3912  0.4687
 2302SOL     OW18541   2.879   2.984   8.168 -0.4850  0.1723  0.3438
 2302SOL    HW118542   2.903   2.892   8.170 -0.9359  0.0803  1.6520
 2302SOL    HW218543   2.956   3.022   8.210 -1.5309  1.2793  1.2757
 2303SOL     OW18544   1.999   1.463  11.360  0.8319  1.3450 -0.6801
 2303SOL    HW118545   2.056   1.474  11.284 -1.6686 -1.2320 -2.9248
 2303SOL    HW218546   2.039   1.531  11.414 -0.5026  1.1157  0.5917
 2304SOL     OW18547   1.493   3.287   1.563 -0.4548  0.5450  0.2289
 2304SOL    HW118548   1.407   3.264   1.596 -0.7816  1.2337 -0.1439
 2304SOL    HW218549   1.468   3.354   1.499 -1.7307 -1.6149 -1.5047
 2305SOL     OW18550   3.921   3.733  14.868 -0.2551 -0.2849 -0.2653
 2305SOL    HW118551   3.960   3.814  14.836 -0.1269 -0.2855 -0.1040
 2305SOL    HW218552   3.830   3.762  14.881 -0.2231 -0.4118  0.2305
 2306SOL     OW18553   4.115   1.475   7.359 -0.0032  0.1768  0.2816
 2306SOL    HW118554   4.171   1.410   7.316  1.6558  1.8371 -0.0588
 2306SOL    HW218555   4.140   1.545   7.299  0.1831 -0.9233 -0.9529
 2307SOL     OW18556   3.713   2.017   1.071  0.0235 -0.2104 -0.4816
 2307SOL    HW118557   3.647   1.948   1.060 -0.9135  0.4613  1.0521
 2307SOL    HW218558   3.757   2.002   0.987 -1.9574 -0.7938 -1.4005
 2308SOL     OW18559   2.410   2.111   4.416 -0.5813  0.1747 -0.1453
 2308SOL    HW118560   2.460   2.030   4.408  0.1500  0.5055  1.0412
 2308SOL    HW218561   2.447   2.169   4.350 -1.7371 -0.7425 -1.5943
 2309SOL     OW18562   4.027   3.429  10.782 -0.1434  0.6406 -0.0004
 2309SOL    HW118563   3.999   3.388  10.864  0.2845  2.1353  0.8938
 2309SOL    HW218564   4.116   3.452  10.810  0.3523 -0.8030 -0.4125
 2310SOL     OW18565   1.475   3.052  11.468 -0.2104 -0.4110 -0.1525
 2310SOL    HW118566   1.477   3.074  11.561  0.2905  0.1822 -0.3071
 2310SOL    HW218567   1.481   2.956  11.473  1.0657 -0.3034  0.2908
 2311SOL     OW18568   2.901   3.904  12.404 -0.8468 -0.0828 -0.1930
 2311SOL    HW118569   2.934   3.994  12.408 -0.1252 -0.3401 -0.3850
 2311SOL    HW218570   2.970   3.860  12.354 -0.5849  0.4981 -0.3443
 2312SOL     OW18571   2.465   0.615   0.930 -0.5344  0.6343 -0.3748
 2312SOL    HW118572   2.498   0.646   0.845 -0.0545  1.1340 -0.0022
 2312SOL    HW218573   2.376   0.649   0.924 -0.8986 -0.0997  0.8250
 2313SOL     OW18574   2.697   2.535  13.186 -0.1487 -0.2865  0.1241
 2313SOL    HW118575   2.730   2.446  13.174 -1.5154 -0.3922 -2.7847
 2313SOL    HW218576   2.607   2.520  13.215  0.3675 -1.5476  1.0560
 2314SOL     OW18577   4.594   0.120   9.294 -0.2687  0.0931  0.1939
 2314SOL    HW118578   4.532   0.187   9.265 -0.5777 -0.7818 -1.1571
 2314SOL    HW218579   4.668   0.176   9.315 -0.0465 -0.8652  2.0106
 2315SOL     OW18580   3.802   4.258   7.708  0.3116 -0.2134  0.2651
 2315SOL    HW118581   3.854   4.313   7.767 -0.3456 -0.1196  0.7572
 2315SOL    HW218582   3.716   4.298   7.726  0.2387  0.5049 -1.7136
 2316SOL     OW18583   1.451   1.220   5.373 -0.1234 -0.1902 -0.8542
 2316SOL    HW118584   1.404   1.293   5.333  0.7888  0.6591 -0.3834
 2316SOL    HW218585   1.399   1.145   5.344 -1.5549  0.3231  0.3889
 2317SOL     OW18586   0.225   0.192   6.279 -0.2754 -0.1729 -0.6648
 2317SOL    HW118587   0.195   0.185   6.188 -2.2651  0.7728 -0.0876
 2317SOL    HW218588   0.319   0.203   6.267  0.1798  0.0075  3.3420
 2318SOL     OW18589   3.454   4.212  14.616  0.3886  0.2573 -0.1116
 2318SOL    HW118590   3.428   4.150  14.547  0.7997 -0.3277  0.2586
 2318SOL    HW218591   3.381   4.275  14.612 -1.5718 -2.0625 -1.0276
 2319SOL     OW18592   4.061   1.687   9.797  0.3759  0.6975 -0.0119
 2319SOL    HW118593   4.133   1.642   9.752 -0.4288  0.8435 -1.4655
 2319SOL    HW218594   4.054   1.647   9.883 -4.8934 -0.4554 -0.9714
 2320SOL     OW18595   2.672   1.458   2.514  0.2838 -0.2986  0.4829
 2320SOL    HW118596   2.673   1.441   2.420  2.4022 -3.7395  1.1135
 2320SOL    HW218597   2.763   1.461   2.542  0.9303  1.2078 -1.8467
 2321SOL     OW18598   3.653   0.390  17.288 -0.4270  0.0075 -0.3613
 2321SOL    HW118599   3.725   0.441  17.325 -0.2094 -0.8165  0.3525
 2321SOL    HW218600   3.706   0.335  17.231 -0.8388  1.0318 -1.7316
 2322SOL     OW18601   3.431   2.367   5.760 -0.3132 -0.2190  0.4129
 2322SOL    HW118602   3.437   2.417   5.841  0.0105 -1.9210  1.4330
 2322SOL    HW218603   3.381   2.429   5.707  2.8067  2.2501  0.3599
 2323SOL     OW18604   2.207   0.494   2.371  0.1586 -0.2154 -0.0577
 2323SOL    HW118605   2.223   0.451   2.287 -1.6716  0.7440 -0.8928
 2323SOL    HW218606   2.134   0.449   2.412 -0.0889  1.4954  1.3793
 2324SOL     OW18607   0.629   1.035   4.644  0.2749  0.5727  0.2043
 2324SOL    HW118608   0.624   1.077   4.729 -1.3817  1.4559 -0.3367
 2324SOL    HW218609   0.537   1.028   4.620 -0.3513  0.6394  2.6260
 2325SOL     OW18610   4.433   0.266   4.747 -0.2771 -0.0893 -0.8459
 2325SOL    HW118611   4.423   0.239   4.838 -0.5750  0.3431 -0.7497
 2325SOL    HW218612   4.528   0.271   4.737 -0.1634 -0.9559 -0.1965
 2326SOL     OW18613   4.632   2.191  14.457  0.6322  0.3557  0.6161
 2326SOL    HW118614   4.563   2.135  14.493  1.9656 -0.9209  1.1923
 2326SOL    HW218615   4.641   2.167  14.365 -2.0311  0.2750  0.3800
 2327SOL     OW18616   3.752   3.367   1.684  0.2422 -0.1494  0.1001
 2327SOL    HW118617   3.807   3.289   1.688 -2.4615 -2.0042  1.5234
 2327SOL    HW218618   3.694   3.341   1.756 -0.6598 -1.4249 -1.0925
 2328SOL     OW18619   3.026   1.824   7.599  0.4657 -0.1839  0.1079
 2328SOL    HW118620   3.084   1.818   7.675  0.1789  0.5548  0.3897
 2328SOL    HW218621   2.952   1.769   7.623 -0.1266  0.5734  0.0190
 2329SOL     OW18622   4.568   2.785   8.284  0.2752  0.0455 -0.5340
 2329SOL    HW118623   4.639   2.756   8.341  0.0878 -0.1626 -0.4043
 2329SOL    HW218624   4.492   2.755   8.335  1.3123 -2.8403 -0.6946
 2330SOL     OW18625   1.890   2.353   7.913  0.1936  0.0840 -0.3517
 2330SOL    HW118626   1.837   2.388   7.841  0.6097  2.3652  0.4494
 2330SOL    HW218627   1.956   2.422   7.916 -0.6732  0.8112  1.4789
 2331SOL     OW18628   4.031   2.412  16.738 -0.7212  0.0823 -0.3811
 2331SOL    HW118629   4.106   2.447  16.690 -0.6993  1.6542  0.7922
 2331SOL    HW218630   4.050   2.444  16.826 -0.5399 -0.0719 -0.3650
 2332SOL     OW18631   0.171   1.443   8.656 -0.0101 -0.2595  0.4936
 2332SOL    HW118632   0.188   1.476   8.568 -0.6427  0.0884  0.4975
 2332SOL    HW218633   0.223   1.507   8.704 -1.7153 -0.9088  3.2317
 2333SOL     OW18634   1.167   3.812   2.436 -0.4460 -0.5109  0.4079
 2333SOL    HW118635   1.191   3.833   2.345  0.4260  1.7428  1.1505
 2333SOL    HW218636   1.232   3.857   2.489  1.5682 -1.1340 -1.5189
 2334SOL     OW18637   3.126   4.302  15.345 -0.0671 -0.6401  0.3825
 2334SOL    HW118638   3.103   4.300  15.438 -1.0528  2.4161  0.1928
 2334SOL    HW218639   3.209   4.256  15.340  0.8521  1.1448 -0.5708
 2335SOL     OW18640   2.467   4.314   8.146  0.1799 -0.5075 -0.0261
 2335SOL    HW118641   2.556   4.306   8.180  1.3545  2.0750 -2.4294
 2335SOL    HW218642   2.431   4.389   8.193 -1.4735  0.4840 -2.8807
 2336SOL     OW18643   2.603   1.221   7.891  0.2009 -0.3078  0.3210
 2336SOL    HW118644   2.631   1.310   7.913  0.9648 -0.4868  0.0793
 2336SOL    HW218645   2.676   1.177   7.848 -0.9532 -1.1438 -0.7764
 2337SOL     OW18646   4.060   4.558  16.390  0.4238  0.2169  0.8545
 2337SOL    HW118647   3.979   4.535  16.435 -0.7713  0.4145 -1.2200
 2337SOL    HW218648   4.025   4.597  16.310 -0.8841 -2.0009  0.3464
 2338SOL     OW18649   0.486   2.731   8.928  0.1868  0.4778  0.6060
 2338SOL    HW118650   0.443   2.646   8.934 -0.2289  0.5685 -1.0392
 2338SOL    HW218651   0.462   2.768   8.843  0.9028  0.6534  0.4826
 2339SOL     OW18652   1.474   1.633   0.882 -0.4212 -0.0963  0.4700
 2339SOL    HW118653   1.432   1.571   0.822  0.8743 -1.4544  0.9451
 2339SOL    HW218654   1.560   1.657   0.847 -0.7774 -0.9002 -0.9822
 2340SOL     OW18655   3.906   4.168   5.321 -0.4239 -0.6451 -0.2293
 2340SOL    HW118656   3.920   4.153   5.227 -0.7805 -0.5383 -0.2963
 2340SOL    HW218657   3.985   4.121   5.349  1.1615  1.2663 -1.4433
 2341SOL     OW18658   1.099   1.914   4.116 -0.6062 -0.0275  0.0444
 2341SOL    HW118659   1.053   1.830   4.121 -1.0118  0.3185  2.2087
 2341SOL    HW218660   1.131   1.927   4.205  1.6842  0.4537 -0.8461
 2342SOL     OW18661   2.119   0.767   5.269 -0.2645  0.3304  0.1635
 2342SOL    HW118662   2.039   0.716   5.279  0.7447 -1.1051  0.9790
 2342SOL    HW218663   2.142   0.794   5.358 -1.7772 -0.8138  0.8952
 2343SOL     OW18664   0.977   0.125   6.583  0.4044  0.0744  0.0505
 2343SOL    HW118665   1.014   0.178   6.654  0.8679 -1.2376  0.7867
 2343SOL    HW218666   0.960   0.192   6.517  1.0126  0.0120 -0.1684
 2344SOL     OW18667   2.149   3.909   6.892 -0.1970 -0.3364 -0.8061
 2344SOL    HW118668   2.160   3.823   6.853  2.4799  0.5842 -2.0561
 2344SOL    HW218669   2.080   3.892   6.956 -0.1969 -1.7305 -1.1953
 2345SOL     OW18670   2.545   1.469  17.527 -0.0132  0.0740 -0.0330
 2345SOL    HW118671   2.491   1.472  17.607 -0.5570  0.6455 -0.4225
 2345SOL    HW218672   2.635   1.461  17.559 -0.8948 -3.3962  1.5996
 2346SOL     OW18673   1.811   1.532   5.363 -0.4257  0.5193  0.4507
 2346SOL    HW118674   1.831   1.575   5.279  0.0712  1.0742  0.8468
 2346SOL    HW218675   1.746   1.594   5.395 -0.5516  1.3970 -1.5015
 2347SOL     OW18676   0.340   2.980  12.971 -0.7906 -0.1541  0.0020
 2347SOL    HW118677   0.279   3.019  12.908 -2.4991 -3.0719 -0.1722
 2347SOL    HW218678   0.371   2.900  12.927 -0.9606  0.9725 -2.1714
 2348SOL     OW18679   4.109   2.305   5.634 -0.4882 -0.2669 -0.2993
 2348SOL    HW118680   4.017   2.287   5.651 -0.3707  0.0095  0.6370
 2348SOL    HW218681   4.139   2.265   5.716 -1.1100  1.6430  0.8645
 2349SOL     OW18682   0.799   4.646   9.191 -0.7596 -0.1626  0.1056
 2349SOL    HW118683   0.717   4.615   9.229 -1.4868 -0.9128 -2.0577
 2349SOL    HW218684   0.868   4.621   9.252 -1.6040 -2.0487  0.2832
 2350SOL     OW18685   3.213   4.409   1.475 -0.0388  0.6399 -0.0137
 2350SOL    HW118686   3.159   4.421   1.396  0.1453  0.7734 -0.1173
 2350SOL    HW218687   3.200   4.495   1.514  1.7208  1.4067 -1.1349
 2351SOL     OW18688   0.466   1.727  15.183  0.2252 -0.5909 -0.0091
 2351SOL    HW118689   0.394   1.789  15.198 -0.2911 -1.9017  2.8240
 2351SOL    HW218690   0.436   1.642  15.213  2.0768 -0.8898  0.9691
 2352SOL     OW18691   2.197   0.908   1.473  0.4998  0.3209 -0.6591
 2352SOL    HW118692   2.275   0.963   1.480 -0.3623  1.0828  2.9473
 2352SOL    HW218693   2.137   0.976   1.504  0.1757  0.6938 -2.0956
 2353SOL     OW18694   1.303   0.908   4.086  0.2484 -0.3702  0.2526
 2353SOL    HW118695   1.305   0.978   4.150 -0.1610 -0.1024 -0.0284
 2353SOL    HW218696   1.289   0.833   4.145  1.0987 -1.0975 -0.4683
 2354SOL     OW18697   4.426   2.956   6.781  0.2391  0.2578 -0.3350
 2354SOL    HW118698   4.476   2.874   6.779 -2.7659 -1.6052  0.6637
 2354SOL    HW218699   4.360   2.924   6.843 -0.9262  3.5646  0.0966
 2355SOL     OW18700   2.331   3.974   3.429 -0.1787  0.3101  0.2373
 2355SOL    HW118701   2.259   3.918   3.458 -1.1042  1.5360  0.2938
 2355SOL    HW218702   2.355   3.927   3.349  1.2260  0.1303  0.7534
 2356SOL     OW18703   3.908   2.786   4.228 -0.8224  0.6378 -0.7549
 2356SOL    HW118704   3.922   2.813   4.318 -0.5817  1.0819 -0.9250
 2356SOL    HW218705   3.868   2.700   4.241  0.9124 -0.2408 -1.2225
 2357SOL     OW18706   1.696   4.533   8.414 -0.2181 -0.1850 -0.0603
 2357SOL    HW118707   1.653   4.550   8.330  0.3400  0.8590 -0.1304
 2357SOL    HW218708   1.698   4.623   8.446 -0.1741 -1.0797  2.4670
 2358SOL     OW18709   2.477   1.996   5.658 -0.3162 -0.3709 -0.7558
 2358SOL    HW118710   2.445   1.976   5.570  0.1817 -0.8602 -0.8228
 2358SOL    HW218711   2.445   1.912   5.691  0.0978  1.3379  4.1013
 2359SOL     OW18712   3.954   4.428   4.596  0.1769 -0.1983 -0.1997
 2359SOL    HW118713   3.982   4.421   4.687 -0.9898 -2.7659 -0.0306
 2359SOL    HW218714   3.860   4.416   4.606  0.0295  1.0859 -0.0829
 2360SOL     OW18715   2.324   1.494  15.327 -0.0995  0.5929 -0.5423
 2360SOL    HW118716   2.291   1.484  15.416  1.2482 -1.0944 -0.2325
 2360SOL    HW218717   2.418   1.494  15.346 -0.1801 -1.7911 -0.0597
 2361SOL     OW18718   0.929   3.493   7.314 -0.5480  0.0173  0.2640
 2361SOL    HW118719   0.922   3.437   7.391  1.3003 -0.6272 -0.0361
 2361SOL    HW218720   1.022   3.516   7.319 -0.9034  1.3574  0.7882
 2362SOL     OW18721   0.568   0.234   6.867 -0.0416  0.0343  0.2393
 2362SOL    HW118722   0.474   0.219   6.865 -0.1559  0.8553 -0.2917
 2362SOL    HW218723   0.599   0.190   6.787  0.8717  1.0794  0.0239
 2363SOL     OW18724   1.252   3.840  13.683  0.2616 -0.0735 -0.2773
 2363SOL    HW118725   1.260   3.933  13.706  0.3034 -0.1657  0.0778
 2363SOL    HW218726   1.198   3.847  13.604 -1.3305 -0.1442  0.7995
 2364SOL     OW18727   0.139   1.425   6.676  0.5570 -0.5179 -0.1322
 2364SOL    HW118728   0.168   1.474   6.753 -1.2522 -0.7074  0.6798
 2364SOL    HW218729   0.118   1.338   6.709 -0.8897  0.4206  1.4508
 2365SOL     OW18730   2.032   0.843   8.355  0.2784  0.3249 -0.3681
 2365SOL    HW118731   2.057   0.815   8.443  0.2860  0.4474 -0.3317
 2365SOL    HW218732   2.072   0.929   8.368  0.0425  0.4026 -0.1726
 2366SOL     OW18733   2.517   0.298   7.807  0.3005  0.0652 -0.0217
 2366SOL    HW118734   2.600   0.304   7.760 -0.4374 -0.4168 -1.3786
 2366SOL    HW218735   2.453   0.324   7.741  1.2378 -0.4997 -1.1470
 2367SOL     OW18736   0.611   0.600   0.012  0.3083 -0.4423 -0.0384
 2367SOL    HW118737   0.657   0.531   0.060  0.5511 -0.6823 -0.6224
 2367SOL    HW218738   0.659   0.673   0.050 -1.1092  0.7557 -0.5641
 2368SOL     OW18739   1.503   0.722   5.761  0.2164  0.3229 -0.0600
 2368SOL    HW118740   1.422   0.747   5.716  0.0503  0.8716  0.5401
 2368SOL    HW218741   1.567   0.789   5.735  3.1575 -3.0305 -1.3218
 2369SOL     OW18742   1.500   1.732   5.099 -0.3658 -0.1027  0.2653
 2369SOL    HW118743   1.423   1.718   5.155 -0.2147 -1.5934  0.1201
 2369SOL    HW218744   1.542   1.646   5.111  0.8381  0.5558  0.7043
 2370SOL     OW18745   3.966   0.010   4.443  0.4508  0.0088  0.2605
 2370SOL    HW118746   3.885   4.709   4.483 -0.8327 -0.3057 -2.6000
 2370SOL    HW218747   4.034   4.726   4.510  1.1157  2.1213  0.0067
 2371SOL     OW18748   3.186   2.598   6.779  0.0256 -0.3838 -0.1276
 2371SOL    HW118749   3.125   2.595   6.706  1.8532  2.3912 -1.7678
 2371SOL    HW218750   3.129   2.564   6.848 -1.7751  0.6632 -1.1124
 2372SOL     OW18751   1.101   4.706   9.881 -0.1025  0.5468  0.0473
 2372SOL    HW118752   1.075   4.614   9.887 -1.0565  0.8822  0.8792
 2372SOL    HW218753   1.070   0.017   9.962 -2.4515 -1.5731  0.1846
 2373SOL     OW18754   0.037   3.943   4.769  0.2294  0.2854  0.7451
 2373SOL    HW118755   0.033   3.865   4.824 -0.5606 -0.6829 -0.6747
 2373SOL    HW218756   4.673   3.957   4.749  0.8605  0.7291 -1.8835
 2374SOL     OW18757   2.476   2.554   9.820 -0.3953 -0.7005 -0.3430
 2374SOL    HW118758   2.551   2.591   9.866 -0.7730  1.2582 -1.3205
 2374SOL    HW218759   2.464   2.614   9.746  1.2754 -0.6468 -0.5576
 2375SOL     OW18760   2.453   3.685   0.382 -0.1415 -0.3335  0.4776
 2375SOL    HW118761   2.438   3.774   0.415  0.0868  0.0560 -0.4739
 2375SOL    HW218762   2.370   3.640   0.397 -0.5016  0.0037 -0.4886
 2376SOL     OW18763   3.644   4.114  13.604 -0.1391  0.3896 -0.1768
 2376SOL    HW118764   3.682   4.196  13.572 -1.3417  1.2757  0.6660
 2376SOL    HW218765   3.701   4.093  13.678  1.6681  0.5688 -1.5530
 2377SOL     OW18766   3.784   2.741   8.977  0.3357 -0.2662 -0.6221
 2377SOL    HW118767   3.806   2.827   8.943 -1.8019  0.1937 -0.8389
 2377SOL    HW218768   3.869   2.729   9.020  0.9528 -0.0580 -1.7843
 2378SOL     OW18769   1.838   4.611   5.174 -0.5050  1.3069  0.1563
 2378SOL    HW118770   1.870   4.524   5.199  0.1832  1.2238 -0.9790
 2378SOL    HW218771   1.861   4.623   5.081 -0.0961 -1.4301 -0.1087
 2379SOL     OW18772   3.742   4.578   2.220 -0.5533 -0.5355  0.4383
 2379SOL    HW118773   3.815   4.521   2.196  0.4725 -0.3299  3.0411
 2379SOL    HW218774   3.701   4.525   2.288 -1.2438  0.1288  0.5324
 2380SOL     OW18775   4.446   1.154  16.472 -0.2406 -0.5079  0.2731
 2380SOL    HW118776   4.429   1.067  16.437 -1.1860 -0.5328  0.8037
 2380SOL    HW218777   4.394   1.207  16.411 -0.4115  0.4266  1.2321
 2381SOL     OW18778   2.431   1.190   9.085 -0.1747  0.0083  0.0993
 2381SOL    HW118779   2.355   1.208   9.030 -0.4047 -1.1574  0.0261
 2381SOL    HW218780   2.451   1.097   9.071 -1.2533 -0.3297  0.7489
 2382SOL     OW18781   2.034   3.507  17.499 -0.8983 -0.1846  0.2081
 2382SOL    HW118782   2.119   3.516  17.544  0.4610 -2.2748 -1.9720
 2382SOL    HW218783   2.023   3.600  17.478  0.5062  0.2643  1.4313
 2383SOL     OW18784   2.731   1.165   0.587 -0.2873 -0.6375  0.2438
 2383SOL    HW118785   2.637   1.183   0.590 -0.1856  0.0129 -0.4931
 2383SOL    HW218786   2.742   1.079   0.547 -1.6218 -0.1549 -1.1740
 2384SOL     OW18787   3.496   0.024  12.911 -0.2218 -0.9983  0.3760
 2384SOL    HW118788   3.546   4.707  12.843 -0.8326 -1.0920 -0.0087
 2384SOL    HW218789   3.516   0.116  12.896 -2.0765 -0.9175 -1.4760
 2385SOL     OW18790   0.789   1.738  10.780 -0.6319  0.3014  0.3801
 2385SOL    HW118791   0.791   1.824  10.739  0.7572  0.4256  0.6947
 2385SOL    HW218792   0.782   1.681  10.703 -0.9816  1.8199 -0.7055
 2386SOL     OW18793   2.599   3.074   8.942 -0.1815  0.1573 -0.2135
 2386SOL    HW118794   2.534   3.139   8.965  0.5017  0.6108  0.4389
 2386SOL    HW218795   2.584   3.013   9.015  1.9164  1.2055  1.0869
 2387SOL     OW18796   2.696   3.084   7.823 -0.6135 -0.2990  0.3192
 2387SOL    HW118797   2.606   3.107   7.845 -0.8573 -2.3357  1.4968
 2387SOL    HW218798   2.750   3.121   7.893  0.5927  0.6439 -1.1300
 2388SOL     OW18799   3.181   3.583   1.801 -0.2559  0.5431 -0.6697
 2388SOL    HW118800   3.150   3.566   1.889 -0.9552 -1.9566 -1.4024
 2388SOL    HW218801   3.217   3.497   1.781  0.4350  1.0909 -1.8236
 2389SOL     OW18802   1.950   1.416   9.869 -0.3584  0.1932  0.0516
 2389SOL    HW118803   2.040   1.402   9.837 -0.0211  1.7798  0.3020
 2389SOL    HW218804   1.891   1.377   9.805 -0.5875  2.6990 -1.2895
 2390SOL     OW18805   1.009   2.411   9.115 -0.5226 -0.0208 -1.2949
 2390SOL    HW118806   0.933   2.454   9.153 -0.2258 -0.1425 -0.5548
 2390SOL    HW218807   1.070   2.484   9.107  0.4856 -0.8008 -0.8339
 2391SOL     OW18808   1.848   1.707   6.257 -0.2844 -0.2993 -0.4981
 2391SOL    HW118809   1.836   1.759   6.337  0.5844 -1.3305  0.3103
 2391SOL    HW218810   1.905   1.641   6.297 -1.2785 -2.0069 -1.9307
 2392SOL     OW18811   2.608   4.191   6.613 -0.1223 -0.0077  0.1441
 2392SOL    HW118812   2.648   4.143   6.685 -0.7812 -0.5418  0.1563
 2392SOL    HW218813   2.599   4.124   6.545  3.7583 -1.4381  1.0418
 2393SOL     OW18814   0.749   4.128  17.349  0.3884 -0.6517  0.5390
 2393SOL    HW118815   0.694   4.065  17.303 -0.1336 -1.0637  1.7180
 2393SOL    HW218816   0.793   4.169  17.275 -0.4769 -1.3186 -0.3401
 2394SOL     OW18817   2.952   2.689   2.653 -0.1109  0.3086  0.4558
 2394SOL    HW118818   2.971   2.597   2.675  3.8827  1.0835  0.2047
 2394SOL    HW218819   3.044   2.715   2.659 -1.0282  3.6098 -0.2397
 2395SOL     OW18820   3.159   2.333   5.420  0.0720 -0.4084  0.3311
 2395SOL    HW118821   3.205   2.404   5.466  1.3756 -1.7733  1.1301
 2395SOL    HW218822   3.222   2.307   5.354  2.0384 -0.9669  2.4207
 2396SOL     OW18823   2.026   1.747  10.214 -0.0470 -0.1796  0.3072
 2396SOL    HW118824   2.020   1.652  10.219 -1.4031 -0.1520 -0.8111
 2396SOL    HW218825   2.103   1.759  10.270 -0.7555 -0.7410  1.4002
 2397SOL     OW18826   1.355   1.346   7.064  0.3659 -0.2351  0.1667
 2397SOL    HW118827   1.314   1.289   6.998 -1.4055  1.8311 -0.5200
 2397SOL    HW218828   1.409   1.275   7.100 -0.5912 -0.7544  0.5842
 2398SOL     OW18829   4.186   3.443  11.724  0.1042  0.1346 -0.2752
 2398SOL    HW118830   4.281   3.452  11.717  0.1663 -1.6790 -1.9220
 2398SOL    HW218831   4.174   3.356  11.764 -0.4382 -0.0666 -0.8872
 2399SOL     OW18832   3.107   0.799   5.149  0.6065 -0.2914 -0.4768
 2399SOL    HW118833   3.174   0.742   5.187  0.3379  1.3396  2.4068
 2399SOL    HW218834   3.101   0.868   5.216  0.2256 -0.5014 -0.2930
 2400SOL     OW18835   2.821   1.101   4.483  0.1729 -0.3383  0.1864
 2400SOL    HW118836   2.912   1.125   4.498  0.0080  0.3282  0.1337
 2400SOL    HW218837   2.832   1.032   4.417 -1.8150 -1.2319  0.7723
 2401SOL     OW18838   3.675   0.714   6.450  0.0179 -0.4229  0.2529
 2401SOL    HW118839   3.646   0.659   6.378 -0.8676  0.6225 -0.2062
 2401SOL    HW218840   3.646   0.660   6.523  0.0953 -0.6451  0.1202
 2402SOL     OW18841   4.621   2.894   3.571 -0.4943  0.1162 -0.4648
 2402SOL    HW118842   4.599   2.980   3.605  1.1905 -0.3061  1.6370
 2402SOL    HW218843   4.688   2.871   3.636  0.7878  4.0294 -0.3875
 2403SOL     OW18844   3.008   2.448   6.931 -0.4133  0.4876  0.5146
 2403SOL    HW118845   2.925   2.449   6.882  0.3124 -0.3877 -0.7434
 2403SOL    HW218846   3.003   2.360   6.968  1.9054  0.6206  1.1508
 2404SOL     OW18847   1.928   4.156   4.805 -0.5216 -0.2853  0.4184
 2404SOL    HW118848   1.940   4.065   4.830  1.2468 -0.4371 -0.9935
 2404SOL    HW218849   1.861   4.147   4.737  0.3792  0.8834 -0.6440
 2405SOL     OW18850   1.259   1.424  10.183  0.4149  0.3313 -0.6775
 2405SOL    HW118851   1.271   1.484  10.110  0.3331  0.6213 -0.4499
 2405SOL    HW218852   1.295   1.338  10.159  0.8060 -0.0822  1.3571
 2406SOL     OW18853   1.030   2.647   2.126 -0.1698  0.0080 -0.0939
 2406SOL    HW118854   1.083   2.605   2.058 -1.8435 -0.1097 -1.3171
 2406SOL    HW218855   0.948   2.655   2.078  0.3604  0.2082 -0.9560
 2407SOL     OW18856   3.213   0.529  10.094  0.8196  0.4899 -0.3029
 2407SOL    HW118857   3.123   0.519  10.063  0.9645  0.3765 -0.6901
 2407SOL    HW218858   3.200   0.584  10.171  1.5432  1.0037 -0.5550
 2408SOL     OW18859   0.295   0.973  16.173 -0.2779  0.2768 -0.1477
 2408SOL    HW118860   0.254   0.905  16.226 -1.1204  1.3746  0.6292
 2408SOL    HW218861   0.216   1.020  16.146  0.3076 -0.4704 -3.0953
 2409SOL     OW18862   0.601   1.148   5.781 -0.3841 -0.2488 -0.1190
 2409SOL    HW118863   0.540   1.109   5.843 -2.3270  1.3239 -1.0331
 2409SOL    HW218864   0.615   1.236   5.818 -2.5359  0.5411 -1.2122
 2410SOL     OW18865   4.105   4.226   9.044 -0.2836  0.5933  0.3180
 2410SOL    HW118866   4.153   4.246   9.125 -0.2950  0.0155  0.4663
 2410SOL    HW218867   4.018   4.208   9.080 -0.3353 -1.1554 -0.7023
 2411SOL     OW18868   2.366   1.020   2.581 -0.4220 -0.2228  0.0625
 2411SOL    HW118869   2.368   1.065   2.497  0.6944  2.0895  1.3133
 2411SOL    HW218870   2.285   0.970   2.572  1.2156 -2.9036  0.2100
 2412SOL     OW18871   1.163   1.587   7.776  0.0558  0.6850 -0.2083
 2412SOL    HW118872   1.196   1.663   7.729  1.9817 -0.0277 -0.0211
 2412SOL    HW218873   1.198   1.603   7.863  0.6932 -0.6865 -0.2025
 2413SOL     OW18874   2.751   2.410   1.661 -0.0761 -0.0216 -0.2595
 2413SOL    HW118875   2.803   2.489   1.678  1.0210 -0.6212 -0.8411
 2413SOL    HW218876   2.671   2.428   1.711 -0.7510 -2.2878 -0.5026
 2414SOL     OW18877   2.937   3.822   2.007  0.1034  0.2848 -0.0183
 2414SOL    HW118878   2.908   3.914   2.004  2.4694  1.0245 -0.3692
 2414SOL    HW218879   2.950   3.804   1.914  1.6715 -0.6486  0.3723
 2415SOL     OW18880   2.831   1.102   7.825  0.0283 -0.4200 -0.0903
 2415SOL    HW118881   2.858   1.023   7.779 -0.7951 -0.9974  0.4295
 2415SOL    HW218882   2.889   1.157   7.772 -1.5709  1.7383  0.3914
 2416SOL     OW18883   0.337   2.625  16.783  0.0647  0.5716 -0.1028
 2416SOL    HW118884   0.269   2.659  16.724 -0.4151  1.6090  1.0555
 2416SOL    HW218885   0.323   2.536  16.814  0.9429 -0.4463 -2.6620
 2417SOL     OW18886   2.172   3.369   3.794  0.6468  0.2412  0.1139
 2417SOL    HW118887   2.116   3.293   3.810 -1.5411  1.2123 -3.0134
 2417SOL    HW218888   2.224   3.341   3.719  1.7756 -0.8029  1.2907
 2418SOL     OW18889   3.954   2.620   1.999 -0.2651 -0.1207 -0.3688
 2418SOL    HW118890   4.011   2.581   1.933 -0.9562 -3.0089  0.7794
 2418SOL    HW218891   4.010   2.693   2.025  0.4669 -1.8492  2.7859
 2419SOL     OW18892   2.709   0.597  13.195 -0.1259  0.2806 -0.4740
 2419SOL    HW118893   2.778   0.588  13.129  2.9647 -0.5928  2.9031
 2419SOL    HW218894   2.642   0.640  13.141  0.0936  2.2376  0.7857
 2420SOL     OW18895   0.813   0.843   4.365 -0.0899 -0.2023 -0.0317
 2420SOL    HW118896   0.834   0.936   4.370  0.5960 -0.2790 -1.7320
 2420SOL    HW218897   0.729   0.854   4.321 -0.1316 -0.8531 -0.1187
 2421SOL     OW18898   2.388   0.524   1.478 -0.4919  0.1732  0.0749
 2421SOL    HW118899   2.312   0.477   1.445  0.9142 -0.7382 -1.8479
 2421SOL    HW218900   2.425   0.551   1.395 -0.3377  0.4943  0.2479
 2422SOL     OW18901   1.131   1.746  15.022  0.0072  0.3081  0.3775
 2422SOL    HW118902   1.072   1.821  15.011  0.1547  0.2571 -0.6957
 2422SOL    HW218903   1.115   1.711  15.110  1.3445 -0.9919  0.0943
 2423SOL     OW18904   0.020   4.376   4.498  0.3739  0.6378  0.4259
 2423SOL    HW118905   4.691   4.450   4.516 -0.7783 -0.2037  0.1992
 2423SOL    HW218906   0.046   4.394   4.408 -0.9761 -1.7023 -0.4450
 2424SOL     OW18907   1.274   2.091  16.962 -0.1568  0.9168  0.1220
 2424SOL    HW118908   1.217   2.132  16.897  0.9167  2.2228  0.0180
 2424SOL    HW218909   1.343   2.054  16.907 -2.0727 -3.0987  0.3939
 2425SOL     OW18910   2.040   4.055   0.832  0.4161  0.3763  0.0334
 2425SOL    HW118911   1.955   4.020   0.804  1.2850 -0.8562 -1.0465
 2425SOL    HW218912   2.094   4.037   0.755 -1.7494 -0.8166 -1.2376
 2426SOL     OW18913   3.501   2.181   4.545 -0.4800  0.2783 -0.8535
 2426SOL    HW118914   3.559   2.105   4.548 -1.2222 -0.2798 -0.8163
 2426SOL    HW218915   3.466   2.184   4.634  1.2015 -0.1792 -0.1725
 2427SOL     OW18916   0.625   3.339   2.201 -0.1301 -0.5049 -1.0342
 2427SOL    HW118917   0.604   3.257   2.246 -0.1447 -0.5111 -1.0526
 2427SOL    HW218918   0.689   3.375   2.263 -1.7781  1.1794 -0.2996
 2428SOL     OW18919   4.153   0.204   6.463  0.8998 -0.4220 -0.3071
 2428SOL    HW118920   4.247   0.219   6.455  1.0576 -1.9157 -1.2658
 2428SOL    HW218921   4.126   0.292   6.437  0.1905 -0.7408 -0.6503
 2429SOL     OW18922   2.427   3.166   1.693  0.6845 -0.5081  0.0852
 2429SOL    HW118923   2.431   3.186   1.599 -2.6084  0.6349  0.2060
 2429SOL    HW218924   2.504   3.112   1.711  2.7542  2.3881 -0.1103
 2430SOL     OW18925   4.521   0.185   3.343 -0.0443  0.3958 -0.5804
 2430SOL    HW118926   4.542   0.109   3.397  0.6228  0.9135 -0.1106
 2430SOL    HW218927   4.515   0.252   3.411  0.2308  2.4728 -2.6075
 2431SOL     OW18928   1.276   3.423   0.885  0.5812 -0.9336 -0.1817
 2431SOL    HW118929   1.326   3.423   0.967  1.2428 -0.7586 -0.5801
 2431SOL    HW218930   1.189   3.424   0.923  0.7236  0.4132  0.1035
 2432SOL     OW18931   4.037   2.126  15.600 -0.1413 -0.0167 -0.2059
 2432SOL    HW118932   4.074   2.170  15.676  0.7538 -3.3550  1.2603
 2432SOL    HW218933   4.102   2.070  15.557 -0.8909 -0.3333 -0.9302
 2433SOL     OW18934   0.496   3.474   4.125  0.7019 -0.3559  0.1547
 2433SOL    HW118935   0.556   3.404   4.101  0.4771 -0.8295  0.9848
 2433SOL    HW218936   0.420   3.452   4.070  1.1409 -0.4110 -0.4233
 2434SOL     OW18937   1.931   2.181   9.597  0.1081  0.2639 -0.0988
 2434SOL    HW118938   1.856   2.122   9.599 -0.7739  1.3388 -1.0263
 2434SOL    HW218939   1.891   2.268   9.599  0.9336  0.6472 -0.3456
 2435SOL     OW18940   1.662   0.848  11.429  0.3362  0.7038 -0.0741
 2435SOL    HW118941   1.742   0.891  11.459  1.6152 -0.8192 -1.3018
 2435SOL    HW218942   1.665   0.765  11.477  0.1500  1.2511  0.8646
 2436SOL     OW18943   0.250   4.560   8.975  0.1560 -0.3645 -0.2611
 2436SOL    HW118944   0.295   4.636   8.937 -1.2904  1.5408  1.8154
 2436SOL    HW218945   0.231   4.513   8.894 -2.3283  0.1873 -0.0150
 2437SOL     OW18946   3.306   1.287   3.064  0.4381  0.5997  0.2708
 2437SOL    HW118947   3.397   1.260   3.057  0.3911  0.4076  0.3842
 2437SOL    HW218948   3.302   1.291   3.160  4.2523  1.5515  0.3518
 2438SOL     OW18949   1.854   4.597   0.385  0.0347  0.6104  0.3061
 2438SOL    HW118950   1.901   4.514   0.385  0.0174  0.6080 -0.6857
 2438SOL    HW218951   1.925   4.656   0.359  0.0945  0.4954  0.2128
 2439SOL     OW18952   1.965   1.970   6.585  0.3850 -0.1525 -0.0436
 2439SOL    HW118953   1.997   2.060   6.580  0.6702 -0.1258  2.2484
 2439SOL    HW218954   2.027   1.916   6.536  2.0639 -1.1850  3.2412
 2440SOL     OW18955   3.327   2.163  15.801  0.5018  0.1056  0.0486
 2440SOL    HW118956   3.401   2.132  15.748 -1.7516  0.6725 -3.4616
 2440SOL    HW218957   3.255   2.138  15.743 -1.0548  0.4720  1.8300
 2441SOL     OW18958   1.058   1.452   4.109  0.2139 -0.2093 -0.7134
 2441SOL    HW118959   1.050   1.543   4.139  1.0946  0.2255 -1.7647
 2441SOL    HW218960   1.029   1.405   4.187 -0.8753  0.5950 -0.6360
 2442SOL     OW18961   2.196   4.198  12.566 -0.3557  0.2343  0.4030
 2442SOL    HW118962   2.264   4.135  12.588  0.1136  1.1704  1.5823
 2442SOL    HW218963   2.175   4.236  12.651  0.2731 -1.7144  1.4200
 2443SOL     OW18964   2.843   4.608   2.671 -0.5560 -0.3771 -0.0784
 2443SOL    HW118965   2.929   4.621   2.631 -0.7578  1.2669  0.0532
 2443SOL    HW218966   2.792   4.590   2.592  2.5245 -0.8949 -1.9407
 2444SOL     OW18967   3.351   1.621   4.337 -0.0433  0.3608 -0.5335
 2444SOL    HW118968   3.328   1.568   4.261  2.9225  0.0593 -1.2302
 2444SOL    HW218969   3.281   1.597   4.398  0.9107 -0.7834  0.0918
 2445SOL     OW18970   0.151   4.128   9.481 -0.1795 -0.2236  0.6181
 2445SOL    HW118971   0.167   4.221   9.463  2.8344 -0.7881  0.3219
 2445SOL    HW218972   0.233   4.110   9.528 -1.9894 -0.7425  3.5696
 2446SOL     OW18973   3.290   2.539   4.086 -0.0976  0.2205 -0.2278
 2446SOL    HW118974   3.216   2.588   4.049  1.2021  2.8549  0.6306
 2446SOL    HW218975   3.282   2.552   4.181  0.8292 -0.1520 -0.0989
 2447SOL     OW18976   2.926   0.337   9.290 -0.1467 -0.0465  0.1255
 2447SOL    HW118977   2.961   0.261   9.243 -1.3766 -0.4733 -0.1050
 2447SOL    HW218978   2.945   0.404   9.224  2.4613 -1.4863 -0.5717
 2448SOL     OW18979   4.524   1.355  15.702  0.3782 -0.4409 -0.4047
 2448SOL    HW118980   4.523   1.283  15.639 -1.8802  0.4883 -1.4320
 2448SOL    HW218981   4.618   1.347  15.720  0.5234  0.4560 -0.7502
 2449SOL     OW18982   3.307   2.906  13.829 -0.5112 -0.1910  0.8245
 2449SOL    HW118983   3.362   2.867  13.898  0.5090 -2.5828 -1.3190
 2449SOL    HW218984   3.345   2.994  13.834  4.2678 -2.1334 -0.6374
 2450SOL     OW18985   0.462   0.662  13.397  0.6045  0.1484  0.0138
 2450SOL    HW118986   0.466   0.753  13.425  0.4971  0.0374  0.3953
 2450SOL    HW218987   0.412   0.669  13.315  3.6066 -3.5729 -2.1654
 2451SOL     OW18988   3.404   0.982   8.502 -0.6222  0.0837  0.3676
 2451SOL    HW118989   3.466   0.918   8.538  0.5280 -0.5808 -2.7464
 2451SOL    HW218990   3.381   1.039   8.575  0.4048  0.2600  0.5469
 2452SOL     OW18991   4.408   4.083  15.592 -0.1872 -0.3551 -0.1490
 2452SOL    HW118992   4.369   4.141  15.657 -1.8649 -0.1206 -1.3826
 2452SOL    HW218993   4.356   4.106  15.515  0.4147 -0.4380 -0.5842
 2453SOL     OW18994   2.093   0.140   4.763 -0.4919 -0.0709 -0.4823
 2453SOL    HW118995   2.023   0.185   4.715 -0.2990 -1.3596 -1.9506
 2453SOL    HW218996   2.055   0.053   4.777 -0.2269 -0.1831 -0.4599
 2454SOL     OW18997   1.011   3.335   6.538 -0.3778 -0.0625 -0.2925
 2454SOL    HW118998   0.998   3.385   6.618 -0.2730  1.0046 -0.9475
 2454SOL    HW218999   1.104   3.316   6.553 -0.1464  2.2581  1.1415
 2455SOL     OW19000   1.609   3.764  10.198  0.3240 -0.2323  0.0399
 2455SOL    HW119001   1.632   3.856  10.211 -0.3955  0.3495 -2.8561
 2455SOL    HW219002   1.690   3.719  10.219  1.8206  2.7412  0.6459
 2456SOL     OW19003   0.521   3.417   7.933  0.2210 -0.2401 -0.6628
 2456SOL    HW119004   0.570   3.350   7.887  2.1054  0.9804 -0.4189
 2456SOL    HW219005   0.429   3.401   7.912  0.4530 -1.2897 -0.8375
 2457SOL     OW19006   2.151   0.882   5.541  0.2486  0.1806  0.7595
 2457SOL    HW119007   2.188   0.970   5.540  2.4022 -0.7514 -0.4399
 2457SOL    HW219008   2.065   0.897   5.580 -0.4725 -2.0776  0.0186
 2458SOL     OW19009   2.427   3.423  13.297 -0.1397  0.5261  0.3555
 2458SOL    HW119010   2.511   3.461  13.323 -0.9464  1.3900  1.7113
 2458SOL    HW219011   2.453   3.331  13.302 -0.8152  0.4622  2.7101
 2459SOL     OW19012   1.473   2.320   9.536 -0.1163  0.2574  0.3033
 2459SOL    HW119013   1.546   2.375   9.563 -1.1800  1.4087  0.8534
 2459SOL    HW219014   1.426   2.380   9.478  2.3773  2.8762  0.9910
 2460SOL     OW19015   1.163   4.339   2.915 -0.3049 -0.0893 -0.6328
 2460SOL    HW119016   1.214   4.260   2.934  0.6553  0.0079 -2.7015
 2460SOL    HW219017   1.195   4.397   2.984 -1.3939 -0.6627  0.3459
 2461SOL     OW19018   3.487   4.274   8.055 -0.1487  0.1170 -0.9806
 2461SOL    HW119019   3.549   4.244   8.121 -0.8191 -0.1060 -0.4491
 2461SOL    HW219020   3.405   4.234   8.085  1.7421 -1.8147  1.5994
 2462SOL     OW19021   4.286   4.204  15.405  0.0925 -0.4059 -0.5809
 2462SOL    HW119022   4.232   4.273  15.367  1.2569  0.4362 -0.6670
 2462SOL    HW219023   4.360   4.262  15.419  0.9454 -1.7115  0.4155
 2463SOL     OW19024   1.092   1.275   3.275  0.5708 -0.2447  0.1903
 2463SOL    HW119025   1.111   1.263   3.368 -2.3865 -1.3240  0.6417
 2463SOL    HW219026   1.150   1.346   3.247 -1.3760  0.9799 -0.8074
 2464SOL     OW19027   4.543   3.995   2.577 -0.5461  0.6737  0.1275
 2464SOL    HW119028   4.470   3.999   2.638  0.0805  1.3464  0.8196
 2464SOL    HW219029   4.610   3.960   2.635 -3.7423 -2.5196  1.8749
 2465SOL     OW19030   2.422   1.185   1.039 -0.1309 -0.0025 -0.0479
 2465SOL    HW119031   2.326   1.181   1.046 -0.0154 -1.8394  0.4990
 2465SOL    HW219032   2.437   1.150   1.127 -0.3567  0.2188  0.0792
 2466SOL     OW19033   3.140   3.470  12.238 -0.1978  0.5336  0.5776
 2466SOL    HW119034   3.131   3.393  12.183  2.0792 -0.7160  1.9965
 2466SOL    HW219035   3.139   3.538  12.171  0.3883  0.7843  0.8271
 2467SOL     OW19036   2.606   0.790   3.696  0.0655  0.0311 -0.4053
 2467SOL    HW119037   2.572   0.737   3.768  2.4471 -0.3722  0.4359
 2467SOL    HW219038   2.637   0.720   3.637  0.1755 -2.4440  2.5919
 2468SOL     OW19039   1.060   2.915  17.253 -0.5501 -0.1434 -0.2236
 2468SOL    HW119040   1.078   2.978  17.183  1.0109  0.9759  1.1802
 2468SOL    HW219041   1.058   2.834  17.204 -0.4281 -0.1854 -0.1584
 2469SOL     OW19042   4.311   1.788   0.582 -0.0133 -0.5382  0.2191
 2469SOL    HW119043   4.356   1.847   0.521 -1.5689  0.3499 -0.0561
 2469SOL    HW219044   4.383   1.731   0.610  0.5890 -0.8238 -1.8548
 2470SOL     OW19045   2.233   0.436   6.353  0.4685 -0.4633  0.5203
 2470SOL    HW119046   2.318   0.479   6.358  0.0357  0.5512 -0.9302
 2470SOL    HW219047   2.191   0.465   6.273 -0.0586 -1.7715  0.3308
 2471SOL     OW19048   4.174   0.089   2.142 -0.0943  0.6677  0.3400
 2471SOL    HW119049   4.177   0.138   2.060  2.8092  0.4673  0.3062
 2471SOL    HW219050   4.103   0.025   2.130  1.4976 -1.1055  0.2948
 2472SOL     OW19051   2.636   0.652  12.151  0.1219 -0.0878 -0.3974
 2472SOL    HW119052   2.580   0.722  12.117 -0.9261 -0.3892  0.7154
 2472SOL    HW219053   2.632   0.588  12.080  2.0247 -1.1861  0.4790
 2473SOL     OW19054   0.335   0.183   7.518  0.3342  0.1345  0.6468
 2473SOL    HW119055   0.382   0.107   7.483  0.2356  0.2407  0.2781
 2473SOL    HW219056   0.251   0.167   7.473  0.7936 -2.9980  0.9540
 2474SOL     OW19057   2.026   0.468   7.050  0.1517 -0.4434 -0.4784
 2474SOL    HW119058   2.063   0.555   7.039 -1.0435  0.2568  1.1970
 2474SOL    HW219059   2.072   0.414   6.986  2.4638  1.4346 -0.3754
 2475SOL     OW19060   3.455   0.299   5.775  0.1593 -0.3348  0.2530
 2475SOL    HW119061   3.427   0.216   5.813  2.2695 -0.7852  0.8376
 2475SOL    HW219062   3.467   0.267   5.685  0.7464 -0.2510  0.3018
 2476SOL     OW19063   4.678   3.666  11.209 -0.1670  0.1646  0.5742
 2476SOL    HW119064   4.615   3.677  11.280 -0.0343  1.3249  0.5069
 2476SOL    HW219065   4.725   3.585  11.230 -0.4823  0.2823  1.7418
 2477SOL     OW19066   3.379   3.142  10.171  0.0662  0.2222 -0.2284
 2477SOL    HW119067   3.435   3.202  10.219 -0.6032  0.7578 -0.1203
 2477SOL    HW219068   3.436   3.087  10.117  2.1109  0.4836  1.6961
 2478SOL     OW19069   2.131   4.188   7.776 -0.2298  0.3982 -0.0606
 2478SOL    HW119070   2.209   4.177   7.830 -1.1604 -0.2242  1.1783
 2478SOL    HW219071   2.076   4.247   7.829  1.3648  0.0600  1.9826
 2479SOL     OW19072   0.929   1.201   2.156 -0.0797  0.8656  0.6408
 2479SOL    HW119073   0.915   1.228   2.065 -0.3376 -2.2444 -0.2308
 2479SOL    HW219074   0.975   1.118   2.140  1.0560  0.9167  3.6548
 2480SOL     OW19075   0.347   4.408   8.690 -0.5491  0.2665  0.3717
 2480SOL    HW119076   0.341   4.394   8.596  2.6285 -0.2180  0.2323
 2480SOL    HW219077   0.255   4.423   8.713 -0.9057 -2.6749  0.7965
 2481SOL     OW19078   0.445   3.073   7.988 -0.7536 -0.3601 -0.2116
 2481SOL    HW119079   0.508   3.059   7.918  0.2550  1.5994  0.3067
 2481SOL    HW219080   0.399   3.150   7.954 -2.6306 -1.1918  0.4056
 2482SOL     OW19081   1.306   2.897   5.732 -1.1971 -0.1771 -0.4245
 2482SOL    HW119082   1.388   2.945   5.724 -1.2769  0.3612  2.1055
 2482SOL    HW219083   1.335   2.809   5.757 -3.1139 -1.0315 -1.1972
 2483SOL     OW19084   4.245   0.813   0.849  0.1968  0.3099  0.4206
 2483SOL    HW119085   4.338   0.791   0.856  0.3450  1.5228  2.2222
 2483SOL    HW219086   4.245   0.908   0.858  0.2957  0.3478 -0.0158
 2484SOL     OW19087   1.763   1.322  11.368 -0.0205 -0.4961  0.4024
 2484SOL    HW119088   1.825   1.391  11.390 -1.4768  1.2109 -0.8784
 2484SOL    HW219089   1.711   1.363  11.299  0.2706 -2.0430 -0.7421
 2485SOL     OW19090   0.585   3.841  10.565 -0.5677 -0.0852 -0.1482
 2485SOL    HW119091   0.645   3.915  10.572 -0.1031 -0.5593  0.9984
 2485SOL    HW219092   0.593   3.814  10.474 -2.9144  2.8314 -1.2035
 2486SOL     OW19093   3.162   2.253   0.393  0.4990  0.0645 -0.3497
 2486SOL    HW119094   3.110   2.179   0.362  0.2245 -0.4544  1.3655
 2486SOL    HW219095   3.233   2.195   0.420  1.6824  1.3375 -0.7281
 2487SOL     OW19096   2.120   1.220   3.640 -0.2146  0.2325  0.3478
 2487SOL    HW119097   2.075   1.151   3.688  0.8852 -0.4177  0.4378
 2487SOL    HW219098   2.056   1.286   3.613 -1.0654 -1.0740 -0.8271
 2488SOL     OW19099   1.664   4.105  16.665 -0.2438  0.0428  0.0111
 2488SOL    HW119100   1.697   4.176  16.721 -1.3704  2.7285 -2.7330
 2488SOL    HW219101   1.739   4.112  16.605  0.9479  1.3530  1.6528
 2489SOL     OW19102   1.398   4.348   2.712 -0.5026 -0.1537  0.1559
 2489SOL    HW119103   1.328   4.343   2.777 -0.5384  2.7075  0.3207
 2489SOL    HW219104   1.345   4.387   2.642  1.2686  0.1511 -1.0228
 2490SOL     OW19105   4.292   2.376   4.878 -0.0971 -0.0686  0.1111
 2490SOL    HW119106   4.253   2.454   4.918 -0.0761 -1.4244  2.7794
 2490SOL    HW219107   4.355   2.412   4.816  2.4268 -1.4386  1.8337
 2491SOL     OW19108   0.723   2.739   3.569  0.1173 -0.1221  0.1153
 2491SOL    HW119109   0.804   2.741   3.619  0.8994 -1.4902 -1.0991
 2491SOL    HW219110   0.750   2.800   3.500  0.7787  1.6297  1.9344
 2492SOL     OW19111   4.506   0.759   0.909  0.2696 -0.1381  0.3829
 2492SOL    HW119112   4.476   0.756   1.000 -0.2834 -0.8261  0.1742
 2492SOL    HW219113   4.587   0.714   0.930  0.5754 -0.1583 -0.8169
 2493SOL     OW19114   3.243   4.072   4.549  0.3513  0.5698  0.5498
 2493SOL    HW119115   3.170   4.094   4.606 -1.8487 -0.0932 -2.0235
 2493SOL    HW219116   3.198   4.014   4.488  2.1628 -0.6557  0.3839
 2494SOL     OW19117   2.783   4.413  16.786 -0.5169 -0.1078  0.0216
 2494SOL    HW119118   2.749   4.325  16.769  0.5573 -0.8685  1.7693
 2494SOL    HW219119   2.818   4.439  16.700 -0.0480 -0.1552  0.1993
 2495SOL     OW19120   2.762   4.285  17.261  0.1303 -0.1496  0.2455
 2495SOL    HW119121   2.827   4.354  17.254 -1.0177  0.9763  0.7675
 2495SOL    HW219122   2.812   4.236  17.327 -2.2465 -2.8026  0.0929
 2496SOL     OW19123   4.601   3.081   9.146 -0.0573 -0.1538  0.2600
 2496SOL    HW119124   4.569   3.017   9.208  0.0411 -1.6932 -1.2825
 2496SOL    HW219125   4.690   3.102   9.175  0.5564 -1.4849 -0.6601
 2497SOL     OW19126   1.794   3.109   1.732  0.3408  0.1571 -0.3675
 2497SOL    HW119127   1.766   3.138   1.819  2.3003  1.2120 -0.0986
 2497SOL    HW219128   1.797   3.193   1.686 -0.7171  0.1534 -0.4425
 2498SOL     OW19129   2.352   4.607   9.976  0.1931  0.0594  0.3575
 2498SOL    HW119130   2.381   4.526   9.933  0.0852  0.2474 -0.0714
 2498SOL    HW219131   2.410   4.597  10.051  0.0132 -0.8684  0.3775
 2499SOL     OW19132   1.830   2.614   4.967  0.2893 -0.6298 -0.5291
 2499SOL    HW119133   1.839   2.531   5.014  1.3628 -1.2248 -1.7960
 2499SOL    HW219134   1.822   2.577   4.879 -1.8879  2.3432 -1.5563
 2500SOL     OW19135   2.628   4.035   8.592 -0.3851 -0.1143  0.5669
 2500SOL    HW119136   2.588   4.122   8.584 -0.4871 -0.1197  1.0210
 2500SOL    HW219137   2.614   4.003   8.681 -0.8967 -0.7116  0.2753
 2501SOL     OW19138   0.633   3.855  14.312  0.5537  0.0065 -0.0110
 2501SOL    HW119139   0.700   3.923  14.300 -0.8936  1.6450  1.0937
 2501SOL    HW219140   0.576   3.889  14.382  0.4833 -0.9888  0.4065
 2502SOL     OW19141   3.523   1.990   6.145  0.2519 -0.2080  0.0121
 2502SOL    HW119142   3.512   2.085   6.137  0.7571  0.0457  2.5312
 2502SOL    HW219143   3.576   1.983   6.065  1.6021  0.8531  0.8133
 2503SOL     OW19144   3.143   4.126   2.247  0.2052 -0.3543  0.1345
 2503SOL    HW119145   3.115   4.214   2.223  0.3303 -0.8348 -1.8009
 2503SOL    HW219146   3.149   4.129   2.342  1.0243  1.1216  0.0421
 2504SOL     OW19147   3.064   2.458   8.996  0.0376 -0.4123 -0.6397
 2504SOL    HW119148   3.085   2.510   9.074 -0.2141  0.3307 -1.0704
 2504SOL    HW219149   2.987   2.510   8.976 -0.1049 -0.7107 -0.8553
 2505SOL     OW19150   3.372   0.039   4.993 -0.0972 -0.8930 -0.2325
 2505SOL    HW119151   3.423   0.015   4.916  0.0854  0.3760 -0.5029
 2505SOL    HW219152   3.388   0.131   5.014  2.8496 -1.7940  1.6366
 2506SOL     OW19153   0.220   2.091  13.420  0.3513 -0.3416 -0.3072
 2506SOL    HW119154   0.287   2.127  13.478  1.5162 -0.6352 -1.4746
 2506SOL    HW219155   0.140   2.137  13.443  1.0754  0.7393  0.0436
 2507SOL     OW19156   4.265   2.982   8.293  0.4217  0.1677 -0.2628
 2507SOL    HW119157   4.199   3.025   8.238  0.5322  0.9560  0.2183
 2507SOL    HW219158   4.345   2.981   8.241  0.5687 -0.2943 -0.0218
 2508SOL     OW19159   2.110   1.588  12.572  0.4468 -0.7524 -0.0679
 2508SOL    HW119160   2.128   1.500  12.605  2.4525 -0.3195 -0.0236
 2508SOL    HW219161   2.107   1.574  12.478  0.1441 -0.4140 -0.1098
 2509SOL     OW19162   4.601   0.816   8.449 -0.1188  0.4582  0.1937
 2509SOL    HW119163   4.600   0.861   8.364 -3.2902 -2.3342 -1.2335
 2509SOL    HW219164   4.511   0.782   8.449 -0.5342  1.5122 -1.7200
 2510SOL     OW19165   3.770   3.826   2.492 -0.5348 -0.1428  0.0763
 2510SOL    HW119166   3.708   3.859   2.426 -1.8246 -0.8677  0.9127
 2510SOL    HW219167   3.718   3.813   2.571  0.4632  1.2819  0.9657
 2511SOL     OW19168   2.401   2.989   2.242  0.5780 -0.5698  0.4068
 2511SOL    HW119169   2.384   2.928   2.313  0.4080 -0.9839  0.0092
 2511SOL    HW219170   2.495   3.001   2.235  0.3619 -0.2711 -2.0016
 2512SOL     OW19171   3.292   0.936   2.677 -0.3787 -0.1221 -0.1949
 2512SOL    HW119172   3.387   0.949   2.684 -0.7297  2.0790  0.6774
 2512SOL    HW219173   3.257   0.951   2.765  1.0034 -1.9325  0.6691
 2513SOL     OW19174   3.494   1.755   8.681 -0.2171  0.3013  0.0171
 2513SOL    HW119175   3.563   1.821   8.682 -1.7957  1.9517  0.8698
 2513SOL    HW219176   3.509   1.729   8.590  1.5719  1.0760  0.0888
 2514SOL     OW19177   0.981   2.488  14.233 -0.4760  0.0301  0.4372
 2514SOL    HW119178   0.969   2.512  14.325 -0.4438 -0.5026  0.5801
 2514SOL    HW219179   1.062   2.438  14.242 -0.8754 -0.5977  0.5096
 2515SOL     OW19180   2.561   3.311   3.392 -0.3858 -0.2783 -0.1821
 2515SOL    HW119181   2.625   3.292   3.461 -1.1223  0.3441  0.6673
 2515SOL    HW219182   2.523   3.224   3.397 -2.0082  0.5111  1.3270
 2516SOL     OW19183   1.530   0.136   7.168 -0.1388  0.0349  0.0433
 2516SOL    HW119184   1.581   0.056   7.181  0.3992  0.2674 -0.7092
 2516SOL    HW219185   1.580   0.197   7.222  1.4795 -0.8040 -0.4872
 2517SOL     OW19186   0.432   4.694  13.281 -0.0141  0.4751 -0.0057
 2517SOL    HW119187   0.411   0.044  13.233  1.0857  0.5776 -0.3176
 2517SOL    HW219188   0.519   4.701  13.321  0.4245 -1.0162 -0.6899
 2518SOL     OW19189   4.688   4.429   3.330  0.7509  0.0590  0.3638
 2518SOL    HW119190   0.011   4.394   3.402  1.7352 -0.4393 -0.5950
 2518SOL    HW219191   4.614   4.478   3.367  1.0848  1.2736 -0.5951
 2519SOL     OW19192   0.844   2.968   5.335 -0.1623  0.2503  0.1045
 2519SOL    HW119193   0.911   3.026   5.300  0.3877 -1.1508 -1.1891
 2519SOL    HW219194   0.865   2.964   5.428 -1.2333 -1.1958  0.2935
 2520SOL     OW19195   2.232   4.005   5.576 -0.1722 -0.0084 -0.2716
 2520SOL    HW119196   2.284   4.032   5.500 -1.5822 -0.1549 -1.2972
 2520SOL    HW219197   2.142   4.024   5.548 -1.3192 -2.6309  1.6172
 2521SOL     OW19198   3.905   2.643   3.966  0.5858 -0.0990 -0.0834
 2521SOL    HW119199   3.810   2.651   3.959  0.5962 -0.9985 -1.2440
 2521SOL    HW219200   3.917   2.707   4.036 -1.0221 -1.2944  1.2990
 2522SOL     OW19201   2.172   2.510   4.399 -0.1885  0.0186 -0.0560
 2522SOL    HW119202   2.116   2.432   4.396 -0.4776  0.2751 -1.3706
 2522SOL    HW219203   2.160   2.541   4.310 -0.7428 -1.7623 -0.6044
 2523SOL     OW19204   1.630   2.182   6.117  0.0529 -0.2933 -0.1893
 2523SOL    HW119205   1.662   2.173   6.207  1.6524 -1.7364 -0.9072
 2523SOL    HW219206   1.685   2.253   6.084  1.5501 -0.8042  1.1851
 2524SOL     OW19207   1.219   1.704   7.149  0.2292 -0.3369 -0.3600
 2524SOL    HW119208   1.314   1.701   7.138 -0.1826  1.1182 -4.1150
 2524SOL    HW219209   1.204   1.618   7.188  0.7622  0.5702  1.8217
 2525SOL     OW19210   4.279   1.881  16.803 -0.5915 -0.2804 -0.3837
 2525SOL    HW119211   4.285   1.818  16.731 -1.3651  0.3660 -1.0115
 2525SOL    HW219212   4.271   1.813  16.869  0.0029  2.0080  2.0438
 2526SOL     OW19213   0.485   1.822   9.381  0.0353 -0.4721  0.6782
 2526SOL    HW119214   0.464   1.774   9.301  0.0798 -2.5338  1.9003
 2526SOL    HW219215   0.556   1.879   9.353 -1.7991  0.5714 -1.8616
 2527SOL     OW19216   0.298   3.223   4.038  0.0008  0.4132 -0.4755
 2527SOL    HW119217   0.258   3.280   4.104  0.6509  0.8978 -0.5039
 2527SOL    HW219218   0.279   3.136   4.073  0.1383  0.8850  0.7961
 2528SOL     OW19219   2.505   0.931   8.993  0.2376  0.7671 -0.3049
 2528SOL    HW119220   2.443   0.869   9.033  2.2283 -0.4337  0.9503
 2528SOL    HW219221   2.461   0.941   8.909 -0.9769 -0.2558  0.2010
 2529SOL     OW19222   1.614   4.225  17.227  0.8016 -0.1424  0.0849
 2529SOL    HW119223   1.525   4.192  17.210 -0.0128  2.5303 -0.8322
 2529SOL    HW219224   1.606   4.311  17.269 -0.1500 -0.2343  0.0968
 2530SOL     OW19225   4.678   1.965  10.820  0.7243 -0.1010  0.3147
 2530SOL    HW119226   4.652   1.878  10.792  1.6110  0.0276 -0.9588
 2530SOL    HW219227   4.724   1.943  10.901 -0.4860 -0.9528  0.7628
 2531SOL     OW19228   3.029   0.406   7.750  0.0997  0.5978 -0.1267
 2531SOL    HW119229   3.108   0.386   7.800  1.0094  0.5210 -1.5956
 2531SOL    HW219230   3.061   0.443   7.668 -2.1578  1.0037 -0.8290
 2532SOL     OW19231   2.885   0.970   3.805  0.3707 -0.0331 -0.6881
 2532SOL    HW119232   2.889   0.986   3.899 -0.5727 -2.0106 -0.3156
 2532SOL    HW219233   2.791   0.974   3.793 -0.1798 -0.4456  3.4560
 2533SOL     OW19234   1.294   2.579  14.106 -0.4838 -0.4297 -0.1117
 2533SOL    HW119235   1.367   2.530  14.068  1.4946  2.0055  0.5574
 2533SOL    HW219236   1.244   2.505  14.140 -1.8215 -0.2036 -1.6043
 2534SOL     OW19237   4.342   2.452   5.502 -0.2511  0.3592  0.1662
 2534SOL    HW119238   4.280   2.403   5.555 -0.7022  1.9830  1.1404
 2534SOL    HW219239   4.404   2.383   5.478 -1.2510 -0.3074 -0.4553
 2535SOL     OW19240   1.163   2.650   0.237 -0.6247 -0.1536 -0.2590
 2535SOL    HW119241   1.235   2.660   0.174 -0.4902  0.2865 -0.0306
 2535SOL    HW219242   1.088   2.628   0.183 -0.6408  1.9552 -1.1015
 2536SOL     OW19243   3.793   1.453   2.909  0.0393  0.2372  0.0058
 2536SOL    HW119244   3.749   1.442   2.825  0.5886 -4.3327  0.3383
 2536SOL    HW219245   3.888   1.456   2.893 -0.2785 -0.4621 -1.9732
 2537SOL     OW19246   1.537   4.413  10.144 -0.1313  0.5148  0.0561
 2537SOL    HW119247   1.469   4.360  10.186  0.1175  0.8208  0.8305
 2537SOL    HW219248   1.514   4.501  10.174 -1.3600 -0.6317  2.5129
 2538SOL     OW19249   3.627   2.735  14.254  0.6926 -0.1765 -0.0746
 2538SOL    HW119250   3.594   2.650  14.283  0.2723 -0.0772 -0.2621
 2538SOL    HW219251   3.649   2.791  14.328  0.2619  0.1923 -0.2246
 2539SOL     OW19252   1.541   2.368   6.320 -0.3456 -0.3103 -0.0607
 2539SOL    HW119253   1.552   2.280   6.283 -0.6592 -0.8479  1.1291
 2539SOL    HW219254   1.577   2.415   6.245 -4.1326  1.5690 -0.7118
 2540SOL     OW19255   1.856   0.869   0.415 -0.0021  0.0865  0.1937
 2540SOL    HW119256   1.926   0.934   0.429 -0.5578  0.9689 -1.1138
 2540SOL    HW219257   1.814   0.922   0.347 -1.3183 -0.2254  0.7712
 2541SOL     OW19258   3.262   0.690   7.513  0.0348  0.0445  0.4324
 2541SOL    HW119259   3.276   0.597   7.531  1.3871  0.7823  3.1487
 2541SOL    HW219260   3.216   0.725   7.589 -1.3336 -1.1285  0.1421
 2542SOL     OW19261   2.905   3.017  11.543  0.4076  0.0705  0.2984
 2542SOL    HW119262   2.934   2.941  11.492  0.3421  1.1752 -1.3744
 2542SOL    HW219263   2.910   3.085  11.475  1.5037 -0.3910 -0.0990
 2543SOL     OW19264   1.325   0.423  17.666 -0.4800  0.5912 -0.6693
 2543SOL    HW119265   1.237   0.388  17.652 -0.2064 -0.9166  1.3800
 2543SOL    HW219266   1.355   0.369   0.022 -2.7773  1.8230  1.1595
 2544SOL     OW19267   0.293   3.790   9.862 -0.4516 -0.2382  0.0783
 2544SOL    HW119268   0.199   3.772   9.865 -0.7308  1.1168 -0.6499
 2544SOL    HW219269   0.319   3.753   9.777  1.7411  0.2890  0.5141
 2545SOL     OW19270   0.785   2.931   2.433 -0.1552  0.4750  0.3053
 2545SOL    HW119271   0.817   2.913   2.521 -0.5213  0.6962  0.4817
 2545SOL    HW219272   0.747   2.849   2.400 -1.0935 -0.0045  2.6442
 2546SOL     OW19273   2.377   3.287   5.301  0.2317 -0.2610 -0.1659
 2546SOL    HW119274   2.350   3.309   5.211 -0.9072  1.6757  0.6395
 2546SOL    HW219275   2.406   3.373   5.333 -0.5945  1.0011 -2.7807
 2547SOL     OW19276   1.364   4.726   5.770  0.6069 -0.6337  0.2068
 2547SOL    HW119277   1.315   0.032   5.845  0.0477 -0.3640 -0.2796
 2547SOL    HW219278   1.435   0.061   5.761  1.1140 -1.0593  1.2262
 2548SOL     OW19279   3.593   0.841   8.638 -0.4194 -0.0489 -0.1889
 2548SOL    HW119280   3.679   0.882   8.648 -0.1065 -0.1235 -2.7267
 2548SOL    HW219281   3.626   0.755   8.611  1.1977  0.6272 -0.3939
 2549SOL     OW19282   1.664   3.967   6.506 -0.4629  0.1686  0.2042
 2549SOL    HW119283   1.636   4.053   6.538 -0.2481 -0.8474  3.0490
 2549SOL    HW219284   1.607   3.906   6.551 -1.1654 -0.0372 -0.9637
 2550SOL     OW19285   4.421   3.011   8.959  0.3285 -0.4580 -0.1936
 2550SOL    HW119286   4.496   3.040   9.010  0.9368  1.5645 -2.2066
 2550SOL    HW219287   4.360   2.981   9.026 -1.4939  0.6577 -1.3400
 2551SOL     OW19288   3.479   2.494   9.460  0.0533 -0.0229 -0.8700
 2551SOL    HW119289   3.465   2.420   9.519  1.7238 -1.1488 -1.8730
 2551SOL    HW219290   3.443   2.449   9.383  0.2295 -0.5220 -0.6613
 2552SOL     OW19291   0.210   3.242   2.300 -0.1573 -0.5751 -0.3960
 2552SOL    HW119292   0.133   3.212   2.350  1.2270 -1.8965  0.9330
 2552SOL    HW219293   0.211   3.334   2.328 -1.0496 -0.2929 -1.3154
 2553SOL     OW19294   3.586   4.544  16.530  0.3056 -0.0276 -0.0850
 2553SOL    HW119295   3.494   4.553  16.555  0.1776 -0.8007 -0.2563
 2553SOL    HW219296   3.617   4.484  16.598 -1.0537  0.8943  1.3381
 2554SOL     OW19297   0.924   2.559   2.668  0.0175 -0.4400 -0.1148
 2554SOL    HW119298   0.912   2.641   2.715 -3.6910 -0.4688 -0.9929
 2554SOL    HW219299   1.013   2.567   2.633  0.5403  0.6584  1.4676
 2555SOL     OW19300   4.085   0.195  11.721  0.2398  0.0745 -0.1630
 2555SOL    HW119301   4.144   0.130  11.758 -1.1675  0.2208  2.3760
 2555SOL    HW219302   4.073   0.254  11.795 -0.0174 -1.6599  1.1940
 2556SOL     OW19303   3.667   4.219   8.286 -0.6161 -0.0960  0.0823
 2556SOL    HW119304   3.730   4.148   8.302 -0.1872  0.3874  0.5667
 2556SOL    HW219305   3.723   4.297   8.286 -1.6364  0.6325  0.8745
 2557SOL     OW19306   3.764   2.408  16.112 -0.3412 -0.1991 -0.6119
 2557SOL    HW119307   3.800   2.331  16.156 -2.7716 -1.9157 -1.6435
 2557SOL    HW219308   3.840   2.466  16.117  0.6339 -1.2704 -2.9894
 2558SOL     OW19309   3.860   2.606   5.275 -0.3893  0.4198  0.0589
 2558SOL    HW119310   3.893   2.682   5.323 -1.0360  0.9691 -0.3685
 2558SOL    HW219311   3.784   2.647   5.234  1.0656  2.9305 -0.1039
 2559SOL     OW19312   3.634   1.105   9.663  0.0706 -0.2561  0.5469
 2559SOL    HW119313   3.722   1.111   9.701  0.6292  0.9174 -0.9426
 2559SOL    HW219314   3.644   1.044   9.590  0.7855 -0.5595  0.8938
 2560SOL     OW19315   1.052   1.676   2.257  0.3847  0.0200 -0.3300
 2560SOL    HW119316   1.081   1.681   2.348 -1.5204  5.2160 -0.0018
 2560SOL    HW219317   1.057   1.582   2.243  2.2429  0.1232 -0.3033
 2561SOL     OW19318   1.291   2.546   2.065  0.5772 -0.1332  0.0495
 2561SOL    HW119319   1.286   2.540   2.160  0.8130  2.9031  0.2514
 2561SOL    HW219320   1.323   2.635   2.051  0.2761 -0.2171 -1.2190
 2562SOL     OW19321   0.744   0.817  10.720 -0.5672 -0.1344 -0.4504
 2562SOL    HW119322   0.809   0.869  10.766 -2.4847  2.7229 -0.9761
 2562SOL    HW219323   0.664   0.866  10.739 -0.0201  0.3716  0.5269
 2563SOL     OW19324   3.123   3.794   3.847  0.0153  0.6238 -0.4724
 2563SOL    HW119325   3.065   3.723   3.822 -0.6522  0.6371  1.0365
 2563SOL    HW219326   3.068   3.872   3.853 -1.8899 -0.7661  0.1999
 2564SOL     OW19327   2.442   0.490   7.982 -0.6727 -0.0197 -0.0223
 2564SOL    HW119328   2.489   0.493   8.066  3.4100 -0.7915 -2.2388
 2564SOL    HW219329   2.492   0.421   7.939 -0.3335 -1.7801  3.1668
 2565SOL     OW19330   0.017   2.191   8.385 -0.2064  0.1621 -0.5948
 2565SOL    HW119331   4.725   2.119   8.445  1.1038  0.9432  0.8138
 2565SOL    HW219332   0.111   2.176   8.372  0.0528  1.3185 -0.0968
 2566SOL     OW19333   0.927   0.508   6.724 -0.7088  0.4922 -0.4759
 2566SOL    HW119334   0.856   0.506   6.789  0.3729 -2.5864  0.5878
 2566SOL    HW219335   0.993   0.555   6.775 -2.2166 -0.2052  2.1355
 2567SOL     OW19336   0.185   2.798   5.456 -0.4085  0.3862 -0.0181
 2567SOL    HW119337   0.168   2.884   5.419 -0.9465  0.5567  0.6312
 2567SOL    HW219338   0.276   2.779   5.432 -1.0518  0.4325 -2.5061
 2568SOL     OW19339   1.604   1.587   4.854 -0.4874 -0.3244  0.3620
 2568SOL    HW119340   1.688   1.549   4.881 -0.1072 -1.3271 -2.1847
 2568SOL    HW219341   1.542   1.516   4.865  0.0974 -0.4128  3.0708
 2569SOL     OW19342   2.515   1.967   3.845  0.4958 -0.0673  0.3398
 2569SOL    HW119343   2.436   1.979   3.791  0.1703 -0.8371  0.6478
 2569SOL    HW219344   2.527   1.874   3.826 -0.3992  0.2217 -1.7246
 2570SOL     OW19345   1.927   2.159  13.259 -0.9605  0.6377 -0.1643
 2570SOL    HW119346   1.849   2.165  13.203 -0.6141 -1.2671 -0.8411
 2570SOL    HW219347   1.962   2.247  13.243 -0.1435  0.1383 -1.1665
 2571SOL     OW19348   0.614   0.876   6.044  0.0443  0.0724  0.2270
 2571SOL    HW119349   0.570   0.960   6.037  1.6211  0.8629 -0.1102
 2571SOL    HW219350   0.571   0.818   5.981  1.0048 -1.4304  0.9571
 2572SOL     OW19351   2.398   3.421   0.890  0.0298  0.1200 -0.1958
 2572SOL    HW119352   2.446   3.432   0.972 -2.6094 -0.2303  1.4151
 2572SOL    HW219353   2.422   3.503   0.849 -2.0094  0.7020 -0.2305
 2573SOL     OW19354   1.003   2.903   6.567  0.2865  0.7482  0.8017
 2573SOL    HW119355   0.971   2.829   6.618  1.0149 -0.2025 -0.1048
 2573SOL    HW219356   0.982   2.877   6.477 -0.9772  1.5686  0.8584
 2574SOL     OW19357   3.606   1.208   4.630 -0.1873 -0.4776  0.0094
 2574SOL    HW119358   3.536   1.229   4.569  0.6268  2.4518  0.1050
 2574SOL    HW219359   3.571   1.215   4.719  1.0132  0.8592  0.3873
 2575SOL     OW19360   1.194   2.462   0.712  0.0257  0.4522  0.0637
 2575SOL    HW119361   1.144   2.408   0.650  0.8411 -0.7624  0.4430
 2575SOL    HW219362   1.260   2.404   0.751  2.2213  2.6727 -0.3708
 2576SOL     OW19363   4.504   1.466   5.762  0.2408 -0.1875 -0.1919
 2576SOL    HW119364   4.480   1.424   5.845  0.7142 -1.5381 -0.7371
 2576SOL    HW219365   4.510   1.560   5.779  1.0417 -0.2925  0.1209
 2577SOL     OW19366   1.895   3.930   8.458 -0.1305  0.1408 -0.5863
 2577SOL    HW119367   1.975   3.919   8.509  0.4263 -1.0715 -1.7200
 2577SOL    HW219368   1.912   4.013   8.415 -2.8634  0.9362 -0.1391
 2578SOL     OW19369   0.492   2.051   4.744  0.3108 -0.2315 -0.6406
 2578SOL    HW119370   0.400   2.032   4.724  0.5278 -0.5095 -1.3544
 2578SOL    HW219371   0.485   2.107   4.822  0.5996 -0.9217 -0.1207
 2579SOL     OW19372   3.687   0.631   8.491 -0.0823  0.3495 -0.1518
 2579SOL    HW119373   3.665   0.656   8.401 -1.9663 -1.9743 -0.3419
 2579SOL    HW219374   3.782   0.632   8.482 -0.1196 -3.4777 -0.8471
 2580SOL     OW19375   3.116   3.785  12.307 -0.0673 -0.3306 -0.6898
 2580SOL    HW119376   3.109   3.756  12.216  1.9399 -1.2499 -0.5724
 2580SOL    HW219377   3.210   3.806  12.300 -0.0524  0.2608  1.2128
 2581SOL     OW19378   2.363   0.620   7.281 -0.1014  0.1289  0.4438
 2581SOL    HW119379   2.323   0.707   7.281 -1.9723 -0.7349 -1.1608
 2581SOL    HW219380   2.302   0.561   7.324 -1.5302  1.4169  0.1976
 2582SOL     OW19381   0.613   2.357  16.827 -0.7418  0.1712  0.4104
 2582SOL    HW119382   0.529   2.346  16.872 -0.5151  0.8055  0.9848
 2582SOL    HW219383   0.583   2.346  16.736  3.0429  0.7565 -0.9082
 2583SOL     OW19384   1.034   4.226   1.926 -0.4607 -0.1631  0.8749
 2583SOL    HW119385   0.999   4.253   1.841 -0.5291  1.2947  1.3662
 2583SOL    HW219386   1.081   4.308   1.944  0.3337 -0.3061 -0.5202
 2584SOL     OW19387   2.038   4.096   1.632 -0.2712  0.4484  0.1023
 2584SOL    HW119388   2.070   4.068   1.546 -1.6161  3.7031 -1.4892
 2584SOL    HW219389   2.114   4.138   1.671 -1.3166 -0.1737  2.7933
 2585SOL     OW19390   1.693   1.935   2.080  0.4095 -0.7275  0.5289
 2585SOL    HW119391   1.670   2.026   2.094  3.4337  0.4669 -2.2221
 2585SOL    HW219392   1.611   1.901   2.043 -1.3084  2.9823  1.0030
 2586SOL     OW19393   3.273   4.080   8.057 -0.0726 -0.2412 -0.2713
 2586SOL    HW119394   3.353   4.028   8.062  0.8937  1.2074 -0.8282
 2586SOL    HW219395   3.248   4.083   8.150  1.1360 -0.4052  0.0525
 2587SOL     OW19396   4.681   1.336   5.612 -0.0232 -0.3362 -0.1270
 2587SOL    HW119397   4.608   1.375   5.658  0.7152  1.3379 -0.3823
 2587SOL    HW219398   4.683   1.397   5.538  2.7445  0.6289  0.7498
 2588SOL     OW19399   2.677   4.685   2.190  0.2476 -0.5595  0.1255
 2588SOL    HW119400   2.694   4.697   2.284  3.0169 -0.1714 -0.4291
 2588SOL    HW219401   2.701   0.042   2.157 -2.8702  1.1387  2.2545
 2589SOL     OW19402   0.390   0.382  14.534 -0.0270  1.0635 -0.5570
 2589SOL    HW119403   0.366   0.391  14.626  2.3457  0.8387  0.0742
 2589SOL    HW219404   0.304   0.404  14.499 -0.5171 -0.0159 -0.0243
 2590SOL     OW19405   0.132   1.728   0.472 -0.0712  0.4447  0.5806
 2590SOL    HW119406   0.149   1.789   0.399  0.5797  0.8963  1.1005
 2590SOL    HW219407   0.119   1.646   0.426  1.1047  0.6811 -0.1818
 2591SOL     OW19408   2.584   3.284  10.053 -0.2091 -0.4808 -0.4152
 2591SOL    HW119409   2.664   3.235  10.035 -0.0062 -0.9667  1.7335
 2591SOL    HW219410   2.555   3.236  10.131 -1.1383 -0.0128 -0.4726
 2592SOL     OW19411   1.364   0.722  10.715 -0.5190  0.1993  0.0951
 2592SOL    HW119412   1.304   0.714  10.641  1.4115  1.9078 -1.6090
 2592SOL    HW219413   1.308   0.689  10.787 -0.4073 -0.7089 -0.2284
 2593SOL     OW19414   0.480   0.569   8.758  0.5489 -0.1661 -0.5537
 2593SOL    HW119415   0.425   0.638   8.796  0.3381 -0.1545 -0.8789
 2593SOL    HW219416   0.562   0.615   8.738  1.8564 -1.8609  0.9121
 2594SOL     OW19417   0.121   0.061   8.577 -0.4393  0.6954 -0.3157
 2594SOL    HW119418   0.121   0.125   8.505 -0.0496 -0.1433 -1.0612
 2594SOL    HW219419   0.027   0.044   8.576 -0.4510  0.7100  0.4985
 2595SOL     OW19420   1.663   3.296  12.513  0.3984  0.4061  0.3566
 2595SOL    HW119421   1.662   3.216  12.565  0.2494 -0.0820 -0.3835
 2595SOL    HW219422   1.720   3.356  12.561  1.9105 -1.7659  1.2186
 2596SOL     OW19423   1.108   1.390  12.713  0.2823  0.3419 -0.1200
 2596SOL    HW119424   1.141   1.396  12.803 -0.8978  0.5504  0.3002
 2596SOL    HW219425   1.016   1.365  12.725  0.1695  0.9938  0.3503
 2597SOL     OW19426   3.774   4.467  11.036  0.6761 -0.2851 -0.1687
 2597SOL    HW119427   3.819   4.473  10.952 -0.3231  1.0348 -0.6001
 2597SOL    HW219428   3.853   4.474  11.090  0.5956  1.2146 -0.2664
 2598SOL     OW19429   2.219   3.538  16.955  0.0448 -0.0200  0.1768
 2598SOL    HW119430   2.286   3.477  16.923 -0.8742  0.3975 -2.5043
 2598SOL    HW219431   2.163   3.479  17.006  0.4557 -1.1001 -0.6247
 2599SOL     OW19432   3.675   1.597   6.484  0.2282  0.1557  0.3345
 2599SOL    HW119433   3.663   1.503   6.475 -0.4435  0.4370 -1.7856
 2599SOL    HW219434   3.742   1.616   6.418  1.2611  0.4913  1.4872
 2600SOL     OW19435   3.761   3.489   4.584  0.0462  0.1662 -0.4018
 2600SOL    HW119436   3.808   3.473   4.503  0.0037  0.2535 -0.4438
 2600SOL    HW219437   3.818   3.546   4.636 -1.0489  3.0118 -2.3655
 2601SOL     OW19438   0.545   4.340   4.634 -0.3162 -0.5013 -0.2904
 2601SOL    HW119439   0.582   4.349   4.546 -1.3002 -1.0089 -0.7650
 2601SOL    HW219440   0.453   4.333   4.609 -1.0428 -0.1912  2.2597
 2602SOL     OW19441   1.145   3.286   8.833 -0.2968 -0.2602 -0.0491
 2602SOL    HW119442   1.070   3.342   8.812  0.4005 -0.4606 -2.9853
 2602SOL    HW219443   1.104   3.200   8.843 -1.8987  0.5656  0.5638
 2603SOL     OW19444   4.673   0.768   9.422  0.1101  0.7601  0.3569
 2603SOL    HW119445   4.635   0.843   9.376  1.1374  1.0637 -0.0175
 2603SOL    HW219446   4.677   0.714   9.343 -0.9019 -1.6516  1.9638
 2604SOL     OW19447   0.424   4.034   3.275  0.9237 -0.0113  0.3473
 2604SOL    HW119448   0.469   4.041   3.359 -0.6792 -0.4794  1.2351
 2604SOL    HW219449   0.353   4.097   3.286  1.4675  0.8152 -0.8491
 2605SOL     OW19450   2.378   2.602   2.883  0.0592  0.1081 -0.1174
 2605SOL    HW119451   2.462   2.560   2.901 -0.0489  0.2437  0.6900
 2605SOL    HW219452   2.322   2.579   2.957  1.2381 -3.0647 -0.2392
 2606SOL     OW19453   2.665   2.681   7.825 -0.8120  0.1895 -0.1431
 2606SOL    HW119454   2.621   2.667   7.741 -2.2086 -1.8734  0.9372
 2606SOL    HW219455   2.591   2.682   7.887  0.9611  0.3398  1.9619
 2607SOL     OW19456   2.027   0.521   1.457  0.2589  0.4029  0.1953
 2607SOL    HW119457   2.085   0.446   1.467 -1.4541 -0.8816  0.3741
 2607SOL    HW219458   2.018   0.544   1.549  1.3863  1.6034  0.0033
 2608SOL     OW19459   2.743   0.289   1.651 -0.4100 -0.1839  0.1966
 2608SOL    HW119460   2.664   0.243   1.681 -0.3369  0.3166  1.1479
 2608SOL    HW219461   2.734   0.371   1.699 -0.2421 -0.8132  1.3179
 2609SOL     OW19462   3.732   3.063   0.280 -0.3300 -0.6030 -0.2018
 2609SOL    HW119463   3.775   3.022   0.355  0.6697  1.2005  0.2265
 2609SOL    HW219464   3.641   3.041   0.300  0.0540 -0.3422  1.8239
 2610SOL     OW19465   4.217   2.759   2.501  0.6963 -0.0290  0.8190
 2610SOL    HW119466   4.238   2.785   2.411 -1.9665 -0.2516  0.1410
 2610SOL    HW219467   4.153   2.825   2.530  0.7913 -0.0809  1.1506
 2611SOL     OW19468   1.207   1.404   5.581 -0.2557  0.0524  0.1098
 2611SOL    HW119469   1.192   1.440   5.669 -1.1356  0.6563 -0.2847
 2611SOL    HW219470   1.173   1.316   5.596  2.1647 -1.0177 -0.7045
 2612SOL     OW19471   4.032   1.086  10.556  0.0442  0.3611  0.2601
 2612SOL    HW119472   3.964   1.021  10.537 -1.8662  2.1205  1.0488
 2612SOL    HW219473   3.983   1.168  10.547  1.3398  1.1103 -0.0264
 2613SOL     OW19474   4.644   4.083   8.037  0.8530  0.1614 -0.2955
 2613SOL    HW119475   4.570   4.137   8.008  0.1970  0.1895  1.3915
 2613SOL    HW219476   4.631   4.083   8.132 -2.0466  1.6535 -0.6887
 2614SOL     OW19477   1.997   3.653   1.104 -0.6697  0.3825  0.2548
 2614SOL    HW119478   2.063   3.583   1.103 -1.0064  0.0917 -1.2081
 2614SOL    HW219479   2.045   3.725   1.064  0.5066  0.5726  2.0167
 2615SOL     OW19480   0.831   1.660  10.176  0.1349 -0.0536 -0.1955
 2615SOL    HW119481   0.753   1.611  10.149  0.6192 -1.8662  1.7324
 2615SOL    HW219482   0.882   1.670  10.096 -0.2326  1.3738 -0.2624
 2616SOL     OW19483   4.461   1.756   1.761  0.2861 -0.4268  0.4091
 2616SOL    HW119484   4.539   1.792   1.801  0.7275 -0.9506  0.0218
 2616SOL    HW219485   4.395   1.805   1.809  1.5201 -0.6830  2.3315
 2617SOL     OW19486   0.248   3.729   3.270 -0.5807 -0.1272  0.2820
 2617SOL    HW119487   0.317   3.663   3.257 -1.4803 -0.5455 -2.2676
 2617SOL    HW219488   0.163   3.689   3.254 -0.9635  0.3085  1.2319
 2618SOL     OW19489   3.151   2.777   6.496 -0.3867 -0.3035  0.0433
 2618SOL    HW119490   3.194   2.752   6.578 -0.8735  0.1571  0.4368
 2618SOL    HW219491   3.192   2.862   6.478 -0.3812 -0.1053  0.9930
 2619SOL     OW19492   0.845   0.734   3.306  0.3802 -0.7326  0.1786
 2619SOL    HW119493   0.781   0.704   3.371  0.1897 -0.4797  0.1070
 2619SOL    HW219494   0.892   0.803   3.352 -0.4690  1.9005 -2.9361
 2620SOL     OW19495   0.161   0.092   5.003 -0.2019 -0.3833  0.4984
 2620SOL    HW119496   0.129   0.160   5.062 -1.1111 -2.1093  1.9748
 2620SOL    HW219497   0.233   0.051   5.052  0.4097  0.7435  0.5624
 2621SOL     OW19498   1.409   2.124   5.949  0.3520 -0.6182 -0.2985
 2621SOL    HW119499   1.497   2.142   5.980  0.8095  0.0658 -1.9657
 2621SOL    HW219500   1.357   2.120   6.029  2.0088  3.5169  0.9549
 2622SOL     OW19501   0.534   3.559   6.303 -0.0380  0.0022  0.3726
 2622SOL    HW119502   0.605   3.519   6.354 -1.4424 -1.9642  0.7856
 2622SOL    HW219503   0.539   3.650   6.334  0.5835 -0.0029  0.2933
 2623SOL     OW19504   0.398   3.491   4.913  0.5010  0.0925 -0.2777
 2623SOL    HW119505   0.473   3.524   4.962  0.6066  1.6089 -1.4454
 2623SOL    HW219506   0.410   3.543   4.833 -2.9381  0.9705 -0.2328
 2624SOL     OW19507   3.966   4.640   2.575  0.0133 -0.0595  0.1944
 2624SOL    HW119508   3.893   4.582   2.557  0.1011  0.6711 -2.5104
 2624SOL    HW219509   4.016   4.589   2.639 -0.4180  0.0452  0.6217
 2625SOL     OW19510   0.539   2.124  13.162  0.4618  0.1537 -0.0616
 2625SOL    HW119511   0.496   2.146  13.079 -3.4015  2.2462  2.5251
 2625SOL    HW219512   0.516   2.197  13.218 -0.9203 -0.0668 -0.3443
 2626SOL     OW19513   3.873   1.114   3.492  0.6465 -0.0384 -0.3203
 2626SOL    HW119514   3.965   1.093   3.478  0.7781 -1.2117  2.4416
 2626SOL    HW219515   3.841   1.034   3.449 -2.1071  0.0061  1.6397
 2627SOL     OW19516   3.369   0.128   9.706 -0.4274  0.4331 -0.1402
 2627SOL    HW119517   3.450   0.129   9.656  0.8578  0.3714  1.9163
 2627SOL    HW219518   3.388   0.052   9.763 -0.8464  1.0531  0.8334
 2628SOL     OW19519   0.934   4.120   5.290 -0.6596 -0.4850 -0.5175
 2628SOL    HW119520   1.026   4.114   5.265 -0.3841  0.1141  0.3369
 2628SOL    HW219521   0.888   4.074   5.220 -1.8806  0.1908 -0.1648
 2629SOL     OW19522   0.320   1.968   5.984  0.4454  0.3662 -0.3488
 2629SOL    HW119523   0.351   2.030   5.918  0.5841 -0.4336 -1.0226
 2629SOL    HW219524   0.381   1.897   5.968  1.1295  0.8212  0.2385
 2630SOL     OW19525   2.092   4.091  13.157  0.6305 -0.1374  0.0550
 2630SOL    HW119526   2.120   4.127  13.241 -3.6194 -0.5604  1.6693
 2630SOL    HW219527   2.137   4.007  13.148 -1.5240 -1.3811  0.8194
 2631SOL     OW19528   0.258   2.721  14.969 -0.0998 -0.0922 -0.3748
 2631SOL    HW119529   0.281   2.770  14.890  0.4092  0.9052  0.3975
 2631SOL    HW219530   0.334   2.749  15.020 -1.4369 -0.3602  1.7798
 2632SOL     OW19531   2.551   4.343   1.905  0.2959 -0.1134 -0.7309
 2632SOL    HW119532   2.602   4.424   1.913  0.5540 -0.5049  1.6600
 2632SOL    HW219533   2.527   4.327   1.814 -1.5031 -0.6646 -0.1562
 2633SOL     OW19534   4.295   3.663   3.558 -0.4124 -0.4672  0.1016
 2633SOL    HW119535   4.214   3.688   3.512 -0.5610 -3.0776 -1.0524
 2633SOL    HW219536   4.288   3.711   3.641  0.5626 -0.8144  0.3801
 2634SOL     OW19537   3.929   3.589   3.951 -0.0385 -0.2825  0.3863
 2634SOL    HW119538   3.948   3.614   3.861  0.3159  0.9221  0.7852
 2634SOL    HW219539   3.870   3.514   3.937 -0.1008 -0.1021 -0.3099
 2635SOL     OW19540   3.032   1.229  11.532 -1.0594 -0.1237 -0.2187
 2635SOL    HW119541   3.114   1.182  11.516  0.5989  2.7601 -0.1899
 2635SOL    HW219542   3.049   1.283  11.609  0.0816 -0.1705 -0.4302
 2636SOL     OW19543   4.668   1.018   7.785 -0.6312 -0.1679 -0.6104
 2636SOL    HW119544   4.698   1.109   7.782 -0.2820 -0.2725 -0.1333
 2636SOL    HW219545   4.682   0.997   7.877 -2.5039  1.7561  0.1037
 2637SOL     OW19546   0.207   2.026   8.680  0.0751  0.2276  0.3663
 2637SOL    HW119547   0.199   2.119   8.660 -1.9664  0.0742  0.4661
 2637SOL    HW219548   0.119   1.989   8.675 -0.5609  1.6036  1.3567
 2638SOL     OW19549   3.290   4.194   7.076 -0.9386 -0.3919 -0.1307
 2638SOL    HW119550   3.276   4.288   7.068  1.6249 -0.2372 -2.7365
 2638SOL    HW219551   3.359   4.182   7.142 -0.0204  2.1182 -0.6412
 2639SOL     OW19552   1.295   2.286  10.239  0.3638 -0.3468  0.5826
 2639SOL    HW119553   1.237   2.349  10.281 -1.3019 -1.0812 -0.6406
 2639SOL    HW219554   1.246   2.271  10.158 -0.9106  0.2992  1.2511
 2640SOL     OW19555   2.522   3.556   5.147  0.2300 -0.2236  0.7286
 2640SOL    HW119556   2.612   3.522   5.139  0.7198  0.9436  1.2766
 2640SOL    HW219557   2.502   3.536   5.238 -0.9975 -0.4734  0.3952
 2641SOL     OW19558   2.725   2.692   9.802 -0.2464 -0.6194  0.2595
 2641SOL    HW119559   2.777   2.772   9.789 -1.6818  0.0448 -1.4591
 2641SOL    HW219560   2.728   2.660   9.712  3.0652  1.9712 -0.5744
 2642SOL     OW19561   0.335   0.921   7.693  0.1370 -1.2002 -0.3240
 2642SOL    HW119562   0.287   0.964   7.622  2.7291 -1.7918 -2.4287
 2642SOL    HW219563   0.425   0.930   7.661  0.3355  0.7402  0.8130
 2643SOL     OW19564   0.665   0.064  13.370 -0.4042  0.0057 -0.0503
 2643SOL    HW119565   0.660   0.086  13.463  0.8614  1.4130 -0.3108
 2643SOL    HW219566   0.741   0.006  13.367  0.3720  0.9862  0.7903
 2644SOL     OW19567   2.435   3.900   6.298 -0.0695 -0.0223 -0.0976
 2644SOL    HW119568   2.345   3.909   6.266  0.9008  1.3703 -2.3859
 2644SOL    HW219569   2.456   3.816   6.258 -0.1490 -0.0284 -0.1264
 2645SOL     OW19570   3.483   2.267  17.417 -0.0990  0.1614  0.3636
 2645SOL    HW119571   3.456   2.296  17.330  0.4213  0.1675  0.2037
 2645SOL    HW219572   3.534   2.189  17.398 -1.7345 -0.7790 -0.1001
 2646SOL     OW19573   3.388   1.073  12.344 -1.0332 -0.2475  0.2261
 2646SOL    HW119574   3.412   1.072  12.252 -1.8024 -0.2882  0.0187
 2646SOL    HW219575   3.335   1.152  12.351  1.4131  1.4050  0.0121
 2647SOL     OW19576   2.254   3.151   4.825  0.2958  0.2456 -0.5065
 2647SOL    HW119577   2.343   3.118   4.814  1.0437  1.4912  1.8486
 2647SOL    HW219578   2.207   3.070   4.807 -0.4380  0.6251 -0.2863
 2648SOL     OW19579   4.187   2.174   7.796  0.7386  0.9247  0.2185
 2648SOL    HW119580   4.188   2.259   7.751  2.9314 -0.0814 -1.6555
 2648SOL    HW219581   4.151   2.114   7.731 -0.3051  2.0617 -0.2525
 2649SOL     OW19582   0.976   1.701   3.925 -0.2342 -0.2090  0.1425
 2649SOL    HW119583   0.919   1.624   3.928 -0.3236 -0.0834  1.7019
 2649SOL    HW219584   0.926   1.773   3.886  0.0418  0.7431  1.5602
 2650SOL     OW19585   3.278   0.475   6.870 -0.3760 -0.3013  0.4263
 2650SOL    HW119586   3.233   0.536   6.812  0.7104 -0.2785 -0.3862
 2650SOL    HW219587   3.351   0.529   6.901 -0.0202  0.8295 -2.3503
 2651SOL     OW19588   3.631   0.469   2.323 -0.5017 -0.4715  0.0314
 2651SOL    HW119589   3.619   0.564   2.316  1.5119 -0.0072  3.1757
 2651SOL    HW219590   3.593   0.436   2.242  0.3355  1.1050 -1.0250
 2652SOL     OW19591   0.461   2.898   2.678  0.3482 -0.5786 -0.2696
 2652SOL    HW119592   0.521   2.827   2.700  0.7520 -1.4918 -4.3090
 2652SOL    HW219593   0.435   2.865   2.592 -1.9610 -0.6451  0.4550
 2653SOL     OW19594   4.359   2.903   4.962  0.1757 -0.6408 -0.6756
 2653SOL    HW119595   4.386   2.992   4.982 -3.2686  0.0187  0.9175
 2653SOL    HW219596   4.400   2.908   4.875  0.6235  0.8398 -0.3707
 2654SOL     OW19597   0.121   0.044   4.589 -0.0186 -0.3434  0.2991
 2654SOL    HW119598   0.184   0.114   4.574 -3.3268  2.0763 -2.3431
 2654SOL    HW219599   0.157   4.710   4.526  3.9917 -0.9459  3.2218
 2655SOL     OW19600   0.404   3.941   0.259 -0.2633 -0.0063  0.4411
 2655SOL    HW119601   0.433   3.937   0.350  0.8837 -0.6023  0.0591
 2655SOL    HW219602   0.346   4.017   0.265  1.2179  1.3307 -2.0977
 2656SOL     OW19603   0.155   3.020   3.747  0.0791  0.0284  0.3264
 2656SOL    HW119604   0.171   2.929   3.723 -2.3126 -0.3059 -0.0092
 2656SOL    HW219605   0.239   3.050   3.781  0.0459  1.0985 -0.5450
 2657SOL     OW19606   1.558   3.041  15.876  0.1890 -0.4650  0.7549
 2657SOL    HW119607   1.530   3.065  15.965  1.2442 -1.4725  1.3594
 2657SOL    HW219608   1.627   3.105  15.858 -1.0906  0.0427 -2.2982
 2658SOL     OW19609   2.594   1.191   1.754 -0.6621 -0.4833  0.5539
 2658SOL    HW119610   2.515   1.240   1.731  0.0175  0.1446 -0.4354
 2658SOL    HW219611   2.576   1.143   1.835  3.9927 -0.1932  1.7399
 2659SOL     OW19612   2.455   4.435  17.702 -0.0083  0.2769 -0.0308
 2659SOL    HW119613   2.411   4.354   0.012  1.7966 -0.3174  1.1662
 2659SOL    HW219614   2.438   4.496   0.058  0.5968  1.4334 -0.8622
 2660SOL     OW19615   2.558   0.837   2.673 -0.5570  0.7017 -0.0029
 2660SOL    HW119616   2.510   0.758   2.646 -1.2236  0.0278  3.2160
 2660SOL    HW219617   2.501   0.904   2.635  1.6485  2.8544  0.5354
 2661SOL     OW19618   0.141   0.788  11.672  0.2299  0.2520 -0.0998
 2661SOL    HW119619   0.120   0.871  11.714  1.0290 -0.4348  1.7055
 2661SOL    HW219620   0.226   0.804  11.629 -0.0397  0.7638 -0.4393
 2662SOL     OW19621   1.606   2.652   7.310  0.7695  0.2395  0.1810
 2662SOL    HW119622   1.541   2.717   7.337 -0.1428 -0.5979 -0.0093
 2662SOL    HW219623   1.693   2.691   7.300  0.3068  0.5600 -2.4765
 2663SOL     OW19624   1.264   4.501   7.200  0.4776 -0.5712  0.1090
 2663SOL    HW119625   1.286   4.533   7.113  0.9528  0.2003  0.5109
 2663SOL    HW219626   1.324   4.427   7.209  1.9410  0.7952  1.5581
 2664SOL     OW19627   2.574   1.119   8.292 -0.0002 -0.1037 -0.0620
 2664SOL    HW119628   2.524   1.038   8.281 -1.1851  0.8926 -2.1594
 2664SOL    HW219629   2.644   1.122   8.227 -0.3340 -0.0314 -0.4195
 2665SOL     OW19630   0.985   2.466  13.942  0.3972  0.2444 -0.8175
 2665SOL    HW119631   1.004   2.513  14.023 -2.3522 -1.3279  0.7256
 2665SOL    HW219632   1.026   2.525  13.878 -1.1060 -0.2560 -2.2560
 2666SOL     OW19633   1.620   3.986   4.466 -0.9278  0.5161 -0.1066
 2666SOL    HW119634   1.604   3.892   4.456  1.4785  0.1131 -0.3434
 2666SOL    HW219635   1.714   3.991   4.445 -1.0549 -3.3013 -1.7377
 2667SOL     OW19636   0.827   0.264   7.368  0.5792  0.2352  0.2139
 2667SOL    HW119637   0.755   0.247   7.307 -0.4037 -1.5960  1.8806
 2667SOL    HW219638   0.840   0.173   7.392  0.3845 -0.1559 -1.1663
 2668SOL     OW19639   2.948   2.238   3.462  0.2776 -0.0685 -0.0691
 2668SOL    HW119640   2.910   2.174   3.401 -0.1054 -0.4951  0.6142
 2668SOL    HW219641   3.020   2.185   3.495 -0.2552 -2.4880 -2.8033
 2669SOL     OW19642   0.686   4.034   0.150 -0.1472 -0.8397 -0.3782
 2669SOL    HW119643   0.609   3.986   0.182  0.5574 -2.7652 -1.5676
 2669SOL    HW219644   0.657   4.121   0.177  0.9384 -0.9430  1.1005
 2670SOL     OW19645   0.813   1.811   9.483  0.6485 -0.0493 -0.2242
 2670SOL    HW119646   0.746   1.874   9.457  0.2595 -0.8023 -1.0652
 2670SOL    HW219647   0.815   1.746   9.413 -0.9238 -3.1469  2.6156
 2671SOL     OW19648   2.006   4.563   9.921 -0.1906 -0.1562 -0.3551
 2671SOL    HW119649   2.041   4.593  10.005  1.6347 -2.8438 -0.1754
 2671SOL    HW219650   2.023   4.642   9.870 -1.2728 -1.3862 -2.6506
 2672SOL     OW19651   1.710   1.721   0.368 -0.1589  0.0649 -0.2652
 2672SOL    HW119652   1.803   1.706   0.349 -0.7701 -2.1459 -1.4626
 2672SOL    HW219653   1.703   1.813   0.343 -0.4936 -0.5800 -2.6125
 2673SOL     OW19654   3.848   2.652  11.656 -0.0142 -0.1699  0.3616
 2673SOL    HW119655   3.799   2.734  11.667 -0.7659 -0.7416  1.3308
 2673SOL    HW219656   3.808   2.598  11.724  0.8122  0.8475  1.6727
 2674SOL     OW19657   0.042   3.299  17.457  0.0002  0.2628 -0.2294
 2674SOL    HW119658   4.715   3.233  17.418 -0.3043 -0.3781  1.2737
 2674SOL    HW219659   0.123   3.251  17.438 -1.1501 -1.2367 -1.3737
 2675SOL     OW19660   0.862   4.074   2.399  0.1324 -0.5664 -0.1569
 2675SOL    HW119661   0.867   4.065   2.494  0.0584  0.8978 -0.0129
 2675SOL    HW219662   0.953   4.090   2.374  0.0328 -0.0577 -0.1914
 2676SOL     OW19663   2.944   0.155   4.512 -0.3048  0.4303  0.4948
 2676SOL    HW119664   2.852   0.143   4.538 -0.2655 -0.5103  0.1997
 2676SOL    HW219665   2.943   0.105   4.431 -0.9137  0.5248  0.4375
 2677SOL     OW19666   0.083   0.525   9.026  0.0348  0.0372  0.1142
 2677SOL    HW119667   0.178   0.538   9.029  0.3691 -1.7465 -3.8860
 2677SOL    HW219668   0.087   0.431   9.011  1.9672  0.2948 -1.0361
 2678SOL     OW19669   0.931   2.649   0.064  0.2213  0.1372  0.3648
 2678SOL    HW119670   0.855   2.667   0.009 -0.2971  1.5492  1.5311
 2678SOL    HW219671   0.886   2.614   0.140  0.8996  0.9165  1.1224
 2679SOL     OW19672   3.370   2.184   3.062 -0.0131 -0.3544  0.0323
 2679SOL    HW119673   3.288   2.201   3.016  1.2727 -0.0987 -2.1687
 2679SOL    HW219674   3.368   2.099   3.105 -2.7464 -0.8755 -1.1434
 2680SOL     OW19675   2.905   2.157   2.602 -0.2723  0.0920 -0.2085
 2680SOL    HW119676   2.848   2.127   2.531  0.0131 -0.0591 -0.3742
 2680SOL    HW219677   2.902   2.081   2.660 -1.1221  0.8706  0.7573
 2681SOL     OW19678   4.254   4.487  12.505 -0.2606  1.4738  0.6291
 2681SOL    HW119679   4.261   4.553  12.436  1.3120 -0.5991 -1.1764
 2681SOL    HW219680   4.266   4.404  12.459 -0.6955 -0.1676  3.4350
 2682SOL     OW19681   4.135   1.221  16.428  0.1104  0.7729 -0.2957
 2682SOL    HW119682   4.124   1.252  16.338 -3.1465 -0.6447 -0.3951
 2682SOL    HW219683   4.156   1.304  16.471 -0.3985  0.3564  0.7673
 2683SOL     OW19684   2.870   4.538   8.740 -0.3888 -0.2930 -0.2321
 2683SOL    HW119685   2.800   4.554   8.803  1.3721  0.1749  1.5780
 2683SOL    HW219686   2.927   4.610   8.767  1.3477 -0.9633 -2.0871
 2684SOL     OW19687   0.513   3.998   2.390 -0.5486  0.0905  0.1702
 2684SOL    HW119688   0.531   3.940   2.316  3.5614  0.6501  0.7334
 2684SOL    HW219689   0.435   3.954   2.422  0.7513 -1.8576  0.6337
 2685SOL     OW19690   3.409   2.051   3.821 -0.3395  0.3237 -0.5799
 2685SOL    HW119691   3.366   2.078   3.902 -0.9904 -1.6258 -0.2638
 2685SOL    HW219692   3.492   2.007   3.842 -1.3638 -1.0010  0.7275
 2686SOL     OW19693   2.237   1.166   4.213 -0.1641  0.0825 -0.0791
 2686SOL    HW119694   2.304   1.203   4.270 -0.1865  1.5994 -1.0236
 2686SOL    HW219695   2.215   1.077   4.240 -0.6975  0.5717  1.0974
 2687SOL     OW19696   3.146   0.452   9.518 -0.0295 -0.2227 -0.1710
 2687SOL    HW119697   3.076   0.435   9.580  0.1669 -2.1154 -0.4402
 2687SOL    HW219698   3.209   0.485   9.581 -0.4843 -0.0384  0.1808
 2688SOL     OW19699   3.351   2.594   9.091  0.7191 -0.5940  0.0532
 2688SOL    HW119700   3.342   2.658   9.021  0.3241  0.5301  1.1252
 2688SOL    HW219701   3.444   2.574   9.082  0.7653 -0.6471  0.6617
 2689SOL     OW19702   3.267   4.031  15.533  0.1400 -0.0144 -0.6364
 2689SOL    HW119703   3.213   4.091  15.585 -1.5723 -2.1114  0.0257
 2689SOL    HW219704   3.313   4.097  15.482  1.0573  0.3792  0.6871
 2690SOL     OW19705   0.223   3.858   2.836 -0.1377 -0.1218  0.0883
 2690SOL    HW119706   0.304   3.890   2.876 -0.2003  1.3619 -0.9395
 2690SOL    HW219707   0.247   3.766   2.832  0.2386 -0.1425  2.4805
 2691SOL     OW19708   3.826   3.020   3.010 -0.5615  0.4173  0.1208
 2691SOL    HW119709   3.873   2.951   2.962 -0.9852  0.1919  0.0290
 2691SOL    HW219710   3.899   3.055   3.061  0.3263  1.0981 -1.6534
 2692SOL     OW19711   0.196   1.684   9.363 -0.0670 -0.1634  0.4562
 2692SOL    HW119712   0.127   1.624   9.390 -1.5750  0.5772 -1.8004
 2692SOL    HW219713   0.274   1.640   9.398  1.4328  0.0588 -2.6134
 2693SOL     OW19714   4.140   3.948   5.816  0.4976  0.1837 -0.0697
 2693SOL    HW119715   4.179   3.900   5.888  2.4226  1.9655  0.0956
 2693SOL    HW219716   4.185   3.917   5.737  1.2554 -0.0438  0.4573
 2694SOL     OW19717   2.502   4.707  16.011  0.0219 -0.0929  0.0881
 2694SOL    HW119718   2.535   4.658  16.086  0.3769  0.3626  0.2297
 2694SOL    HW219719   2.554   4.658  15.947 -1.3477  0.4611 -1.4441
 2695SOL     OW19720   0.463   0.986   5.012  0.3599 -0.2076  0.2242
 2695SOL    HW119721   0.533   0.924   5.034  0.4390  0.1515  1.0120
 2695SOL    HW219722   0.509   1.063   4.979  0.8075 -0.8201 -0.5773
 2696SOL     OW19723   3.424   0.933   3.422 -0.2472  0.4617  0.0689
 2696SOL    HW119724   3.478   0.915   3.499 -0.5816 -0.3932  0.1009
 2696SOL    HW219725   3.370   0.856   3.410  0.4744  0.2326 -1.7505
 2697SOL     OW19726   1.059   3.099   5.212 -0.1458  0.3643  0.8028
 2697SOL    HW119727   1.126   3.154   5.253  0.4975  1.1211 -1.2347
 2697SOL    HW219728   1.053   3.143   5.127  1.4837 -0.9181  0.0189
 2698SOL     OW19729   2.272   4.050   7.270 -0.2257  0.2467  0.0167
 2698SOL    HW119730   2.206   4.118   7.279  0.5341  1.2793 -2.1518
 2698SOL    HW219731   2.343   4.094   7.318 -0.3205 -0.5060  0.8629
 2699SOL     OW19732   4.096   3.594  16.006 -0.7047 -0.4326  0.1347
 2699SOL    HW119733   4.024   3.532  15.999 -0.7353 -0.2559 -1.0358
 2699SOL    HW219734   4.066   3.647  16.080 -2.4014  1.4482 -1.9199
 2700SOL     OW19735   4.584   1.516  15.271 -0.0163 -0.0486 -0.1517
 2700SOL    HW119736   4.499   1.559  15.262  0.4490  0.6007 -1.4361
 2700SOL    HW219737   4.634   1.542  15.193 -0.9087 -0.7494 -0.9628
 2701SOL     OW19738   4.538   1.612   9.184 -0.1416 -0.2155 -0.0881
 2701SOL    HW119739   4.478   1.664   9.236  3.6186  3.5285  0.5047
 2701SOL    HW219740   4.600   1.685   9.176  0.5356 -0.7357  0.3518
 2702SOL     OW19741   0.795   4.158  10.459  0.0642  0.4038  0.3746
 2702SOL    HW119742   0.884   4.151  10.493  0.2434 -3.6353 -0.8429
 2702SOL    HW219743   0.738   4.139  10.534  0.5203 -0.6684  0.4584
 2703SOL     OW19744   1.229   0.464   3.070 -0.2364  0.3160 -0.4369
 2703SOL    HW119745   1.284   0.431   2.999 -0.4173  0.8971 -0.8353
 2703SOL    HW219746   1.179   0.530   3.023 -0.7241 -0.1962 -0.6435
 2704SOL     OW19747   3.091   0.203  10.030 -0.0641  0.4659  0.1455
 2704SOL    HW119748   3.048   0.218   9.946  0.9953 -1.3815 -0.7338
 2704SOL    HW219749   3.165   0.263  10.031  0.9526 -0.8027  0.8751
 2705SOL     OW19750   2.910   3.195   3.317  0.0122  0.2328  0.4836
 2705SOL    HW119751   2.854   3.272   3.299 -0.4705 -0.0284  0.8838
 2705SOL    HW219752   2.855   3.149   3.380  0.8653  0.5209  1.4231
 2706SOL     OW19753   2.626   2.635  10.467  0.3254  0.3009 -0.1350
 2706SOL    HW119754   2.691   2.595  10.409  1.4227  0.8949  0.6757
 2706SOL    HW219755   2.649   2.573  10.537  1.1041 -0.0091 -0.6597
 2707SOL     OW19756   3.303   3.119   5.325  0.1721 -0.3747  0.0469
 2707SOL    HW119757   3.352   3.170   5.389  0.6704 -1.5959  0.6393
 2707SOL    HW219758   3.358   3.041   5.330  1.5055  0.5683  0.1414
 2708SOL     OW19759   2.809   3.708  14.028  0.3289 -0.2266  0.0146
 2708SOL    HW119760   2.793   3.799  14.004  2.6962  0.6693  1.8964
 2708SOL    HW219761   2.888   3.716  14.081  0.9496 -2.1582 -0.6296
 2709SOL     OW19762   0.789   0.919   1.535  0.2141  0.2264  0.2105
 2709SOL    HW119763   0.721   0.909   1.603  1.0198 -0.3921  0.9304
 2709SOL    HW219764   0.792   1.014   1.534 -0.3573  0.2182 -1.9218
 2710SOL     OW19765   0.997   1.790   1.836  0.2218  0.1083 -0.1551
 2710SOL    HW119766   0.922   1.849   1.826 -0.7708 -1.0945  0.1701
 2710SOL    HW219767   1.068   1.847   1.866 -0.0345  0.7577 -0.7791
 2711SOL     OW19768   1.393   1.609   1.483  0.0967  0.0913 -0.4026
 2711SOL    HW119769   1.333   1.650   1.545 -0.2153  0.9156 -1.2676
 2711SOL    HW219770   1.473   1.647   1.519  0.2311 -0.1350 -0.4603
 2712SOL     OW19771   2.556   4.498   3.737 -0.6825 -0.3785 -0.1729
 2712SOL    HW119772   2.639   4.451   3.731 -1.3115 -1.8185  2.3902
 2712SOL    HW219773   2.533   4.489   3.830  1.6268 -0.6734  0.3788
 2713SOL     OW19774   2.685   0.381   3.673  0.7464 -0.1434  0.3193
 2713SOL    HW119775   2.648   0.293   3.664  1.0261 -0.3318  0.9844
 2713SOL    HW219776   2.695   0.376   3.768  0.1642  2.9249  0.5523
 2714SOL     OW19777   2.646   4.327   4.991  0.4614 -0.3362  0.4975
 2714SOL    HW119778   2.678   4.392   5.054  1.9409 -0.2987 -0.2845
 2714SOL    HW219779   2.663   4.242   5.031 -0.8062 -0.4545  0.7978
 2715SOL     OW19780   2.948   2.306  10.455  0.1698 -0.4309 -0.1501
 2715SOL    HW119781   2.933   2.214  10.476 -1.5047  0.1907  1.3366
 2715SOL    HW219782   3.042   2.315  10.467  0.1351  0.1395 -0.2768
 2716SOL     OW19783   2.067   3.403   2.642  0.3476  0.0633 -0.1771
 2716SOL    HW119784   2.026   3.317   2.651 -0.6128  0.6922  1.2379
 2716SOL    HW219785   2.115   3.382   2.561  2.0343 -0.7828  1.0479
 2717SOL     OW19786   2.626   3.499   7.800  0.2440 -0.0382  0.4134
 2717SOL    HW119787   2.711   3.526   7.834  0.9564 -2.5664  0.5953
 2717SOL    HW219788   2.648   3.424   7.745 -1.3081 -0.5475  0.4929
 2718SOL     OW19789   2.778   3.788  16.579 -0.4205 -0.4493 -0.0882
 2718SOL    HW119790   2.713   3.818  16.516  0.3996  1.6007  0.0611
 2718SOL    HW219791   2.720   3.792  16.655  0.7508  1.2192  0.7193
 2719SOL     OW19792   3.404   2.459   1.238  0.3964 -0.4253 -0.3429
 2719SOL    HW119793   3.397   2.364   1.238  3.3809 -0.6239  1.3438
 2719SOL    HW219794   3.320   2.486   1.276  0.7111 -0.2055  0.1931
 2720SOL     OW19795   3.960   1.105   2.250 -0.7007  0.1979  0.2241
 2720SOL    HW119796   3.984   1.013   2.242  0.0230  0.4320 -0.3543
 2720SOL    HW219797   3.883   1.101   2.306 -0.5106 -0.0339  0.4655
 2721SOL     OW19798   1.998   3.968   2.485  0.0429  0.3716 -0.5004
 2721SOL    HW119799   2.049   4.036   2.442  1.5683 -0.2620  0.2844
 2721SOL    HW219800   1.960   4.016   2.558  0.1631  0.2932 -0.3846
 2722SOL     OW19801   3.015   4.318   4.717 -0.0248  0.2123 -0.1803
 2722SOL    HW119802   3.042   4.384   4.653  1.0574  0.0962  0.1680
 2722SOL    HW219803   2.924   4.344   4.733 -0.4443 -0.9580 -0.6412
 2723SOL     OW19804   4.289   3.675   8.842 -0.2817  0.2202  0.1524
 2723SOL    HW119805   4.365   3.719   8.880 -1.7586  2.2759  0.7380
 2723SOL    HW219806   4.314   3.664   8.750  0.5110  0.1744  0.3688
 2724SOL     OW19807   2.138   2.035  10.667  0.3977  0.2676  0.4222
 2724SOL    HW119808   2.139   1.940  10.665  1.6072  0.2869  0.0680
 2724SOL    HW219809   2.127   2.049  10.761  1.5205 -2.0198  0.8921
 2725SOL     OW19810   2.507   3.955  15.407  0.1436  0.0817 -0.1615
 2725SOL    HW119811   2.537   3.864  15.408 -0.0495  0.0277  0.8418
 2725SOL    HW219812   2.526   3.979  15.316  1.2774 -0.8779 -0.1756
 2726SOL     OW19813   3.851   1.683   3.093 -0.1927 -0.5290  0.0178
 2726SOL    HW119814   3.934   1.653   3.131  2.1383  3.3420 -2.0016
 2726SOL    HW219815   3.868   1.771   3.058 -0.3780  0.1159  1.5136
 2727SOL     OW19816   2.396   0.033   8.335  0.9799  0.5812  0.2516
 2727SOL    HW119817   2.460   0.076   8.391  0.2160  0.6177  1.1055
 2727SOL    HW219818   2.451   4.691   8.302 -1.6073 -1.0368 -0.6104
 2728SOL     OW19819   3.225   1.913   5.558  0.0957 -0.0105  0.9178
 2728SOL    HW119820   3.266   1.910   5.471  1.8934 -0.0120  1.7628
 2728SOL    HW219821   3.252   2.002   5.584  2.8410 -0.5084 -0.2096
 2729SOL     OW19822   4.122   1.207  11.596  0.6930 -0.2722 -0.3589
 2729SOL    HW119823   4.212   1.173  11.599  0.9005  0.2318 -0.8740
 2729SOL    HW219824   4.090   1.131  11.645  0.1487  0.1358 -0.0870
 2730SOL     OW19825   2.554   0.986   8.588  0.3557 -0.1767  0.4384
 2730SOL    HW119826   2.618   0.924   8.552 -1.7527 -2.3312  0.4404
 2730SOL    HW219827   2.601   1.068   8.605  0.4104  0.2929 -1.8707
 2731SOL     OW19828   0.661   4.387   4.873  0.7765 -0.2701 -0.4894
 2731SOL    HW119829   0.642   4.302   4.912 -0.3950  0.3260  0.2551
 2731SOL    HW219830   0.633   4.365   4.785 -0.4786  0.4949 -0.2848
 2732SOL     OW19831   1.036   2.744   4.726 -0.3123  0.0224 -0.3905
 2732SOL    HW119832   1.073   2.672   4.776 -0.5128 -0.0824 -0.3910
 2732SOL    HW219833   0.947   2.741   4.761  0.2590 -0.4859  1.0233
 2733SOL     OW19834   4.133   0.362   2.508 -0.0829 -0.0605 -0.3155
 2733SOL    HW119835   4.120   0.288   2.566 -1.1526 -1.4705 -2.3597
 2733SOL    HW219836   4.048   0.355   2.465 -0.2375  1.2260 -0.2342
 2734SOL     OW19837   2.510   1.140   5.731  0.3242 -0.6817 -0.1466
 2734SOL    HW119838   2.589   1.166   5.779  0.5760 -1.0467 -0.3635
 2734SOL    HW219839   2.510   1.210   5.666  2.3741  0.0566  0.6127
 2735SOL     OW19840   2.627   1.795   1.726  0.3294 -0.3975 -0.2325
 2735SOL    HW119841   2.621   1.706   1.693 -1.6818 -0.1770 -0.4552
 2735SOL    HW219842   2.576   1.790   1.807 -1.8293  2.3777 -1.4037
 2736SOL     OW19843   1.172   0.341   8.025  0.6316  0.0584  0.4828
 2736SOL    HW119844   1.173   0.245   8.033  2.0370  0.0061 -0.4329
 2736SOL    HW219845   1.235   0.392   8.074 -0.5525  3.4824 -1.5756
 2737SOL     OW19846   2.828   3.145   1.390 -0.2242  0.5519 -0.5154
 2737SOL    HW119847   2.795   3.178   1.306  1.1997  0.9455 -0.9318
 2737SOL    HW219848   2.908   3.198   1.387  0.6725 -0.6296  2.8221
 2738SOL     OW19849   3.095   2.605   6.301  0.2198  0.3876 -0.1225
 2738SOL    HW119850   3.162   2.638   6.240 -0.3877 -0.3285 -1.1778
 2738SOL    HW219851   3.120   2.660   6.375  0.7551 -1.3948  1.0267
 2739SOL     OW19852   2.218   3.520   2.874  0.7132 -0.6300 -0.1612
 2739SOL    HW119853   2.143   3.464   2.851 -1.1617  1.7414  0.1245
 2739SOL    HW219854   2.180   3.608   2.877  1.7909 -0.1402 -0.8355
 2740SOL     OW19855   0.071   2.814  12.936 -0.4949 -0.2679  0.1543
 2740SOL    HW119856   0.151   2.860  12.963  0.9494 -2.5208 -0.3479
 2740SOL    HW219857   0.050   2.764  13.015 -0.4336 -0.7073 -0.1064
 2741SOL     OW19858   4.600   4.477   1.377  0.1768  0.0543 -0.4816
 2741SOL    HW119859   4.601   4.437   1.464  0.6462 -1.6648 -1.2715
 2741SOL    HW219860   4.556   4.559   1.396 -1.5488 -1.1477  0.7470
 2742SOL     OW19861   0.258   0.101  11.152 -0.0767  0.4373  0.7397
 2742SOL    HW119862   0.231   0.010  11.162 -1.4877  0.9825  1.9444
 2742SOL    HW219863   0.235   0.119  11.061 -0.1054  1.5690  0.9732
 2743SOL     OW19864   1.057   1.910   0.519 -0.3166 -0.2128  0.1069
 2743SOL    HW119865   1.064   1.820   0.488  0.6764 -0.1735  0.2421
 2743SOL    HW219866   1.029   1.900   0.610 -0.9454  0.5040 -0.0027
 2744SOL     OW19867   2.421   3.640  12.020  0.6262  0.2447 -0.0769
 2744SOL    HW119868   2.403   3.711  12.082  2.1603  0.4502  0.1144
 2744SOL    HW219869   2.468   3.688  11.952 -0.4337 -2.0440 -2.4521
 2745SOL     OW19870   2.867   3.408   3.628 -0.4144 -0.0005  0.0037
 2745SOL    HW119871   2.826   3.385   3.711 -3.6095 -1.1253 -1.8629
 2745SOL    HW219872   2.839   3.327   3.585  0.2427  0.0953 -0.6195
 2746SOL     OW19873   2.380   1.731   4.979  0.2112 -0.3009  0.1865
 2746SOL    HW119874   2.285   1.730   4.967  0.4191  0.5560 -1.5412
 2746SOL    HW219875   2.399   1.638   4.995 -1.3872 -0.4357  1.3495
 2747SOL     OW19876   3.237   4.368  14.553 -0.1625 -0.1306  0.1595
 2747SOL    HW119877   3.218   4.410  14.469 -0.8093 -0.2724  0.2339
 2747SOL    HW219878   3.211   4.432  14.619 -1.7732 -0.9202  0.2908
 2748SOL     OW19879   3.803   2.321   6.742  0.2020 -0.2069 -0.0818
 2748SOL    HW119880   3.725   2.276   6.775 -0.6686  1.3599 -0.0044
 2748SOL    HW219881   3.848   2.251   6.693 -2.7806  0.1926 -3.4160
 2749SOL     OW19882   1.348   2.651   5.842  0.2971 -0.4008  0.6395
 2749SOL    HW119883   1.433   2.669   5.881  1.0631  0.8612 -1.6009
 2749SOL    HW219884   1.364   2.568   5.796 -0.4214 -0.4424  0.4579
 2750SOL     OW19885   3.387   1.365   1.788 -0.0202 -0.4505 -0.2527
 2750SOL    HW119886   3.330   1.441   1.798  0.0129 -0.7433  2.1121
 2750SOL    HW219887   3.401   1.339   1.697 -1.4897  0.8534 -0.8600
 2751SOL     OW19888   2.445   1.571   2.604 -0.0609  0.7674 -0.2459
 2751SOL    HW119889   2.523   1.542   2.557  0.4444  0.8266  0.5656
 2751SOL    HW219890   2.391   1.606   2.533  0.6512  0.2037 -1.0696
 2752SOL     OW19891   1.387   4.248   2.006 -0.6816  0.7438  0.2582
 2752SOL    HW119892   1.392   4.230   1.912  0.6547 -2.6066  0.9522
 2752SOL    HW219893   1.298   4.275   2.026 -0.9556 -0.0108  0.0481
 2753SOL     OW19894   3.383   2.741  17.563 -0.1954 -0.6404  0.1295
 2753SOL    HW119895   3.291   2.759  17.579 -0.4154 -1.1808 -0.5204
 2753SOL    HW219896   3.368   2.696  17.480 -0.6081 -0.6299  0.1966
 2754SOL     OW19897   2.459   3.585  11.333  0.0315  0.0928 -0.4879
 2754SOL    HW119898   2.543   3.591  11.379  0.2371 -0.2411 -0.8294
 2754SOL    HW219899   2.407   3.542  11.401  0.6575 -1.5006 -1.0178
 2755SOL     OW19900   0.746   4.371   2.494 -0.0343  0.0115 -0.6196
 2755SOL    HW119901   0.686   4.382   2.420 -0.9190  0.3568  0.1441
 2755SOL    HW219902   0.697   4.312   2.552 -1.2741  1.3218 -0.3269
 2756SOL     OW19903   0.758   3.139   2.622 -0.3834  0.3916 -0.3085
 2756SOL    HW119904   0.699   3.071   2.588 -1.8239  1.1656  0.6328
 2756SOL    HW219905   0.761   3.199   2.548  2.1257  0.8231  0.1456
 2757SOL     OW19906   2.121   2.219   0.325  0.9098 -0.0095  0.5636
 2757SOL    HW119907   2.040   2.222   0.375  0.3233  0.4555 -0.3979
 2757SOL    HW219908   2.109   2.296   0.268 -0.2310 -0.4527  0.2114
 2758SOL     OW19909   2.378   3.042  11.151 -0.6469  0.1361 -0.2760
 2758SOL    HW119910   2.404   3.089  11.073  5.7443  2.5278  3.2764
 2758SOL    HW219911   2.454   3.069  11.203 -0.2008 -2.2076  0.3162
 2759SOL     OW19912   2.201   3.883  12.811  0.0568 -0.3554  0.0269
 2759SOL    HW119913   2.235   3.892  12.900 -1.9497 -1.2426  0.8787
 2759SOL    HW219914   2.272   3.831  12.771  0.5745  0.1078  0.3447
 2760SOL     OW19915   2.099   3.034   9.923  0.3165  0.7903  0.2982
 2760SOL    HW119916   2.084   3.021  10.016 -1.0617 -0.0372 -0.0369
 2760SOL    HW219917   2.019   3.002   9.879  0.2183  1.2736  0.1236
 2761SOL     OW19918   0.383   2.024   0.836  0.7145  0.2982  0.3332
 2761SOL    HW119919   0.381   1.987   0.924  0.0688  0.5966  0.4419
 2761SOL    HW219920   0.377   1.941   0.789 -2.5312  0.9105 -0.3271
 2762SOL     OW19921   2.486   0.003   5.671  1.0214 -0.1358 -0.0615
 2762SOL    HW119922   2.501   0.063   5.597 -1.5141 -0.4500 -0.8153
 2762SOL    HW219923   2.516   0.059   5.742 -0.3534  0.0693  0.3359
 2763SOL     OW19924   4.561   2.640   0.818 -0.0928  0.8523 -0.1700
 2763SOL    HW119925   4.505   2.631   0.741  0.3237  0.9598 -0.4810
 2763SOL    HW219926   4.506   2.693   0.876 -0.9596  0.1108 -0.3136
 2764SOL     OW19927   3.121   4.121  14.500  0.2067 -0.0255  0.1620
 2764SOL    HW119928   3.140   4.083  14.586 -1.6630  1.1008  1.0675
 2764SOL    HW219929   3.170   4.204  14.503  0.8418 -0.4181  0.7543
 2765SOL     OW19930   0.157   4.097  11.095 -0.3098  0.1727 -0.4316
 2765SOL    HW119931   0.206   4.072  11.174 -1.5771  1.4528  0.7613
 2765SOL    HW219932   0.084   4.142  11.138  0.5483  0.5951  0.5913
 2766SOL     OW19933   2.226   1.230   8.890  0.2662 -0.4322 -0.0785
 2766SOL    HW119934   2.174   1.301   8.852  1.5779 -1.3520 -3.5757
 2766SOL    HW219935   2.204   1.159   8.829 -2.1396  2.2536 -2.3595
 2767SOL     OW19936   4.122   3.505   2.575 -0.1898 -0.3302 -0.1998
 2767SOL    HW119937   4.192   3.565   2.553 -1.9540  1.6349 -0.4153
 2767SOL    HW219938   4.047   3.540   2.526  0.2961  1.4523  0.3478
 2768SOL     OW19939   1.906   2.375   3.146 -0.0191  0.4985  0.1928
 2768SOL    HW119940   1.918   2.284   3.120  0.8512  1.1703 -1.7881
 2768SOL    HW219941   1.826   2.389   3.096 -0.2123 -0.4435  0.2385
 2769SOL     OW19942   2.074   2.247   3.753 -0.1422 -0.4825  0.4574
 2769SOL    HW119943   2.130   2.220   3.826  0.5834  0.8944  0.4233
 2769SOL    HW219944   1.985   2.233   3.785  0.1592 -2.2153  0.5327
 2770SOL     OW19945   0.531   3.786  16.771  0.2488  0.1284 -0.6580
 2770SOL    HW119946   0.490   3.821  16.692 -1.4865  0.4274  0.3706
 2770SOL    HW219947   0.509   3.694  16.776  0.4742  0.1312  0.4297
 2771SOL     OW19948   3.750   3.511  10.999 -0.6363 -0.5943 -0.1333
 2771SOL    HW119949   3.805   3.436  10.979 -4.3963 -3.3885  0.1039
 2771SOL    HW219950   3.813   3.565  11.047  0.2056 -0.5558 -1.2988
 2772SOL     OW19951   1.805   2.031   7.263  0.2140  0.0553  0.5088
 2772SOL    HW119952   1.784   1.946   7.301  2.8718 -1.1700 -0.8098
 2772SOL    HW219953   1.874   2.063   7.322 -0.4097  0.9896  0.7475
 2773SOL     OW19954   2.105   3.083  16.369  0.2457 -0.4707 -0.1787
 2773SOL    HW119955   2.071   3.167  16.338 -0.9620 -0.6483  0.6496
 2773SOL    HW219956   2.055   3.029  16.308 -0.7038  0.1893  0.0217
 2774SOL     OW19957   1.622   2.140   2.279 -0.0257  0.3171  0.2799
 2774SOL    HW119958   1.687   2.145   2.350  0.5568 -0.5742 -0.1935
 2774SOL    HW219959   1.624   2.232   2.255  2.8021 -0.0648 -0.9576
 2775SOL     OW19960   4.593   4.618   4.508 -0.3659  0.2853  0.4642
 2775SOL    HW119961   4.646   4.697   4.515  1.5081 -0.9259 -0.1460
 2775SOL    HW219962   4.525   4.654   4.451  0.0181  0.7801  0.3180
 2776SOL     OW19963   1.367   0.828   7.916 -1.0681  0.0044 -0.1300
 2776SOL    HW119964   1.389   0.921   7.911 -0.1304 -0.2643 -0.8556
 2776SOL    HW219965   1.427   0.800   7.985 -0.5468  1.9005  0.1666
 2777SOL     OW19966   2.570   4.266   0.229  0.4623 -0.2631  0.1855
 2777SOL    HW119967   2.622   4.191   0.259  0.0657 -0.6418 -0.0699
 2777SOL    HW219968   2.487   4.221   0.211 -0.9037  1.7327  1.5157
 2778SOL     OW19969   1.917   2.959  13.225 -0.0069  0.2381 -0.3765
 2778SOL    HW119970   1.922   3.002  13.310  1.2779 -0.2576 -0.2117
 2778SOL    HW219971   1.905   2.868  13.255  3.0042 -0.7259 -2.1410
 2779SOL     OW19972   4.651   2.839  14.003 -0.3230  0.2717 -0.1482
 2779SOL    HW119973   4.694   2.855  13.919  0.8976  0.3823  0.4881
 2779SOL    HW219974   4.621   2.927  14.028 -0.9570  0.2330 -0.7728
 2780SOL     OW19975   0.792   2.037   2.604  0.5043 -0.1886  0.3110
 2780SOL    HW119976   0.816   1.947   2.626 -0.1511  0.1289  2.2552
 2780SOL    HW219977   0.761   2.066   2.690 -2.2456 -3.1247  0.3057
 2781SOL     OW19978   3.991   2.369   6.193  0.4635  0.4298  0.2051
 2781SOL    HW119979   3.992   2.455   6.152  0.3849  0.7775  0.9447
 2781SOL    HW219980   4.086   2.357   6.183  0.2882 -1.4322  0.7571
 2782SOL     OW19981   0.719   2.945  16.168  0.6685 -0.2211 -0.3729
 2782SOL    HW119982   0.803   2.908  16.141  0.9924  2.3910 -3.0021
 2782SOL    HW219983   0.676   2.924  16.085 -0.2321 -1.8897  0.5263
 2783SOL     OW19984   1.611   3.705   2.759  0.5436 -0.0129 -0.4319
 2783SOL    HW119985   1.699   3.720   2.725  0.5030  2.5047  0.5237
 2783SOL    HW219986   1.599   3.780   2.817  0.1726 -0.0164 -0.5047
 2784SOL     OW19987   4.293   0.947   1.646  0.8326 -0.0541  0.0832
 2784SOL    HW119988   4.215   0.968   1.698  0.5211  0.6580 -0.6837
 2784SOL    HW219989   4.348   1.018   1.677  2.7691 -0.8383 -1.5647
 2785SOL     OW19990   2.394   3.798   5.313  0.4387 -0.2557 -0.3277
 2785SOL    HW119991   2.445   3.870   5.348 -1.1659  0.2830  0.9342
 2785SOL    HW219992   2.461   3.732   5.331 -0.1302 -0.5169  0.9100
 2786SOL     OW19993   1.131   1.342   6.817 -0.3898  0.0073  0.0785
 2786SOL    HW119994   1.133   1.420   6.873 -1.8819 -2.5612  3.7517
 2786SOL    HW219995   1.044   1.307   6.836  0.1206 -1.1017  0.3580
 2787SOL     OW19996   2.465   1.800   4.638 -0.2444 -0.1025  0.2623
 2787SOL    HW119997   2.485   1.747   4.716 -0.9197  1.1534  1.2907
 2787SOL    HW219998   2.370   1.815   4.637  0.0460  1.7454  0.6145
 2788SOL     OW19999   2.877   3.587   7.906 -0.3087 -0.0778 -0.0927
 2788SOL    HW120000   2.970   3.576   7.927 -0.5046 -2.1285 -0.3220
 2788SOL    HW220001   2.862   3.671   7.950  0.2192 -0.4553  0.7854
 2789SOL     OW20002   0.238   2.186  15.397  0.2939  0.0891  0.3687
 2789SOL    HW120003   0.229   2.181  15.302 -0.1830  0.8705  0.3752
 2789SOL    HW220004   0.326   2.222  15.409  0.7159  0.4867 -3.9624
 2790SOL     OW20005   2.864   3.911   9.496 -0.4270  0.2990 -0.4003
 2790SOL    HW120006   2.904   3.862   9.568  1.2162  1.3587 -0.6046
 2790SOL    HW220007   2.918   3.990   9.492 -1.6808  1.1986  0.4096
 2791SOL     OW20008   0.995   4.282   3.644 -0.5886  0.6213 -0.7781
 2791SOL    HW120009   0.936   4.209   3.666  1.9763 -1.4864 -0.8377
 2791SOL    HW220010   1.081   4.240   3.648 -0.7319  0.5465  2.0460
 2792SOL     OW20011   2.651   4.719  15.605  0.0177  0.1185  0.5625
 2792SOL    HW120012   2.593   0.060  15.576  0.6734 -1.0128 -3.3825
 2792SOL    HW220013   2.677   4.677  15.523  0.4869 -0.7985  1.1795
 2793SOL     OW20014   1.505   4.716   6.566 -0.1031  0.0880 -0.4713
 2793SOL    HW120015   1.527   4.660   6.491 -1.2322  0.2933 -0.9536
 2793SOL    HW220016   1.551   0.070   6.551 -0.2698  0.0182 -1.3736
 2794SOL     OW20017   2.156   0.546   1.080 -0.1916  0.1633  0.6009
 2794SOL    HW120018   2.161   0.595   0.999 -1.7429  0.7169  0.8367
 2794SOL    HW220019   2.166   0.620   1.141 -0.8326  0.4045  0.4141
 2795SOL     OW20020   1.456   1.840   2.994 -0.2681 -0.1170  0.1495
 2795SOL    HW120021   1.521   1.895   2.950 -0.3621 -1.6018 -1.8732
 2795SOL    HW220022   1.490   1.857   3.081 -1.1171 -3.1029  1.0811
 2796SOL     OW20023   1.744   4.004  10.243  0.0656  0.0966 -0.3442
 2796SOL    HW120024   1.834   4.029  10.266  0.4828 -1.0257 -0.7208
 2796SOL    HW220025   1.714   4.021  10.332  0.7646 -0.3598 -0.0177
 2797SOL     OW20026   3.940   2.775  12.224 -0.0864  0.6181  0.2364
 2797SOL    HW120027   4.026   2.735  12.213 -0.6401 -0.0197 -1.7179
 2797SOL    HW220028   3.891   2.708  12.271 -0.2218  0.0728 -0.6889
 2798SOL     OW20029   1.909   4.103  11.071 -0.0601 -0.0537 -0.3644
 2798SOL    HW120030   1.975   4.054  11.021  1.2889  0.9813  0.3754
 2798SOL    HW220031   1.900   4.052  11.151 -2.6885 -0.3052 -0.8480
 2799SOL     OW20032   2.498   0.868  12.071  0.4429 -0.0494  0.4845
 2799SOL    HW120033   2.460   0.937  12.018  1.0411  0.9024  1.2888
 2799SOL    HW220034   2.469   0.886  12.161 -1.1572  0.1268 -0.0707
 2800SOL     OW20035   1.281   0.827   5.674  0.3234  0.1552  0.0217
 2800SOL    HW120036   1.243   0.907   5.637 -1.4629 -1.1025 -0.8996
 2800SOL    HW220037   1.225   0.758   5.640  1.1850  0.6907 -2.4662
 2801SOL     OW20038   2.639   1.785   8.552  0.1703 -0.2249  0.3310
 2801SOL    HW120039   2.604   1.705   8.512 -0.5825  0.5578 -0.5405
 2801SOL    HW220040   2.732   1.763   8.542  0.9430  2.0832  2.3982
 2802SOL     OW20041   2.914   2.284   3.757 -0.2972  0.3128 -0.0530
 2802SOL    HW120042   2.961   2.264   3.676  0.9647 -1.4866  1.1106
 2802SOL    HW220043   2.898   2.196   3.792 -1.3351 -0.3674 -2.2929
 2803SOL     OW20044   2.396   0.921  14.355 -0.0413  0.2568 -0.1504
 2803SOL    HW120045   2.449   0.935  14.277  0.2060 -1.0201 -0.2037
 2803SOL    HW220046   2.452   0.976  14.410 -0.7732  2.0254 -1.1469
 2804SOL     OW20047   4.588   0.017   2.626  0.1351 -0.0835  0.1217
 2804SOL    HW120048   4.617   4.721   2.714 -0.6411 -0.4143  0.2834
 2804SOL    HW220049   4.507   0.063   2.651  0.0413 -0.0432 -0.2651
 2805SOL     OW20050   2.719   0.191   2.525  0.5816  0.7481  0.8242
 2805SOL    HW120051   2.702   0.261   2.588  0.9191  0.4581  1.2356
 2805SOL    HW220052   2.811   0.177   2.548  0.2558  0.0080  1.6357
 2806SOL     OW20053   3.900   1.731   1.902  0.1276  0.2057 -0.4137
 2806SOL    HW120054   3.828   1.711   1.962  1.3991 -2.1491  0.3141
 2806SOL    HW220055   3.917   1.645   1.862  3.5477  0.1328  1.2428
 2807SOL     OW20056   1.570   3.959   8.434  0.0355 -0.3549 -0.3057
 2807SOL    HW120057   1.632   4.031   8.423  0.5082 -0.5100  1.3944
 2807SOL    HW220058   1.494   3.981   8.381  0.2987  0.0131 -0.5295
 2808SOL     OW20059   4.369   2.050  15.357 -0.4144  0.5804 -0.1604
 2808SOL    HW120060   4.316   2.005  15.423  0.0797  1.8541  1.1188
 2808SOL    HW220061   4.449   2.000  15.344 -0.0182  0.8430  1.2691
 2809SOL     OW20062   1.925   0.605   8.373  0.2129 -0.2790  0.4006
 2809SOL    HW120063   1.953   0.692   8.345 -0.9437 -0.0953 -0.1500
 2809SOL    HW220064   1.885   0.573   8.293 -0.5329  0.8205  0.3352
 2810SOL     OW20065   0.155   4.342   2.622 -0.1664  0.0587  0.5309
 2810SOL    HW120066   0.072   4.295   2.614  0.2375 -0.6881  0.6545
 2810SOL    HW220067   0.156   4.415   2.561  0.5721 -0.3199  0.0745
 2811SOL     OW20068   4.224   4.079   7.781 -0.2291  0.4183 -0.0114
 2811SOL    HW120069   4.280   4.013   7.739  0.6009  0.1346  1.5780
 2811SOL    HW220070   4.208   4.032   7.863 -1.0114  1.4020  0.4004
 2812SOL     OW20071   1.737   2.185   1.786  0.0542 -0.1175  0.2244
 2812SOL    HW120072   1.668   2.145   1.733  1.3239 -1.4884 -0.3877
 2812SOL    HW220073   1.816   2.168   1.735  1.1060  1.9093  1.1754
 2813SOL     OW20074   3.758   2.642   6.218  0.2356  0.4645  0.2280
 2813SOL    HW120075   3.718   2.566   6.177 -1.4054  1.7447 -0.5436
 2813SOL    HW220076   3.689   2.655   6.283  0.6814  1.7745  0.4505
 2814SOL     OW20077   0.857   4.379   7.476  0.3638 -0.4205  0.6375
 2814SOL    HW120078   0.843   4.287   7.499  1.8030 -0.5728  0.8797
 2814SOL    HW220079   0.888   4.370   7.386 -1.2374  3.7743 -0.3623
 2815SOL     OW20080   2.019   2.646   2.260  0.2562 -0.0378  0.4860
 2815SOL    HW120081   2.065   2.729   2.253  1.8135 -1.0074 -0.6260
 2815SOL    HW220082   1.996   2.628   2.169 -2.7647 -0.9319  1.4279
 2816SOL     OW20083   3.938   1.892   6.491 -0.1242  0.0747 -0.0929
 2816SOL    HW120084   3.919   1.897   6.397 -3.3730 -1.7007  0.4742
 2816SOL    HW220085   3.929   1.984   6.517 -0.8092 -0.6672  2.2589
 2817SOL     OW20086   0.687   2.215  11.886  0.9845  0.0203  0.1218
 2817SOL    HW120087   0.693   2.199  11.980 -2.2859 -1.3418  0.0910
 2817SOL    HW220088   0.594   2.237  11.879  0.7743 -1.0842 -0.5687
 2818SOL     OW20089   1.116   1.271   9.123 -0.1828 -0.4725  0.2731
 2818SOL    HW120090   1.047   1.324   9.082  0.7874 -0.2569 -1.0778
 2818SOL    HW220091   1.112   1.292   9.216 -0.1849  3.0027 -0.5189
 2819SOL     OW20092   2.592   1.935  13.301 -0.4288 -0.1338  0.2590
 2819SOL    HW120093   2.544   1.852  13.302 -1.9285  0.7302 -0.9837
 2819SOL    HW220094   2.661   1.916  13.365  0.8492 -1.0511 -1.3712
 2820SOL     OW20095   4.574   2.398   6.383  0.1797  0.3920 -0.0162
 2820SOL    HW120096   4.613   2.436   6.462 -1.8293 -1.8393  2.0681
 2820SOL    HW220097   4.505   2.358   6.437 -0.0155  1.0109  0.1887
 2821SOL     OW20098   1.738   3.987   8.696 -0.0219 -0.1867 -0.2323
 2821SOL    HW120099   1.736   3.985   8.600  3.7256 -0.7023 -0.3143
 2821SOL    HW220100   1.723   4.078   8.720 -1.3587 -0.0143 -1.7849
 2822SOL     OW20101   3.431   2.998   2.448  0.1329  0.1704  0.3682
 2822SOL    HW120102   3.509   2.946   2.428 -1.6028 -1.9931 -0.9452
 2822SOL    HW220103   3.473   3.080   2.422  0.6847 -0.0152  0.6763
 2823SOL     OW20104   1.791   2.643   0.987 -0.2166  0.4416  0.6216
 2823SOL    HW120105   1.864   2.588   0.958 -0.3378  1.1173 -0.9122
 2823SOL    HW220106   1.791   2.630   1.082 -0.8931 -0.4135  0.5021
 2824SOL     OW20107   1.914   4.261  14.832 -0.2522  0.2845 -0.2137
 2824SOL    HW120108   1.853   4.299  14.768 -2.4164 -3.7778 -0.5450
 2824SOL    HW220109   1.867   4.249  14.914 -0.2978 -1.4946 -0.5057
 2825SOL     OW20110   1.719   0.561   5.624  0.0864  0.2563 -0.2714
 2825SOL    HW120111   1.684   0.566   5.713  0.8318 -0.4057  0.0547
 2825SOL    HW220112   1.690   0.475   5.594  0.5511 -0.5026  1.4625
 2826SOL     OW20113   2.546   2.656   4.414  0.1751 -0.2855 -0.0081
 2826SOL    HW120114   2.631   2.698   4.403  0.4444 -0.7260  0.4053
 2826SOL    HW220115   2.572   2.566   4.394  1.4341  0.1467 -0.3122
 2827SOL     OW20116   2.216   3.587   5.892  0.1421 -0.0877 -0.7314
 2827SOL    HW120117   2.242   3.642   5.817  0.0342  0.5570 -0.2992
 2827SOL    HW220118   2.135   3.633   5.915 -0.4773 -1.3654 -0.3931
 2828SOL     OW20119   3.322   3.587   6.096  0.9507  0.0072  0.2739
 2828SOL    HW120120   3.384   3.646   6.052  0.6918 -0.8370 -1.2054
 2828SOL    HW220121   3.257   3.594   6.027  2.2951  0.5653 -0.9315
 2829SOL     OW20122   2.079   2.009  14.165  0.1423  0.0635 -0.2554
 2829SOL    HW120123   2.147   1.986  14.101  0.7437 -0.7086  0.6736
 2829SOL    HW220124   2.025   2.067  14.112  0.3379 -1.6913 -2.3955
 2830SOL     OW20125   1.488   0.392   4.529  0.0145 -0.0527  0.1858
 2830SOL    HW120126   1.394   0.400   4.546  0.2486  3.0662 -0.0485
 2830SOL    HW220127   1.510   0.339   4.606  0.2557 -1.0392 -0.5556
 2831SOL     OW20128   2.841   2.337   5.872 -0.4936 -0.1733 -0.0230
 2831SOL    HW120129   2.842   2.241   5.867 -0.0015 -0.1830  0.2705
 2831SOL    HW220130   2.747   2.351   5.863 -0.5709 -0.0305  0.9614
 2832SOL     OW20131   2.239   1.046  16.832 -0.3175  0.3656 -0.0606
 2832SOL    HW120132   2.186   1.085  16.902 -0.7689  0.7534 -0.6241
 2832SOL    HW220133   2.188   1.052  16.752  0.4788  1.1177 -0.5073
 2833SOL     OW20134   0.037   3.631   8.048 -0.1496 -0.6469 -0.1219
 2833SOL    HW120135   0.013   3.665   7.962  2.0190  2.8084  0.6540
 2833SOL    HW220136   4.679   3.605   8.078 -0.4582 -0.3110 -0.7421
 2834SOL     OW20137   4.030   1.656   8.183 -0.4287 -0.0948  0.5991
 2834SOL    HW120138   4.073   1.575   8.155 -0.2261  0.3944 -0.4932
 2834SOL    HW220139   4.095   1.691   8.243  0.3310 -0.1324 -0.2056
 2835SOL     OW20140   1.747   0.071   3.177  0.0498 -0.4665 -0.0334
 2835SOL    HW120141   1.767   0.019   3.254  2.2769 -1.8012 -1.5269
 2835SOL    HW220142   1.668   0.120   3.201  0.3134  0.3590 -0.8135
 2836SOL     OW20143   1.428   0.873   4.650  0.0998 -0.1103  0.8226
 2836SOL    HW120144   1.381   0.953   4.627  0.0890  0.1245  1.6402
 2836SOL    HW220145   1.518   0.899   4.630 -0.6427  0.7151 -1.4432
 2837SOL     OW20146   1.930   1.410   3.538 -0.6355 -0.4826  0.2536
 2837SOL    HW120147   1.863   1.387   3.473  1.8909 -1.7654 -1.8913
 2837SOL    HW220148   1.875   1.429   3.614 -1.6056  1.4180 -0.9428
 2838SOL     OW20149   1.470   3.258   7.969  0.6818 -0.4503  0.2533
 2838SOL    HW120150   1.414   3.278   7.894  3.3186 -2.4276 -2.2660
 2838SOL    HW220151   1.523   3.338   7.969  2.6549 -1.7612  1.8082
 2839SOL     OW20152   3.635   3.247   4.568  0.1037 -0.5506 -0.5224
 2839SOL    HW120153   3.644   3.341   4.587  1.5762 -1.1732  1.7971
 2839SOL    HW220154   3.546   3.233   4.537 -0.9916  0.5095  2.1160
 2840SOL     OW20155   2.740   4.264   3.742 -0.0289 -0.2190  0.1333
 2840SOL    HW120156   2.684   4.189   3.722  2.0211 -1.3309 -1.4711
 2840SOL    HW220157   2.777   4.282   3.655 -0.4204 -0.3595 -0.0646
 2841SOL     OW20158   3.134   0.837  16.098 -0.2382 -0.0074  0.2951
 2841SOL    HW120159   3.200   0.780  16.136  0.8084  1.2162  0.3071
 2841SOL    HW220160   3.165   0.920  16.134  0.5113  0.5483 -1.6168
 2842SOL     OW20161   3.741   4.665   6.686 -0.3836 -0.5417 -0.0739
 2842SOL    HW120162   3.804   4.640   6.618 -2.3486  2.1369 -2.8484
 2842SOL    HW220163   3.765   0.028   6.695 -2.6022  0.0481 -0.3591
 2843SOL     OW20164   0.634   0.622   2.929  0.3120 -0.7284  0.5665
 2843SOL    HW120165   0.584   0.597   2.852 -0.7734 -0.2626  1.1174
 2843SOL    HW220166   0.636   0.544   2.984  3.2697  0.6094  2.3664
 2844SOL     OW20167   2.011   4.705   5.460  0.4374 -0.0840 -0.5984
 2844SOL    HW120168   2.036   0.001   5.371 -2.6866 -0.3590 -1.5732
 2844SOL    HW220169   2.070   4.635   5.487 -1.8854 -0.4263  3.5654
 2845SOL     OW20170   0.727   3.134   7.211  0.0922 -0.7346  0.1400
 2845SOL    HW120171   0.674   3.069   7.257 -2.8487  0.9707 -0.7898
 2845SOL    HW220172   0.817   3.102   7.211 -0.1442 -1.3863 -0.4380
 2846SOL     OW20173   1.834   0.150   5.197 -0.5651 -0.2536 -0.2935
 2846SOL    HW120174   1.824   0.055   5.194  0.2201 -0.2940 -1.3876
 2846SOL    HW220175   1.928   0.161   5.189 -0.5841  0.8568  1.0062
 2847SOL     OW20176   0.940   4.504  17.695  0.2045  0.2998  0.2782
 2847SOL    HW120177   0.928   4.414  17.664 -1.3054  0.5502  0.1378
 2847SOL    HW220178   1.028   4.525  17.663  0.0014 -0.4562 -0.7451
 2848SOL     OW20179   0.109   0.464   3.155 -0.3349 -0.0918  0.6322
 2848SOL    HW120180   0.189   0.424   3.189  1.2767  1.5207 -1.2752
 2848SOL    HW220181   0.057   0.383   3.148  1.6108 -1.3438  0.8247
 2849SOL     OW20182   2.783   4.655   8.067 -0.4661  0.8906 -0.6378
 2849SOL    HW120183   2.827   4.572   8.049 -2.5941 -0.7678  1.8648
 2849SOL    HW220184   2.742   4.666   7.981 -1.4195  1.1283 -0.1524
 2850SOL     OW20185   1.099   2.338   4.632  0.0061 -0.6878 -0.2314
 2850SOL    HW120186   1.013   2.298   4.622 -0.6895  1.3898 -2.3105
 2850SOL    HW220187   1.098   2.392   4.711  0.1060  1.1118 -1.4647
 2851SOL     OW20188   4.044   0.173   2.657 -0.0313 -0.8028  0.7739
 2851SOL    HW120189   4.001   0.103   2.607 -0.1791  0.3505 -0.7062
 2851SOL    HW220190   4.096   0.126   2.722 -2.0020 -3.9936  0.0562
 2852SOL     OW20191   2.902   2.409   7.638 -0.3668 -0.6067 -0.1024
 2852SOL    HW120192   2.807   2.419   7.645 -0.3553 -0.2212 -0.4724
 2852SOL    HW220193   2.921   2.411   7.544 -1.2965 -0.7102 -0.2931
 2853SOL     OW20194   0.545   0.106   4.498  0.3168  1.1150  0.1559
 2853SOL    HW120195   0.625   0.070   4.460  0.4186 -1.2025  2.6007
 2853SOL    HW220196   0.504   0.037   4.551 -0.1148  1.0173 -0.3007
 2854SOL     OW20197   2.842   1.426   1.610  0.0035 -0.1255 -0.8805
 2854SOL    HW120198   2.879   1.511   1.585 -2.9195  0.9450 -1.5754
 2854SOL    HW220199   2.894   1.419   1.690  1.3438  3.4822 -1.4304
 2855SOL     OW20200   1.131   2.453   5.129 -0.1644 -0.3052 -0.0080
 2855SOL    HW120201   1.062   2.419   5.185 -1.7346 -0.9950 -2.3641
 2855SOL    HW220202   1.133   2.544   5.158 -1.7428 -0.2687 -0.0427
 2856SOL     OW20203   3.975   4.230   6.421 -0.2394 -0.8023  0.4477
 2856SOL    HW120204   3.917   4.226   6.497  1.3556  0.5695  1.7253
 2856SOL    HW220205   4.048   4.272   6.467  0.1392  1.0072 -1.7974
 2857SOL     OW20206   1.874   4.381   4.329 -0.5260 -0.7111 -0.6863
 2857SOL    HW120207   1.954   4.345   4.291 -0.3407 -0.6704 -0.3394
 2857SOL    HW220208   1.813   4.337   4.271  1.0290 -3.3802 -0.2549
 2858SOL     OW20209   2.849   3.950   6.553  0.1345 -0.3563  0.5325
 2858SOL    HW120210   2.798   3.950   6.634 -2.9885 -1.6252 -1.4172
 2858SOL    HW220211   2.930   3.999   6.567  0.0052 -0.0104  0.0707
 2859SOL     OW20212   0.571   2.224  13.885  0.1717  0.0155 -0.3156
 2859SOL    HW120213   0.541   2.165  13.954 -1.2425  0.3811 -0.6180
 2859SOL    HW220214   0.619   2.293  13.930  0.9819 -0.0114 -1.1388
 2860SOL     OW20215   1.425   0.964  14.287 -0.0645 -0.4509  0.4265
 2860SOL    HW120216   1.345   0.914  14.270 -0.5611  0.3469  0.4408
 2860SOL    HW220217   1.482   0.892  14.312 -0.4492 -0.7544  0.4395
 2861SOL     OW20218   1.173   1.097   5.652 -0.1737  0.7527 -0.3149
 2861SOL    HW120219   1.119   1.088   5.730  0.0923  1.9618  0.0105
 2861SOL    HW220220   1.123   1.058   5.581 -0.5827  0.2240  0.2665
 2862SOL     OW20221   2.738   2.015   8.297  0.8450 -0.0109  0.0780
 2862SOL    HW120222   2.807   1.951   8.311  0.0572 -0.9183 -0.1501
 2862SOL    HW220223   2.743   2.028   8.202  0.6549 -0.6140 -0.0158
 2863SOL     OW20224   2.610   0.058   3.345  0.0108  0.0590 -0.4251
 2863SOL    HW120225   2.547   0.129   3.362  0.7745  0.4298  0.8921
 2863SOL    HW220226   2.671   0.098   3.284  2.2593 -1.3848  0.8986
 2864SOL     OW20227   0.829   2.679   4.857 -0.2119  0.1021 -0.1773
 2864SOL    HW120228   0.845   2.587   4.833  1.2600  0.1052  0.7927
 2864SOL    HW220229   0.737   2.698   4.837  0.1741  2.1357 -0.0315
 2865SOL     OW20230   3.607   2.790   9.696 -0.1047 -0.0478 -0.0556
 2865SOL    HW120231   3.677   2.791   9.631  2.8170  0.1334  3.1125
 2865SOL    HW220232   3.636   2.723   9.757  1.3469  1.2782  0.7001
 2866SOL     OW20233   3.854   2.082  17.440  0.0433  0.2772  0.3973
 2866SOL    HW120234   3.818   2.020  17.503 -0.9608 -0.9043 -1.3712
 2866SOL    HW220235   3.789   2.079  17.371  2.2216  0.3594 -1.6545
 2867SOL     OW20236   0.770   3.726   7.298  0.1251 -0.4260 -0.4064
 2867SOL    HW120237   0.789   3.766   7.213 -3.8050  0.4267 -0.8910
 2867SOL    HW220238   0.822   3.646   7.302  0.4253 -0.2108 -0.0458
 2868SOL     OW20239   2.375   3.976  11.429  0.2836 -0.1716  0.0899
 2868SOL    HW120240   2.346   4.067  11.424  0.2304 -0.0823  2.1348
 2868SOL    HW220241   2.367   3.945  11.339 -1.4660  1.5953 -0.3573
 2869SOL     OW20242   1.822   2.092   7.872 -0.3468  0.1457  0.1981
 2869SOL    HW120243   1.734   2.129   7.872 -0.5675 -0.3874  0.7057
 2869SOL    HW220244   1.869   2.176   7.873  1.3240 -0.7584 -2.0868
 2870SOL     OW20245   0.459   3.038  13.204  0.0545 -0.0559 -0.6869
 2870SOL    HW120246   0.422   3.031  13.116  2.3562  0.4507 -1.7036
 2870SOL    HW220247   0.405   3.103  13.248  0.7113 -0.5586  0.8660
 2871SOL     OW20248   3.490   1.022   1.733 -0.1150  0.0316 -0.2248
 2871SOL    HW120249   3.556   0.952   1.733  1.3581  1.4174  0.1243
 2871SOL    HW220250   3.528   1.098   1.777 -0.6660 -0.4738  1.1156
 2872SOL     OW20251   0.139   2.070  10.554 -0.1485  0.5608  0.3350
 2872SOL    HW120252   0.108   2.145  10.502  1.2695  1.4835  0.8207
 2872SOL    HW220253   0.081   1.999  10.525  1.7700  0.3261 -3.0008
 2873SOL     OW20254   2.839   4.034  13.427 -0.2930  0.2726  0.6631
 2873SOL    HW120255   2.757   3.987  13.448 -0.8626  0.1191 -1.9764
 2873SOL    HW220256   2.818   4.108  13.370 -0.2618  0.4180  0.8400
 2874SOL     OW20257   3.965   4.510  12.151  0.4054  0.6508  0.5000
 2874SOL    HW120258   3.968   4.434  12.210  1.5873 -0.8204 -1.4213
 2874SOL    HW220259   3.883   4.557  12.162 -0.4596 -0.5715 -0.6797
 2875SOL     OW20260   0.936   0.464   3.350 -0.0320  0.0498  0.1000
 2875SOL    HW120261   0.891   0.405   3.289 -0.2944  0.1631  0.1833
 2875SOL    HW220262   0.897   0.549   3.328 -0.7898  0.1766  1.9370
 2876SOL     OW20263   4.410   1.754   8.666 -0.5813 -0.2922 -0.8309
 2876SOL    HW120264   4.424   1.668   8.706 -0.4511 -0.2884 -0.8656
 2876SOL    HW220265   4.318   1.778   8.672 -0.4252  0.5634 -1.7005
 2877SOL     OW20266   3.394   4.197   8.810  0.4466  0.4568  0.4030
 2877SOL    HW120267   3.401   4.272   8.868 -0.2595  1.4456 -0.7904
 2877SOL    HW220268   3.311   4.161   8.841  0.0522  1.1356  0.1244
 2878SOL     OW20269   4.651   0.783  11.894 -0.4066 -0.7165  0.3879
 2878SOL    HW120270   0.012   0.752  11.902  0.3535  1.1764 -1.0976
 2878SOL    HW220271   4.668   0.875  11.874 -0.4861 -0.5793  0.9565
 2879SOL     OW20272   3.026   1.059   7.041  0.6372 -0.0342  0.3685
 2879SOL    HW120273   3.084   0.986   7.058 -1.8461 -1.7112  1.6896
 2879SOL    HW220274   3.057   1.092   6.957  4.0408  0.2624  1.7514
 2880SOL     OW20275   3.463   4.456   3.003 -0.0074  0.1732 -0.3221
 2880SOL    HW120276   3.401   4.529   2.994 -1.8427 -1.2265  1.1739
 2880SOL    HW220277   3.431   4.415   2.923  2.5706 -1.2254 -0.6506
 2881SOL     OW20278   2.365   2.127   1.945 -0.5206 -0.7127 -0.2996
 2881SOL    HW120279   2.296   2.178   1.903 -1.2211 -2.0026 -0.7178
 2881SOL    HW220280   2.318   2.056   1.988  1.5529 -1.5128  0.6479
 2882SOL     OW20281   0.616   4.702   9.487 -0.7696  0.1919  0.6661
 2882SOL    HW120282   0.637   0.046   9.429  0.6079  0.5678  1.6424
 2882SOL    HW220283   0.626   0.024   9.567 -0.2645  0.5339  0.3805
 2883SOL     OW20284   2.475   3.145   2.977  0.1017 -0.3615  0.1457
 2883SOL    HW120285   2.552   3.123   2.924 -0.9998  0.1948 -1.6586
 2883SOL    HW220286   2.460   3.060   3.018 -1.4239 -0.0016  0.3237
 2884SOL     OW20287   1.300   2.528   1.626 -0.0256 -0.7653 -0.2802
 2884SOL    HW120288   1.312   2.471   1.549  1.4671 -2.7718  1.4250
 2884SOL    HW220289   1.227   2.481   1.665  0.3768 -0.9592  0.2476
 2885SOL     OW20290   3.378   1.624  16.805  0.1779 -0.3737  0.7059
 2885SOL    HW120291   3.344   1.541  16.838 -1.5041 -0.0034 -0.0470
 2885SOL    HW220292   3.339   1.628  16.717  0.3781  1.8473  0.7016
 2886SOL     OW20293   3.698   0.692   4.846 -0.5378  0.0828  0.7919
 2886SOL    HW120294   3.769   0.753   4.826  0.2017 -0.5088  1.6193
 2886SOL    HW220295   3.620   0.730   4.807 -1.2583 -2.0610  0.1645
 2887SOL     OW20296   4.653   1.763   6.247 -0.5528 -0.2559  0.1421
 2887SOL    HW120297   4.592   1.721   6.186 -0.5744  0.7454 -0.5322
 2887SOL    HW220298   4.723   1.785   6.186  0.8886 -0.4215  1.7450
 2888SOL     OW20299   4.025   4.354   3.951  0.0550 -0.6208 -0.1623
 2888SOL    HW120300   4.043   4.316   4.037 -1.8006 -2.0564 -0.4144
 2888SOL    HW220301   3.946   4.304   3.931 -0.4335  0.6075 -1.3276
 2889SOL     OW20302   3.655   0.410   5.996  0.0673  0.3168 -0.1172
 2889SOL    HW120303   3.711   0.338   6.026 -2.7145 -2.4069 -1.5101
 2889SOL    HW220304   3.599   0.371   5.929  0.0963  0.2102 -0.0783
 2890SOL     OW20305   4.591   0.823   2.229  0.5243  0.6985  0.2734
 2890SOL    HW120306   4.497   0.840   2.231  0.4459  0.2303  0.5839
 2890SOL    HW220307   4.597   0.734   2.194  1.4401  0.7267  0.3441
 2891SOL     OW20308   0.823   2.930   3.384 -0.1966 -0.2033 -0.5962
 2891SOL    HW120309   0.802   2.952   3.294 -0.6408  0.6589 -0.2816
 2891SOL    HW220310   0.809   3.012   3.431  0.6602 -1.1835  1.3954
 2892SOL     OW20311   4.230   2.754   6.136  0.3567 -0.2365  0.2687
 2892SOL    HW120312   4.209   2.846   6.145 -1.8827 -0.5203 -2.0070
 2892SOL    HW220313   4.277   2.762   6.053 -0.7700 -0.3660 -0.3799
 2893SOL     OW20314   3.568   4.540  10.038  0.1776 -0.6037 -0.7742
 2893SOL    HW120315   3.521   4.560   9.957  1.9416  1.9614 -1.1862
 2893SOL    HW220316   3.608   4.624  10.059 -0.8061 -0.3854  0.2143
 2894SOL     OW20317   4.132   3.011   6.183 -0.5034  0.3536 -0.1708
 2894SOL    HW120318   4.053   3.013   6.237  0.4782 -0.3665  1.2996
 2894SOL    HW220319   4.126   3.096   6.137 -1.4617  1.3090  1.7188
 2895SOL     OW20320   0.205   3.298  14.096  0.9291 -0.1697 -0.1578
 2895SOL    HW120321   0.213   3.211  14.056 -1.0422  0.2388 -1.3925
 2895SOL    HW220322   0.180   3.360  14.029 -0.3379  0.8279  1.2486
 2896SOL     OW20323   0.436   4.389   3.156 -0.5007 -0.1205  0.2496
 2896SOL    HW120324   0.505   4.357   3.213  0.6219 -0.1505 -1.1349
 2896SOL    HW220325   0.373   4.431   3.214 -0.2055  0.7495 -0.0591
 2897SOL     OW20326   4.567   4.680  12.683  0.7155  0.0681  0.3077
 2897SOL    HW120327   4.513   4.724  12.618 -0.9695 -0.3856  1.4167
 2897SOL    HW220328   4.494   4.644  12.733  0.1862  0.3128 -0.2909
 2898SOL     OW20329   0.572   0.977   6.536  0.3746 -0.1143  0.1170
 2898SOL    HW120330   0.518   1.009   6.608 -1.3970  1.5350 -1.9158
 2898SOL    HW220331   0.505   0.933   6.484 -2.3657  1.6503  2.1426
 2899SOL     OW20332   1.684   4.620   9.942 -0.0533  0.2997 -0.3621
 2899SOL    HW120333   1.651   4.538   9.979  1.4393  1.2001  2.8807
 2899SOL    HW220334   1.776   4.595   9.937  0.5912  2.6611  0.0167
 2900SOL     OW20335   3.169   4.558   5.801 -0.2747 -0.0299 -0.4639
 2900SOL    HW120336   3.205   4.490   5.859  1.3639  0.0028 -1.4282
 2900SOL    HW220337   3.138   4.508   5.726 -0.4051 -1.4264  0.5285
 2901SOL     OW20338   2.262   4.060   6.449 -0.2139 -0.1614 -0.0661
 2901SOL    HW120339   2.200   3.990   6.436 -1.6091  0.6616  2.1202
 2901SOL    HW220340   2.341   4.024   6.409  0.3477 -0.1525  1.0219
 2902SOL     OW20341   0.130   0.823   0.050 -0.3399 -0.4067  0.0523
 2902SOL    HW120342   0.154   0.911   0.080 -1.0954  0.7669 -2.7548
 2902SOL    HW220343   0.161   0.810  17.677 -0.0323 -0.0364  0.1030
 2903SOL     OW20344   0.844   3.345   2.389 -0.0545 -0.0712  0.0241
 2903SOL    HW120345   0.834   3.438   2.368 -0.7420 -0.5280 -1.6613
 2903SOL    HW220346   0.935   3.336   2.361  0.2754 -2.4198  1.7982
 2904SOL     OW20347   1.910   1.090   3.772  0.1196 -0.0213  0.1994
 2904SOL    HW120348   1.931   1.030   3.844  0.9713  0.1022  0.0639
 2904SOL    HW220349   1.816   1.077   3.766  0.0848  0.3182 -0.0043
 2905SOL     OW20350   3.203   4.529   8.739 -0.2126 -0.2556  0.0534
 2905SOL    HW120351   3.280   4.493   8.782 -0.7909 -0.2445  1.0942
 2905SOL    HW220352   3.164   4.453   8.696 -0.1585 -0.4133  0.2870
 2906SOL     OW20353   0.624   0.100   3.618  0.2171 -0.2843  0.0139
 2906SOL    HW120354   0.626   0.189   3.654 -1.8365  0.0566 -0.7171
 2906SOL    HW220355   0.687   0.105   3.546  1.8630  1.4484  1.5714
 2907SOL     OW20356   0.899   4.048   3.923  0.3845 -1.1224 -0.0066
 2907SOL    HW120357   0.916   3.998   3.843 -0.0160  0.0106 -0.7985
 2907SOL    HW220358   0.933   3.983   3.984  0.2574  2.3735  3.8457
 2908SOL     OW20359   2.957   3.275  12.081 -0.3606  0.0661 -0.1077
 2908SOL    HW120360   2.903   3.220  12.137 -2.2665  1.8590 -0.1955
 2908SOL    HW220361   2.905   3.355  12.076 -0.0834  0.3369  1.4920
 2909SOL     OW20362   2.769   3.788  15.878  0.1677 -0.2677  0.9161
 2909SOL    HW120363   2.819   3.859  15.836  1.0142 -1.3787  0.0414
 2909SOL    HW220364   2.827   3.719  15.846  0.7224  0.5131  0.2050
 2910SOL     OW20365   4.428   4.383  11.977 -0.3568 -0.2173  0.2256
 2910SOL    HW120366   4.367   4.311  11.961  0.3326 -0.9272  0.8222
 2910SOL    HW220367   4.361   4.434  12.022 -1.3072 -2.6537  1.5203
 2911SOL     OW20368   2.119   1.748   6.484 -0.0234  0.4660 -0.1920
 2911SOL    HW120369   2.185   1.699   6.532 -0.8162  0.1814  0.6094
 2911SOL    HW220370   2.080   1.673   6.438 -1.5070  1.1003  0.0167
 2912SOL     OW20371   0.846   3.629   2.922 -0.8051 -0.3297 -0.1751
 2912SOL    HW120372   0.820   3.552   2.870  1.2999 -0.9477 -0.2892
 2912SOL    HW220373   0.861   3.688   2.849  0.3137 -1.4380 -0.8327
 2913SOL     OW20374   0.083   2.995   6.272  0.0706 -0.0012  0.7133
 2913SOL    HW120375   0.011   2.934   6.288 -0.5445  0.1830 -1.3885
 2913SOL    HW220376   0.051   3.031   6.189  1.0254 -0.0161  0.3331
 2914SOL     OW20377   0.091   3.026   6.736 -0.1698 -0.2305 -0.5034
 2914SOL    HW120378   0.036   3.101   6.713 -0.5985 -0.1523  0.7796
 2914SOL    HW220379   0.054   2.998   6.820 -0.3276 -1.1540 -0.8853
 2915SOL     OW20380   3.025   4.063   7.562 -0.7822  0.0842  0.4294
 2915SOL    HW120381   3.060   4.098   7.644  1.2978 -0.9489 -0.0125
 2915SOL    HW220382   3.065   3.976   7.557 -0.2688  0.1994  2.7198
 2916SOL     OW20383   4.548   1.588  14.320  0.0529 -0.1098 -0.3153
 2916SOL    HW120384   4.530   1.576  14.227  0.3295 -0.3780 -0.3389
 2916SOL    HW220385   4.534   1.681  14.335 -0.4029 -0.1485 -0.5058
 2917SOL     OW20386   0.154   3.890   7.496  0.4110 -0.6308  0.3343
 2917SOL    HW120387   0.186   3.818   7.442 -1.5013 -0.5635 -0.9112
 2917SOL    HW220388   0.072   3.912   7.451 -0.1573 -2.6918  0.3503
 2918SOL     OW20389   3.532   1.711   0.684  0.7145 -0.7360 -0.3726
 2918SOL    HW120390   3.603   1.647   0.693 -0.0144 -1.4200  0.5123
 2918SOL    HW220391   3.475   1.654   0.633 -1.1073  0.1330  0.7131
 2919SOL     OW20392   1.055   4.374   5.816  0.2341 -0.1917  0.3259
 2919SOL    HW120393   1.108   4.348   5.741 -0.0445  1.1981 -0.3627
 2919SOL    HW220394   1.077   4.466   5.828  0.2639 -0.0672 -0.6885
 2920SOL     OW20395   4.012   4.632   4.206 -0.0964  0.0791  0.4510
 2920SOL    HW120396   3.981   4.668   4.289  0.5945  0.5633  0.4974
 2920SOL    HW220397   4.096   4.597   4.235  0.0971 -0.5390 -0.8451
 2921SOL     OW20398   3.934   0.805   6.460 -0.6460  0.4027 -0.1113
 2921SOL    HW120399   3.957   0.853   6.539 -1.2725 -0.0592  0.3447
 2921SOL    HW220400   3.847   0.771   6.480 -0.0919 -0.9820 -0.0529
 2922SOL     OW20401   4.076   3.791  13.073 -0.7249 -0.2778 -0.0205
 2922SOL    HW120402   4.119   3.875  13.056 -0.1558 -0.3737  0.9543
 2922SOL    HW220403   4.077   3.749  12.987  2.9331  0.3936 -0.2950
 2923SOL     OW20404   0.984   0.956   0.395 -0.0634  0.5183 -0.2765
 2923SOL    HW120405   1.077   0.952   0.414  0.0929  0.1582 -1.1658
 2923SOL    HW220406   0.944   0.900   0.462 -0.5842  1.6605  0.3875
 2924SOL     OW20407   3.394   1.843  16.270  0.2682 -0.4917  0.1204
 2924SOL    HW120408   3.360   1.929  16.295  0.0548 -0.4143 -0.4503
 2924SOL    HW220409   3.365   1.843  16.179  1.6745  1.1618 -0.3117
 2925SOL     OW20410   2.896   0.706  16.196 -0.1342 -0.0651 -0.3260
 2925SOL    HW120411   2.805   0.736  16.200  0.1274  1.0604 -2.4572
 2925SOL    HW220412   2.941   0.785  16.165 -2.0500  1.0934 -0.1828
 2926SOL     OW20413   1.503   0.794   8.503 -0.6023 -0.5159  0.7202
 2926SOL    HW120414   1.434   0.756   8.557  0.1576 -1.1964  1.2203
 2926SOL    HW220415   1.575   0.742   8.538  1.1904  1.3248 -0.2433
 2927SOL     OW20416   4.575   0.686   9.654 -0.1779  0.2462  0.0400
 2927SOL    HW120417   4.596   0.705   9.563 -1.7462 -0.2650 -0.4240
 2927SOL    HW220418   4.665   0.678   9.688  0.8147  0.1818 -2.6183
 2928SOL     OW20419   1.029   4.277   4.841 -0.0650  0.4005 -0.0031
 2928SOL    HW120420   0.962   4.233   4.789  0.7536 -1.5362  0.5950
 2928SOL    HW220421   1.035   4.361   4.796  0.6480 -0.3508 -1.2856
 2929SOL     OW20422   0.244   3.564   8.940  0.0098  0.2250  0.2212
 2929SOL    HW120423   0.243   3.601   8.851 -1.6911  1.6141  0.8141
 2929SOL    HW220424   0.336   3.571   8.966  0.2288 -0.8917 -0.2293
 2930SOL     OW20425   0.702   4.671   9.802  0.2045  0.4522  0.7963
 2930SOL    HW120426   0.774   4.647   9.744 -1.0775 -0.1747 -0.5484
 2930SOL    HW220427   0.717   0.036   9.812  2.2081  0.4797 -2.4413
 2931SOL     OW20428   0.418   0.475   8.152  0.4984  0.6354 -0.1287
 2931SOL    HW120429   0.332   0.492   8.113  0.4872 -0.7981 -0.7180
 2931SOL    HW220430   0.454   0.406   8.096 -1.1287 -0.5524  0.2901
 2932SOL     OW20431   4.590   3.176   5.205  0.5145  0.1293  0.3302
 2932SOL    HW120432   4.664   3.168   5.145  0.2979 -0.2066  0.1048
 2932SOL    HW220433   4.629   3.131   5.281 -0.4196 -0.6226  0.3581
 2933SOL     OW20434   2.599   1.860   5.223 -0.2320  0.0221  0.9760
 2933SOL    HW120435   2.563   1.936   5.178 -0.5384 -1.2090 -0.8737
 2933SOL    HW220436   2.538   1.852   5.297  0.3062 -5.1850  0.8498
 2934SOL     OW20437   3.572   2.309  12.491  0.0881 -0.0902  0.6650
 2934SOL    HW120438   3.495   2.309  12.433 -0.7772 -1.4988  1.8452
 2934SOL    HW220439   3.640   2.319  12.424  1.1469  0.4876  1.8218
 2935SOL     OW20440   0.479   2.183   7.037 -0.2678  0.0179  0.1228
 2935SOL    HW120441   0.524   2.099   7.046  0.7210  0.2916 -2.2582
 2935SOL    HW220442   0.401   2.169   7.090 -1.2631  0.9898 -1.0720
 2936SOL     OW20443   2.086   3.804  16.077  0.3424 -0.1674 -0.2518
 2936SOL    HW120444   2.042   3.807  15.992 -0.1367 -1.6234 -0.0456
 2936SOL    HW220445   2.165   3.849  16.047  1.7617 -2.8968 -0.5521
 2937SOL     OW20446   2.501   2.112   5.167 -0.2061 -0.1522 -0.7674
 2937SOL    HW120447   2.489   2.142   5.257 -0.2473  0.9963 -1.1553
 2937SOL    HW220448   2.559   2.185   5.144 -0.2901  0.4039  0.7868
 2938SOL     OW20449   0.645   1.136   2.602 -0.2588 -0.3732 -0.0516
 2938SOL    HW120450   0.710   1.159   2.536 -0.4763  0.8420  0.1672
 2938SOL    HW220451   0.590   1.087   2.540  1.3292 -0.8678 -1.0674
 2939SOL     OW20452   0.161   2.141   6.512  0.7068 -0.2361 -0.8312
 2939SOL    HW120453   0.116   2.075   6.460  0.7335  2.1970 -3.9025
 2939SOL    HW220454   0.149   2.107   6.601  1.0354  0.2366 -0.6055
 2940SOL     OW20455   0.509   3.480   2.919  0.0683 -0.1913 -0.1546
 2940SOL    HW120456   0.510   3.447   3.009 -0.2638 -0.7279 -0.3471
 2940SOL    HW220457   0.600   3.469   2.891  0.5742  1.3408  0.9290
 2941SOL     OW20458   1.743   1.335   3.368  0.2876  0.0333  0.3842
 2941SOL    HW120459   1.675   1.352   3.303  0.6592 -3.5953 -0.9191
 2941SOL    HW220460   1.815   1.337   3.305  1.4808  1.7425  1.7969
 2942SOL     OW20461   0.748   3.088   4.717 -0.3278 -0.6995 -0.0757
 2942SOL    HW120462   0.675   3.129   4.672 -0.4132 -1.6668 -0.8413
 2942SOL    HW220463   0.712   3.057   4.800  0.3566  0.5861  0.6971
 2943SOL     OW20464   3.664   3.373   4.905  0.0860  0.4066  0.1566
 2943SOL    HW120465   3.610   3.408   4.835  2.0221  1.0176 -1.0306
 2943SOL    HW220466   3.667   3.450   4.962 -0.0918  0.0831  0.6054
 2944SOL     OW20467   1.505   0.275   9.572 -0.3034 -0.3774  0.1297
 2944SOL    HW120468   1.545   0.190   9.556  0.9209  0.2408 -0.1132
 2944SOL    HW220469   1.482   0.266   9.665  1.1094  2.6472  0.7749
 2945SOL     OW20470   3.708   1.383   3.160 -0.3929  0.1622  0.0980
 2945SOL    HW120471   3.751   1.399   3.077 -3.5805 -2.0290 -1.9878
 2945SOL    HW220472   3.656   1.462   3.173 -1.3485 -0.4725  0.1883
 2946SOL     OW20473   4.686   3.945   7.302  0.7880 -0.0315 -0.1097
 2946SOL    HW120474   4.716   4.034   7.322  0.4599 -0.0727  0.5567
 2946SOL    HW220475   4.592   3.957   7.291  0.8105  0.7000  0.4868
 2947SOL     OW20476   3.213   4.304   3.805 -0.0150 -0.0040  0.0939
 2947SOL    HW120477   3.253   4.370   3.861  0.1325 -0.2481  0.2771
 2947SOL    HW220478   3.127   4.283   3.841  0.2377 -2.0444 -0.4643
 2948SOL     OW20479   4.326   3.369  15.067  0.2469 -0.1805  0.6909
 2948SOL    HW120480   4.311   3.377  15.161  3.4050  0.6350  1.1501
 2948SOL    HW220481   4.242   3.326  15.053 -0.3197  0.3185  2.5630
 2949SOL     OW20482   0.139   2.145   0.844 -1.0032 -0.3860 -0.4264
 2949SOL    HW120483   0.120   2.215   0.907 -0.9684  0.0201 -0.8737
 2949SOL    HW220484   0.232   2.128   0.862 -0.8740 -1.0877 -1.7535
 2950SOL     OW20485   2.817   0.755   4.701  0.5144 -0.1043  0.5572
 2950SOL    HW120486   2.864   0.829   4.739 -0.2508  0.7853 -0.2549
 2950SOL    HW220487   2.855   0.672   4.731  2.0368  0.1935 -0.5460
 2951SOL     OW20488   1.780   1.324   2.315  0.2823 -0.0409  0.2173
 2951SOL    HW120489   1.791   1.251   2.377  0.4096  0.0258  0.2734
 2951SOL    HW220490   1.741   1.399   2.360 -0.3436 -0.6962  0.7725
 2952SOL     OW20491   2.384   4.618   3.557  0.0842  0.1048  0.2928
 2952SOL    HW120492   2.445   4.573   3.616 -0.0173  1.5397  1.4693
 2952SOL    HW220493   2.301   4.580   3.586 -0.6697  1.4367 -0.1070
 2953SOL     OW20494   3.080   0.179  15.799  0.3795 -0.1920  0.0108
 2953SOL    HW120495   3.027   0.250  15.763 -0.0160 -0.8325 -0.6686
 2953SOL    HW220496   3.075   0.194  15.894  2.8735  1.6072 -0.1361
 2954SOL     OW20497   0.047   3.748   9.415  0.1508  0.9871  0.0682
 2954SOL    HW120498   0.068   3.656   9.430  2.7438  1.0638 -3.1862
 2954SOL    HW220499   0.074   3.757   9.324 -1.2455  1.4236 -0.2999
 2955SOL     OW20500   4.498   3.743   1.735 -0.5389 -0.0861 -0.5319
 2955SOL    HW120501   4.495   3.686   1.812  1.0997  0.1296 -0.3287
 2955SOL    HW220502   4.411   3.739   1.695 -0.6020  0.4258 -0.4425
 2956SOL     OW20503   3.773   1.325   5.196 -0.6925  0.4489 -0.2923
 2956SOL    HW120504   3.816   1.270   5.131  2.0534  0.9158  1.1368
 2956SOL    HW220505   3.844   1.389   5.206  1.6666 -2.3563  0.9464
 2957SOL     OW20506   3.033   2.991   7.928 -0.0363 -0.5036  0.2365
 2957SOL    HW120507   2.982   2.973   8.006  0.3590 -0.2920  0.5419
 2957SOL    HW220508   3.076   2.906   7.915 -0.4323 -0.5242 -0.9174
 2958SOL     OW20509   2.295   3.376   6.806 -0.4323 -0.4536  0.4876
 2958SOL    HW120510   2.201   3.390   6.793 -0.4930 -1.6049 -0.2156
 2958SOL    HW220511   2.325   3.430   6.733 -0.2006 -0.7621  0.3544
 2959SOL     OW20512   2.307   2.878   8.582  0.0987  0.7501 -0.5460
 2959SOL    HW120513   2.252   2.862   8.659 -1.3592 -1.1178 -2.0041
 2959SOL    HW220514   2.382   2.927   8.617 -0.5522  2.4800 -1.5604
 2960SOL     OW20515   2.055   3.731   2.864 -0.0314 -0.4891  0.2024
 2960SOL    HW120516   2.027   3.684   2.943 -1.3006  0.7289  0.4675
 2960SOL    HW220517   1.998   3.807   2.877 -1.3234 -1.2007 -1.3151
 2961SOL     OW20518   1.083   2.640   0.894  0.2840 -0.2332  0.0494
 2961SOL    HW120519   1.001   2.619   0.850  0.7925 -2.8420  0.3403
 2961SOL    HW220520   1.139   2.585   0.838  0.3068 -0.0997 -0.0586
 2962SOL     OW20521   0.917   0.261   2.789 -0.2207  0.2829 -0.0244
 2962SOL    HW120522   0.914   0.311   2.707  0.8988 -1.9270 -1.3852
 2962SOL    HW220523   0.865   0.183   2.773  1.7392 -0.3221 -3.3602
 2963SOL     OW20524   0.020   3.262  12.703  0.2618  0.0219 -0.0041
 2963SOL    HW120525   4.725   3.286  12.793  1.0748 -0.6526  0.3931
 2963SOL    HW220526   0.060   3.176  12.710  1.6556  0.6552 -0.1177
 2964SOL     OW20527   0.019   3.298  13.492 -0.2369  0.4068 -0.3372
 2964SOL    HW120528   4.657   3.328  13.484 -0.0263  1.2011  0.1888
 2964SOL    HW220529   0.026   3.232  13.423  0.1589  1.5862 -1.4455
 2965SOL     OW20530   0.708   0.951   8.518 -0.0602  0.6649 -0.0025
 2965SOL    HW120531   0.770   0.972   8.447 -0.9435  1.7850 -0.4436
 2965SOL    HW220532   0.680   0.866   8.483  0.3649  0.9650 -1.0955
 2966SOL     OW20533   4.061   2.205   1.725  0.5637  0.7772 -0.0023
 2966SOL    HW120534   4.020   2.250   1.651 -1.1587  1.4605  1.3681
 2966SOL    HW220535   4.019   2.121   1.707 -1.9927  1.9405  0.5853
 2967SOL     OW20536   3.880   1.215   8.690  0.4593 -0.3755  0.1037
 2967SOL    HW120537   3.887   1.268   8.769  0.2017 -1.1743  0.6522
 2967SOL    HW220538   3.922   1.261   8.617  1.8481 -1.4250  0.2491
 2968SOL     OW20539   0.461   4.450   7.804  0.5105  0.4688  0.3504
 2968SOL    HW120540   0.416   4.370   7.831  1.6319 -0.4512 -0.5298
 2968SOL    HW220541   0.540   4.447   7.858  0.3240 -0.7182  0.5519
 2969SOL     OW20542   2.073   0.007  14.807  0.1979  0.3482 -0.5643
 2969SOL    HW120543   2.052   4.651  14.844 -0.8668  0.8125 -0.1165
 2969SOL    HW220544   2.167   0.021  14.823  0.4205 -0.7602 -0.9201
 2970SOL     OW20545   1.538   0.353   1.188 -0.0561 -0.4555  0.0350
 2970SOL    HW120546   1.525   0.340   1.094  4.2681  1.0516 -0.7792
 2970SOL    HW220547   1.634   0.350   1.192 -0.0290 -1.3243 -1.2156
 2971SOL     OW20548   1.912   0.190   2.283 -0.0711 -0.6435  0.0301
 2971SOL    HW120549   1.955   0.241   2.215 -1.1696  0.4043  0.1189
 2971SOL    HW220550   1.952   0.231   2.359 -1.4974  2.2862 -0.8078
 2972SOL     OW20551   3.431   2.599   0.185 -0.2421 -0.6486 -0.2248
 2972SOL    HW120552   3.435   2.608   0.089  1.3185 -1.8638 -0.2768
 2972SOL    HW220553   3.368   2.527   0.188  0.2300 -1.0510 -0.0186
 2973SOL     OW20554   2.754   1.820  13.995 -0.0044  0.1987 -0.1798
 2973SOL    HW120555   2.801   1.903  13.987  0.1210  0.1216 -0.2476
 2973SOL    HW220556   2.694   1.844  14.065  0.6446  1.5791 -0.1071
 2974SOL     OW20557   3.231   1.788   0.472 -0.1765 -0.3884  0.2219
 2974SOL    HW120558   3.176   1.744   0.536  0.9351 -0.0298  1.4258
 2974SOL    HW220559   3.299   1.724   0.453  1.2963  1.0366  0.6500
 2975SOL     OW20560   0.893   2.868   9.126  0.2861  0.0901  0.3345
 2975SOL    HW120561   0.883   2.953   9.083  1.6316 -0.5931 -1.3154
 2975SOL    HW220562   0.849   2.807   9.067  2.0848 -0.7812 -0.1087
 2976SOL     OW20563   0.675   2.799   5.584 -0.4897 -0.5828  0.2256
 2976SOL    HW120564   0.761   2.838   5.599  0.3585 -1.0844 -3.3732
 2976SOL    HW220565   0.648   2.852   5.509  2.5414  1.1809  0.3597
 2977SOL     OW20566   0.423   2.708   1.424 -0.0695  0.0463  0.1350
 2977SOL    HW120567   0.453   2.740   1.339 -0.3456 -2.1366 -0.7960
 2977SOL    HW220568   0.412   2.784   1.480 -0.9676  1.5819 -2.1405
 2978SOL     OW20569   1.822   3.751   0.538 -0.3134  0.4787 -0.1231
 2978SOL    HW120570   1.898   3.705   0.574 -0.5290  0.3601  0.1773
 2978SOL    HW220571   1.754   3.684   0.531  1.8058 -1.6392 -0.4260
 2979SOL     OW20572   4.301   2.284   2.489  0.4743  0.1402 -0.0352
 2979SOL    HW120573   4.239   2.277   2.417 -1.0978 -0.5417  1.3849
 2979SOL    HW220574   4.261   2.356   2.537  0.0593 -0.5178  0.5946
 2980SOL     OW20575   0.146   3.073  13.997  0.3426  0.1703 -0.0407
 2980SOL    HW120576   0.116   3.031  14.078 -0.8170 -0.0541 -0.5924
 2980SOL    HW220577   0.170   2.999  13.941  1.3731  0.2064  0.3463
 2981SOL     OW20578   0.019   4.274   7.837  0.4205  0.2145  0.1290
 2981SOL    HW120579   0.110   4.271   7.868  0.3447 -1.0380  0.2005
 2981SOL    HW220580   4.708   4.225   7.908 -0.2370  0.9015  0.2322
 2982SOL     OW20581   3.015   3.983  15.775 -0.1094  0.1200  0.1493
 2982SOL    HW120582   3.003   4.069  15.734 -0.2306 -0.7970 -1.7096
 2982SOL    HW220583   3.027   4.009  15.866 -0.7740 -0.7992  0.4996
 2983SOL     OW20584   0.695   3.543   5.470 -0.5520 -0.2971 -0.0906
 2983SOL    HW120585   0.619   3.489   5.492 -0.2352 -0.5070  0.5068
 2983SOL    HW220586   0.749   3.483   5.418  0.8457 -0.5885  1.6629
 2984SOL     OW20587   0.846   1.371  12.749  0.0440 -0.3718  0.4975
 2984SOL    HW120588   0.751   1.365  12.741  0.1177  0.2869 -1.0849
 2984SOL    HW220589   0.859   1.427  12.825 -0.9770 -0.9442  1.0821
 2985SOL     OW20590   4.093   2.409   0.657 -0.4639  0.0497 -0.3137
 2985SOL    HW120591   4.156   2.346   0.690 -1.7888 -1.1235 -0.0182
 2985SOL    HW220592   4.091   2.478   0.724 -1.1267  0.9422 -1.2444
 2986SOL     OW20593   2.205   0.526   7.861  0.0942 -0.3428 -0.6450
 2986SOL    HW120594   2.294   0.530   7.897  0.3660 -2.1649 -1.1057
 2986SOL    HW220595   2.190   0.433   7.841 -0.9347 -0.3249  0.0269
 2987SOL     OW20596   4.047   1.553   6.357 -0.3717  0.3064 -0.1449
 2987SOL    HW120597   4.029   1.535   6.265  1.3244 -2.0085 -0.0151
 2987SOL    HW220598   3.978   1.618   6.369 -0.0554  0.1783  2.3404
 2988SOL     OW20599   1.797   3.051   9.576  0.1981 -0.0123  0.0205
 2988SOL    HW120600   1.778   2.997   9.652  0.0825  2.9177  2.0784
 2988SOL    HW220601   1.886   3.081   9.594  0.4891 -1.6047  1.2225
 2989SOL     OW20602   2.767   0.390  16.465  0.2206 -0.3547 -0.0267
 2989SOL    HW120603   2.678   0.362  16.445  0.6382 -1.4315 -0.3751
 2989SOL    HW220604   2.776   0.362  16.556 -1.2346  1.5360  0.6904
 2990SOL     OW20605   3.771   0.471   7.105 -0.2803  0.1717  0.2218
 2990SOL    HW120606   3.838   0.499   7.168  0.7625 -1.3624 -0.1948
 2990SOL    HW220607   3.690   0.493   7.152  0.9891  4.0402  0.5305
 2991SOL     OW20608   3.081   1.793   5.892 -0.2761 -0.1549  0.3405
 2991SOL    HW120609   3.161   1.821   5.936 -0.8483  0.2389  1.1495
 2991SOL    HW220610   3.113   1.753   5.811  1.4555 -1.4756  1.7056
 2992SOL     OW20611   1.891   4.650   4.260  0.1317 -0.3936 -0.5987
 2992SOL    HW120612   1.926   4.561   4.260  0.7598 -0.1471  0.4411
 2992SOL    HW220613   1.841   4.657   4.178  0.4445  1.0863 -0.6496
 2993SOL     OW20614   0.134   2.500   6.804 -0.1973  0.0611  0.5710
 2993SOL    HW120615   0.188   2.486   6.881 -0.5265  0.1125  0.8134
 2993SOL    HW220616   0.187   2.478   6.727 -0.7089  0.4646  0.1041
 2994SOL     OW20617   2.957   0.408   0.583 -0.4730 -0.2112  0.3465
 2994SOL    HW120618   3.052   0.404   0.570 -0.7319  0.5737 -1.9524
 2994SOL    HW220619   2.916   0.349   0.518 -1.6629  1.3950 -0.3659
 2995SOL     OW20620   0.585   2.700   0.148  0.0942 -0.2288  0.2814
 2995SOL    HW120621   0.501   2.741   0.126  0.0669 -0.5661 -0.2339
 2995SOL    HW220622   0.652   2.766   0.131 -0.1171  0.0040  0.3518
 2996SOL     OW20623   0.607   2.560  11.648  0.5908 -0.2956 -0.1125
 2996SOL    HW120624   0.592   2.517  11.732  2.6284  0.4928  0.6378
 2996SOL    HW220625   0.563   2.503  11.584 -0.4511  0.6634 -0.2519
 2997SOL     OW20626   0.763   4.090  13.388  0.3615  0.5129 -0.0044
 2997SOL    HW120627   0.819   4.017  13.413  0.5350  0.9250  0.7993
 2997SOL    HW220628   0.719   4.116  13.469  0.9077  1.1497  0.0825
 2998SOL     OW20629   4.581   3.097  14.063  0.2036  0.4387  0.2119
 2998SOL    HW120630   4.593   3.169  14.125  1.4616  0.8311 -0.4963
 2998SOL    HW220631   4.572   3.140  13.979  0.4720  0.7171  0.3259
 2999SOL     OW20632   1.800   1.120   8.244  0.3040  0.7342 -0.2254
 2999SOL    HW120633   1.737   1.104   8.314  1.1107 -1.1073  0.1012
 2999SOL    HW220634   1.782   1.043   8.190  0.9927  1.0252 -0.8661
 3000SOL     OW20635   2.017   2.458   5.272  0.2568  0.2327 -0.1016
 3000SOL    HW120636   1.982   2.425   5.355  1.0500  0.7128  0.4255
 3000SOL    HW220637   1.959   2.404   5.217  1.6712 -1.3706 -0.0184
 3001SOL     OW20638   1.374   2.403   8.727 -0.7220 -0.5294  0.0594
 3001SOL    HW120639   1.414   2.358   8.801 -1.7617 -2.0601 -0.3048
 3001SOL    HW220640   1.370   2.338   8.657 -2.8352  0.5244 -0.8187
 3002SOL     OW20641   2.010   0.259   0.761  0.0927 -0.5359 -0.1888
 3002SOL    HW120642   2.005   0.163   0.767  0.1961 -0.4443  1.3997
 3002SOL    HW220643   2.089   0.272   0.814  0.1832  0.7931 -0.6490
 3003SOL     OW20644   1.601   3.254   3.417  0.3730  0.0661  0.1019
 3003SOL    HW120645   1.662   3.283   3.350 -1.1032  0.5812 -1.0170
 3003SOL    HW220646   1.552   3.335   3.427 -1.3721 -0.8440 -0.9905
 3004SOL     OW20647   2.445   3.375   4.056  0.6097 -0.1367 -1.2361
 3004SOL    HW120648   2.440   3.282   4.034 -0.5997 -0.2841 -0.3374
 3004SOL    HW220649   2.442   3.357   4.150 -1.4446  1.0356 -1.0825
 3005SOL     OW20650   0.024   2.379  11.137  0.3038  0.2274 -0.9927
 3005SOL    HW120651   0.117   2.396  11.118 -0.2327  1.5693 -2.4641
 3005SOL    HW220652   4.728   2.464  11.099 -0.4656  0.5110  0.1731
 3006SOL     OW20653   2.837   3.102   3.082  0.4449 -0.2837  0.2964
 3006SOL    HW120654   2.890   3.119   3.159  0.2296  2.7083 -0.2262
 3006SOL    HW220655   2.770   3.060   3.137  1.1887 -2.2623 -0.3126
 3007SOL     OW20656   3.857   2.181   8.789 -0.0341  0.6147  0.0616
 3007SOL    HW120657   3.832   2.254   8.732  0.7255  1.1843  0.4635
 3007SOL    HW220658   3.908   2.134   8.723  0.0088  0.5099  0.1713
 3008SOL     OW20659   3.443   3.392   7.261 -0.4299  0.3389 -0.1897
 3008SOL    HW120660   3.366   3.448   7.270 -0.3230  0.7363 -1.6804
 3008SOL    HW220661   3.476   3.411   7.173  1.5908 -0.0815  0.4974
 3009SOL     OW20662   1.495   0.588   8.980  0.4275  0.3513 -0.0282
 3009SOL    HW120663   1.531   0.544   8.903  1.0091  1.7439 -0.5510
 3009SOL    HW220664   1.532   0.675   8.972  1.1400 -0.1449 -2.0161
 3010SOL     OW20665   3.311   3.561   8.745 -0.1837 -0.1178 -0.0301
 3010SOL    HW120666   3.308   3.584   8.652 -0.5795 -1.3294 -0.3140
 3010SOL    HW220667   3.288   3.468   8.749 -2.1835  0.3769 -0.1359
 3011SOL     OW20668   3.376   4.020   2.147  0.2089 -0.7242  0.1333
 3011SOL    HW120669   3.350   3.934   2.113 -1.5053 -0.0940 -0.1341
 3011SOL    HW220670   3.297   4.037   2.199  0.6043  1.7027 -0.0657
 3012SOL     OW20671   3.058   0.562   1.689 -0.0430 -0.4826  0.4112
 3012SOL    HW120672   3.063   0.466   1.697  3.3018 -0.5056 -1.9131
 3012SOL    HW220673   3.013   0.576   1.606  0.3665 -0.0224  0.2671
 3013SOL     OW20674   0.577   4.534  16.613 -0.0666  0.7347 -0.4540
 3013SOL    HW120675   0.648   4.514  16.673 -1.3792  2.5896  1.7322
 3013SOL    HW220676   0.593   4.626  16.593  1.8666  0.8397  1.5409
 3014SOL     OW20677   0.698   2.444  13.159  0.0406  0.4965 -0.4012
 3014SOL    HW120678   0.622   2.407  13.204  1.0947 -1.7477 -0.4785
 3014SOL    HW220679   0.660   2.526  13.127  2.0010  1.9511  0.9627
 3015SOL     OW20680   1.104   2.059   1.609  0.2719 -0.2542 -0.1286
 3015SOL    HW120681   1.198   2.043   1.597  0.1071 -0.4413 -1.1017
 3015SOL    HW220682   1.071   1.975   1.576 -2.2073 -0.2068  2.2574
 3016SOL     OW20683   2.128   1.650   8.482  0.4249 -0.1269  0.4373
 3016SOL    HW120684   2.064   1.580   8.495  1.4721 -1.5648 -2.2889
 3016SOL    HW220685   2.138   1.646   8.387  0.4104  1.9759  0.3277
 3017SOL     OW20686   1.180   3.530   4.751  0.4185 -0.0254  0.3565
 3017SOL    HW120687   1.146   3.584   4.821 -0.2689  2.0740 -1.6028
 3017SOL    HW220688   1.173   3.444   4.793 -0.4227 -0.9671 -1.6813
 3018SOL     OW20689   3.658   1.662   5.214  0.0438  0.5831  0.1823
 3018SOL    HW120690   3.610   1.581   5.199  1.1738 -0.2456  1.0433
 3018SOL    HW220691   3.709   1.680   5.135 -1.0273  2.0121 -0.1827
 3019SOL     OW20692   2.275   0.137   2.359  0.1637 -0.7639  0.2918
 3019SOL    HW120693   2.282   0.196   2.434 -1.5615  1.0205 -0.9295
 3019SOL    HW220694   2.365   0.108   2.372  0.4461 -0.0445 -0.0615
 3020SOL     OW20695   0.204   3.200  14.828 -0.0515 -0.2903  0.2793
 3020SOL    HW120696   0.215   3.159  14.914  1.3755 -1.2040 -0.3404
 3020SOL    HW220697   0.147   3.273  14.852 -0.1333  0.0207 -0.8583
 3021SOL     OW20698   0.857   1.339   5.225  0.5279  0.4204  0.2535
 3021SOL    HW120699   0.810   1.368   5.303 -1.0350  2.0152 -1.2812
 3021SOL    HW220700   0.837   1.396   5.151 -1.2107  0.4367  0.7413
 3022SOL     OW20701   0.378   0.486   2.960  0.0341  0.2430  0.2286
 3022SOL    HW120702   0.306   0.548   2.949  0.8048  1.0990 -0.0407
 3022SOL    HW220703   0.386   0.474   3.054 -0.5012 -0.0067  0.2406
 3023SOL     OW20704   1.218   1.824  17.052 -0.0909 -0.2505 -0.0882
 3023SOL    HW120705   1.227   1.904  17.000 -3.2849  0.2423  0.1158
 3023SOL    HW220706   1.293   1.847  17.107 -1.0522 -0.2839  1.2026
 3024SOL     OW20707   1.570   3.427   6.311 -0.3867 -0.7886 -0.5576
 3024SOL    HW120708   1.493   3.458   6.358 -0.5198  0.9410 -1.9211
 3024SOL    HW220709   1.619   3.509   6.313 -1.2884 -0.2434 -0.8816
 3025SOL     OW20710   3.797   2.633   0.506  0.0099  0.0724  0.2144
 3025SOL    HW120711   3.797   2.664   0.415  0.7962  2.4803  1.0357
 3025SOL    HW220712   3.784   2.539   0.492  0.4423 -0.1565  1.3448
 3026SOL     OW20713   3.387   2.166  17.650  0.3490 -0.0380  0.4708
 3026SOL    HW120714   3.451   2.211  17.595 -1.1283  0.6956 -0.6558
 3026SOL    HW220715   3.356   2.096  17.594 -0.9312 -0.2123  1.3943
 3027SOL     OW20716   2.837   3.752  13.343 -0.2833  0.0005  0.0433
 3027SOL    HW120717   2.855   3.823  13.405  0.7452  0.3216 -0.6148
 3027SOL    HW220718   2.926   3.716  13.340 -0.5482 -0.4432 -2.8167
 3028SOL     OW20719   1.791   2.648   2.414  0.1835 -0.6127  0.0662
 3028SOL    HW120720   1.862   2.653   2.349  0.1497 -2.9509 -0.1379
 3028SOL    HW220721   1.724   2.701   2.371  0.2254 -0.7620 -0.1851
 3029SOL     OW20722   0.640   4.177   3.870  0.7729 -0.2623  0.6890
 3029SOL    HW120723   0.616   4.190   3.962 -1.2517 -2.7677  0.5185
 3029SOL    HW220724   0.723   4.135   3.890  2.9618  3.1255 -1.2370
 3030SOL     OW20725   0.328   2.096   7.936  0.4326  0.1100  0.5516
 3030SOL    HW120726   0.246   2.146   7.935 -1.1530 -2.4911  1.1262
 3030SOL    HW220727   0.360   2.104   7.846  1.0788  0.8284  0.8471
 3031SOL     OW20728   2.532   0.721  14.172 -0.5410  0.0660  0.1408
 3031SOL    HW120729   2.466   0.715  14.103 -3.4439 -1.0404  3.0196
 3031SOL    HW220730   2.515   0.646  14.229 -0.2682  0.6892  1.0510
 3032SOL     OW20731   1.617   2.541   4.212 -0.0118 -0.2043  0.7374
 3032SOL    HW120732   1.559   2.491   4.270  0.5100  0.3817  1.7800
 3032SOL    HW220733   1.560   2.564   4.139 -1.1572 -0.9886  1.3812
 3033SOL     OW20734   4.106   3.875  15.386 -0.0554  0.5465 -0.4023
 3033SOL    HW120735   4.063   3.956  15.357  0.3601  0.5528 -0.9949
 3033SOL    HW220736   4.137   3.906  15.471 -0.7386  0.1763 -0.0206
 3034SOL     OW20737   2.907   0.009  10.086 -0.0845 -0.6514  0.0077
 3034SOL    HW120738   2.989   0.056  10.099  0.7527 -2.2924  0.6134
 3034SOL    HW220739   2.901   4.691  10.169  2.3338  0.0326  0.5633
 3035SOL     OW20740   4.255   0.207  16.629 -0.1357 -0.6042 -0.0284
 3035SOL    HW120741   4.256   0.230  16.722 -2.3426  1.3115 -0.4683
 3035SOL    HW220742   4.301   0.286  16.598 -0.8071  0.4546  1.6501
 3036SOL     OW20743   1.294   2.707   6.760  0.5107 -0.0525 -0.3520
 3036SOL    HW120744   1.273   2.722   6.852 -1.8412 -0.1755 -0.8749
 3036SOL    HW220745   1.369   2.648   6.767  1.7504  1.8395  2.2569
 3037SOL     OW20746   0.861   3.551  15.715 -0.1829  0.3229 -0.2534
 3037SOL    HW120747   0.918   3.590  15.781 -2.6035  2.0080  0.8491
 3037SOL    HW220748   0.905   3.467  15.701  1.4579  0.9635  1.0153
 3038SOL     OW20749   3.471   2.894   0.256  0.1572 -0.1448  0.2574
 3038SOL    HW120750   3.422   2.813   0.240 -0.0193 -0.0704  0.4215
 3038SOL    HW220751   3.405   2.960   0.236  0.6228  0.3863  0.4627
 3039SOL     OW20752   1.384   1.784   6.672  0.5502 -0.1238 -0.3966
 3039SOL    HW120753   1.400   1.700   6.629 -1.2548 -0.0943 -1.1326
 3039SOL    HW220754   1.439   1.785   6.750 -0.4757 -0.1840  0.3285
 3040SOL     OW20755   0.709   0.370   3.649  0.4637  0.9346  0.3347
 3040SOL    HW120756   0.791   0.340   3.610 -0.7414 -1.9435  0.0168
 3040SOL    HW220757   0.719   0.464   3.639  1.8167  0.6874 -0.5958
 3041SOL     OW20758   0.415   1.067   5.960  0.2915 -0.1421 -0.1243
 3041SOL    HW120759   0.380   1.154   5.980  2.6641  1.4597 -2.8844
 3041SOL    HW220760   0.335   1.014   5.965  0.4902 -0.3535  0.7805
 3042SOL     OW20761   0.365   4.122   8.116 -0.3912 -0.1670 -0.9372
 3042SOL    HW120762   0.322   4.203   8.089 -0.4432  0.3197  0.6418
 3042SOL    HW220763   0.296   4.066   8.081  0.1044  0.3146 -2.6822
 3043SOL     OW20764   2.973   4.398   8.297 -0.1039  0.4304 -0.0865
 3043SOL    HW120765   2.966   4.446   8.215 -0.8879  0.8283  0.2184
 3043SOL    HW220766   3.067   4.385   8.307 -0.6195 -0.8783  3.0805
 3044SOL     OW20767   3.666   3.882   7.325  0.0084  0.3438 -0.3046
 3044SOL    HW120768   3.688   3.946   7.393 -0.9456 -0.4598  0.7297
 3044SOL    HW220769   3.718   3.806   7.351 -0.3918  0.0767 -0.3001
 3045SOL     OW20770   1.648   0.529   5.889  0.5070 -0.4282 -0.2797
 3045SOL    HW120771   1.597   0.608   5.870  0.5986 -0.2252  0.3089
 3045SOL    HW220772   1.595   0.504   5.965  1.8297  1.6048  1.3055
 3046SOL     OW20773   0.142   0.182   1.514  0.0059  0.4594  0.2806
 3046SOL    HW120774   0.225   0.142   1.487 -0.6415 -0.1820 -0.7933
 3046SOL    HW220775   0.082   0.159   1.442  1.7979  2.5693 -1.8733
 3047SOL     OW20776   4.131   2.546  15.302  0.0438 -0.0963  0.1672
 3047SOL    HW120777   4.225   2.558  15.319 -0.5084  2.4502  1.3196
 3047SOL    HW220778   4.113   2.638  15.284 -2.3793 -0.4890  0.6155
 3048SOL     OW20779   0.368   0.065   5.429 -0.6949 -0.1342  0.1283
 3048SOL    HW120780   0.450   0.065   5.478  0.3076 -1.4367 -1.5640
 3048SOL    HW220781   0.328   0.021   5.504  2.3450 -0.2842  1.6488
 3049SOL     OW20782   2.038   4.144  15.267 -0.2697 -0.0940 -0.1297
 3049SOL    HW120783   2.011   4.229  15.300 -0.1235  1.2122 -3.2972
 3049SOL    HW220784   2.118   4.128  15.317  0.4452 -1.2158 -1.6354
 3050SOL     OW20785   2.943   0.429  15.750 -0.4958  0.0242 -0.2603
 3050SOL    HW120786   2.936   0.494  15.821  1.0543 -0.5687  0.4201
 3050SOL    HW220787   2.856   0.388  15.755  0.1477 -1.4224 -1.0859
 3051SOL     OW20788   1.443   4.491   1.742 -0.3205 -0.0918 -0.1494
 3051SOL    HW120789   1.534   4.513   1.757 -0.7516  1.2411  0.5248
 3051SOL    HW220790   1.423   4.578   1.706 -1.9751 -0.1615  0.5941
 3052SOL     OW20791   2.217   4.249   3.138 -0.1547 -0.2388 -0.2557
 3052SOL    HW120792   2.138   4.231   3.088  0.2274 -1.5259 -0.3911
 3052SOL    HW220793   2.243   4.159   3.157 -0.4046 -0.1626  0.4692
 3053SOL     OW20794   4.599   3.235   4.221  0.3304  0.2581  0.0452
 3053SOL    HW120795   4.505   3.245   4.231  0.2824  0.5984 -0.7907
 3053SOL    HW220796   4.601   3.147   4.182 -2.6271 -0.7287  2.1351
 3054SOL     OW20797   3.602   0.163   3.269 -0.8732 -0.2639  0.1197
 3054SOL    HW120798   3.690   0.157   3.305 -1.1962 -1.3636  0.7299
 3054SOL    HW220799   3.571   0.073   3.268 -0.0068 -0.5645  0.3246
 3055SOL     OW20800   3.807   1.969   0.193  0.2793  0.0372 -0.0116
 3055SOL    HW120801   3.837   1.931   0.275 -1.1750 -1.4716 -0.1769
 3055SOL    HW220802   3.719   1.931   0.186  0.2543  0.1663 -0.4259
 3056SOL     OW20803   3.204   4.720   7.012 -0.5584 -0.4238  0.4063
 3056SOL    HW120804   3.144   4.714   7.087 -0.0871  0.3995  0.8552
 3056SOL    HW220805   3.158   0.053   6.956  1.0291 -1.8517 -2.4627
 3057SOL     OW20806   1.741   2.654   8.731  0.4817 -0.3377 -0.0363
 3057SOL    HW120807   1.789   2.714   8.787 -0.1961  0.6102 -0.4662
 3057SOL    HW220808   1.771   2.564   8.745  0.2115 -0.5164 -0.5873
 3058SOL     OW20809   2.454   3.527   4.629 -0.2327 -0.7594 -0.3434
 3058SOL    HW120810   2.420   3.502   4.715 -1.6806  0.6370 -0.5067
 3058SOL    HW220811   2.538   3.482   4.624  0.6223  0.6997  1.0518
 3059SOL     OW20812   4.408   4.720   7.312  0.1084 -0.0597  0.2546
 3059SOL    HW120813   4.492   4.729   7.267 -0.0160 -0.3045 -0.0276
 3059SOL    HW220814   4.343   4.721   7.241 -1.6443  0.2272  1.8781
 3060SOL     OW20815   3.563   2.076   5.457  0.0942 -0.9407  0.1692
 3060SOL    HW120816   3.561   1.998   5.401 -1.8398 -1.0676  0.3979
 3060SOL    HW220817   3.583   2.142   5.391  1.6799  1.6236  3.2461
 3061SOL     OW20818   4.056   1.951  10.242  0.0488 -0.2301 -0.1350
 3061SOL    HW120819   4.093   1.964  10.329 -1.2165 -2.1272  0.6927
 3061SOL    HW220820   4.098   2.020  10.191  0.2182  0.4923  0.9719
 3062SOL     OW20821   1.429   3.464   7.802  0.0775 -0.0272  0.4066
 3062SOL    HW120822   1.365   3.420   7.746  0.2721  0.1500  0.0401
 3062SOL    HW220823   1.493   3.506   7.744  0.9336 -2.2591 -0.2420
 3063SOL     OW20824   1.734   4.329   5.321  0.3718 -0.1150  0.2689
 3063SOL    HW120825   1.659   4.289   5.364 -1.5283  2.7713 -0.3806
 3063SOL    HW220826   1.693   4.354   5.238  0.0221 -0.2920  0.3890
 3064SOL     OW20827   1.925   2.726   7.448  0.1620 -0.3710 -0.0655
 3064SOL    HW120828   1.898   2.807   7.493  1.5984 -0.9159  1.7720
 3064SOL    HW220829   1.911   2.753   7.357 -0.5916 -0.4361  0.0293
 3065SOL     OW20830   1.851   1.452  15.937 -0.0159 -0.1268 -0.2359
 3065SOL    HW120831   1.902   1.374  15.915  1.4010  0.2053  1.8204
 3065SOL    HW220832   1.762   1.419  15.927 -0.3064 -0.2388  2.5434
 3066SOL     OW20833   1.013   0.043   2.202 -0.0456 -0.4285 -0.0932
 3066SOL    HW120834   1.107   0.027   2.192  0.0621 -0.8977  1.5957
 3066SOL    HW220835   1.006   0.103   2.129  2.2365 -0.3246 -0.2134
 3067SOL     OW20836   3.725   0.155   6.356 -0.1663  0.0239 -0.3635
 3067SOL    HW120837   3.682   0.221   6.411  1.0709 -1.1651  2.0473
 3067SOL    HW220838   3.791   0.205   6.309  0.0765 -1.3171 -1.4356
 3068SOL     OW20839   4.379   1.066   3.085  0.0508  0.2928 -0.2510
 3068SOL    HW120840   4.376   1.026   2.998 -0.5994 -0.4031  0.0899
 3068SOL    HW220841   4.285   1.078   3.101  0.3348  1.3217  0.5850
 3069SOL     OW20842   0.105   3.834   7.075  0.0992 -0.3745 -0.5308
 3069SOL    HW120843   0.090   3.871   7.163  4.8019  0.3048 -0.0001
 3069SOL    HW220844   0.082   3.915   7.031 -1.2176 -0.2243  0.4382
 3070SOL     OW20845   4.473   3.806   3.390 -0.3966 -0.1412 -0.5401
 3070SOL    HW120846   4.542   3.853   3.436  0.4205 -2.1495  0.2766
 3070SOL    HW220847   4.431   3.748   3.454  1.4718  0.1077  0.9176
 3071SOL     OW20848   1.956   1.133   5.252 -1.0509  0.4443 -0.0708
 3071SOL    HW120849   1.966   1.215   5.302  0.5367 -0.6548  1.4353
 3071SOL    HW220850   1.887   1.097   5.308 -1.9005  3.0772  0.5832
 3072SOL     OW20851   1.794   0.523  10.067 -0.1163  0.6174 -0.2361
 3072SOL    HW120852   1.884   0.496  10.051  0.1700  0.1359  2.1543
 3072SOL    HW220853   1.808   0.573  10.147  2.1180 -1.2009  0.5156
 3073SOL     OW20854   0.114   4.562  10.280 -0.7225 -0.4096  0.7849
 3073SOL    HW120855   0.189   4.543  10.225 -0.6657  1.7798  0.1242
 3073SOL    HW220856   0.071   4.640  10.246 -0.9253 -1.5854 -1.6656
 3074SOL     OW20857   0.773   2.926   3.121  0.1774  0.2943  0.3344
 3074SOL    HW120858   0.843   2.963   3.067  0.4243 -1.2295 -0.3681
 3074SOL    HW220859   0.767   2.833   3.099 -1.2004 -0.0531  2.1575
 3075SOL     OW20860   3.199   0.597   7.907  0.3877 -0.2551 -0.2960
 3075SOL    HW120861   3.265   0.611   7.975  0.0276  0.3634 -0.0824
 3075SOL    HW220862   3.226   0.514   7.868 -0.1257 -1.3203  1.5877
 3076SOL     OW20863   1.930   2.265   6.151 -0.9232  0.4623 -0.5371
 3076SOL    HW120864   1.951   2.349   6.109  0.5093 -0.4215 -1.5829
 3076SOL    HW220865   2.004   2.212   6.124 -0.3248  0.2105  1.5494
 3077SOL     OW20866   3.932   2.593   7.408  0.7006  0.2765  0.1684
 3077SOL    HW120867   3.986   2.670   7.424 -0.9926  1.4209  0.4211
 3077SOL    HW220868   3.927   2.552   7.494 -0.3032 -2.2037 -1.0375
 3078SOL     OW20869   0.739   3.793   8.549 -0.0950 -0.7105 -0.4527
 3078SOL    HW120870   0.828   3.764   8.566  1.0228  1.0665 -3.3164
 3078SOL    HW220871   0.740   3.851   8.625 -1.4999 -0.3138 -0.7260
 3079SOL     OW20872   1.713   2.566  11.649  0.2234  0.2662  0.4360
 3079SOL    HW120873   1.645   2.521  11.699 -0.7163  3.5878  2.1014
 3079SOL    HW220874   1.786   2.511  11.678 -0.2180 -0.0136  1.0021
 3080SOL     OW20875   3.451   2.542   2.094 -0.8445  0.2504  0.0887
 3080SOL    HW120876   3.510   2.511   2.163 -1.2270 -0.9235 -0.1114
 3080SOL    HW220877   3.515   2.590   2.041 -0.9550 -0.5772 -0.7909
 3081SOL     OW20878   3.722   4.300   7.382  0.4093 -0.6707  0.0146
 3081SOL    HW120879   3.810   4.319   7.349  0.4524  0.6057  0.9012
 3081SOL    HW220880   3.685   4.323   7.296  0.2707  0.7445  0.4478
 3082SOL     OW20881   1.857   4.112   9.884  0.0771 -1.2390 -0.4206
 3082SOL    HW120882   1.814   4.033   9.852 -0.9443 -0.1437 -1.7634
 3082SOL    HW220883   1.777   4.149   9.922  0.8973  0.1553 -0.0277
 3083SOL     OW20884   2.489   0.657   9.481  0.0120 -0.3710 -0.2206
 3083SOL    HW120885   2.510   0.571   9.444 -0.6078 -0.3840 -0.5528
 3083SOL    HW220886   2.442   0.702   9.410  1.2850 -0.2712 -1.0045
 3084SOL     OW20887   4.265   0.083   7.669 -0.0179 -0.2574  0.1960
 3084SOL    HW120888   4.246   4.720   7.655 -2.3261  0.2685 -0.1552
 3084SOL    HW220889   4.195   0.119   7.613  0.8044  0.9303 -0.0771
 3085SOL     OW20890   1.811   0.610  16.537  0.1296 -0.5213  0.3916
 3085SOL    HW120891   1.864   0.680  16.575  0.9209 -0.3665 -0.9905
 3085SOL    HW220892   1.764   0.566  16.608 -0.6525 -0.7651 -0.2777
 3086SOL     OW20893   2.344   0.160   4.619  0.6927  0.2854 -0.1280
 3086SOL    HW120894   2.332   0.178   4.526 -0.4931  0.3462  0.0311
 3086SOL    HW220895   2.253   0.143   4.644  0.4923 -1.7587 -2.1948
 3087SOL     OW20896   1.756   1.349  13.968  0.1326  0.2614  0.4042
 3087SOL    HW120897   1.710   1.397  13.900  0.6340  0.4265  0.1793
 3087SOL    HW220898   1.757   1.409  14.043 -2.2483  0.3254  0.3693
 3088SOL     OW20899   3.373   2.863   5.344  0.5095 -0.6916 -0.0766
 3088SOL    HW120900   3.293   2.815   5.323  0.3785 -1.5797  2.4338
 3088SOL    HW220901   3.423   2.800   5.397  1.8901 -0.8494 -1.5736
 3089SOL     OW20902   0.987   3.829  11.751 -0.0587  0.0623  0.2707
 3089SOL    HW120903   0.907   3.864  11.790  0.4369 -0.7140  1.9775
 3089SOL    HW220904   0.975   3.845  11.657 -0.4896  0.1209  0.3333
 3090SOL     OW20905   0.093   4.070  10.508 -0.1352 -0.4956 -0.2842
 3090SOL    HW120906   0.134   4.013  10.573  1.6030 -0.1953 -1.1247
 3090SOL    HW220907   0.057   4.004  10.449  0.2348 -2.0538  1.2540
 3091SOL     OW20908   4.322   1.271   9.612 -0.1362 -0.2544 -0.1201
 3091SOL    HW120909   4.415   1.269   9.590 -0.3185  0.7504 -0.9948
 3091SOL    HW220910   4.307   1.208   9.683  0.7700 -0.6878 -0.3130
 3092SOL     OW20911   4.475   4.542   3.453 -0.2280  0.1466 -0.3542
 3092SOL    HW120912   4.402   4.601   3.432  1.3011  1.9708 -0.4835
 3092SOL    HW220913   4.494   4.576   3.541 -3.3814  3.5651 -0.9623
 3093SOL     OW20914   0.451   0.445   7.485 -0.1123 -0.4801 -0.4511
 3093SOL    HW120915   0.400   0.365   7.499 -0.5146 -0.0637  0.3926
 3093SOL    HW220916   0.460   0.429   7.391 -2.2158  1.2095 -0.9208
 3094SOL     OW20917   1.322   3.724  10.249 -0.6261  0.3204 -0.8126
 3094SOL    HW120918   1.405   3.770  10.241  0.6009 -1.8073 -0.3667
 3094SOL    HW220919   1.305   3.753  10.339  1.7716 -0.8582  0.0212
 3095SOL     OW20920   4.107   3.395   7.266  0.3568 -0.2517  0.0432
 3095SOL    HW120921   4.072   3.410   7.353  0.7655  5.3616 -0.8017
 3095SOL    HW220922   4.057   3.456   7.212 -1.6599 -1.1482  0.9003
 3096SOL     OW20923   2.659   4.271   3.177  0.0790  0.3776 -0.2101
 3096SOL    HW120924   2.578   4.290   3.131 -0.1695  0.8985  0.4322
 3096SOL    HW220925   2.632   4.229   3.259  0.4148  1.1612  0.3078
 3097SOL     OW20926   0.611   0.070  16.560  0.2430 -0.3540 -0.2125
 3097SOL    HW120927   0.550   0.143  16.547  3.1196  2.1863  0.3216
 3097SOL    HW220928   0.638   0.072  16.468 -0.7659 -0.5486 -0.5178
 3098SOL     OW20929   3.403   3.181   1.344  0.0312  0.2553 -0.5245
 3098SOL    HW120930   3.338   3.237   1.303  1.3170  1.0873 -1.4028
 3098SOL    HW220931   3.468   3.170   1.275 -1.4172 -0.4176 -1.7759
 3099SOL     OW20932   1.491   2.731  14.771 -0.3466  0.2173 -0.1481
 3099SOL    HW120933   1.418   2.778  14.810  0.3058 -0.9147  2.4008
 3099SOL    HW220934   1.519   2.668  14.837  2.0027 -0.1301 -1.4457
 3100SOL     OW20935   1.739   1.032  15.003 -0.4892 -0.3726 -0.1987
 3100SOL    HW120936   1.793   1.089  15.058 -0.6904  1.7593 -2.2647
 3100SOL    HW220937   1.692   1.094  14.948 -0.7521 -1.0975 -0.7823
 3101SOL     OW20938   2.112   1.395   7.600  0.3496  0.0523 -0.0083
 3101SOL    HW120939   2.130   1.301   7.609  1.4974  0.2604 -0.1953
 3101SOL    HW220940   2.143   1.428   7.684 -1.3652  2.5219 -0.3398
 3102SOL     OW20941   3.669   3.627   3.333 -0.3190 -0.0118  0.1361
 3102SOL    HW120942   3.711   3.548   3.366  0.3202 -0.3750 -1.5594
 3102SOL    HW220943   3.589   3.624   3.387  0.2434 -3.1707  0.7827
 3103SOL     OW20944   0.661   4.375  16.350  0.5353  0.4006  0.4063
 3103SOL    HW120945   0.608   4.423  16.413  0.3679  1.6494 -0.6847
 3103SOL    HW220946   0.595   4.380  16.280  2.6214 -1.0463 -1.6799
 3104SOL     OW20947   1.964   0.735  15.563  0.2729  0.6104 -0.0177
 3104SOL    HW120948   1.882   0.721  15.515  0.9693  1.5552 -1.4550
 3104SOL    HW220949   1.930   0.722  15.652  1.3391  0.2003  0.3275
 3105SOL     OW20950   1.049   0.494  16.896  0.3255  0.3388  0.3253
 3105SOL    HW120951   1.144   0.500  16.889  0.4898 -0.8597  1.6317
 3105SOL    HW220952   1.043   0.403  16.868 -2.8140  0.1914  1.4466
 3106SOL     OW20953   2.729   0.038   5.545 -0.1592 -0.5111 -0.1238
 3106SOL    HW120954   2.746   0.127   5.575  0.0773 -0.0819 -1.5359
 3106SOL    HW220955   2.788   4.720   5.604  1.7082 -0.0363 -1.6039
 3107SOL     OW20956   4.397   2.070   0.656  0.4953  0.4195 -0.7342
 3107SOL    HW120957   4.416   2.005   0.589 -2.1924  1.0424 -2.1057
 3107SOL    HW220958   4.464   2.132   0.627 -2.1691  2.8930 -1.6305
 3108SOL     OW20959   3.693   1.241   1.055  0.6637 -0.2126 -0.8153
 3108SOL    HW120960   3.739   1.209   0.977  0.6214  0.3793 -1.0865
 3108SOL    HW220961   3.749   1.215   1.127 -1.2603  0.4648  0.9141
 3109SOL     OW20962   3.376   1.281   9.878 -0.2811 -0.0327  0.7154
 3109SOL    HW120963   3.414   1.320   9.800 -0.3468  0.1067  0.7535
 3109SOL    HW220964   3.322   1.210   9.843  1.1610 -0.4438 -0.7074
 3110SOL     OW20965   0.577   2.506   5.335  0.0347 -0.3044 -0.1535
 3110SOL    HW120966   0.618   2.531   5.252  0.7980  0.7359  0.5384
 3110SOL    HW220967   0.623   2.424   5.352 -1.0597 -1.1167 -1.0690
 3111SOL     OW20968   0.454   1.910  14.972 -0.4321 -0.3047 -0.3308
 3111SOL    HW120969   0.471   1.847  15.041 -0.5943  1.1032  0.9971
 3111SOL    HW220970   0.543   1.942  14.958 -0.3560 -1.1623 -1.8567
 3112SOL     OW20971   3.086   1.949   2.247  0.3234 -0.0623 -0.2653
 3112SOL    HW120972   3.021   1.931   2.315  0.6248 -1.6183 -0.3957
 3112SOL    HW220973   3.121   1.862   2.231  1.8667  0.2106  1.6465
 3113SOL     OW20974   4.371   1.902   0.873  0.7945 -0.4674 -0.1457
 3113SOL    HW120975   4.464   1.914   0.893  1.5251 -0.2725 -3.6690
 3113SOL    HW220976   4.376   1.969   0.805 -0.8737 -0.4016 -0.2061
 3114SOL     OW20977   0.859   0.666   0.956  0.3995  0.4670 -0.4343
 3114SOL    HW120978   0.896   0.586   0.919  0.2450  0.0920  0.2224
 3114SOL    HW220979   0.794   0.687   0.889 -2.6905  1.0535  2.7320
 3115SOL     OW20980   3.717   1.826   1.422 -0.1062 -0.4909 -0.4151
 3115SOL    HW120981   3.641   1.801   1.369  0.0406 -2.3318  0.2490
 3115SOL    HW220982   3.671   1.901   1.459 -1.4208 -1.3003 -0.3720
 3116SOL     OW20983   4.255   2.899  14.412 -0.1081 -0.0237  0.6388
 3116SOL    HW120984   4.249   2.808  14.384 -0.5055 -0.0911  0.9357
 3116SOL    HW220985   4.277   2.938  14.327 -1.0006 -0.4534  0.2066
 3117SOL     OW20986   1.045   1.253  13.101 -0.0078 -0.1790 -0.4006
 3117SOL    HW120987   0.969   1.307  13.078  0.4196  0.2160 -0.9070
 3117SOL    HW220988   1.020   1.164  13.076  0.8903 -0.7929  0.8830
 3118SOL     OW20989   0.920   4.239  17.581 -0.6176 -0.1869 -0.2175
 3118SOL    HW120990   0.897   4.150  17.554 -0.8250  0.5868 -2.5678
 3118SOL    HW220991   0.994   4.266  17.527 -0.5997  0.3238  0.0688
 3119SOL     OW20992   2.029   1.355   6.088 -0.0235 -0.0505 -0.3814
 3119SOL    HW120993   2.061   1.279   6.039  2.0010  0.3118  0.3888
 3119SOL    HW220994   1.937   1.336   6.107  0.3749 -0.1198  1.4899
 3120SOL     OW20995   0.061   1.889   7.788 -0.1822 -0.7290 -0.3549
 3120SOL    HW120996   0.021   1.818   7.839 -0.6981  0.1421  0.4502
 3120SOL    HW220997   0.120   1.843   7.728  1.5418  0.0183  0.7667
 3121SOL     OW20998   1.682   3.598   1.559 -0.5265  0.3871  0.2231
 3121SOL    HW120999   1.669   3.688   1.528 -1.3425 -0.3940 -1.7023
 3121SOL    HW221000   1.614   3.596   1.626  0.6440 -1.1631  1.3532
 3122SOL     OW21001   0.631   1.928   7.706 -0.1496 -0.0638 -0.1932
 3122SOL    HW121002   0.703   1.991   7.713 -0.7227  0.5498  0.2734
 3122SOL    HW221003   0.677   1.882   7.636  0.7420 -0.6307  0.7584
 3123SOL     OW21004   3.783   4.005   6.834  0.6722  0.3211 -0.1101
 3123SOL    HW121005   3.809   3.999   6.926  2.7992  0.8328 -0.6711
 3123SOL    HW221006   3.746   3.919   6.817  0.8735  0.0394  0.8793
 3124SOL     OW21007   3.950   1.966  12.238 -0.9627  0.2979 -0.4802
 3124SOL    HW121008   3.893   1.888  12.240 -0.0575 -0.3502 -0.0907
 3124SOL    HW221009   4.030   1.917  12.222 -0.6270  0.4831  0.6098
 3125SOL     OW21010   2.648   2.387   4.400  0.0725 -0.0175  0.0625
 3125SOL    HW121011   2.713   2.329   4.360  1.2828  0.9411  0.6490
 3125SOL    HW221012   2.564   2.367   4.357 -0.4961  0.0278  1.1380
 3126SOL     OW21013   3.460   3.602   3.522  0.2328  0.2097 -0.2633
 3126SOL    HW121014   3.477   3.517   3.564  1.1206  0.0540 -0.9340
 3126SOL    HW221015   3.465   3.668   3.591  0.9339  0.1859 -0.2856
 3127SOL     OW21016   1.599   1.419   5.630  0.2773  0.1329  0.0635
 3127SOL    HW121017   1.543   1.344   5.650  3.5038 -1.6993  2.2613
 3127SOL    HW221018   1.664   1.383   5.569 -0.5376 -0.2251 -0.5791
 3128SOL     OW21019   0.748   0.383   8.239  0.5120  0.0996 -0.3259
 3128SOL    HW121020   0.667   0.422   8.205  0.7095  1.2670  0.5156
 3128SOL    HW221021   0.809   0.434   8.186  0.9763  0.1392  0.2509
 3129SOL     OW21022   0.130   3.051   5.376  0.3158 -0.3223 -0.4643
 3129SOL    HW121023   0.108   3.068   5.284 -3.8494  0.9613  0.7427
 3129SOL    HW221024   0.192   3.119   5.403 -0.8777 -0.2984  2.2346
 3130SOL     OW21025   2.105   4.725   2.928 -0.2836 -0.0321 -0.3713
 3130SOL    HW121026   2.190   0.000   2.972  0.5141  0.7047 -1.9775
 3130SOL    HW221027   2.067   0.062   2.986  1.7336 -0.7757  1.8131
 3131SOL     OW21028   1.968   2.623   8.996 -0.3986  0.0814 -0.2725
 3131SOL    HW121029   1.957   2.718   8.998 -2.0905 -0.0808 -1.4047
 3131SOL    HW221030   1.876   2.600   9.011 -0.7173  0.8100 -1.0710
 3132SOL     OW21031   3.194   2.724   0.418  0.3166 -0.0925 -0.6356
 3132SOL    HW121032   3.147   2.804   0.394  0.2217 -0.5376 -1.9179
 3132SOL    HW221033   3.127   2.658   0.399  0.5043 -0.5245  0.2028
 3133SOL     OW21034   3.893   2.438  10.255 -0.5567  0.1527 -0.3206
 3133SOL    HW121035   3.924   2.359  10.212 -2.4154 -1.1511  0.7389
 3133SOL    HW221036   3.968   2.490  10.284 -2.1073  0.7770  2.6057
 3134SOL     OW21037   0.645   0.015   6.354  0.3634  0.1894 -0.3255
 3134SOL    HW121038   0.647   0.102   6.315 -0.6584  0.9126  1.2413
 3134SOL    HW221039   0.563   4.711   6.317 -0.3441 -0.5956  1.9372
 3135SOL     OW21040   1.657   1.794  12.357  0.3504 -0.4757  0.0825
 3135SOL    HW121041   1.670   1.740  12.435  1.2814 -0.6026 -0.1678
 3135SOL    HW221042   1.733   1.850  12.345  1.1361 -1.3901  0.8290
 3136SOL     OW21043   4.554   4.005   5.577 -0.1923 -0.2843  0.0778
 3136SOL    HW121044   4.566   4.068   5.648 -0.5813 -1.6781  1.4007
 3136SOL    HW221045   4.645   3.975   5.573  0.7704  2.0761  3.8074
 3137SOL     OW21046   1.751   4.327  13.071 -0.1401  0.5832  0.3416
 3137SOL    HW121047   1.776   4.329  13.163  0.8873 -2.2094  0.1299
 3137SOL    HW221048   1.752   4.235  13.042  0.4108  0.5789  0.3775
 3138SOL     OW21049   3.184   2.362   3.392  0.0472  0.3419  0.2220
 3138SOL    HW121050   3.204   2.397   3.479 -1.1655 -2.0542  1.4972
 3138SOL    HW221051   3.098   2.321   3.404  0.7446 -1.3087 -0.4386
 3139SOL     OW21052   3.814   1.398  13.363  0.2786 -0.2226 -0.1688
 3139SOL    HW121053   3.894   1.426  13.407 -1.8314  2.0484  2.2042
 3139SOL    HW221054   3.801   1.314  13.407 -1.2780 -0.0124 -0.2482
 3140SOL     OW21055   4.580   2.110  14.143 -0.1378  0.0094 -0.8301
 3140SOL    HW121056   4.576   2.202  14.118  0.7058  0.1303 -0.5467
 3140SOL    HW221057   4.571   2.068  14.057 -1.2793  0.2438 -0.8223
 3141SOL     OW21058   4.422   0.742   3.992 -0.0958  0.1105  0.3568
 3141SOL    HW121059   4.387   0.824   4.026  1.3114  1.3812 -1.3433
 3141SOL    HW221060   4.357   0.719   3.925  0.9255  1.3377 -1.0348
 3142SOL     OW21061   1.849   3.913   2.861 -0.1393 -0.0089 -0.8433
 3142SOL    HW121062   1.837   3.978   2.791 -0.5201 -1.0585 -1.7547
 3142SOL    HW221063   1.851   3.965   2.941  1.3579 -0.0123 -0.8816
 3143SOL     OW21064   4.357   0.808   9.372  0.6178 -0.0357  0.0028
 3143SOL    HW121065   4.413   0.861   9.429 -0.7281  1.5010 -0.1286
 3143SOL    HW221066   4.318   0.745   9.433  1.5363 -1.2206 -0.6310
 3144SOL     OW21067   1.242   1.418  17.505  0.2278  0.0847 -0.5056
 3144SOL    HW121068   1.160   1.398  17.550  0.2242  0.7279 -0.2353
 3144SOL    HW221069   1.307   1.400  17.572  0.4138 -0.5692 -0.8530
 3145SOL     OW21070   0.490   4.250   3.677  0.4651  0.0103 -0.0191
 3145SOL    HW121071   0.563   4.226   3.735 -1.0310 -3.0899  0.5876
 3145SOL    HW221072   0.417   4.206   3.721  0.7000  0.4023  0.7611
 3146SOL     OW21073   2.585   3.203   6.070  0.1148 -0.7544  0.0048
 3146SOL    HW121074   2.679   3.218   6.056 -0.4044  2.0811 -0.4597
 3146SOL    HW221075   2.594   3.155   6.152  2.2452 -1.0757 -0.4113
 3147SOL     OW21076   4.253   2.807   0.082 -0.4425  0.0068  0.5079
 3147SOL    HW121077   4.237   2.753   0.005  2.6232 -0.4332  0.1654
 3147SOL    HW221078   4.332   2.859   0.065  0.7375 -1.5423  1.1795
 3148SOL     OW21079   3.658   2.453   6.081  0.1941  0.2261 -0.1580
 3148SOL    HW121080   3.573   2.413   6.062  0.9295 -0.9901 -0.9386
 3148SOL    HW221081   3.713   2.382   6.048 -0.6100 -1.3378  1.9146
 3149SOL     OW21082   0.193   0.183   3.863 -0.1445 -0.1344 -0.4065
 3149SOL    HW121083   0.203   0.246   3.792  0.6671  2.8257  2.3265
 3149SOL    HW221084   0.122   0.224   3.914  0.5026  0.9548 -0.3758
 3150SOL     OW21085   0.545   1.891   1.917  0.1057 -0.2634 -0.1995
 3150SOL    HW121086   0.531   1.871   2.009 -1.1497 -2.4953 -0.8516
 3150SOL    HW221087   0.455   1.923   1.905  0.4284  0.5675 -0.3631
 3151SOL     OW21088   3.739   3.144   1.362 -0.0024 -0.3004 -0.3046
 3151SOL    HW121089   3.771   3.235   1.366 -1.7985  0.3189  0.0844
 3151SOL    HW221090   3.676   3.151   1.290 -3.4857  0.2492  2.7594
 3152SOL     OW21091   2.866   4.102   1.982 -0.1371  0.0235  0.1619
 3152SOL    HW121092   2.850   4.141   2.069 -1.4052 -2.3678  0.9941
 3152SOL    HW221093   2.961   4.089   1.975 -0.3323  0.0549 -2.2851
 3153SOL     OW21094   4.463   1.774   1.395  0.1741  0.1683 -0.8084
 3153SOL    HW121095   4.395   1.816   1.448  0.8378  1.5388 -1.0474
 3153SOL    HW221096   4.537   1.834   1.407 -0.6170  0.9148  0.4320
 3154SOL     OW21097   0.253   3.397   6.775  0.1382 -0.2352 -0.2653
 3154SOL    HW121098   0.246   3.420   6.682  1.4697  4.7456  0.8705
 3154SOL    HW221099   0.296   3.312   6.766  0.5512 -0.0828  0.2283
 3155SOL     OW21100   3.140   2.854   9.511  0.1789  0.2920  0.1214
 3155SOL    HW121101   3.232   2.842   9.536 -0.0730 -0.0648  0.8687
 3155SOL    HW221102   3.144   2.818   9.422  0.6351 -0.1458  0.3178
 3156SOL     OW21103   4.238   0.972  10.751 -0.3236  0.5947 -0.0992
 3156SOL    HW121104   4.314   0.926  10.717 -1.5070 -0.0155 -1.9014
 3156SOL    HW221105   4.188   0.998  10.674 -0.0036  0.3631 -0.3847
 3157SOL     OW21106   3.754   1.637   8.270  0.2560  0.1046 -0.4413
 3157SOL    HW121107   3.732   1.577   8.198 -1.1078  0.9761 -0.7379
 3157SOL    HW221108   3.839   1.666   8.238 -0.4225  0.5494 -1.8110
 3158SOL     OW21109   1.242   1.602   8.035 -0.0125 -0.3316  0.0374
 3158SOL    HW121110   1.221   1.538   8.102  0.2860  0.2014  0.6444
 3158SOL    HW221111   1.326   1.639   8.062 -0.1791  1.1359 -1.4053
 3159SOL     OW21112   2.770   0.384   2.719  0.3887  0.2803  0.3239
 3159SOL    HW121113   2.865   0.369   2.714  0.3868  0.3048  0.2179
 3159SOL    HW221114   2.771   0.474   2.751  0.3174  0.3982 -0.0049
 3160SOL     OW21115   0.897   3.577   6.221  0.0290  0.4848  0.8123
 3160SOL    HW121116   0.890   3.670   6.246  1.0891  0.9456 -0.6051
 3160SOL    HW221117   0.870   3.585   6.130  2.4365  0.3379  0.0710
 3161SOL     OW21118   4.286   2.630   4.975 -0.0189  0.0986 -0.3847
 3161SOL    HW121119   4.319   2.720   4.972  0.0777  0.0941  0.5189
 3161SOL    HW221120   4.249   2.624   5.063 -1.2381  1.0464 -0.8231
 3162SOL     OW21121   1.113   2.234   5.711  0.2799 -0.1563 -0.2685
 3162SOL    HW121122   1.183   2.290   5.743  1.5452 -1.8382 -0.0819
 3162SOL    HW221123   1.083   2.204   5.797 -1.7602  2.5613 -0.0370
 3163SOL     OW21124   4.087   2.936   6.594 -0.0685 -0.0370 -0.0428
 3163SOL    HW121125   4.166   2.911   6.546  0.0762 -0.0074  0.1815
 3163SOL    HW221126   4.070   3.025   6.564 -3.7538 -1.1105 -1.1998
 3164SOL     OW21127   4.241   3.027   4.130 -0.4754  0.0011 -1.0050
 3164SOL    HW121128   4.252   2.945   4.179 -0.3423  0.0198 -1.0036
 3164SOL    HW221129   4.162   3.004   4.082 -1.7844  1.7943  0.3061
 3165SOL     OW21130   1.304   4.597   7.434  0.1059 -0.0033 -0.2272
 3165SOL    HW121131   1.272   4.561   7.351  0.1581 -0.6940  0.0529
 3165SOL    HW221132   1.217   4.623   7.465  0.8122  1.3521  0.6527
 3166SOL     OW21133   0.982   2.874   7.537  0.2591  0.1089  0.2096
 3166SOL    HW121134   1.024   2.894   7.621  1.4237 -1.7766  0.0553
 3166SOL    HW221135   0.980   2.778   7.537 -0.6637  0.1304 -1.2189
 3167SOL     OW21136   4.700   1.823   9.221  0.1304 -0.4656  0.3672
 3167SOL    HW121137   0.054   1.820   9.267 -1.4468 -0.6339  3.1962
 3167SOL    HW221138   4.697   1.916   9.201  1.6569 -0.8947 -1.8717
 3168SOL     OW21139   0.929   4.574   3.676  0.3096 -0.3840 -0.6556
 3168SOL    HW121140   0.991   4.643   3.699  1.3515 -0.4913 -3.2055
 3168SOL    HW221141   0.959   4.503   3.733  0.5183  0.1625 -0.0852
 3169SOL     OW21142   3.359   1.336   7.946 -0.6770  0.1531 -0.6542
 3169SOL    HW121143   3.367   1.298   7.859  0.9864 -0.1817 -0.3577
 3169SOL    HW221144   3.384   1.424   7.917  0.7050 -0.9925 -2.9232
 3170SOL     OW21145   0.574   1.880  13.553 -0.2036 -0.1039 -0.5633
 3170SOL    HW121146   0.554   1.852  13.642 -1.2051 -0.1593 -0.8140
 3170SOL    HW221147   0.534   1.965  13.566 -1.7643 -0.8971 -0.1756
 3171SOL     OW21148   4.107   2.056   2.567  0.0364  0.3258  0.1643
 3171SOL    HW121149   4.016   2.025   2.560 -0.0716  0.7627 -0.3671
 3171SOL    HW221150   4.142   2.043   2.479 -0.4740 -1.7433  0.2786
 3172SOL     OW21151   3.727   2.367  10.024 -0.5249 -0.0327  0.2895
 3172SOL    HW121152   3.663   2.380  10.093 -0.1779  2.2762  0.2024
 3172SOL    HW221153   3.764   2.281  10.043 -1.1163 -0.3390  0.0363
 3173SOL     OW21154   1.497   3.613   7.009  0.0678  0.1710 -0.3895
 3173SOL    HW121155   1.466   3.703   7.010 -0.4375 -0.0097  1.9636
 3173SOL    HW221156   1.413   3.572   6.986 -1.1352  2.2969  0.2672
 3174SOL     OW21157   1.638   1.558   7.484 -0.6395 -0.0971  0.3754
 3174SOL    HW121158   1.653   1.493   7.553  3.1362  1.1154  0.7490
 3174SOL    HW221159   1.597   1.503   7.418 -0.3284  2.1094 -1.6584
 3175SOL     OW21160   0.252   1.493   4.422 -0.1967  0.0180  0.5979
 3175SOL    HW121161   0.236   1.406   4.386  2.6530 -0.9513  1.7468
 3175SOL    HW221162   0.328   1.512   4.367 -0.0495 -1.6893  0.2293
 3176SOL     OW21163   3.303   1.003  14.004 -1.2726 -0.0138 -0.2221
 3176SOL    HW121164   3.245   0.937  14.039  2.3572 -1.9740  2.1154
 3176SOL    HW221165   3.272   0.991  13.914  1.8744  0.3176 -1.3678
 3177SOL     OW21166   4.696   2.268   4.421  0.4654  0.4265 -0.0231
 3177SOL    HW121167   4.655   2.354   4.425 -2.2327 -0.8053 -1.0212
 3177SOL    HW221168   0.007   2.279   4.335  0.1411  2.3190  0.0754
 3178SOL     OW21169   3.459   2.273  11.194  0.1179 -0.4347 -0.5817
 3178SOL    HW121170   3.414   2.203  11.240 -0.2488 -0.2956 -0.7240
 3178SOL    HW221171   3.506   2.232  11.121  0.0440 -0.6323 -0.5147
 3179SOL     OW21172   3.555   3.027   7.634 -0.0066  0.3216  0.3671
 3179SOL    HW121173   3.473   2.977   7.640 -1.0198  1.7849 -1.5143
 3179SOL    HW221174   3.519   3.113   7.610  0.4005 -0.4416 -2.8999
 3180SOL     OW21175   2.621   2.419   7.677 -0.7429 -0.4926 -0.1628
 3180SOL    HW121176   2.608   2.328   7.653  0.6194 -0.9096  0.7138
 3180SOL    HW221177   2.530   2.437   7.700 -0.6559  1.1978 -1.1710
 3181SOL     OW21178   0.221   2.618   2.011  0.1246 -0.2508 -0.3973
 3181SOL    HW121179   0.176   2.585   1.933  0.3358 -0.2032 -0.5402
 3181SOL    HW221180   0.156   2.586   2.074 -0.5149 -3.0483 -2.4675
 3182SOL     OW21181   2.168   0.763   2.330  0.0090  0.5647 -0.1671
 3182SOL    HW121182   2.176   0.669   2.343 -1.3520  0.5132  0.2999
 3182SOL    HW221183   2.078   0.778   2.301 -0.9884 -1.8993  1.6974
 3183SOL     OW21184   3.619   1.711   0.284  0.2914 -0.3575  0.3879
 3183SOL    HW121185   3.596   1.621   0.306 -1.7762  0.4459  1.4396
 3183SOL    HW221186   3.674   1.730   0.360  0.3261 -1.0836  0.5490
 3184SOL     OW21187   3.488   3.448  14.412  0.1311  0.3027 -0.1895
 3184SOL    HW121188   3.562   3.425  14.468 -0.0279 -4.0475 -1.7244
 3184SOL    HW221189   3.443   3.364  14.403  0.2054  0.2526 -0.0917
 3185SOL     OW21190   3.997   2.086  16.056 -1.0789  0.3422  0.0172
 3185SOL    HW121191   4.071   2.136  16.089 -0.9519 -0.3128  0.7339
 3185SOL    HW221192   3.980   2.123  15.969  3.2078 -0.0668 -0.9978
 3186SOL     OW21193   0.068   2.144   4.635 -0.1259 -0.2861  0.1386
 3186SOL    HW121194   0.027   2.207   4.576  2.2537  1.1287 -0.0300
 3186SOL    HW221195   4.715   2.096   4.642 -1.9519  2.6932 -0.9687
 3187SOL     OW21196   1.877   1.262  15.050  0.3608 -0.0401 -0.6213
 3187SOL    HW121197   1.868   1.344  15.098 -0.6446 -0.9584  0.7443
 3187SOL    HW221198   1.859   1.284  14.958 -2.2965 -3.2849 -0.8736
 3188SOL     OW21199   3.852   0.947   8.646 -0.8595  0.0287  0.7222
 3188SOL    HW121200   3.863   1.042   8.658 -3.1072  0.5845 -1.6033
 3188SOL    HW221201   3.894   0.913   8.725  0.2059  0.3924  0.3123
 3189SOL     OW21202   2.941   4.011   8.193  0.3098 -0.0641 -0.4023
 3189SOL    HW121203   2.942   4.061   8.274 -1.1015  1.7899 -1.5355
 3189SOL    HW221204   3.028   4.032   8.159 -0.2654  0.8388 -1.3280
 3190SOL     OW21205   2.266   3.737   7.281  1.0694  0.0862 -0.4777
 3190SOL    HW121206   2.271   3.832   7.267 -0.2047  0.3751  1.0585
 3190SOL    HW221207   2.205   3.708   7.213 -1.7989 -0.2105  2.2526
 3191SOL     OW21208   1.948   0.129   6.625  0.4067  0.5238  0.0536
 3191SOL    HW121209   1.916   0.051   6.580  0.5242  2.2894 -3.1519
 3191SOL    HW221210   2.037   0.138   6.590 -0.5904  0.6797 -2.4489
 3192SOL     OW21211   0.629   1.121   3.106 -0.1680  0.2670  0.0055
 3192SOL    HW121212   0.594   1.040   3.069 -0.2702 -0.3105  1.3827
 3192SOL    HW221213   0.615   1.171   3.025  0.0912  2.1490  1.1438
 3193SOL     OW21214   0.623   2.331   3.754  0.0778  0.0729 -0.1378
 3193SOL    HW121215   0.676   2.394   3.706  0.5128 -1.1412 -1.2729
 3193SOL    HW221216   0.678   2.258   3.726 -0.0949  0.4390 -1.4105
 3194SOL     OW21217   3.965   3.424   2.160 -0.0399  0.4055  0.6708
 3194SOL    HW121218   4.043   3.470   2.190  0.4836 -0.8101  1.1897
 3194SOL    HW221219   3.962   3.467   2.074  0.7918  1.4596  1.1693
 3195SOL     OW21220   0.503   3.159   5.555  0.5003  0.6969 -0.5482
 3195SOL    HW121221   0.448   3.122   5.624  0.7056  0.7838 -0.3370
 3195SOL    HW221222   0.438   3.184   5.490 -1.0802  0.0231  0.7766
 3196SOL     OW21223   1.504   1.341   3.939  0.2968 -0.1230  0.5517
 3196SOL    HW121224   1.583   1.364   3.990 -0.6947  3.1097  0.6079
 3196SOL    HW221225   1.434   1.358   4.002  1.1602 -0.2689  1.5634
 3197SOL     OW21226   3.650   3.805   3.934 -0.6153 -0.2169 -0.4092
 3197SOL    HW121227   3.675   3.892   3.966  2.3435 -1.1459 -0.1956
 3197SOL    HW221228   3.557   3.818   3.916 -0.7437  1.3270  1.3916
 3198SOL     OW21229   4.029   0.994  15.112 -0.0662  0.4033  0.5998
 3198SOL    HW121230   4.035   1.065  15.048 -0.3915 -1.4685 -1.5235
 3198SOL    HW221231   4.040   1.042  15.194  0.8527  1.8997 -0.3926
 3199SOL     OW21232   0.872   3.847   5.502 -0.1353  0.2965  0.1137
 3199SOL    HW121233   0.907   3.936   5.497  1.1748 -0.2447 -0.2190
 3199SOL    HW221234   0.951   3.800   5.477 -0.0715  0.7290 -0.4960
 3200SOL     OW21235   1.464   0.909  13.009 -0.0998  0.0367  0.4447
 3200SOL    HW121236   1.526   0.943  13.073  0.3966  2.6619 -1.3893
 3200SOL    HW221237   1.411   0.847  13.058 -0.2757  1.2042  1.7352
 3201SOL     OW21238   3.296   3.810   1.966  0.2672  0.3465 -0.1401
 3201SOL    HW121239   3.242   3.736   1.940  1.1332 -0.8002  1.3285
 3201SOL    HW221240   3.382   3.787   1.933  0.4703 -0.5692  0.9924
 3202SOL     OW21241   0.523   3.981   5.315 -0.6236  0.0950 -0.0946
 3202SOL    HW121242   0.551   4.031   5.391  0.8875  1.7176 -1.7153
 3202SOL    HW221243   0.473   4.045   5.265 -1.0120  0.4561  0.7704
 3203SOL     OW21244   2.433   3.867   2.311  0.1075 -0.6558  0.1636
 3203SOL    HW121245   2.528   3.875   2.302  0.2686 -0.7015  1.7771
 3203SOL    HW221246   2.415   3.944   2.258  0.1788  0.1217  1.2775
 3204SOL     OW21247   1.108   3.123  17.085  0.7393  0.2573 -0.7911
 3204SOL    HW121248   1.196   3.120  17.121  0.1261 -0.5897  0.6380
 3204SOL    HW221249   1.077   3.214  17.074 -2.8145 -0.8598 -0.0838
 3205SOL     OW21250   0.541   1.213   5.278  0.1470  0.4313 -0.1195
 3205SOL    HW121251   0.534   1.248   5.189 -0.9568 -1.2494 -0.7027
 3205SOL    HW221252   0.452   1.199   5.309 -0.1222  3.1499  0.3405
 3206SOL     OW21253   0.015   3.578   6.999 -0.4193 -0.3959 -0.2309
 3206SOL    HW121254   0.074   3.519   7.047 -0.8904 -0.8192 -0.1710
 3206SOL    HW221255   0.045   3.661   7.036  1.1147 -2.3143  2.8440
 3207SOL     OW21256   2.810   2.921  11.150 -0.0582  0.9908 -0.0200
 3207SOL    HW121257   2.758   2.840  11.149 -1.6454  2.0097  0.3957
 3207SOL    HW221258   2.749   2.977  11.198 -1.6794  1.4318 -2.5936
 3208SOL     OW21259   1.416   2.191   0.710  0.1512 -0.6777  0.0471
 3208SOL    HW121260   1.392   2.173   0.801  1.2761 -1.8896  0.1060
 3208SOL    HW221261   1.375   2.116   0.668  1.3551 -0.3792 -1.6380
 3209SOL     OW21262   1.120   2.467   9.774 -0.3738 -0.3008  0.3175
 3209SOL    HW121263   1.099   2.414   9.697 -0.4983 -0.3041  0.3536
 3209SOL    HW221264   1.122   2.399   9.841 -0.4100  0.0049  0.6320
 3210SOL     OW21265   2.192   1.996  10.339 -0.0194  1.4040  0.5416
 3210SOL    HW121266   2.230   1.909  10.344 -4.3617 -0.4559  1.2609
 3210SOL    HW221267   2.242   2.019  10.261  0.9711  0.4804  0.9127
 3211SOL     OW21268   4.519   3.311   0.285  0.2343  0.7845 -0.0755
 3211SOL    HW121269   4.600   3.288   0.329 -0.6003 -1.2326  0.3966
 3211SOL    HW221270   4.460   3.331   0.357 -1.2251 -1.1592 -0.7208
 3212SOL     OW21271   3.366   2.086  11.799 -0.1458  0.0759  0.0220
 3212SOL    HW121272   3.451   2.129  11.811  0.2415 -0.5474 -0.4808
 3212SOL    HW221273   3.307   2.161  11.805 -0.4629 -0.1137 -0.7213
 3213SOL     OW21274   0.836   2.507   6.704  0.3515 -0.0489  0.5117
 3213SOL    HW121275   0.911   2.561   6.679  0.6096 -1.6754 -2.2950
 3213SOL    HW221276   0.766   2.535   6.645 -1.2564 -3.5262  0.7432
 3214SOL     OW21277   1.504   2.098   9.685 -0.0275 -0.0390  0.3061
 3214SOL    HW121278   1.496   2.181   9.637  1.1114  0.3028  0.6970
 3214SOL    HW221279   1.489   2.133   9.774  0.2663 -0.1160  0.3870
 3215SOL     OW21280   4.368   3.525   6.729  0.2593 -0.4283  0.1662
 3215SOL    HW121281   4.379   3.430   6.733 -0.7343 -0.5415  0.2639
 3215SOL    HW221282   4.275   3.546   6.732  0.8009  2.0286 -0.2108
 3216SOL     OW21283   2.642   0.087   6.269 -0.4554 -0.2218 -0.4500
 3216SOL    HW121284   2.564   0.032   6.275 -0.1691 -0.6917 -1.1069
 3216SOL    HW221285   2.710   0.043   6.321 -1.2247 -0.6717  0.1906
 3217SOL     OW21286   2.227   2.937   5.968  0.4157  0.1453 -0.2235
 3217SOL    HW121287   2.210   2.874   6.038 -0.9957  0.0881 -0.6020
 3217SOL    HW221288   2.321   2.930   5.954  0.3482 -0.0047 -0.5978
 3218SOL     OW21289   0.330   0.219  15.646 -0.1823 -1.1662 -0.0263
 3218SOL    HW121290   0.395   0.283  15.614  1.1393 -1.7860  1.4314
 3218SOL    HW221291   0.324   0.159  15.572  0.0682 -0.5388 -0.5651
 3219SOL     OW21292   3.384   2.881   7.405  0.3881  0.0130  0.0445
 3219SOL    HW121293   3.385   2.971   7.374 -2.8416  0.0567 -0.0077
 3219SOL    HW221294   3.369   2.898   7.498 -0.5935 -3.3669  0.5021
 3220SOL     OW21295   0.828   4.549   3.314 -0.3587 -0.7984 -0.4616
 3220SOL    HW121296   0.864   4.551   3.226  0.9683  1.6291  0.1158
 3220SOL    HW221297   0.906   4.518   3.362 -0.3665  0.2169  0.2009
 3221SOL     OW21298   4.342   1.410  15.144  0.2460  0.2313  0.7931
 3221SOL    HW121299   4.282   1.464  15.195  0.2856 -1.1423  2.2983
 3221SOL    HW221300   4.324   1.322  15.178 -0.5136  0.1415  0.1543
 3222SOL     OW21301   0.997   3.751   2.187  0.4014 -0.0194  0.2505
 3222SOL    HW121302   1.072   3.781   2.136 -0.1338 -1.6334 -1.4741
 3222SOL    HW221303   1.026   3.783   2.272 -1.3233 -0.6026  1.0687
 3223SOL     OW21304   3.220   0.567   1.914  0.2371  0.3192  0.3459
 3223SOL    HW121305   3.189   0.477   1.909 -1.9440  1.2595 -2.4899
 3223SOL    HW221306   3.182   0.600   1.833  2.3863 -1.8489 -1.5330
 3224SOL     OW21307   4.313   3.994   1.975 -0.1044 -0.0906 -0.1421
 3224SOL    HW121308   4.279   4.002   1.886 -0.6209 -0.6726  0.0012
 3224SOL    HW221309   4.375   4.065   1.990 -1.5364  1.3911 -1.2332
 3225SOL     OW21310   3.198   3.003   4.104 -0.2794 -0.4416  0.0199
 3225SOL    HW121311   3.261   3.053   4.052  0.7745  0.1877  1.9398
 3225SOL    HW221312   3.247   2.982   4.183  0.0686 -0.7833 -0.2860
 3226SOL     OW21313   4.277   1.902   1.536 -0.2608  0.3487  0.0464
 3226SOL    HW121314   4.208   1.966   1.522 -0.8544 -0.2419  0.2938
 3226SOL    HW221315   4.257   1.874   1.625 -0.4298 -1.5707 -0.5885
 3227SOL     OW21316   3.531   0.520   7.234 -0.1868  0.3921  0.5173
 3227SOL    HW121317   3.547   0.503   7.327 -0.5284 -1.0134  0.3131
 3227SOL    HW221318   3.486   0.603   7.246  0.2230  0.6811  0.0462
 3228SOL     OW21319   0.840   1.275   6.914  0.3038  0.0971 -0.1962
 3228SOL    HW121320   0.795   1.304   6.835 -1.9352  0.0609  1.0708
 3228SOL    HW221321   0.819   1.349   6.970  1.2740 -0.4815  0.9261
 3229SOL     OW21322   3.976   0.561  17.097  0.1233  0.0339 -0.0122
 3229SOL    HW121323   3.941   0.473  17.108  1.1393 -0.3478  0.2456
 3229SOL    HW221324   3.964   0.578  17.004 -0.3261 -1.2515 -0.1921
 3230SOL     OW21325   2.555   3.255  16.210  0.1248  0.6818  0.0923
 3230SOL    HW121326   2.588   3.254  16.120  0.7342 -0.6986  0.3350
 3230SOL    HW221327   2.622   3.310  16.251  0.5692  0.3337 -0.1666
 3231SOL     OW21328   0.004   3.518  17.601  0.4009 -0.0092 -0.0960
 3231SOL    HW121329   0.033   3.441  17.552 -2.1351  0.5132 -2.3735
 3231SOL    HW221330   4.662   3.486  17.657 -0.7416 -0.3028 -1.7276
 3232SOL     OW21331   4.664   1.921  15.980 -0.1098  0.2086  0.4701
 3232SOL    HW121332   4.706   1.836  15.995  0.4745  0.2694 -0.8450
 3232SOL    HW221333   0.006   1.979  16.006 -0.1946  0.5031  0.0405
 3233SOL     OW21334   0.798   1.139  10.911 -0.4239 -0.4331  0.3326
 3233SOL    HW121335   0.803   1.096  10.996 -0.3808 -0.2660  0.4135
 3233SOL    HW221336   0.865   1.091  10.863 -0.1239 -0.3193  0.6440
 3234SOL     OW21337   2.925   4.454  15.548  0.1292  0.0386 -0.8129
 3234SOL    HW121338   2.976   4.454  15.467 -1.0551 -1.0392 -1.5519
 3234SOL    HW221339   2.854   4.508  15.513  0.5585  0.6951 -0.6648
 3235SOL     OW21340   0.432   0.182   4.015  0.3676 -0.3105  0.1492
 3235SOL    HW121341   0.490   0.242   3.967 -0.2552 -0.0942 -0.3369
 3235SOL    HW221342   0.349   0.194   3.969 -0.4659  0.0627  1.7792
 3236SOL     OW21343   2.028   0.968   9.538  0.1429 -0.3145 -0.1596
 3236SOL    HW121344   1.950   0.985   9.590  0.1628 -2.0583  0.4382
 3236SOL    HW221345   2.040   0.873   9.538 -2.4806 -0.6403  1.0219
 3237SOL     OW21346   4.385   3.200  15.813  0.3549  0.1745  0.1266
 3237SOL    HW121347   4.471   3.172  15.844  0.0747 -1.2712 -0.4057
 3237SOL    HW221348   4.331   3.199  15.892  0.3288  1.0959  0.1302
 3238SOL     OW21349   0.395   0.218   8.311  0.2896  0.2291 -0.4396
 3238SOL    HW121350   0.394   0.206   8.216 -0.7339 -3.6056  0.0320
 3238SOL    HW221351   0.304   0.206   8.339  0.0634 -0.3909 -1.4539
 3239SOL     OW21352   1.756   1.726   1.804 -0.0719  0.9243 -0.1583
 3239SOL    HW121353   1.781   1.636   1.822 -1.5300  0.3637 -0.8949
 3239SOL    HW221354   1.726   1.748   1.892  0.5953  1.5055 -0.0723
 3240SOL     OW21355   4.222   2.495   7.033  0.2016  0.0670 -0.0845
 3240SOL    HW121356   4.176   2.564   7.080  1.3363  1.0391 -0.4056
 3240SOL    HW221357   4.147   2.451   6.992  0.0558 -0.3303  0.6185
 3241SOL     OW21358   4.681   1.915   1.425  0.7036 -0.1593 -0.7144
 3241SOL    HW121359   0.025   1.921   1.487 -1.1908  0.3199  1.4763
 3241SOL    HW221360   4.684   2.004   1.390 -1.4021 -0.4590 -1.6443
 3242SOL     OW21361   4.069   1.940   5.396  0.0556  0.2196 -0.3953
 3242SOL    HW121362   3.985   1.923   5.353 -0.2138 -2.6033  1.2068
 3242SOL    HW221363   4.099   2.025   5.366  0.4946  1.3060  3.0312
 3243SOL     OW21364   1.678   3.941  15.094  0.3418 -0.2907 -0.1676
 3243SOL    HW121365   1.634   4.024  15.115  3.6540  0.4887  3.6733
 3243SOL    HW221366   1.757   3.966  15.046  0.0745 -1.5291 -1.2517
 3244SOL     OW21367   2.582   4.591   8.288 -0.1362 -0.0912  0.1691
 3244SOL    HW121368   2.644   4.601   8.216  1.0552  2.3249  1.5144
 3244SOL    HW221369   2.645   4.598   8.360 -0.3067  1.7945  0.1119
 3245SOL     OW21370   0.068   2.152   7.042  0.1532  0.2394 -0.3809
 3245SOL    HW121371   0.157   2.141   7.076  0.5410  1.9533 -0.8384
 3245SOL    HW221372   0.044   2.238   7.076 -0.9883  0.7618 -2.5369
 3246SOL     OW21373   2.413   3.179   1.972  0.8233 -0.1577  0.3857
 3246SOL    HW121374   2.409   3.229   1.890 -0.3563 -1.3440 -0.2757
 3246SOL    HW221375   2.415   3.088   1.945  1.0469  0.4174 -1.5405
 3247SOL     OW21376   1.044   2.772  16.763  0.4438 -0.6091  0.4019
 3247SOL    HW121377   0.984   2.784  16.836  1.2673  0.0049  0.9698
 3247SOL    HW221378   0.990   2.799  16.689  2.3134  3.7749  0.6743
 3248SOL     OW21379   1.550   3.820   6.700 -0.1074  0.0424 -0.2937
 3248SOL    HW121380   1.596   3.842   6.780  1.8151 -0.8631 -1.1505
 3248SOL    HW221381   1.573   3.728   6.688  0.5008 -0.0140  1.3724
 3249SOL     OW21382   0.756   2.762  17.608 -0.2635  0.9894 -0.0073
 3249SOL    HW121383   0.776   2.777  17.516  1.4585 -2.8627 -0.2428
 3249SOL    HW221384   0.700   2.838  17.623  1.5701  1.8999  2.2588
 3250SOL     OW21385   3.958   2.016   2.069 -0.0421  0.2861  0.1456
 3250SOL    HW121386   3.967   1.969   2.152 -1.2842  0.8347  0.5973
 3250SOL    HW221387   3.868   1.995   2.044  0.2585  0.1061 -0.8033
 3251SOL     OW21388   1.709   1.377   7.658  0.3145 -0.4270  0.8018
 3251SOL    HW121389   1.676   1.376   7.748  3.1901 -0.8568  1.8711
 3251SOL    HW221390   1.803   1.371   7.676  0.9109  1.4626 -1.6354
 3252SOL     OW21391   1.243   2.578   7.349  0.0816  0.0359 -0.3548
 3252SOL    HW121392   1.249   2.544   7.260  0.9789 -0.0480 -0.2632
 3252SOL    HW221393   1.308   2.521   7.392  0.5230  2.1848  1.8075
 3253SOL     OW21394   3.872   4.314  16.477  0.5128  0.2599  0.9553
 3253SOL    HW121395   3.927   4.307  16.400 -0.1491  0.6094  0.4555
 3253SOL    HW221396   3.792   4.267  16.454  0.8298 -1.0442  2.4349
 3254SOL     OW21397   1.306   1.831   7.713  0.5421  0.0890 -1.0301
 3254SOL    HW121398   1.364   1.841   7.788 -0.3560  1.4381 -0.5137
 3254SOL    HW221399   1.358   1.781   7.650  1.4540  0.7064 -0.7699
 3255SOL     OW21400   4.539   1.314   9.205 -0.1466 -0.4249  0.5287
 3255SOL    HW121401   4.575   1.403   9.206  1.3116 -0.9994 -0.4314
 3255SOL    HW221402   4.446   1.331   9.214  0.2556  0.6240  2.6692
 3256SOL     OW21403   2.324   1.705   7.714  0.0401  0.4797 -0.0859
 3256SOL    HW121404   2.273   1.785   7.730  1.1007  1.2040 -0.3564
 3256SOL    HW221405   2.408   1.730   7.753  0.0515  1.5339 -0.8038
 3257SOL     OW21406   3.735   1.686   4.072  0.2806  0.2844 -0.1901
 3257SOL    HW121407   3.761   1.774   4.098 -2.2106  1.3819 -1.3154
 3257SOL    HW221408   3.821   1.651   4.051  0.5448  0.8537 -0.0525
 3258SOL     OW21409   0.940   0.095  12.529  0.1226  0.3698 -0.7195
 3258SOL    HW121410   0.861   0.052  12.497  0.4674 -1.6658  1.1639
 3258SOL    HW221411   0.973   0.150  12.458  0.2269 -0.1487 -1.0722
 3259SOL     OW21412   3.651   1.239   3.389  0.2952 -0.1646 -0.7800
 3259SOL    HW121413   3.695   1.290   3.321 -1.4875  2.7889  0.2638
 3259SOL    HW221414   3.722   1.224   3.451  0.8698  0.8294 -1.1980
 3260SOL     OW21415   0.157   3.681   6.358  0.5061  0.4830 -0.2762
 3260SOL    HW121416   0.066   3.650   6.350  1.1278 -1.0375 -1.4924
 3260SOL    HW221417   0.186   3.615   6.295  0.2562 -0.7866  0.9475
 3261SOL     OW21418   3.467   4.441   3.488 -0.1484 -0.1461 -0.4472
 3261SOL    HW121419   3.487   4.514   3.430 -1.3017  0.4099 -0.1415
 3261SOL    HW221420   3.476   4.484   3.573 -0.3411 -0.2554 -0.3696
 3262SOL     OW21421   1.672   2.422   2.931  0.5858 -0.1424 -1.3750
 3262SOL    HW121422   1.591   2.401   2.979  0.6967  1.6885 -0.3572
 3262SOL    HW221423   1.644   2.497   2.879 -2.3826  1.5987  2.6454
 3263SOL     OW21424   1.582   2.756   3.241 -0.2054  1.0246  0.4404
 3263SOL    HW121425   1.549   2.667   3.254 -0.3282  1.0547  0.3296
 3263SOL    HW221426   1.643   2.735   3.171 -1.1902  0.0421 -0.1256
 3264SOL     OW21427   3.315   1.821   6.579  0.5911 -0.2268  0.4807
 3264SOL    HW121428   3.322   1.836   6.674 -0.2507  0.0970  0.4904
 3264SOL    HW221429   3.408   1.811   6.557 -0.0455 -1.6491 -1.6122
 3265SOL     OW21430   2.555   2.736   8.107  0.0975  0.8945 -0.4406
 3265SOL    HW121431   2.637   2.787   8.104  0.2792  0.7929  2.2616
 3265SOL    HW221432   2.521   2.756   8.194 -0.9756  0.2064 -0.7139
 3266SOL     OW21433   2.186   0.857   4.541  0.1369 -0.0101  0.4671
 3266SOL    HW121434   2.159   0.877   4.631 -0.1424 -0.9408  0.5913
 3266SOL    HW221435   2.277   0.883   4.557 -0.7661  2.0547  2.3694
 3267SOL     OW21436   1.661   1.007   8.464 -0.2726 -0.3432  0.0631
 3267SOL    HW121437   1.595   1.073   8.487  0.5339 -0.2672  2.1213
 3267SOL    HW221438   1.621   0.924   8.438  0.2592 -0.5505 -0.0957
 3268SOL     OW21439   1.963   0.216   8.647  0.0241 -0.1102 -0.1576
 3268SOL    HW121440   2.040   0.262   8.679 -0.2219  0.2117 -0.0309
 3268SOL    HW221441   1.907   0.229   8.723  0.7457  0.4860  0.2635
 3269SOL     OW21442   1.966   4.355   0.447 -0.4583  0.5421 -0.4303
 3269SOL    HW121443   1.999   4.414   0.515 -2.4189 -0.2108  1.1483
 3269SOL    HW221444   2.001   4.272   0.480 -0.7485 -0.1673 -1.9027
 3270SOL     OW21445   3.947   1.385   8.481 -0.3341  0.2172 -0.4231
 3270SOL    HW121446   3.938   1.472   8.518 -4.0650 -1.4849  2.6085
 3270SOL    HW221447   3.874   1.381   8.419 -1.2357  2.1701  0.5288
 3271SOL     OW21448   0.250   4.612   8.017 -0.3644  0.3784 -0.2099
 3271SOL    HW121449   0.223   4.629   7.926 -0.2149 -1.1614 -0.5279
 3271SOL    HW221450   0.341   4.642   8.014 -0.4903  0.7461 -0.3898
 3272SOL     OW21451   2.442   3.637  13.105  0.1571 -0.4531 -0.5868
 3272SOL    HW121452   2.423   3.553  13.147 -2.7058  0.7483  0.5120
 3272SOL    HW221453   2.531   3.662  13.132 -0.0521  1.1888 -1.4347
 3273SOL     OW21454   3.009   2.300   8.021  0.1169  0.5488  0.3512
 3273SOL    HW121455   3.025   2.314   8.114 -1.3982  0.0209  0.6918
 3273SOL    HW221456   2.992   2.388   7.987 -2.5521  0.9624  2.8439
 3274SOL     OW21457   1.258   0.190   5.520 -0.0837  0.0624  0.2322
 3274SOL    HW121458   1.305   0.122   5.473 -1.5742  0.1011 -1.3369
 3274SOL    HW221459   1.310   0.214   5.597 -0.3649 -0.2807  0.5312
 3275SOL     OW21460   4.209   3.753   8.155 -0.3236 -0.3329  0.3910
 3275SOL    HW121461   4.206   3.753   8.250 -3.4745 -2.1394  0.2853
 3275SOL    HW221462   4.212   3.658   8.145  0.6337 -0.3709  1.0190
 3276SOL     OW21463   0.329   0.893  13.126 -0.4890 -0.5695 -0.8158
 3276SOL    HW121464   0.245   0.938  13.133 -0.5817 -0.4607 -2.7095
 3276SOL    HW221465   0.351   0.882  13.034  1.4622  1.4819 -0.5889
 3277SOL     OW21466   4.048   1.824   0.509 -0.2674 -0.4862  0.0733
 3277SOL    HW121467   4.138   1.805   0.537 -0.8946  0.6656  2.8233
 3277SOL    HW221468   4.058   1.916   0.533 -2.1945  0.1598 -1.5879
 3278SOL     OW21469   3.429   2.911   8.245 -0.2867  0.2386  1.0225
 3278SOL    HW121470   3.482   2.831   8.249 -0.7509 -0.0844  0.6702
 3278SOL    HW221471   3.445   2.957   8.328  0.3892  1.8536 -0.0025
 3279SOL     OW21472   3.965   1.640  17.716  0.5650 -0.1275 -0.1648
 3279SOL    HW121473   3.965   1.662   0.092  0.9264 -1.5517  0.1766
 3279SOL    HW221474   4.048   1.683  17.695  1.3716 -0.7655  1.7138
 3280SOL     OW21475   2.400   0.791  16.719  0.2367 -0.6127 -0.1675
 3280SOL    HW121476   2.363   0.751  16.640  0.0783 -0.3613 -0.2200
 3280SOL    HW221477   2.335   0.795  16.789 -2.7653  0.5179 -3.0228
 3281SOL     OW21478   4.174   2.199  10.118  0.4114  0.0987 -0.1264
 3281SOL    HW121479   4.199   2.291  10.126 -2.0315  0.8881 -1.5743
 3281SOL    HW221480   4.229   2.162  10.049  1.2148  0.5559  0.2729
 3282SOL     OW21481   0.799   1.295   3.258 -0.2610  0.1299 -0.5838
 3282SOL    HW121482   0.893   1.280   3.270 -0.3060 -0.0764 -0.4909
 3282SOL    HW221483   0.772   1.217   3.209  3.0898  0.4521 -2.9591
 3283SOL     OW21484   0.676   4.241  14.436 -0.5414 -0.0506  0.6754
 3283SOL    HW121485   0.590   4.203  14.457 -1.7056  1.1966 -1.7908
 3283SOL    HW221486   0.724   4.159  14.427 -2.5906 -1.3658  1.6106
 3284SOL     OW21487   1.020   2.120   8.003 -0.0118 -0.2336  0.1175
 3284SOL    HW121488   1.097   2.063   8.013  0.1406 -0.1610 -0.6146
 3284SOL    HW221489   1.053   2.210   7.997 -0.4419 -0.0820  0.0225
 3285SOL     OW21490   3.457   2.622   0.462  0.1577  0.9911  0.3461
 3285SOL    HW121491   3.516   2.630   0.387 -1.6529  1.0887 -1.0570
 3285SOL    HW221492   3.368   2.645   0.439 -0.0609 -1.0467 -0.8490
 3286SOL     OW21493   0.411   4.376   0.933  0.7311  0.2660  0.1757
 3286SOL    HW121494   0.354   4.452   0.926 -0.5894 -0.4847  2.7281
 3286SOL    HW221495   0.495   4.421   0.943  0.0381  2.1774 -2.9120
 3287SOL     OW21496   3.886   0.737  14.858 -0.1836 -0.6015  0.0285
 3287SOL    HW121497   3.795   0.756  14.836  0.3879  1.8384 -0.1977
 3287SOL    HW221498   3.867   0.730  14.951 -0.5042  3.1399  0.2454
 3288SOL     OW21499   3.559   1.198  12.562  0.1909 -0.0732  0.0294
 3288SOL    HW121500   3.625   1.129  12.566  2.2829  1.8993  0.0405
 3288SOL    HW221501   3.495   1.163  12.500 -1.1715  0.1230  1.3258
 3289SOL     OW21502   0.510   4.508   9.249 -0.2174 -0.4394 -0.5374
 3289SOL    HW121503   0.504   4.601   9.227 -2.2441 -0.7260 -1.1959
 3289SOL    HW221504   0.483   4.506   9.341  1.7435  1.8078  0.0974
 3290SOL     OW21505   3.912   0.397   3.223  0.1598 -0.2030  0.6151
 3290SOL    HW121506   3.906   0.351   3.140  1.7986 -1.9198  1.4511
 3290SOL    HW221507   4.004   0.388   3.249  0.6602  1.3046 -0.6649
 3291SOL     OW21508   0.471   0.353   6.414 -0.1612 -0.9395  0.1341
 3291SOL    HW121509   0.410   0.423   6.392 -0.7552 -0.5695  2.9896
 3291SOL    HW221510   0.527   0.391   6.482  0.0927 -0.3390 -0.4098
 3292SOL     OW21511   3.564   1.672   3.732 -0.1497 -0.4944  0.0672
 3292SOL    HW121512   3.545   1.642   3.643 -0.7314 -0.6806  0.2581
 3292SOL    HW221513   3.637   1.613   3.753  0.2978 -0.3465 -1.0442
 3293SOL     OW21514   1.012   1.317   8.708  0.0991 -0.4535  0.1251
 3293SOL    HW121515   0.955   1.394   8.709  0.2198 -0.3596 -0.1714
 3293SOL    HW221516   0.961   1.253   8.757  2.5538 -1.3623  1.4753
 3294SOL     OW21517   2.493   4.541   4.040  0.3668  0.1885  0.0688
 3294SOL    HW121518   2.398   4.552   4.036  0.2090 -1.3913 -0.5314
 3294SOL    HW221519   2.508   4.563   4.132 -0.3385  0.5456  0.1037
 3295SOL     OW21520   3.663   4.164  16.411  0.2447 -0.7892 -0.0832
 3295SOL    HW121521   3.611   4.092  16.375 -2.9079  1.1189  0.6668
 3295SOL    HW221522   3.666   4.152  16.506 -2.9853  1.6812  0.3449
 3296SOL     OW21523   0.906   1.711  16.650 -0.1325 -0.3087  0.3251
 3296SOL    HW121524   0.949   1.753  16.724  0.2416 -0.8085  0.3939
 3296SOL    HW221525   0.828   1.674  16.691 -1.2140  3.0918  1.3437
 3297SOL     OW21526   3.771   3.421   0.726 -0.5032 -0.6103 -0.1828
 3297SOL    HW121527   3.842   3.425   0.791  0.1222 -0.5458 -0.8731
 3297SOL    HW221528   3.823   3.382   0.656 -1.2252 -0.3042 -0.8835
 3298SOL     OW21529   0.543   2.122   6.125  0.0977  0.4256  0.0077
 3298SOL    HW121530   0.477   2.136   6.057 -0.5851 -0.2360  0.5494
 3298SOL    HW221531   0.497   2.069   6.189 -0.9282 -0.1526 -1.2163
 3299SOL     OW21532   1.988   0.024   1.979 -0.0114 -1.0579  0.1944
 3299SOL    HW121533   2.002   0.117   1.993  1.1669 -1.1124 -0.5901
 3299SOL    HW221534   2.076   4.725   2.003  0.5304 -1.0166 -1.7330
 3300SOL     OW21535   4.708   4.125   6.682 -0.1739 -0.1138 -0.3843
 3300SOL    HW121536   0.023   4.063   6.741  0.0292 -0.6287 -1.0763
 3300SOL    HW221537   0.053   4.169   6.641  1.6864 -2.3286  0.5746
 3301SOL     OW21538   1.073   2.047   9.309  0.5106 -0.0635  0.1961
 3301SOL    HW121539   1.120   2.092   9.237  1.8027  0.5789  1.4347
 3301SOL    HW221540   1.000   2.006   9.264  0.0782  1.9970 -0.9847
 3302SOL     OW21541   4.662   2.248  15.579 -0.0196 -0.4803  0.3990
 3302SOL    HW121542   4.656   2.191  15.656 -0.5723 -0.1608  0.5939
 3302SOL    HW221543   0.009   2.209  15.535  0.6055  0.7820  0.3773
 3303SOL     OW21544   2.916   2.971   6.452  0.7326 -0.2105  0.3223
 3303SOL    HW121545   2.893   3.064   6.446 -0.6663 -0.6484 -1.1762
 3303SOL    HW221546   2.990   2.990   6.509  0.4737 -0.6452  0.7958
 3304SOL     OW21547   0.302   0.886   1.280 -0.3871 -0.3597  0.0123
 3304SOL    HW121548   0.220   0.837   1.271 -0.2264 -1.1321  2.7234
 3304SOL    HW221549   0.281   0.961   1.336 -0.0142  0.7212 -1.2764
 3305SOL     OW21550   2.586   3.375   7.193  0.8328  0.2150 -0.3636
 3305SOL    HW121551   2.503   3.373   7.146  0.4358  1.0325  0.3044
 3305SOL    HW221552   2.585   3.471   7.198  1.9827  0.0337  3.1714
 3306SOL     OW21553   3.689   0.781   2.171 -0.5124  0.1368 -0.0006
 3306SOL    HW121554   3.602   0.747   2.151 -0.2178 -0.6811  0.1019
 3306SOL    HW221555   3.702   0.857   2.114  0.0506 -0.2376 -0.3690
 3307SOL     OW21556   0.992   0.114   4.422  0.1741 -0.2644  0.0131
 3307SOL    HW121557   0.977   0.187   4.482 -1.2598 -0.0327 -0.6289
 3307SOL    HW221558   1.033   0.157   4.348  0.8532 -3.6231 -1.5910
 3308SOL     OW21559   3.987   0.383   3.948 -0.5168 -0.0133 -0.1621
 3308SOL    HW121560   3.928   0.426   3.885  1.0848  0.6328 -1.2032
 3308SOL    HW221561   3.937   0.305   3.973  2.3294 -2.1448 -1.1215
 3309SOL     OW21562   4.108   1.634   2.176  0.5436 -0.3152  0.0226
 3309SOL    HW121563   4.092   1.627   2.270 -2.2589 -0.7997 -0.4738
 3309SOL    HW221564   4.040   1.697   2.151  0.9713  0.1826  0.1295
 3310SOL     OW21565   2.469   1.411   4.332  0.1540  0.2646  0.1655
 3310SOL    HW121566   2.459   1.326   4.374  1.4843 -0.0177 -0.1029
 3310SOL    HW221567   2.558   1.430   4.361  1.1657 -2.4606 -1.1742
 3311SOL     OW21568   0.073   0.971   2.088  0.1925 -0.1579 -0.5577
 3311SOL    HW121569   0.145   0.937   2.142 -0.3403  1.1824  0.9910
 3311SOL    HW221570   4.725   0.932   2.127 -0.4288  1.9907  0.3736
 3312SOL     OW21571   1.879   0.041   7.122 -0.2921 -0.1679 -0.2711
 3312SOL    HW121572   1.882   4.687   7.170 -1.1965  1.1867  2.1011
 3312SOL    HW221573   1.946   0.025   7.055  0.5318  0.0568  0.5022
 3313SOL     OW21574   2.167   0.745   8.852 -0.2346  0.3280  0.0494
 3313SOL    HW121575   2.203   0.831   8.872  0.5784  0.2245 -0.9747
 3313SOL    HW221576   2.202   0.694   8.925 -2.9597  1.3287  2.0774
 3314SOL     OW21577   4.194   3.059  17.163 -0.1437  0.0887  0.3772
 3314SOL    HW121578   4.114   3.065  17.111 -0.6803 -0.2435  1.1738
 3314SOL    HW221579   4.179   2.980  17.214  1.0157 -0.8368 -0.7039
 3315SOL     OW21580   3.340   2.489   6.014 -0.3693  0.1499  0.2421
 3315SOL    HW121581   3.343   2.582   6.037 -0.3309  0.7092 -1.9561
 3315SOL    HW221582   3.248   2.484   5.985 -0.4025  2.6922 -0.0851
 3316SOL     OW21583   2.173   2.647   2.722  0.3699  0.4823 -0.1748
 3316SOL    HW121584   2.195   2.630   2.630  0.1769  0.4153 -0.2072
 3316SOL    HW221585   2.255   2.633   2.769  0.7765  0.1786 -0.9672
 3317SOL     OW21586   1.799   2.307  10.636 -0.0707  0.0706 -0.3520
 3317SOL    HW121587   1.827   2.368  10.705  1.1703 -0.2909 -0.5430
 3317SOL    HW221588   1.804   2.229  10.692  0.9834 -1.2506 -2.2947
 3318SOL     OW21589   3.091   2.630  15.965  0.3797 -0.0947  0.1881
 3318SOL    HW121590   3.085   2.683  15.886  1.4286  0.5334  0.5295
 3318SOL    HW221591   3.113   2.681  16.043  0.7275  0.8807 -0.5519
 3319SOL     OW21592   3.995   1.744  16.872 -0.4523  0.1999 -0.3095
 3319SOL    HW121593   3.991   1.813  16.939  1.3686 -0.5408  0.5815
 3319SOL    HW221594   3.971   1.791  16.792 -0.5565  0.3463 -0.1920
 3320SOL     OW21595   2.352   0.325   4.939  0.3207  0.3488 -0.4255
 3320SOL    HW121596   2.297   0.251   4.913 -1.1880  0.9466  1.1049
 3320SOL    HW221597   2.388   0.305   5.025  1.6375  0.7983 -0.8716
 3321SOL     OW21598   2.354   4.083   2.145  0.1402  0.2521 -0.2921
 3321SOL    HW121599   2.323   4.173   2.134 -0.8992  0.0144  0.7637
 3321SOL    HW221600   2.407   4.076   2.065 -0.5085  0.0043 -0.7043
 3322SOL     OW21601   2.795   0.648   9.804 -0.2875 -0.2109 -0.1680
 3322SOL    HW121602   2.784   0.736   9.840 -1.0755 -0.5534  0.4502
 3322SOL    HW221603   2.707   0.623   9.776 -0.0012  1.0639 -2.1281
 3323SOL     OW21604   3.026   2.166  15.247 -0.1560 -0.0108 -0.4225
 3323SOL    HW121605   3.063   2.114  15.176  1.4953 -0.4850  0.7909
 3323SOL    HW221606   3.107   2.201  15.282 -1.8175  1.3209  2.1286
 3324SOL     OW21607   4.014   0.653   4.949  0.3952  0.4710 -0.3905
 3324SOL    HW121608   4.030   0.689   4.861 -2.1274 -1.9603 -1.8325
 3324SOL    HW221609   4.102   0.645   4.984 -0.1489  0.6551  0.9999
 3325SOL     OW21610   1.571   2.189  15.952 -0.1594 -0.0394 -0.6745
 3325SOL    HW121611   1.615   2.264  15.912 -0.1514  0.8832  1.0528
 3325SOL    HW221612   1.493   2.183  15.897 -1.2010 -1.2468  0.9483
 3326SOL     OW21613   0.887   1.980   7.203 -0.1189 -0.0525  0.0098
 3326SOL    HW121614   0.836   1.948   7.129  0.7021 -2.2038  0.3793
 3326SOL    HW221615   0.817   2.027   7.248 -1.2242  0.8169 -2.6213
 3327SOL     OW21616   1.437   0.742  12.362 -0.2918  0.0444  0.1700
 3327SOL    HW121617   1.422   0.788  12.445  0.2184  0.2355  0.1624
 3327SOL    HW221618   1.531   0.725  12.370 -0.0391  1.3035 -0.1151
 3328SOL     OW21619   4.370   2.208  16.881  0.8425  0.3536 -0.0627
 3328SOL    HW121620   4.284   2.196  16.921  1.3165 -0.5415  0.7020
 3328SOL    HW221621   4.432   2.157  16.933  0.0395 -1.1980 -0.6136
 3329SOL     OW21622   4.409   3.481  10.426  0.3365  0.1315  0.1299
 3329SOL    HW121623   4.444   3.528  10.502 -1.2648 -0.6008  1.3287
 3329SOL    HW221624   4.339   3.439  10.476 -0.8492 -0.3429 -1.9278
 3330SOL     OW21625   3.779   2.929   3.791  0.0409  1.0042 -0.2110
 3330SOL    HW121626   3.766   2.931   3.696  0.4780  0.2774 -0.2824
 3330SOL    HW221627   3.694   2.957   3.824 -0.4797  0.6601 -1.2698
 3331SOL     OW21628   1.131   2.643   1.325  0.1470  0.7996 -0.5934
 3331SOL    HW121629   1.109   2.736   1.316  1.4967  1.4052  2.5527
 3331SOL    HW221630   1.176   2.636   1.240  0.4003  0.2976 -0.4152
 3332SOL     OW21631   2.548   4.385   1.644 -0.0355  0.5983  0.1805
 3332SOL    HW121632   2.630   4.337   1.633 -0.6882 -0.3048 -0.6577
 3332SOL    HW221633   2.589   4.472   1.642 -0.3565  0.6704 -2.4821
 3333SOL     OW21634   0.281   3.639   8.391  0.3336  0.3128  0.3817
 3333SOL    HW121635   0.344   3.701   8.354 -0.8481  0.9402 -0.5755
 3333SOL    HW221636   0.310   3.638   8.482 -0.5231  0.8841  0.6604
 3334SOL     OW21637   1.304   2.984   4.616  0.0735  0.0696 -0.4856
 3334SOL    HW121638   1.222   3.027   4.641  1.5246  1.5355  1.7640
 3334SOL    HW221639   1.322   3.042   4.542  0.5452  0.5161 -0.0171
 3335SOL     OW21640   2.646   2.386   5.465  0.3804 -0.3962 -0.0879
 3335SOL    HW121641   2.695   2.310   5.498 -0.5846 -0.6177  0.8342
 3335SOL    HW221642   2.621   2.433   5.544 -0.8005  0.7305 -1.1257
 3336SOL     OW21643   0.944   3.548   2.587  0.1901 -0.1460  0.4017
 3336SOL    HW121644   0.966   3.627   2.636  2.7897 -0.2018 -0.6903
 3336SOL    HW221645   0.862   3.571   2.542  1.2743  1.0365 -0.9818
 3337SOL     OW21646   0.309   4.253   0.455  0.0816  0.1357  0.3109
 3337SOL    HW121647   0.274   4.310   0.524 -0.4596  0.8049 -0.5222
 3337SOL    HW221648   0.254   4.278   0.381  0.2012  1.1756  0.5718
 3338SOL     OW21649   0.378   2.976   7.314  0.2872  0.7409  0.6540
 3338SOL    HW121650   0.412   2.919   7.245 -4.3875 -2.1023  0.6626
 3338SOL    HW221651   0.360   3.049   7.255  1.2063 -0.0695 -0.6384
 3339SOL     OW21652   4.611   2.006   3.998  0.2195 -0.2971 -0.6026
 3339SOL    HW121653   4.657   1.977   3.920  1.3256  0.8727 -0.3920
 3339SOL    HW221654   4.671   1.974   4.065  0.5656 -0.7388 -1.1308
 3340SOL     OW21655   2.039   1.740  12.245  0.0157  1.1898  0.6326
 3340SOL    HW121656   2.063   1.717  12.155 -0.1903 -1.0224  1.1507
 3340SOL    HW221657   2.005   1.656  12.275  0.5334  0.4928 -0.7452
 3341SOL     OW21658   1.852   0.307   9.717  0.1940 -0.0885 -0.1792
 3341SOL    HW121659   1.911   0.249   9.766  0.4329  0.0855 -0.2608
 3341SOL    HW221660   1.773   0.299   9.771  0.6566 -0.5420  0.4312
 3342SOL     OW21661   0.005   1.566   8.963  0.0131  0.4008 -0.1910
 3342SOL    HW121662   4.728   1.501   8.894 -0.5743 -0.1713  0.3898
 3342SOL    HW221663   4.660   1.549   9.022  1.3669  0.6676  1.5909
 3343SOL     OW21664   1.921   0.894   9.168  0.2461  0.3059  0.0026
 3343SOL    HW121665   1.991   0.959   9.159  0.2804  0.2114 -0.4411
 3343SOL    HW221666   1.970   0.814   9.191 -1.4645 -1.1813 -1.5080
 3344SOL     OW21667   4.577   2.713   2.022  0.1706  0.0199  0.0964
 3344SOL    HW121668   4.506   2.683   1.965 -1.0186  1.6520  0.7302
 3344SOL    HW221669   4.650   2.732   1.964 -0.5021  0.0768 -0.7369
 3345SOL     OW21670   2.974   2.381   0.615 -0.3606 -0.0726  0.7473
 3345SOL    HW121671   3.055   2.346   0.651 -0.3971  0.1011  0.9991
 3345SOL    HW221672   2.993   2.399   0.523  1.2926 -0.1822  1.0675
 3346SOL     OW21673   4.176   1.485  10.711 -0.1677 -0.3481 -0.2566
 3346SOL    HW121674   4.088   1.522  10.723  0.5343  0.5957  1.8628
 3346SOL    HW221675   4.168   1.393  10.735 -3.8713  0.0001 -0.0652
 3347SOL     OW21676   4.582   0.548   7.643 -0.4516 -0.1419  0.3264
 3347SOL    HW121677   4.599   0.633   7.684  0.1940 -0.3721  0.5314
 3347SOL    HW221678   4.621   0.491   7.709  0.8308  0.4136  0.0459
 3348SOL     OW21679   3.373   4.006   5.408  0.1796  0.0996  0.1787
 3348SOL    HW121680   3.313   3.932   5.407  1.1589 -0.6904 -0.1106
 3348SOL    HW221681   3.458   3.974   5.439 -0.4899  0.0996  1.9923
 3349SOL     OW21682   1.545   2.973   6.054  0.3588 -0.2589 -0.3631
 3349SOL    HW121683   1.454   2.946   6.060  0.2763  0.4525  1.5705
 3349SOL    HW221684   1.551   3.042   6.121 -0.3249 -0.9342  0.3768
 3350SOL     OW21685   0.996   0.384   9.452  0.2585 -0.4558 -0.6880
 3350SOL    HW121686   1.085   0.410   9.479  0.0874 -1.3946  0.7546
 3350SOL    HW221687   1.009   0.299   9.412  1.2308 -0.0799 -1.1765
 3351SOL     OW21688   2.499   0.317   5.174  0.4095 -0.1780  0.1350
 3351SOL    HW121689   2.593   0.327   5.158  0.4166  0.5687  0.5953
 3351SOL    HW221690   2.490   0.393   5.232  0.2241 -0.6815  0.7622
 3352SOL     OW21691   3.954   4.119   2.874  0.0513  0.1724  0.1563
 3352SOL    HW121692   4.043   4.149   2.894  0.4265 -0.1579 -0.9901
 3352SOL    HW221693   3.972   4.033   2.837  1.2339  0.5117 -0.0580
 3353SOL     OW21694   3.876   1.070   6.742 -0.0704  0.1433  0.1090
 3353SOL    HW121695   3.890   1.088   6.835 -3.1136  0.9542  0.4026
 3353SOL    HW221696   3.947   1.010   6.721 -1.1366 -1.9799  2.5315
 3354SOL     OW21697   2.243   4.354   5.671 -0.1480 -0.4586 -0.2608
 3354SOL    HW121698   2.208   4.349   5.582 -0.9912  0.4173  0.0170
 3354SOL    HW221699   2.289   4.271   5.680  1.6864  0.7165  1.0310
 3355SOL     OW21700   1.934   0.486   2.238  0.3255 -0.7676 -0.4947
 3355SOL    HW121701   1.841   0.488   2.261  0.1850 -2.5231 -0.9379
 3355SOL    HW221702   1.972   0.442   2.315 -0.9382  0.9655  1.1402
 3356SOL     OW21703   3.226   0.333   4.888 -0.0501  0.3133 -0.2442
 3356SOL    HW121704   3.213   0.256   4.832  0.7135 -0.5610  0.7727
 3356SOL    HW221705   3.177   0.313   4.967 -0.4205  1.6303 -0.1433
 3357SOL     OW21706   2.982   4.171   5.987 -0.0736  0.0072  0.2167
 3357SOL    HW121707   2.995   4.238   6.055 -0.8295  1.2774 -0.8858
 3357SOL    HW221708   2.887   4.177   5.976 -0.1756 -0.0691  1.0316
 3358SOL     OW21709   3.041   0.824   1.799 -0.1788 -0.5554  0.7947
 3358SOL    HW121710   3.009   0.795   1.884  2.0331 -2.5580  0.9306
 3358SOL    HW221711   3.031   0.743   1.750  0.9622 -0.8422  1.0421
 3359SOL     OW21712   3.412   4.143   2.783  0.2247 -0.3520  0.2334
 3359SOL    HW121713   3.453   4.228   2.769  2.1973 -1.0033  1.9700
 3359SOL    HW221714   3.487   4.100   2.826 -0.9562 -0.3219  2.2868
 3360SOL     OW21715   3.135   1.732  16.159 -0.0181  0.2762  0.2805
 3360SOL    HW121716   3.041   1.735  16.176 -0.0298  0.1363  0.2366
 3360SOL    HW221717   3.150   1.812  16.108 -1.1724 -1.1945 -2.3037
 3361SOL     OW21718   4.691   3.794   4.229  0.4286  0.0180 -0.0492
 3361SOL    HW121719   4.676   3.701   4.250 -0.0130  0.3491  1.0878
 3361SOL    HW221720   4.682   3.833   4.315 -0.6973 -2.0582  0.7762
 3362SOL     OW21721   3.773   3.312  11.983 -0.0956  0.0746  0.0696
 3362SOL    HW121722   3.736   3.245  12.041  4.0175  0.6093  3.2955
 3362SOL    HW221723   3.728   3.385  12.025 -2.5443 -0.6509 -1.2235
 3363SOL     OW21724   4.380   1.207   7.289  0.1642  0.0511 -0.0201
 3363SOL    HW121725   4.378   1.301   7.301 -0.6569  0.0294  0.0501
 3363SOL    HW221726   4.422   1.198   7.203  2.4771  1.2521  0.9968
 3364SOL     OW21727   2.232   1.342  10.115  0.5259  0.0237 -0.5938
 3364SOL    HW121728   2.152   1.291  10.131  1.4780 -0.9838  0.8551
 3364SOL    HW221729   2.266   1.354  10.203  1.2168  0.8020 -0.9722
 3365SOL     OW21730   2.523   1.133  10.055  0.1160  0.0478  0.1588
 3365SOL    HW121731   2.601   1.092  10.093  0.0160 -0.1858  0.1096
 3365SOL    HW221732   2.447   1.084  10.085 -0.0862 -0.0559 -0.5262
 3366SOL     OW21733   0.552   2.133   3.407 -0.1752 -0.4615  0.0530
 3366SOL    HW121734   0.491   2.143   3.334  1.3458  0.5788 -1.0800
 3366SOL    HW221735   0.604   2.056   3.384 -2.3758 -1.8571 -0.1695
 3367SOL     OW21736   1.096   0.488   2.353  0.3005 -0.5591 -0.0312
 3367SOL    HW121737   1.023   0.541   2.387  1.5367  1.3123 -0.2699
 3367SOL    HW221738   1.083   0.470   2.260  0.7879 -1.7589  0.1431
 3368SOL     OW21739   3.499   0.152   3.025 -0.2950  0.2995  0.4939
 3368SOL    HW121740   3.550   0.222   2.984  0.5443 -0.4459  0.2599
 3368SOL    HW221741   3.550   0.133   3.103 -1.4734 -0.2333  1.1450
 3369SOL     OW21742   1.417   4.156   7.568  0.3999 -0.3923 -0.5971
 3369SOL    HW121743   1.338   4.143   7.515  0.7814 -0.6412 -1.1049
 3369SOL    HW221744   1.422   4.251   7.573 -2.0676 -0.3551  1.1686
 3370SOL     OW21745   0.523   4.573   2.646  0.1127 -0.3337 -0.0715
 3370SOL    HW121746   0.527   4.577   2.742  0.0839 -0.9811 -0.0480
 3370SOL    HW221747   0.480   4.494   2.614 -1.6743  0.5720  0.1078
 3371SOL     OW21748   2.072   3.094   6.961  0.4801  0.6737 -0.1571
 3371SOL    HW121749   2.150   3.050   6.993 -0.1697 -0.3083  0.0932
 3371SOL    HW221750   2.044   3.137   7.043  4.1650  2.3072  0.2358
 3372SOL     OW21751   4.076   3.708   2.257  0.0582 -0.2200  0.1519
 3372SOL    HW121752   4.143   3.649   2.222 -0.6629 -1.9395  1.6891
 3372SOL    HW221753   4.110   3.794   2.230 -1.0178  0.1676  0.0609
 3373SOL     OW21754   4.557   1.946  14.970  0.2179  0.2639 -0.5584
 3373SOL    HW121755   4.540   1.913  14.882  0.4674 -1.6029  0.0895
 3373SOL    HW221756   4.590   2.034  14.951 -3.7946  1.4550 -1.9325
 3374SOL     OW21757   3.142   1.022  13.290  0.1071  0.2650  0.2421
 3374SOL    HW121758   3.216   0.986  13.242  0.6621 -3.5583  3.8838
 3374SOL    HW221759   3.068   1.023  13.230  0.2189 -0.3024  0.0938
 3375SOL     OW21760   0.256   4.010  10.842  0.5142  0.2726  0.0946
 3375SOL    HW121761   0.306   4.089  10.822  1.0608 -0.1853 -0.3469
 3375SOL    HW221762   0.224   4.051  10.922  1.0944 -1.5688  1.2494
 3376SOL     OW21763   4.046   0.118   7.242 -0.4653 -0.3381 -0.5118
 3376SOL    HW121764   3.990   0.145   7.169  1.6716  1.2985 -1.5502
 3376SOL    HW221765   4.094   0.046   7.200  2.0923 -0.1048  2.0256
 3377SOL     OW21766   1.041   0.962   7.936 -0.0641  0.2926 -0.5561
 3377SOL    HW121767   1.128   0.980   7.902  0.0951  0.2819 -0.1503
 3377SOL    HW221768   0.994   1.046   7.936 -1.9988 -0.7933 -2.9115
 3378SOL     OW21769   2.800   0.309  16.763 -0.1885 -0.2847 -0.0794
 3378SOL    HW121770   2.709   0.335  16.777  0.6980  1.7771  1.8453
 3378SOL    HW221771   2.813   0.251  16.838  0.9349  0.6293  0.4263
 3379SOL     OW21772   2.723   3.890   6.194 -0.3723 -0.1346 -0.0818
 3379SOL    HW121773   2.723   3.983   6.170  0.0569  0.0941  0.8304
 3379SOL    HW221774   2.673   3.894   6.275  0.2538  0.9717  0.2495
 3380SOL     OW21775   1.597   0.179   2.616  0.1240  0.3556  0.2103
 3380SOL    HW121776   1.558   0.175   2.703  1.8521  0.7548  1.0123
 3380SOL    HW221777   1.529   0.130   2.569  0.4580  0.5983 -0.5321
 3381SOL     OW21778   4.395   0.492   9.545  0.3959  0.5420  0.2467
 3381SOL    HW121779   4.311   0.525   9.574  0.0160  0.8246 -1.1687
 3381SOL    HW221780   4.439   0.574   9.567  0.5182  0.8901 -1.2994
 3382SOL     OW21781   1.072   1.792   3.198  0.1131  0.2589 -0.1282
 3382SOL    HW121782   0.983   1.828   3.195 -0.4931 -1.1725  0.4917
 3382SOL    HW221783   1.080   1.802   3.293 -0.3536 -2.9618  0.2682
 3383SOL     OW21784   3.525   3.041  11.574 -0.6962 -0.0078  0.4440
 3383SOL    HW121785   3.559   2.965  11.621 -0.9696  0.2704  1.1008
 3383SOL    HW221786   3.482   3.002  11.498  1.7662  0.4218 -1.1736
 3384SOL     OW21787   0.904   3.373  11.190 -0.3524  0.7145  0.2965
 3384SOL    HW121788   0.979   3.433  11.196  0.4108 -0.4013  2.0195
 3384SOL    HW221789   0.894   3.353  11.097  0.1201 -2.9726  1.0603
 3385SOL     OW21790   1.292   1.614  11.775  0.6559 -0.9159  0.3679
 3385SOL    HW121791   1.332   1.532  11.804 -1.4387 -2.1026 -0.1488
 3385SOL    HW221792   1.213   1.626  11.826  0.1402  0.0179 -0.6584
 3386SOL     OW21793   3.804   2.512   8.321 -0.4696  0.3758  0.3510
 3386SOL    HW121794   3.803   2.432   8.375  1.5273 -0.8613 -1.4441
 3386SOL    HW221795   3.897   2.535   8.321 -0.7073  1.3313  0.0185
 3387SOL     OW21796   4.080   2.610   0.466  0.3190  1.0733  0.4990
 3387SOL    HW121797   3.995   2.633   0.504 -0.1884  0.5123 -0.2626
 3387SOL    HW221798   4.095   2.534   0.522  0.5883  0.3127 -0.6072
 3388SOL     OW21799   2.950   2.539   7.858  0.1149  0.5275 -0.1361
 3388SOL    HW121800   2.944   2.480   7.783 -0.1563  0.3895 -0.0048
 3388SOL    HW221801   2.866   2.583   7.848 -2.0887 -2.9719  3.1575
 3389SOL     OW21802   4.017   4.402   6.183 -0.1368  0.1630  0.5739
 3389SOL    HW121803   4.027   4.345   6.259 -1.6486 -1.4214 -0.4227
 3389SOL    HW221804   4.103   4.444   6.180  0.3645 -0.7463  2.2572
 3390SOL     OW21805   0.408   1.258   9.310 -1.0192 -0.4095 -0.5671
 3390SOL    HW121806   0.390   1.216   9.226  0.4547 -0.7037 -0.7390
 3390SOL    HW221807   0.463   1.194   9.355 -0.0129 -1.1540 -2.8532
 3391SOL     OW21808   4.339   2.495   3.265 -0.2319  0.1600  0.0399
 3391SOL    HW121809   4.273   2.551   3.225  0.1116  3.2444  3.7626
 3391SOL    HW221810   4.281   2.436   3.314 -1.8589  0.1306 -1.9062
 3392SOL     OW21811   3.661   1.377   6.926 -0.5150  0.5656  0.0057
 3392SOL    HW121812   3.724   1.449   6.918  0.9486 -0.7107  0.2960
 3392SOL    HW221813   3.667   1.334   6.840  0.5201  1.1092 -0.1923
 3393SOL     OW21814   3.257   1.355   0.307 -0.1489 -0.4015 -1.1193
 3393SOL    HW121815   3.242   1.269   0.347 -1.0052  1.1607  1.9120
 3393SOL    HW221816   3.171   1.396   0.316 -0.0499 -0.2789 -0.7115
 3394SOL     OW21817   4.006   4.013   0.965 -0.3128 -0.2282  0.2622
 3394SOL    HW121818   3.967   4.021   0.878 -0.4011  1.3114  0.4347
 3394SOL    HW221819   4.083   4.070   0.962  0.5563 -1.5503 -2.3984
 3395SOL     OW21820   3.835   0.653  11.279  0.3703  0.5314  0.1320
 3395SOL    HW121821   3.836   0.642  11.184 -0.1563  0.2801  0.1532
 3395SOL    HW221822   3.910   0.711  11.287  2.5180 -2.3190  0.4907
 3396SOL     OW21823   1.372   1.215  17.315 -0.3881  0.1164 -0.1731
 3396SOL    HW121824   1.384   1.233  17.221  0.8841  0.5703  0.0834
 3396SOL    HW221825   1.277   1.208  17.326 -0.4034  2.3958  1.3080
 3397SOL     OW21826   1.809   4.530   7.533  0.6258 -0.3296 -0.0268
 3397SOL    HW121827   1.859   4.603   7.496  1.7430 -0.6937  0.7938
 3397SOL    HW221828   1.844   4.469   7.468  0.1640 -0.3134 -0.2965
 3398SOL     OW21829   3.354   3.506   0.901 -0.0539  0.1781 -0.3129
 3398SOL    HW121830   3.381   3.538   0.987 -1.8406  1.4410 -0.2336
 3398SOL    HW221831   3.282   3.565   0.877 -0.7649 -1.5054 -2.2886
 3399SOL     OW21832   1.412   2.599   9.486  0.3480 -0.3995  0.1108
 3399SOL    HW121833   1.427   2.641   9.571  1.3062  3.3579 -1.9158
 3399SOL    HW221834   1.416   2.681   9.437 -0.4962 -0.6505 -0.3702
 3400SOL     OW21835   2.130   3.255  14.243  0.2248 -0.0709  0.2926
 3400SOL    HW121836   2.109   3.322  14.309  2.3957  1.0566 -0.1609
 3400SOL    HW221837   2.050   3.202  14.248 -0.0128  0.1654 -1.1124
 3401SOL     OW21838   1.427   2.908   6.635  0.0669 -0.3489 -0.4948
 3401SOL    HW121839   1.365   2.846   6.673  1.0288  0.0375  1.7198
 3401SOL    HW221840   1.404   2.992   6.675  6.6571  0.4201  1.7483
 3402SOL     OW21841   4.211   0.586   1.103  0.5861  0.3915  1.2635
 3402SOL    HW121842   4.282   0.651   1.105  0.0539  0.9854  0.6991
 3402SOL    HW221843   4.144   0.640   1.146 -0.2759 -0.5559  1.1098
 3403SOL     OW21844   0.050   0.801   1.323 -0.2769  0.1711 -0.1818
 3403SOL    HW121845   0.049   0.786   1.417 -0.6465  2.8598  0.2554
 3403SOL    HW221846   0.007   0.719   1.300 -3.3290  0.9073  2.8908
 3404SOL     OW21847   4.058   2.498   8.920  0.4763 -0.2667  0.5323
 3404SOL    HW121848   4.114   2.554   8.974  2.0784 -0.5809 -0.8034
 3404SOL    HW221849   4.043   2.414   8.963  1.8638 -0.6987  0.1643
 3405SOL     OW21850   3.265   2.505  15.425  0.0734  0.0015 -0.5566
 3405SOL    HW121851   3.211   2.491  15.503  2.6734  0.7335  1.4102
 3405SOL    HW221852   3.281   2.417  15.393  1.8375  1.3589 -3.3912
 3406SOL     OW21853   3.234   2.944   1.538  0.1211 -0.4463  0.4478
 3406SOL    HW121854   3.225   3.017   1.477  0.9176  0.8186  1.8674
 3406SOL    HW221855   3.324   2.911   1.527  0.4781  0.9954 -0.9339
 3407SOL     OW21856   0.875   0.491   5.512 -0.3085  0.0082  0.0905
 3407SOL    HW121857   0.913   0.404   5.521  0.2616  0.0972 -1.4994
 3407SOL    HW221858   0.783   0.466   5.507  0.8272 -3.8690 -1.0431
 3408SOL     OW21859   1.317   2.363   6.488  0.7453 -0.5383 -0.1507
 3408SOL    HW121860   1.339   2.289   6.544  2.5861 -1.7077 -2.3688
 3408SOL    HW221861   1.389   2.362   6.425 -0.5764 -0.2889 -1.6698
 3409SOL     OW21862   2.803   3.185   8.714  0.3155  0.2148  0.0925
 3409SOL    HW121863   2.750   3.164   8.791  0.1159  0.1378 -0.0643
 3409SOL    HW221864   2.780   3.277   8.699  0.4602 -0.0518 -1.8124
 3410SOL     OW21865   3.537   0.956   8.115  0.2923 -0.2782  0.0047
 3410SOL    HW121866   3.441   0.947   8.117  0.2397 -0.1394 -1.7599
 3410SOL    HW221867   3.553   1.020   8.046  0.7922  0.6243  0.9585
 3411SOL     OW21868   1.936   2.107   3.102 -0.5956  0.3244 -0.2520
 3411SOL    HW121869   1.982   2.026   3.123  1.1123  1.4018  0.1817
 3411SOL    HW221870   1.936   2.110   3.007  0.8809  1.6346 -0.2108
 3412SOL     OW21871   1.424   0.890  12.613 -0.4352  0.6537 -0.4620
 3412SOL    HW121872   1.510   0.915  12.648  0.6176 -1.7229 -1.3441
 3412SOL    HW221873   1.369   0.964  12.640  0.4531  0.4460  1.8985
 3413SOL     OW21874   1.497   3.362   3.751  0.1895  0.0987 -0.0071
 3413SOL    HW121875   1.560   3.295   3.724 -0.9368 -1.0217  0.1188
 3413SOL    HW221876   1.523   3.437   3.698  1.3867 -0.9317 -0.8848
 3414SOL     OW21877   0.669   4.525   7.628  0.6605  0.0413 -0.0308
 3414SOL    HW121878   0.712   4.447   7.592  0.6046 -0.2261  0.4731
 3414SOL    HW221879   0.579   4.503   7.652  0.1675  0.4752 -1.5353
 3415SOL     OW21880   1.011   2.922   9.924 -0.2646 -0.3270 -0.4447
 3415SOL    HW121881   1.106   2.930   9.920 -0.2541  0.5817  1.6919
 3415SOL    HW221882   1.012   2.827   9.917 -0.7186 -0.2148 -1.9944
 3416SOL     OW21883   4.333   4.712   2.474  0.5606  0.0783  0.5654
 3416SOL    HW121884   4.314   0.061   2.423  1.2138  0.5109  1.0035
 3416SOL    HW221885   4.352   0.012   2.563  0.6408 -0.6178  0.7809
 3417SOL     OW21886   4.727   4.505   7.493  0.1421 -0.9020 -0.2929
 3417SOL    HW121887   0.042   4.590   7.502  1.4405 -1.5465 -0.6554
 3417SOL    HW221888   4.637   4.537   7.500 -0.3122 -2.3150  0.0957
 3418SOL     OW21889   2.334   0.320   7.582  0.3989 -0.2447 -0.5426
 3418SOL    HW121890   2.271   0.384   7.548 -0.0741 -0.3952  0.0553
 3418SOL    HW221891   2.275   0.262   7.631  1.3258  1.4340  2.5536
 3419SOL     OW21892   3.865   0.131   4.111  0.4059 -0.4867  0.3704
 3419SOL    HW121893   3.895   0.071   4.180  1.7808  1.2093  1.2554
 3419SOL    HW221894   3.826   0.205   4.159 -0.0285 -0.3485 -0.1985
 3420SOL     OW21895   3.492   1.451   5.057  0.2610 -0.1409  0.2991
 3420SOL    HW121896   3.438   1.394   5.002  0.6434  0.2961 -0.5399
 3420SOL    HW221897   3.543   1.492   4.987  0.9873  1.0204  1.5209
 3421SOL     OW21898   0.723   4.305   9.145 -0.5616 -0.3008  0.2785
 3421SOL    HW121899   0.649   4.283   9.202  0.2954  0.0104  1.5062
 3421SOL    HW221900   0.787   4.323   9.214 -0.3441 -0.6584  0.1696
 3422SOL     OW21901   2.291   3.190   0.754 -0.1702 -0.8722  0.1964
 3422SOL    HW121902   2.377   3.150   0.742  0.5319  0.2138  1.4993
 3422SOL    HW221903   2.313   3.267   0.807 -2.9165  0.2971 -0.3696
 3423SOL     OW21904   2.593   1.186   3.001 -0.3638  0.2673  0.0358
 3423SOL    HW121905   2.551   1.120   3.056 -1.5525  0.2529 -0.9045
 3423SOL    HW221906   2.529   1.191   2.930  1.8144  0.4300 -1.9378
 3424SOL     OW21907   4.045   3.415   3.553 -0.8577  0.1102  0.2555
 3424SOL    HW121908   4.131   3.396   3.590 -0.9507  1.7863  1.3121
 3424SOL    HW221909   4.016   3.493   3.600  0.1810  0.0383  1.0091
 3425SOL     OW21910   3.844   2.098   0.637 -0.2828  0.0150 -0.0963
 3425SOL    HW121911   3.852   2.009   0.671 -0.9260 -0.8620 -2.2549
 3425SOL    HW221912   3.935   2.120   0.620  0.2850 -0.0522  2.8943
 3426SOL     OW21913   2.919   2.972   9.167 -0.1833 -0.2350  0.7719
 3426SOL    HW121914   2.948   3.052   9.124 -1.9149  0.1400  0.2638
 3426SOL    HW221915   2.899   2.916   9.091  0.8571 -0.0647  0.3715
 3427SOL     OW21916   3.742   3.199   5.494 -0.2056 -0.1153  0.5957
 3427SOL    HW121917   3.825   3.155   5.515 -0.5314 -2.0179 -2.1312
 3427SOL    HW221918   3.750   3.290   5.521  2.0041 -0.8180  2.3711
 3428SOL     OW21919   1.086   2.729  13.901 -0.5754 -0.6281 -0.1796
 3428SOL    HW121920   1.120   2.796  13.841 -0.5249  0.9042  1.5739
 3428SOL    HW221921   1.116   2.757  13.987  2.0788 -3.0926 -0.2671
 3429SOL     OW21922   0.414   3.681   5.525  0.0052 -0.2226 -0.0392
 3429SOL    HW121923   0.483   3.747   5.535  2.7498 -2.3329 -5.0783
 3429SOL    HW221924   0.355   3.711   5.594  0.3041  0.4972 -0.0877
 3430SOL     OW21925   3.929   2.076   9.169  0.4845  0.2996 -0.1439
 3430SOL    HW121926   3.890   2.114   9.248 -1.3422  2.6788 -2.1751
 3430SOL    HW221927   3.849   2.080   9.117 -1.6149  0.3309  3.0392
 3431SOL     OW21928   0.553   3.061  11.681 -0.2901  0.2964 -0.1421
 3431SOL    HW121929   0.521   2.976  11.652 -2.2133  0.7248  0.7434
 3431SOL    HW221930   0.489   3.112  11.630 -0.9766  0.2335  0.6482
 3432SOL     OW21931   2.418   0.646   2.552 -0.2012  0.0880  0.2245
 3432SOL    HW121932   2.424   0.569   2.608  2.5898 -0.7794 -1.2750
 3432SOL    HW221933   2.350   0.612   2.495 -0.5490  0.5030  0.3877
 3433SOL     OW21934   2.140   0.260   7.814  0.2228 -0.3241 -0.0879
 3433SOL    HW121935   2.168   0.185   7.866 -0.6658 -0.6392 -0.0636
 3433SOL    HW221936   2.044   0.266   7.811  0.2617 -0.2654 -1.1824
 3434SOL     OW21937   3.865   3.582   1.151 -0.1377 -0.2595 -0.5139
 3434SOL    HW121938   3.903   3.546   1.071  2.0230  1.5945 -0.3285
 3434SOL    HW221939   3.920   3.660   1.159 -0.8590  0.2862 -0.8309
 3435SOL     OW21940   0.093   2.076   6.774 -0.0127 -0.0007 -0.5404
 3435SOL    HW121941   0.115   2.086   6.867  0.9136 -1.1981 -0.6427
 3435SOL    HW221942   0.015   2.132   6.778 -0.4176 -0.6832  1.2770
 3436SOL     OW21943   4.042   3.703   5.585 -0.6977  0.1822  0.3084
 3436SOL    HW121944   4.060   3.641   5.655  0.0328  0.7664  0.6427
 3436SOL    HW221945   4.059   3.644   5.512 -0.4895  0.5675  0.0432
 3437SOL     OW21946   3.367   2.284   5.235 -0.0038  0.0123 -0.7294
 3437SOL    HW121947   3.462   2.291   5.248 -0.1694  1.8670 -0.4731
 3437SOL    HW221948   3.363   2.214   5.171 -1.1276 -1.8547  1.3684
 3438SOL     OW21949   3.685   2.083   2.133 -0.3207 -0.6127  1.1207
 3438SOL    HW121950   3.722   2.154   2.186 -0.2601 -0.1583  0.4626
 3438SOL    HW221951   3.637   2.038   2.202 -1.6698 -0.5703  0.2008
 3439SOL     OW21952   1.203   4.049  17.537 -0.4389 -0.0125 -0.0491
 3439SOL    HW121953   1.174   4.130  17.496 -3.8990  0.3576  3.1862
 3439SOL    HW221954   1.190   4.058  17.631  0.8651  0.1661  0.1190
 3440SOL     OW21955   2.589   0.816   2.157 -0.5920  0.0851 -0.2551
 3440SOL    HW121956   2.631   0.854   2.234 -1.4261  1.7439 -0.6129
 3440SOL    HW221957   2.626   0.729   2.174 -5.0196 -2.1080 -1.6253
 3441SOL     OW21958   0.805   2.580   0.284 -0.0182  0.2170 -0.0150
 3441SOL    HW121959   0.729   2.638   0.274 -1.0907 -0.9210  1.5825
 3441SOL    HW221960   0.827   2.575   0.377  1.2785  0.0581 -0.3396
 3442SOL     OW21961   2.752   1.398   2.248  0.4960  0.3516  0.5661
 3442SOL    HW121962   2.752   1.411   2.153  0.6194 -1.4175  0.3416
 3442SOL    HW221963   2.749   1.303   2.247 -1.1685  0.3967  0.9097
 3443SOL     OW21964   2.282   1.327  15.605 -0.0276  0.2876 -0.4718
 3443SOL    HW121965   2.201   1.338  15.556  0.5063 -1.1575 -1.6688
 3443SOL    HW221966   2.329   1.260  15.555 -0.3049 -1.0635  1.0850
 3444SOL     OW21967   0.258   1.990   4.489  0.1483  0.4238  0.1592
 3444SOL    HW121968   0.192   2.053   4.518  1.4759  0.7805  2.4119
 3444SOL    HW221969   0.273   1.934   4.565  0.5121 -2.9889 -2.4327
 3445SOL     OW21970   4.425   0.298   6.220  0.4941 -0.0131  0.0678
 3445SOL    HW121971   4.417   0.328   6.310  1.2229 -0.5334  0.3075
 3445SOL    HW221972   4.512   0.332   6.201  0.1996  1.7045  1.9441
 3446SOL     OW21973   3.771   4.413   6.065 -0.0490 -0.3867  0.4963
 3446SOL    HW121974   3.713   4.451   6.131 -0.8163 -1.2923  0.3362
 3446SOL    HW221975   3.854   4.408   6.113  1.2540  2.8829 -1.3909
 3447SOL     OW21976   2.136   3.832   8.289 -0.1378 -0.3276  0.5537
 3447SOL    HW121977   2.094   3.748   8.309 -0.7416  0.5638  2.9797
 3447SOL    HW221978   2.075   3.859   8.220 -1.3688  1.6590  2.4387
 3448SOL     OW21979   0.565   4.148   7.901 -0.1970  0.3424 -0.5177
 3448SOL    HW121980   0.621   4.214   7.943 -0.6312  0.3286  0.0774
 3448SOL    HW221981   0.501   4.135   7.971  0.1747 -2.6045 -0.7257
 3449SOL     OW21982   2.351   0.853   3.594  0.1104  0.3677  0.1915
 3449SOL    HW121983   2.348   0.946   3.572 -0.3016  0.2853 -0.1106
 3449SOL    HW221984   2.441   0.841   3.624 -0.0366 -0.8308  0.1424
 3450SOL     OW21985   3.438   3.614   0.161 -0.6707  0.3353 -0.5922
 3450SOL    HW121986   3.407   3.686   0.105 -0.2312 -0.0602 -1.3439
 3450SOL    HW221987   3.361   3.558   0.162 -1.6472  1.7182  1.0828
 3451SOL     OW21988   1.198   0.462   3.329 -0.4417 -0.2137 -0.3889
 3451SOL    HW121989   1.204   0.493   3.239  0.1773  2.0502  0.4287
 3451SOL    HW221990   1.105   0.470   3.350 -0.7500 -3.8962 -0.3141
 3452SOL     OW21991   0.656   2.588   4.015 -0.6093  0.2527  0.0773
 3452SOL    HW121992   0.649   2.571   4.109  1.3494 -1.3553 -0.0567
 3452SOL    HW221993   0.708   2.668   4.012 -1.0277  0.3891 -2.7570
 3453SOL     OW21994   3.862   1.705   4.769  0.1578 -0.1398  0.1610
 3453SOL    HW121995   3.833   1.696   4.678  0.7334 -0.6800  0.0267
 3453SOL    HW221996   3.955   1.712   4.749  0.1513  0.5606  0.3967
 3454SOL     OW21997   2.263   0.065   6.510  0.0338  0.0640  0.5033
 3454SOL    HW121998   2.350   0.047   6.546  0.1740  0.7396  0.5069
 3454SOL    HW221999   2.235   4.708   6.479 -1.4225  1.1188 -1.1414
 3455SOL     OW22000   4.545   1.701   8.437 -0.2784 -0.0085 -0.4921
 3455SOL    HW122001   4.558   1.609   8.459  1.3034  0.1677 -0.7409
 3455SOL    HW222002   4.513   1.737   8.520  2.7480  0.0271  0.6499
 3456SOL     OW22003   2.837   1.146  11.783  0.6290 -0.3611 -0.4476
 3456SOL    HW122004   2.759   1.167  11.732 -0.0440 -0.4815  0.5390
 3456SOL    HW222005   2.858   1.063  11.740  1.9874 -0.4291  0.3406
 3457SOL     OW22006   3.538   3.306   0.910  0.0524  0.3743  0.0163
 3457SOL    HW122007   3.486   3.384   0.893  2.2976  2.2603  1.8141
 3457SOL    HW222008   3.616   3.332   0.861 -0.4528  2.4468  0.3384
 3458SOL     OW22009   3.624   2.704   3.946  0.1324  0.1915  0.4066
 3458SOL    HW122010   3.547   2.673   3.899 -0.3276  0.1788  1.1672
 3458SOL    HW222011   3.613   2.797   3.923  1.2773  0.0646 -0.6825
 3459SOL     OW22012   3.094   1.742   3.904  0.6644 -0.1659 -0.2247
 3459SOL    HW122013   3.026   1.679   3.879  0.2966  0.1621 -0.0382
 3459SOL    HW222014   3.153   1.725   3.830  1.0910  0.0819  0.0577
 3460SOL     OW22015   1.017   2.704  11.785  0.0755  0.6158 -0.3911
 3460SOL    HW122016   1.004   2.661  11.870 -0.3987  1.1257 -0.2076
 3460SOL    HW222017   0.928   2.708  11.751 -0.6331 -0.3799  1.3199
 3461SOL     OW22018   0.223   4.502   1.815  0.1384  0.3895 -0.3658
 3461SOL    HW122019   0.165   4.458   1.753  0.4493  0.0076 -0.3916
 3461SOL    HW222020   0.260   4.578   1.771 -1.3523  0.5832 -1.3047
 3462SOL     OW22021   4.021   3.997   5.084 -0.6943  0.4540 -0.0589
 3462SOL    HW122022   4.115   3.987   5.101 -0.7419  0.6596  0.3282
 3462SOL    HW222023   4.000   3.908   5.056 -2.0145  0.5542  0.6193
 3463SOL     OW22024   1.012   2.526  16.094  0.0708 -0.4244  0.1676
 3463SOL    HW122025   1.100   2.519  16.131  0.3959 -3.8871 -1.2440
 3463SOL    HW222026   0.971   2.444  16.123  1.2069  0.3502  3.9300
 3464SOL     OW22027   4.430   0.364   9.938  0.0553 -0.0775 -0.3294
 3464SOL    HW122028   4.424   0.459   9.926 -0.9371 -0.0256  0.5901
 3464SOL    HW222029   4.457   0.348   9.848  2.2747  1.0496  0.1446
 3465SOL     OW22030   3.887   2.536   4.292 -0.0098 -0.3722 -0.6870
 3465SOL    HW122031   3.960   2.481   4.320 -0.3936 -1.4291 -1.7646
 3465SOL    HW222032   3.832   2.471   4.248 -1.3837 -0.2560  0.8812
 3466SOL     OW22033   0.864   0.699   4.578 -0.2481  0.1197  0.2312
 3466SOL    HW122034   0.840   0.613   4.544  0.5085 -0.3024  0.7511
 3466SOL    HW222035   0.850   0.754   4.500 -1.1161 -1.5257 -0.7584
 3467SOL     OW22036   3.654   2.987   4.771  0.2990  0.0159 -0.3005
 3467SOL    HW122037   3.642   3.002   4.678 -3.5494 -0.3101  0.1505
 3467SOL    HW222038   3.671   2.893   4.775 -2.8503 -0.5321  0.1664
 3468SOL     OW22039   0.766   3.074   7.502  0.0905 -0.6110  0.2248
 3468SOL    HW122040   0.824   3.000   7.520  0.8160 -0.7421 -2.7386
 3468SOL    HW222041   0.676   3.041   7.494 -0.3655 -0.2805  3.8686
 3469SOL     OW22042   1.020   0.319   8.965 -0.8371  0.0452  0.1172
 3469SOL    HW122043   1.062   0.292   9.046 -1.0498  0.4067  0.3458
 3469SOL    HW222044   1.098   0.353   8.920 -0.7946 -2.5272 -1.7563
 3470SOL     OW22045   0.150   0.551   6.210 -0.3771  0.6025 -0.0567
 3470SOL    HW122046   0.194   0.493   6.148  2.1111 -0.8647  3.0932
 3470SOL    HW222047   0.215   0.578   6.275 -1.5792 -1.3778  1.9922
 3471SOL     OW22048   4.381   1.351   0.140  0.1180  0.0532  0.1989
 3471SOL    HW122049   4.369   1.437   0.101  0.3553  0.2817  0.6202
 3471SOL    HW222050   4.306   1.330   0.195 -0.2667  0.1278 -0.3082
 3472SOL     OW22051   2.873   0.082   6.418  0.3633  0.2449  0.4359
 3472SOL    HW122052   2.858   0.120   6.504  1.3532 -2.2254  1.7011
 3472SOL    HW222053   2.932   0.008   6.430  1.5000  1.1355  0.4281
 3473SOL     OW22054   2.721   3.649   3.027 -0.1296 -0.2446  0.8473
 3473SOL    HW122055   2.668   3.577   2.992 -1.2570  0.6764  0.6533
 3473SOL    HW222056   2.771   3.596   3.089  1.4744  0.1333 -0.1263
 3474SOL     OW22057   4.011   3.910   7.542 -0.1406 -0.6976  0.4089
 3474SOL    HW122058   3.956   3.980   7.577 -0.0393 -0.8035  0.7841
 3474SOL    HW222059   4.090   3.913   7.597  0.7579 -1.3946 -0.8442
 3475SOL     OW22060   2.330   3.431   7.083  0.0781 -0.2174  0.0782
 3475SOL    HW122061   2.238   3.458   7.092 -0.3606 -1.9693  0.7564
 3475SOL    HW222062   2.320   3.414   6.989 -0.4081 -1.5461  0.3691
 3476SOL     OW22063   1.009   0.819   7.272  0.8419  0.6097  0.2467
 3476SOL    HW122064   1.083   0.865   7.234  1.6058 -1.3000 -0.5922
 3476SOL    HW222065   1.046   0.731   7.262  0.5918  0.3973  1.1909
 3477SOL     OW22066   3.030   2.518   5.704 -0.0728 -0.1991  0.1181
 3477SOL    HW122067   2.999   2.579   5.772 -3.3870 -0.6681 -0.9868
 3477SOL    HW222068   3.001   2.432   5.735 -1.8568 -0.2279 -1.7050
 3478SOL     OW22069   1.248   1.083   7.733  0.4466 -0.0707  0.5217
 3478SOL    HW122070   1.163   1.093   7.690 -0.3245 -2.7857  1.4442
 3478SOL    HW222071   1.239   1.161   7.788 -2.1321 -0.2318  0.3114
 3479SOL     OW22072   3.563   2.043   1.825  0.2621 -0.2857  0.1407
 3479SOL    HW122073   3.600   2.063   1.910  0.4338  1.5850 -0.3742
 3479SOL    HW222074   3.565   2.132   1.791 -2.4435 -0.8217 -1.4321
 3480SOL     OW22075   4.330   4.136   4.540 -0.2962  0.4286 -0.3462
 3480SOL    HW122076   4.260   4.149   4.477 -0.7990  1.6191  0.4582
 3480SOL    HW222077   4.282   4.148   4.622 -1.3438 -0.6515 -0.8149
 3481SOL     OW22078   2.434   2.078   4.099  0.0918  0.2498  0.1175
 3481SOL    HW122079   2.410   1.996   4.143  1.0596  0.1781  0.5082
 3481SOL    HW222080   2.494   2.042   4.033 -0.9677 -1.6695  0.1825
 3482SOL     OW22081   0.168   1.221   6.992 -0.4363  0.6421 -0.4575
 3482SOL    HW122082   0.093   1.200   6.937  0.3124 -0.4467 -1.0579
 3482SOL    HW222083   0.121   1.282   7.048  2.0092  0.0020  2.3475
 3483SOL     OW22084   4.053   4.256   3.431 -0.0344  0.1658 -0.2674
 3483SOL    HW122085   4.009   4.209   3.360 -0.4662 -2.4419  1.7694
 3483SOL    HW222086   4.116   4.188   3.456  0.2746  1.1243  1.5653
 3484SOL     OW22087   0.953   2.257  11.838  0.4213  0.3305 -0.3860
 3484SOL    HW122088   0.858   2.260  11.839  0.4228 -0.1243  1.2095
 3484SOL    HW222089   0.964   2.300  11.753 -0.6532  0.7639 -0.3015
 3485SOL     OW22090   1.800   2.010   9.347  0.1792 -0.5829 -0.1672
 3485SOL    HW122091   1.771   1.956   9.421  3.1135 -0.1356  1.3271
 3485SOL    HW222092   1.882   1.965   9.323 -0.0824 -2.0820  1.7309
 3486SOL     OW22093   1.204   2.700   5.267 -0.3040  0.0531 -0.6349
 3486SOL    HW122094   1.197   2.714   5.362 -2.5178 -0.1738 -0.7485
 3486SOL    HW222095   1.268   2.764   5.238 -0.3288 -0.6302 -2.1597
 3487SOL     OW22096   2.723   2.688   3.904 -0.2928 -0.0041  0.1886
 3487SOL    HW122097   2.744   2.603   3.943 -1.6504 -0.3600  0.1538
 3487SOL    HW222098   2.700   2.654   3.818 -0.2621  1.3558 -0.3600
 3488SOL     OW22099   3.468   1.634   4.004  0.3928  0.4099 -0.2482
 3488SOL    HW122100   3.488   1.622   3.911  0.0001  1.1910 -0.4310
 3488SOL    HW222101   3.558   1.648   4.036  1.1336 -2.0345 -1.2315
 3489SOL     OW22102   3.336   0.634   2.926  0.4406  1.0449 -0.4688
 3489SOL    HW122103   3.319   0.544   2.952  0.4801  0.3928 -2.6870
 3489SOL    HW222104   3.248   0.648   2.890  0.1840  0.5665 -0.0213
 3490SOL     OW22105   2.998   0.373   2.254  0.1980 -0.2841  0.1561
 3490SOL    HW122106   2.997   0.429   2.332  2.0146  0.4395 -0.3427
 3490SOL    HW222107   3.063   0.426   2.209  1.5661 -1.8544  0.2495
 3491SOL     OW22108   2.774   1.110   2.249  0.4188  0.3265 -0.4658
 3491SOL    HW122109   2.783   1.016   2.265  1.5642  0.1407 -2.2106
 3491SOL    HW222110   2.860   1.128   2.211  0.5089 -0.4161 -0.6126
 3492SOL     OW22111   0.326   2.726  17.053 -0.4238 -0.3928  0.1381
 3492SOL    HW122112   0.307   2.731  16.959  0.6416 -0.4421 -0.0816
 3492SOL    HW222113   0.362   2.637  17.053 -0.5220 -0.4307 -1.1009
 3493SOL     OW22114   3.444   2.781   3.098  0.0337  0.2095  0.0393
 3493SOL    HW122115   3.486   2.751   3.018  1.6105 -2.2504  1.7927
 3493SOL    HW222116   3.406   2.696   3.120  0.6917 -0.1028 -0.0253
 3494SOL     OW22117   1.464   0.328   5.142 -0.2196 -0.1083  0.1031
 3494SOL    HW122118   1.554   0.348   5.117  0.2959 -1.6360  0.7558
 3494SOL    HW222119   1.459   0.233   5.130 -1.1504 -0.3930  2.6411
 3495SOL     OW22120   3.742   2.864   1.074 -0.5991 -0.8031  0.4810
 3495SOL    HW122121   3.810   2.802   1.098 -2.0453 -1.2987  3.2402
 3495SOL    HW222122   3.685   2.876   1.150  0.5510 -1.8057  1.5035
 3496SOL     OW22123   0.248   0.854   5.444  0.2119 -0.2084 -0.7353
 3496SOL    HW122124   0.160   0.820   5.430  0.4727 -2.3223  2.7572
 3496SOL    HW222125   0.240   0.925   5.508 -1.3778 -1.4289  0.4407
 3497SOL     OW22126   2.214   3.697   5.137 -0.3380  0.3540 -0.1986
 3497SOL    HW122127   2.276   3.732   5.200 -1.2240 -0.1134  0.9426
 3497SOL    HW222128   2.188   3.612   5.173 -2.4876  0.5088 -1.3880
 3498SOL     OW22129   0.480   0.395   5.859 -0.5266 -0.0701  0.4958
 3498SOL    HW122130   0.448   0.477   5.821 -0.7497  0.5528  2.0449
 3498SOL    HW222131   0.557   0.419   5.911 -0.3342  0.1557  0.1087
 3499SOL     OW22132   0.686   4.017  10.241 -0.2608  0.4962 -0.6358
 3499SOL    HW122133   0.732   4.077  10.300 -0.1865 -0.5589  0.3584
 3499SOL    HW222134   0.622   4.072  10.195 -0.9794 -0.8916 -1.2723
 3500SOL     OW22135   0.055   4.101   2.815  0.0202  0.2134 -0.0409
 3500SOL    HW122136   0.082   4.193   2.812  0.8125 -0.0280 -0.0430
 3500SOL    HW222137   0.132   4.052   2.786 -1.2728 -1.7602 -0.1375
 3501SOL     OW22138   1.534   1.996   7.313  0.3346  0.4199  0.2854
 3501SOL    HW122139   1.512   1.924   7.372 -0.7132  0.5542  0.0718
 3501SOL    HW222140   1.629   1.989   7.306  0.3623  0.8825  0.1829
 3502SOL     OW22141   2.366   2.101  11.251  0.0640  0.0119  0.6693
 3502SOL    HW122142   2.395   2.090  11.341  0.7504  1.1906  0.5902
 3502SOL    HW222143   2.416   2.180  11.232  1.3072 -0.7479  0.8432
 3503SOL     OW22144   2.551   2.986  15.959  0.4178  0.2015 -0.5048
 3503SOL    HW122145   2.631   3.025  15.993  0.3069 -0.5382  0.6047
 3503SOL    HW222146   2.543   3.025  15.872  0.7015 -1.0872 -1.1248
 3504SOL     OW22147   1.248   0.123   9.691  0.1700 -0.8726  0.2790
 3504SOL    HW122148   1.333   0.097   9.726  0.9553  1.1401 -0.0851
 3504SOL    HW222149   1.189   0.085   9.756  0.8104 -0.5623  1.0457
 3505SOL     OW22150   2.526   2.295  11.193  0.0717  0.7634 -0.4572
 3505SOL    HW122151   2.620   2.315  11.184  0.0969  0.8843  0.1131
 3505SOL    HW222152   2.512   2.325  11.103 -0.6413 -2.5768 -1.4636
 3506SOL     OW22153   0.110   2.232   9.354 -0.5636 -0.0803  0.5370
 3506SOL    HW122154   0.052   2.208   9.282 -1.8149  2.3281  0.7713
 3506SOL    HW222155   0.140   2.141   9.361  1.1599  0.2699 -2.3261
 3507SOL     OW22156   4.183   3.375   3.297 -0.3120  0.1122 -0.0512
 3507SOL    HW122157   4.183   3.279   3.303 -0.0205  0.2210  1.7344
 3507SOL    HW222158   4.160   3.394   3.388  1.9688 -0.5053  0.6601
 3508SOL     OW22159   0.400   0.956   8.288  0.8566 -0.0035 -0.1422
 3508SOL    HW122160   0.349   0.880   8.259  0.2828  1.3301 -2.6051
 3508SOL    HW222161   0.367   0.953   8.378  0.1502  2.1758 -0.3201
 3509SOL     OW22162   2.453   3.033   3.337  0.0380 -0.0837 -0.5064
 3509SOL    HW122163   2.398   3.012   3.412 -0.5680 -1.2021 -1.2594
 3509SOL    HW222164   2.431   2.963   3.275 -3.2072  0.1916  0.3333
 3510SOL     OW22165   1.248   3.219  15.664 -0.1748  0.8061 -0.0477
 3510SOL    HW122166   1.244   3.129  15.696  0.2723  1.4027  1.6662
 3510SOL    HW222167   1.217   3.267  15.741 -4.0101  0.6446 -1.4551
 3511SOL     OW22168   1.357   3.889   1.807  0.2854  0.1677 -0.2834
 3511SOL    HW122169   1.414   3.818   1.776  1.6389  1.4317 -0.6381
 3511SOL    HW222170   1.296   3.839   1.862 -0.8711  0.3822 -1.3610
 3512SOL     OW22171   3.650   2.248   2.594 -0.5385  0.7182  0.0388
 3512SOL    HW122172   3.556   2.267   2.589 -0.5455  0.2647 -1.6568
 3512SOL    HW222173   3.674   2.252   2.686 -2.6336  1.2795  0.5615
 3513SOL     OW22174   1.598   4.455   3.400 -0.7951 -0.4265  0.4338
 3513SOL    HW122175   1.549   4.384   3.358 -0.9814  0.5990 -1.1077
 3513SOL    HW222176   1.674   4.401   3.418 -0.5675  0.0935  1.0250
 3514SOL     OW22177   3.682   0.452  11.590  0.4237 -0.1094 -0.6925
 3514SOL    HW122178   3.739   0.395  11.539  3.2303  1.2830  0.8982
 3514SOL    HW222179   3.659   0.389  11.657 -0.4565  1.1258  0.1672
 3515SOL     OW22180   2.110   1.742  14.812 -0.0669 -0.0779 -0.5148
 3515SOL    HW122181   2.134   1.670  14.871  1.1422  0.1091 -0.7916
 3515SOL    HW222182   2.157   1.817  14.848  0.2733 -0.7235  0.3850
 3516SOL     OW22183   1.531   2.330  14.638 -0.1549  0.1672  0.2490
 3516SOL    HW122184   1.603   2.351  14.578 -0.7560 -2.3674 -1.3736
 3516SOL    HW222185   1.459   2.356  14.580  0.0540 -3.4676 -1.6151
 3517SOL     OW22186   4.717   1.038   6.654  0.4610 -0.0155 -0.0254
 3517SOL    HW122187   0.083   1.051   6.661  0.3346  1.1341 -0.3402
 3517SOL    HW222188   4.709   0.998   6.568  1.0722 -1.5549  0.6335
 3518SOL     OW22189   1.057   1.539   5.820 -0.3245  0.0598 -0.3260
 3518SOL    HW122190   1.007   1.611   5.859 -1.7911  0.4155 -2.8623
 3518SOL    HW222191   1.004   1.464   5.848  0.5418 -0.3904  0.1079
 3519SOL     OW22192   3.834   3.925   3.386 -0.2570  0.5537 -0.4533
 3519SOL    HW122193   3.821   3.844   3.337 -2.3159 -0.2781  1.4458
 3519SOL    HW222194   3.753   3.917   3.436 -0.4780  1.7034 -0.6192
 3520SOL     OW22195   0.573   4.386   8.479 -0.2338 -0.2622  0.6637
 3520SOL    HW122196   0.595   4.300   8.515  1.0565 -0.8879 -1.6242
 3520SOL    HW222197   0.604   4.446   8.548 -0.5567 -0.7591  1.2405
 3521SOL     OW22198   4.716   2.548   3.034  0.4433  0.0454 -0.1745
 3521SOL    HW122199   4.643   2.495   3.003 -0.3980  0.3880  1.2180
 3521SOL    HW222200   0.063   2.496   3.005  0.1520 -0.2693 -0.3701
 3522SOL     OW22201   1.952   0.742   4.244  0.1995  0.0036 -0.3892
 3522SOL    HW122202   1.915   0.665   4.288  1.7527 -1.1510 -1.1329
 3522SOL    HW222203   1.997   0.702   4.169  0.4887 -1.0705  0.3611
 3523SOL     OW22204   3.953   2.090   7.211  0.2205 -0.2073 -0.2291
 3523SOL    HW122205   3.919   2.107   7.299 -0.7273 -0.9628 -0.4519
 3523SOL    HW222206   3.894   2.020   7.186  1.6591 -0.8091 -1.9501
 3524SOL     OW22207   3.890   1.034   1.563  0.0529 -0.7545  0.3444
 3524SOL    HW122208   3.825   1.104   1.567  1.0420  0.1760  0.1218
 3524SOL    HW222209   3.827   0.963   1.549 -1.0822  0.3086  0.0515
 3525SOL     OW22210   3.177   2.242  12.838 -0.2941  0.4171  0.5819
 3525SOL    HW122211   3.202   2.294  12.914 -0.3665  1.0434  0.1781
 3525SOL    HW222212   3.259   2.205  12.808  0.3807  1.0043  1.7092
 3526SOL     OW22213   3.303   2.911   7.665 -0.1376 -0.3025 -0.4216
 3526SOL    HW122214   3.233   2.976   7.665  0.0717 -0.0772 -0.5937
 3526SOL    HW222215   3.257   2.845   7.717 -0.8735 -1.0793 -2.0650
 3527SOL     OW22216   3.511   2.640   0.729 -0.4961  0.3973 -0.2401
 3527SOL    HW122217   3.516   2.640   0.633 -1.4577  0.5976 -0.2925
 3527SOL    HW222218   3.551   2.724   0.751 -1.9952  1.0403  0.0531
 3528SOL     OW22219   3.835   4.145  14.661  0.0939  0.8948  0.3876
 3528SOL    HW122220   3.903   4.087  14.628 -1.8942 -1.3943  0.3299
 3528SOL    HW222221   3.797   4.166  14.576 -0.0662  1.0757  0.5020
 3529SOL     OW22222   2.946   3.467   5.348 -0.2844  0.7667  0.0049
 3529SOL    HW122223   3.004   3.478   5.424 -0.3958 -1.5776  0.4171
 3529SOL    HW222224   2.910   3.556   5.343  0.6873  1.1712  0.0062
 3530SOL     OW22225   0.105   2.782   4.590  0.0042  0.4696  0.4104
 3530SOL    HW122226   0.183   2.825   4.624 -1.7417  2.0088  2.4170
 3530SOL    HW222227   0.062   2.860   4.556  1.5787  0.9292 -0.5599
 3531SOL     OW22228   3.394   1.184   8.679  0.0539  0.1965 -0.1317
 3531SOL    HW122229   3.348   1.200   8.761  3.1205 -0.3138  1.6913
 3531SOL    HW222230   3.460   1.253   8.683  0.0349  0.2057  0.0277
 3532SOL     OW22231   3.021   4.039  12.080  0.3249 -0.2145  0.0486
 3532SOL    HW122232   2.971   3.958  12.071  1.0453 -0.8155  1.5268
 3532SOL    HW222233   3.027   4.067  11.988 -0.7585 -0.3146 -0.0536
 3533SOL     OW22234   1.245   1.805   4.691 -0.5209  0.2028 -0.2766
 3533SOL    HW122235   1.190   1.783   4.767  0.7066  0.9049  0.8126
 3533SOL    HW222236   1.238   1.900   4.687  2.8762  0.3967 -1.0318
 3534SOL     OW22237   2.801   2.741  15.840  0.4482  0.2980  0.4093
 3534SOL    HW122238   2.753   2.765  15.761 -0.1748 -0.8883  0.4395
 3534SOL    HW222239   2.888   2.781  15.833 -0.4659  2.2533  0.1807
 3535SOL     OW22240   4.363   4.358  10.517  0.0607 -0.0994  0.6847
 3535SOL    HW122241   4.314   4.437  10.492  0.6442  0.9181  2.7260
 3535SOL    HW222242   4.452   4.372  10.485 -0.1494 -0.2134  0.0643
 3536SOL     OW22243   0.362   2.413   0.395  0.3686  0.4352  0.1020
 3536SOL    HW122244   0.268   2.412   0.380  0.6224  0.1226 -1.4707
 3536SOL    HW222245   0.393   2.340   0.341  1.0771 -0.6407  1.9496
 3537SOL     OW22246   0.592   0.824   9.384 -0.0007 -0.0347  0.0376
 3537SOL    HW122247   0.643   0.849   9.460  0.0083  1.1334 -0.3512
 3537SOL    HW222248   0.620   0.889   9.319 -2.0695 -0.1626 -0.9901
 3538SOL     OW22249   1.913   1.831   3.031 -0.0211  0.0957 -0.4648
 3538SOL    HW122250   2.006   1.855   3.028  0.1407 -0.6006 -1.0023
 3538SOL    HW222251   1.911   1.761   3.097 -0.8078 -0.7999 -1.4531
 3539SOL     OW22252   2.681   1.051   5.976  0.1078  0.1144 -0.4058
 3539SOL    HW122253   2.661   1.123   6.036  1.3624  1.0025 -1.0364
 3539SOL    HW222254   2.604   0.994   5.984  0.2868 -0.2794 -1.4205
 3540SOL     OW22255   2.474   2.875   4.566  0.4108  0.5663 -0.2234
 3540SOL    HW122256   2.481   2.926   4.647  2.0060 -0.7694  0.4828
 3540SOL    HW222257   2.536   2.803   4.579 -2.2666 -1.1457  3.1595
 3541SOL     OW22258   3.164   3.765  11.576 -0.0847 -0.1708 -0.5235
 3541SOL    HW122259   3.124   3.724  11.499 -1.5389 -2.0857  1.2288
 3541SOL    HW222260   3.236   3.703  11.586  0.4973  0.6044  0.0780
 3542SOL     OW22261   1.957   2.334   2.251 -0.0657 -0.3033 -0.1253
 3542SOL    HW122262   1.866   2.333   2.222 -0.8911 -2.4295  2.5566
 3542SOL    HW222263   2.000   2.263   2.205 -1.0300 -0.5405 -0.6482
 3543SOL     OW22264   4.059   3.509   5.793 -0.3412  0.5648  0.4219
 3543SOL    HW122265   4.062   3.536   5.885  1.7250  0.9220  0.2390
 3543SOL    HW222266   3.973   3.466   5.797 -0.7403  1.4030  0.9913
 3544SOL     OW22267   0.023   3.881   8.712 -0.0356 -0.3707 -0.5993
 3544SOL    HW122268   0.074   3.924   8.780 -0.2966  1.3072 -1.4781
 3544SOL    HW222269   0.067   3.898   8.629 -0.5318  1.3404 -0.4937
 3545SOL     OW22270   3.855   3.360   2.496  0.0690  0.2993  0.1857
 3545SOL    HW122271   3.942   3.325   2.478 -0.2832 -0.8198  0.6343
 3545SOL    HW222272   3.868   3.452   2.477  3.8945 -0.3208 -0.2866
 3546SOL     OW22273   2.183   1.949   5.802 -0.0329  0.0166 -0.1432
 3546SOL    HW122274   2.095   1.910   5.805 -0.0979  0.2545  1.1563
 3546SOL    HW222275   2.230   1.906   5.874 -0.8700  0.8886  0.9305
 3547SOL     OW22276   3.471   2.868  14.049 -0.1517  0.1850 -0.4659
 3547SOL    HW122277   3.477   2.962  14.069 -2.1644  0.4245 -0.9940
 3547SOL    HW222278   3.526   2.823  14.113 -1.0959 -2.3375 -1.4395
 3548SOL     OW22279   3.463   3.933  11.696  0.0594  0.0499 -0.6587
 3548SOL    HW122280   3.534   3.877  11.664  0.2359  0.1602 -0.4573
 3548SOL    HW222281   3.472   4.007  11.636  0.0846 -0.5453 -1.3930
 3549SOL     OW22282   2.533   2.031   8.502  0.2037  0.0921  0.3768
 3549SOL    HW122283   2.601   2.052   8.438 -0.0727 -1.6754 -0.4961
 3549SOL    HW222284   2.557   1.939   8.510  2.7067  0.7950  1.1294
 3550SOL     OW22285   1.877   2.832   9.979 -0.3418 -0.5804  0.6105
 3550SOL    HW122286   1.938   2.763   9.955  0.4409  0.9221 -1.7576
 3550SOL    HW222287   1.873   2.833  10.075  0.5688  1.7894  0.6245
 3551SOL     OW22288   0.869   3.783  15.582 -0.1545 -0.1966  0.3264
 3551SOL    HW122289   0.794   3.813  15.633  1.6010  2.5496  1.2637
 3551SOL    HW222290   0.868   3.690  15.608  2.2557 -0.5260 -0.8236
 3552SOL     OW22291   1.179   2.177   4.013 -0.3158 -0.7471 -0.8874
 3552SOL    HW122292   1.156   2.089   4.043 -0.0319 -0.0750  1.3139
 3552SOL    HW222293   1.093   2.217   4.029  1.1336  1.8496  0.4750
 3553SOL     OW22294   0.106   1.660   2.054 -0.7112  0.0004  0.3012
 3553SOL    HW122295   0.102   1.666   2.149  1.1563 -0.4838  0.4024
 3553SOL    HW222296   0.184   1.607   2.041 -1.1602 -0.2782 -1.3200
 3554SOL     OW22297   3.574   0.121   6.091 -0.2861 -0.3112 -0.1070
 3554SOL    HW122298   3.603   0.037   6.055 -1.5287 -0.6356 -0.3766
 3554SOL    HW222299   3.620   0.127   6.174  2.6017  1.6659 -1.8807
 3555SOL     OW22300   4.160   1.968  10.479 -0.2316 -0.1559  0.3032
 3555SOL    HW122301   4.162   2.025  10.556  3.0291 -0.5345  0.4857
 3555SOL    HW222302   4.197   1.890  10.522  1.3398 -0.6288 -1.9031
 3556SOL     OW22303   3.249   4.131   2.512 -0.0178  0.1285 -0.4995
 3556SOL    HW122304   3.195   4.166   2.583  0.8560 -2.0436  1.2196
 3556SOL    HW222305   3.321   4.195   2.507 -0.0483  0.5201  3.7133
 3557SOL     OW22306   2.159   2.594   7.275 -0.5487  0.1717  0.1638
 3557SOL    HW122307   2.251   2.608   7.253 -0.5781 -0.2139 -0.1979
 3557SOL    HW222308   2.160   2.592   7.371 -2.0076  1.3845  0.2231
 3558SOL     OW22309   3.787   2.394   9.646  0.1079 -0.4356 -0.6257
 3558SOL    HW122310   3.752   2.313   9.684 -0.3705  0.2003  0.2989
 3558SOL    HW222311   3.771   2.460   9.714 -0.3595 -0.0576 -1.0956
 3559SOL     OW22312   2.532   0.829   2.960  0.6869  0.2563  0.2959
 3559SOL    HW122313   2.484   0.749   2.936 -0.5442  0.3560  2.4489
 3559SOL    HW222314   2.561   0.868   2.877 -1.4592  1.4019  0.0677
 3560SOL     OW22315   1.567   1.313   9.780  0.7123  0.3411  0.1115
 3560SOL    HW122316   1.541   1.392   9.734  1.1081  1.5809  2.0048
 3560SOL    HW222317   1.658   1.310   9.749  0.8854 -2.0902  0.8300
 3561SOL     OW22318   2.244   2.758   3.724  0.5894 -0.0154  0.3781
 3561SOL    HW122319   2.207   2.670   3.723 -0.4888  0.4683 -1.5164
 3561SOL    HW222320   2.165   2.810   3.711 -0.2047 -1.0409  1.1322
 3562SOL     OW22321   0.353   4.374   5.676  0.8366  0.0559 -0.1052
 3562SOL    HW122322   0.341   4.280   5.666  0.5888  0.1029 -0.2593
 3562SOL    HW222323   0.433   4.377   5.728  0.9847 -0.5859 -0.2954
 3563SOL     OW22324   2.309   2.084   0.498  0.1357 -0.0868  0.1122
 3563SOL    HW122325   2.261   2.162   0.469  1.6079  1.4206  1.8299
 3563SOL    HW222326   2.246   2.017   0.525  0.2859 -0.7035 -1.0560
 3564SOL     OW22327   3.975   0.642   5.847 -0.2231 -0.1229 -0.1968
 3564SOL    HW122328   3.966   0.637   5.752 -2.4015 -0.0337 -0.0094
 3564SOL    HW222329   4.009   0.729   5.867  0.8517 -0.7235  0.5536
 3565SOL     OW22330   1.966   3.979  15.066 -0.6846  0.3138 -0.7100
 3565SOL    HW122331   1.985   4.003  14.975  0.4173 -1.4679 -0.9492
 3565SOL    HW222332   1.985   4.063  15.109 -1.6745  0.3045 -0.2615
 3566SOL     OW22333   4.404   1.988  15.981 -0.2212  0.4416  0.4229
 3566SOL    HW122334   4.493   1.956  15.995 -0.1906 -0.2950 -1.4848
 3566SOL    HW222335   4.389   2.028  16.066 -2.5021 -1.4667  0.9040
 3567SOL     OW22336   2.319   1.513   5.821  0.5851 -0.4770 -0.2321
 3567SOL    HW122337   2.380   1.501   5.894  1.0828  0.5146 -0.4942
 3567SOL    HW222338   2.376   1.533   5.747  0.0236 -1.0786 -0.8308
 3568SOL     OW22339   2.611   1.774  16.573  0.2215  0.4643 -0.6559
 3568SOL    HW122340   2.593   1.680  16.565 -1.1251  0.7417 -0.7882
 3568SOL    HW222341   2.524   1.807  16.592  1.0258  1.1985  1.7711
 3569SOL     OW22342   4.375   4.268   3.422 -0.2660  0.2297  0.2165
 3569SOL    HW122343   4.423   4.269   3.339  0.6284 -0.0524  0.7216
 3569SOL    HW222344   4.366   4.361   3.445 -1.2695  0.1187  0.2488
 3570SOL     OW22345   3.824   2.347   2.208  0.2433  0.2658  0.0624
 3570SOL    HW122346   3.729   2.350   2.221 -0.1610 -1.6575 -2.5170
 3570SOL    HW222347   3.832   2.306   2.122 -2.2495 -0.6169  0.2378
 3571SOL     OW22348   0.786   0.404  13.689 -0.8456 -0.6081 -0.0568
 3571SOL    HW122349   0.795   0.479  13.747 -0.0499  1.3494 -2.7046
 3571SOL    HW222350   0.759   0.445  13.607 -0.2341  1.4249  0.7490
 3572SOL     OW22351   0.122   0.643   0.645  0.1541 -0.0799 -0.4035
 3572SOL    HW122352   0.051   0.597   0.690  0.2724 -0.8445 -1.0120
 3572SOL    HW222353   0.094   0.641   0.554 -3.1574 -0.2463  0.6334
 3573SOL     OW22354   2.154   1.625   3.819  0.1514 -0.5289 -0.4453
 3573SOL    HW122355   2.233   1.572   3.810  0.2015 -0.6127  0.4938
 3573SOL    HW222356   2.188   1.715   3.820 -2.4622  0.4465 -1.6640
 3574SOL     OW22357   4.186   1.127   5.659  0.0328 -0.2729 -0.1844
 3574SOL    HW122358   4.236   1.079   5.724  2.1330  0.2168 -1.4408
 3574SOL    HW222359   4.236   1.103   5.581  0.1786 -0.3638 -0.0608
 3575SOL     OW22360   4.110   0.036   6.043 -0.0763 -0.0165  0.5741
 3575SOL    HW122361   4.024   0.000   6.021  0.4302 -0.4047 -0.7632
 3575SOL    HW222362   4.159   4.685   6.026  1.5138  1.1822 -0.5089
 3576SOL     OW22363   2.772   2.832   5.295  0.0409  0.2371  0.5238
 3576SOL    HW122364   2.728   2.762   5.342 -0.6303 -0.7259 -1.5558
 3576SOL    HW222365   2.846   2.845   5.355 -1.4349  0.2704  2.3144
 3577SOL     OW22366   2.689   0.701   1.902 -0.4673 -0.8431 -0.2282
 3577SOL    HW122367   2.644   0.737   1.978  3.0706 -1.1731  2.0416
 3577SOL    HW222368   2.686   0.771   1.837 -1.4713  0.0921  0.8357
 3578SOL     OW22369   1.976   4.540  15.003 -0.3084 -0.0191 -0.6399
 3578SOL    HW122370   1.951   4.628  15.031  0.6011  0.5760 -1.7037
 3578SOL    HW222371   1.889   4.508  14.977 -0.1017 -0.0560 -1.2817
 3579SOL     OW22372   1.896   3.995   4.525  0.1112  0.0027  0.5422
 3579SOL    HW122373   1.980   4.012   4.568  0.7110  0.5362 -0.8448
 3579SOL    HW222374   1.923   3.988   4.433  0.5751 -1.0577  0.7543
 3580SOL     OW22375   4.094   3.603  16.604 -0.1877 -0.1523 -0.1401
 3580SOL    HW122376   4.166   3.644  16.556 -0.7773  1.3675  0.2794
 3580SOL    HW222377   4.084   3.515  16.568 -4.1332  0.4173 -0.4268
 3581SOL     OW22378   4.158   4.104   5.440  0.4513 -0.2684  0.2258
 3581SOL    HW122379   4.220   4.097   5.368  0.3694 -0.5185  0.1773
 3581SOL    HW222380   4.170   4.192   5.475 -0.2514  0.6282 -1.8292
 3582SOL     OW22381   4.195   3.330   9.739 -0.2649 -0.1108 -0.1697
 3582SOL    HW122382   4.251   3.259   9.708 -0.6759 -0.3777 -0.2908
 3582SOL    HW222383   4.110   3.287   9.736  0.5759 -1.5965 -2.3241
 3583SOL     OW22384   1.343   2.972   2.324  0.2241 -0.1434  0.0315
 3583SOL    HW122385   1.386   2.976   2.409 -0.9659 -0.2980  0.6517
 3583SOL    HW222386   1.260   2.930   2.348  0.2878 -0.0005  0.4986
 3584SOL     OW22387   4.639   0.218   6.518  0.2309  0.0191 -0.1332
 3584SOL    HW122388   4.647   0.142   6.460 -1.8315 -1.8458  2.0360
 3584SOL    HW222389   4.706   0.280   6.489  0.1494  0.8158  1.3687
 3585SOL     OW22390   1.212   2.505   6.122 -0.1000 -0.4025  0.3084
 3585SOL    HW122391   1.256   2.481   6.041  0.8492 -1.0183  1.0140
 3585SOL    HW222392   1.135   2.556   6.096 -0.9240 -1.3350  0.8699
 3586SOL     OW22393   0.872   1.209  14.021  0.0641  0.1065 -0.2258
 3586SOL    HW122394   0.886   1.262  13.943  0.5896  0.1008 -0.1367
 3586SOL    HW222395   0.951   1.159  14.043 -0.1622  0.5754  1.6451
 3587SOL     OW22396   1.276   4.675   8.889 -0.1909  0.6039  0.0303
 3587SOL    HW122397   1.342   4.609   8.868  0.2018  0.9159  0.2929
 3587SOL    HW222398   1.209   4.654   8.824  0.3316  0.2740 -0.4052
 3588SOL     OW22399   2.405   0.540  14.930  0.3587 -0.2959 -0.8003
 3588SOL    HW122400   2.397   0.615  14.871 -1.7935  0.0114 -0.1159
 3588SOL    HW222401   2.387   0.468  14.869  0.5474 -0.0442 -1.1525
 3589SOL     OW22402   0.992   3.735   8.592  0.3003  0.1409 -0.0172
 3589SOL    HW122403   1.028   3.694   8.514 -0.6856  1.0107 -0.9260
 3589SOL    HW222404   1.069   3.744   8.648  2.4943  0.1748 -3.0312
 3590SOL     OW22405   2.172   0.765  12.283  0.2870  0.4478 -0.3569
 3590SOL    HW122406   2.213   0.838  12.330 -1.5517  1.0405  0.3406
 3590SOL    HW222407   2.246   0.709  12.260 -0.2480 -1.0766  1.6198
 3591SOL     OW22408   0.047   4.469   3.619  0.0286 -0.7111 -0.0768
 3591SOL    HW122409   0.046   4.543   3.679 -4.1599 -0.1889 -0.7857
 3591SOL    HW222410   0.142   4.459   3.619  0.4012  2.9822  1.4516
 3592SOL     OW22411   2.604   0.852   7.277  0.1165 -0.9363 -0.1453
 3592SOL    HW122412   2.550   0.932   7.277  1.4620 -0.0370 -0.6262
 3592SOL    HW222413   2.578   0.818   7.191 -0.9396 -2.0115  0.5931
 3593SOL     OW22414   4.501   2.246   3.199 -0.3315 -0.0990 -0.1409
 3593SOL    HW122415   4.482   2.256   3.105  0.7179 -2.0943 -0.5756
 3593SOL    HW222416   4.417   2.278   3.233 -0.7399 -2.0251  0.6806
 3594SOL     OW22417   4.177   2.786   1.675 -0.9061  0.3597  0.0215
 3594SOL    HW122418   4.200   2.730   1.600 -1.0537  0.4073 -0.0596
 3594SOL    HW222419   4.082   2.774   1.683 -0.6882  1.1332  3.3411
 3595SOL     OW22420   4.577   0.584  14.551 -0.5548 -0.3615  0.0554
 3595SOL    HW122421   4.552   0.623  14.467 -2.0407 -0.9263  0.2416
 3595SOL    HW222422   4.494   0.542  14.572 -0.5899 -0.4845 -0.3375
 3596SOL     OW22423   0.167   1.450  16.954  0.0677 -0.1350 -0.2786
 3596SOL    HW122424   0.182   1.356  16.955  1.6606  0.1318  1.3307
 3596SOL    HW222425   0.236   1.479  16.895  1.5440 -0.3181  1.3864
 3597SOL     OW22426   0.812   0.582   8.629 -0.0888 -0.0827 -0.4153
 3597SOL    HW122427   0.811   0.541   8.715 -0.4488  1.0224  0.1110
 3597SOL    HW222428   0.901   0.617   8.628 -0.6958  1.5030  1.4163
 3598SOL     OW22429   1.635   0.481   4.247 -1.0177 -0.2820  0.1683
 3598SOL    HW122430   1.584   0.555   4.215  0.7827  0.5170 -0.8741
 3598SOL    HW222431   1.668   0.516   4.329  0.3422 -2.6269  0.6159
 3599SOL     OW22432   1.235   4.154   8.408 -0.2539  0.3963  0.8212
 3599SOL    HW122433   1.140   4.155   8.393  0.0802  0.6801 -1.2405
 3599SOL    HW222434   1.263   4.245   8.421 -2.4616  1.2564 -0.4900
 3600SOL     OW22435   1.224   3.408  15.461 -0.6786 -0.1283  0.3987
 3600SOL    HW122436   1.149   3.408  15.401 -0.9593 -0.9387  0.7570
 3600SOL    HW222437   1.213   3.339  15.526  1.5605 -0.4216  0.4678
 3601SOL     OW22438   0.869   1.796   2.664  0.0381 -0.0808 -0.2102
 3601SOL    HW122439   0.935   1.746   2.615 -0.3014 -1.0782  0.3430
 3601SOL    HW222440   0.873   1.770   2.756 -2.0297 -0.5381 -0.2392
 3602SOL     OW22441   4.219   1.143   4.678 -0.2811 -0.7207 -0.4142
 3602SOL    HW122442   4.144   1.187   4.638  0.9345  1.7866  0.0943
 3602SOL    HW222443   4.225   1.059   4.633  1.2970 -0.6081 -0.4286
 3603SOL     OW22444   0.596   4.150   5.512 -0.2039  0.6113  0.1402
 3603SOL    HW122445   0.676   4.166   5.562 -0.8958 -0.6700  1.6563
 3603SOL    HW222446   0.576   4.238   5.482 -0.5690  0.0246 -1.3837
 3604SOL     OW22447   1.884   3.358   8.040  0.2335 -0.4149  0.2591
 3604SOL    HW122448   1.905   3.267   8.020 -0.9686 -0.9697  1.5291
 3604SOL    HW222449   1.830   3.359   8.119 -2.3152  0.6230 -1.5042
 3605SOL     OW22450   1.156   2.769   5.540  0.0332  0.0779  0.6630
 3605SOL    HW122451   1.078   2.747   5.592 -0.2550 -0.2761  0.0816
 3605SOL    HW222452   1.196   2.834   5.598 -1.7133  0.3635  1.5440
 3606SOL     OW22453   3.714   2.004   3.609 -0.4330  0.2094 -0.5143
 3606SOL    HW122454   3.704   1.961   3.524 -0.0559 -1.0698  0.0788
 3606SOL    HW222455   3.667   2.087   3.604  1.7223  1.5307  1.3253
 3607SOL     OW22456   4.479   4.661   0.122 -0.3956  0.0509  0.0230
 3607SOL    HW122457   4.521   4.646   0.207  0.0724  2.8157  0.2862
 3607SOL    HW222458   4.457   4.574   0.088 -0.9652  0.3705 -0.4151
 3608SOL     OW22459   0.125   0.348   6.458 -0.0294  0.5131 -0.1889
 3608SOL    HW122460   0.175   0.296   6.395 -0.2976 -1.6887  1.4054
 3608SOL    HW222461   0.195   0.396   6.502  2.0836 -2.0596 -0.7365
 3609SOL     OW22462   1.245   1.371   7.619  0.0123  0.1944  0.3507
 3609SOL    HW122463   1.203   1.427   7.683 -1.1330  0.9813 -1.1022
 3609SOL    HW222464   1.183   1.299   7.607 -0.7608  0.6044  1.8653
 3610SOL     OW22465   3.489   0.324  17.103  0.2072 -0.7767 -0.0374
 3610SOL    HW122466   3.420   0.389  17.110  1.0348  0.0099  0.8743
 3610SOL    HW222467   3.549   0.359  17.168  0.8923 -0.8458 -0.6269
 3611SOL     OW22468   0.980   0.259   7.034 -0.2109 -0.6162 -0.2664
 3611SOL    HW122469   0.911   0.226   7.091 -2.2086  2.6678 -0.7556
 3611SOL    HW222470   1.045   0.289   7.097  0.6771 -2.5740 -0.2607
 3612SOL     OW22471   1.292   2.665  16.704 -0.0188 -0.4126 -0.0618
 3612SOL    HW122472   1.200   2.690  16.701  0.0076 -0.3491 -0.3487
 3612SOL    HW222473   1.310   2.671  16.797  0.7804 -0.0096 -0.2445
 3613SOL     OW22474   3.311   2.009   7.350 -0.3954 -0.6064 -0.3475
 3613SOL    HW122475   3.371   2.047   7.286 -2.6972  0.6007 -1.7828
 3613SOL    HW222476   3.269   2.080   7.398  2.0722  0.6536 -0.0201
 3614SOL     OW22477   3.982   3.448   0.932  0.2871  0.0725  0.2014
 3614SOL    HW122478   4.035   3.515   0.889  0.4221  0.8353  1.5559
 3614SOL    HW222479   4.049   3.410   0.988  0.4387  0.7598  0.4842
 3615SOL     OW22480   1.491   4.608   2.669 -0.3351 -0.0063  0.0706
 3615SOL    HW122481   1.448   4.524   2.686 -0.8605 -0.3624 -3.0404
 3615SOL    HW222482   1.536   4.590   2.586  0.0377  0.5519  0.1514
 3616SOL     OW22483   2.042   3.212   5.155 -0.2413  0.7114  0.4991
 3616SOL    HW122484   2.049   3.203   5.250 -1.1498  0.6810  0.5691
 3616SOL    HW222485   1.965   3.156   5.141 -0.9081  1.6912  0.2857
 3617SOL     OW22486   3.694   4.393  13.568 -0.2817  0.2884 -0.3279
 3617SOL    HW122487   3.754   4.455  13.526 -0.0837 -0.3372 -0.9863
 3617SOL    HW222488   3.609   4.408  13.527 -0.0519  0.8035 -0.6105
 3618SOL     OW22489   1.568   1.267   9.494  0.0682  0.0376  0.6620
 3618SOL    HW122490   1.549   1.203   9.425 -1.7604 -0.1254  1.3401
 3618SOL    HW222491   1.638   1.225   9.544  0.2660 -1.2922 -0.7096
 3619SOL     OW22492   0.168   3.355   8.145  0.2764  0.5017 -0.1364
 3619SOL    HW122493   0.226   3.324   8.214 -0.7397  1.8651  1.3487
 3619SOL    HW222494   0.120   3.423   8.193 -0.8209 -0.8103  0.6390
 3620SOL     OW22495   3.532   1.597  15.794 -0.4278  0.2188 -0.3934
 3620SOL    HW122496   3.611   1.651  15.792 -1.2106  1.3944  1.1681
 3620SOL    HW222497   3.468   1.665  15.815  0.8527  1.7078 -1.3034
 3621SOL     OW22498   1.565   4.218   2.459  0.5495 -0.1850  0.0710
 3621SOL    HW122499   1.609   4.263   2.386 -0.6951 -0.6803 -1.0013
 3621SOL    HW222500   1.507   4.279   2.504  2.4844  2.9749 -1.7152
 3622SOL     OW22501   0.573   0.328   4.611  0.2401  0.3293 -0.0206
 3622SOL    HW122502   0.552   0.344   4.703  0.4973 -3.1145  0.6363
 3622SOL    HW222503   0.581   0.232   4.615  0.4541  0.3830  1.0749
 3623SOL     OW22504   0.955   0.754   4.077  0.0878  0.1660 -0.7008
 3623SOL    HW122505   0.982   0.666   4.051 -1.8179 -0.2970 -1.0814
 3623SOL    HW222506   0.918   0.738   4.164  0.7983 -0.3247 -0.4860
 3624SOL     OW22507   2.046   4.684   3.389  0.1901  0.1180 -0.2588
 3624SOL    HW122508   1.968   4.652   3.434 -1.9845  0.5559 -3.7806
 3624SOL    HW222509   2.055   4.615   3.323  0.1353 -1.2209  1.1129
 3625SOL     OW22510   0.684   2.058   2.857  0.4270  0.2171  0.1682
 3625SOL    HW122511   0.649   2.115   2.926 -0.6377  0.9774 -1.0175
 3625SOL    HW222512   0.606   2.053   2.802  0.4617 -0.3127  0.1706
 3626SOL     OW22513   3.556   1.977   7.965  0.2538 -0.3855  0.1499
 3626SOL    HW122514   3.477   1.999   7.915  0.4540  0.9439  0.4233
 3626SOL    HW222515   3.560   2.057   8.018 -1.0621  0.8500 -1.6046
 3627SOL     OW22516   4.224   4.723  12.966 -0.2314  0.2565 -0.3122
 3627SOL    HW122517   4.202   4.635  12.996  3.7295 -0.8372 -0.5640
 3627SOL    HW222518   4.275   4.688  12.892 -0.5358 -1.1049  0.1349
 3628SOL     OW22519   2.798   0.830   8.545 -0.7059 -0.2382  0.6186
 3628SOL    HW122520   2.888   0.863   8.543 -0.5306 -0.7351  0.0508
 3628SOL    HW222521   2.790   0.796   8.456  0.4903  0.4268  0.2519
 3629SOL     OW22522   3.040   3.562   5.058  0.3690  0.3547  0.1912
 3629SOL    HW122523   3.112   3.502   5.078  0.7881  0.8649  0.2265
 3629SOL    HW222524   3.049   3.618   5.135 -1.1978  0.2315  0.4562
 3630SOL     OW22525   4.706   3.721   3.781  0.3107  0.1338 -0.2005
 3630SOL    HW122526   4.643   3.654   3.754  0.3169 -0.2442  0.7098
 3630SOL    HW222527   4.701   3.779   3.705 -1.6671  1.8790  1.2835
 3631SOL     OW22528   3.914   2.205   3.768 -0.0353 -0.1853  0.5342
 3631SOL    HW122529   3.854   2.161   3.707 -1.0668 -1.2209  2.3111
 3631SOL    HW222530   3.863   2.286   3.773 -0.7508 -0.5781 -0.3458
 3632SOL     OW22531   0.593   1.975  16.184 -0.0449 -0.1960  0.2030
 3632SOL    HW122532   0.659   1.915  16.148 -0.6534 -0.1760 -0.9720
 3632SOL    HW222533   0.525   1.908  16.196 -0.5307  0.3442  0.4953
 3633SOL     OW22534   3.629   3.031   1.567 -0.0030  0.0729 -0.0747
 3633SOL    HW122535   3.684   3.054   1.492  1.2568  0.6553  1.0450
 3633SOL    HW222536   3.566   3.102   1.576  1.7703  1.8797 -1.8588
 3634SOL     OW22537   0.866   2.312   5.951  0.4562  0.0325 -0.2957
 3634SOL    HW122538   0.821   2.242   5.998 -0.8839  1.5340  0.6241
 3634SOL    HW222539   0.955   2.291   5.982 -0.5667 -1.7294  1.4623
 3635SOL     OW22540   1.020   4.557   2.748  0.1204 -0.1047  0.6387
 3635SOL    HW122541   1.029   4.544   2.654  3.4595  3.2086  0.5244
 3635SOL    HW222542   1.044   4.468   2.773  0.8639  0.4422  1.8435
 3636SOL     OW22543   2.287   0.158   3.390 -0.0757 -0.3327 -0.7072
 3636SOL    HW122544   2.220   0.092   3.406  0.7482 -1.3994 -1.7292
 3636SOL    HW222545   2.324   0.166   3.478  2.2741 -0.5225 -1.6885
 3637SOL     OW22546   4.236   1.826   7.142 -0.0936 -0.1739 -0.3994
 3637SOL    HW122547   4.265   1.777   7.219  0.9577 -1.7575 -1.7913
 3637SOL    HW222548   4.190   1.899   7.182  0.9551 -0.7287  1.8115
 3638SOL     OW22549   1.153   4.106   7.814 -0.1667 -0.5006  0.5277
 3638SOL    HW122550   1.070   4.153   7.818  0.1846  0.0959  0.8481
 3638SOL    HW222551   1.177   4.117   7.906 -0.2632  0.6248  0.4221
 3639SOL     OW22552   2.871   3.310   7.440 -0.3180  0.8515 -0.5011
 3639SOL    HW122553   2.799   3.275   7.494  0.2598  1.3530  0.5895
 3639SOL    HW222554   2.906   3.356   7.516  0.1275 -0.8814  0.3291
 3640SOL     OW22555   3.249   1.899   8.945 -0.6754  0.2939  0.5374
 3640SOL    HW122556   3.214   1.987   8.956 -1.6167  0.0098 -0.1893
 3640SOL    HW222557   3.245   1.865   9.035  0.6343 -0.7146  0.2246
 3641SOL     OW22558   1.619   3.696   3.955  0.6012  0.3417 -0.1643
 3641SOL    HW122559   1.670   3.651   4.022  1.9132  1.0723 -0.6604
 3641SOL    HW222560   1.690   3.754   3.927  2.3652 -2.7577 -2.2799
 3642SOL     OW22561   3.926   2.164   4.077  0.1783  0.4903 -0.4907
 3642SOL    HW122562   3.921   2.170   3.981  0.7936  1.7002 -0.4484
 3642SOL    HW222563   4.019   2.150   4.096  0.0251  0.3772  0.1748
 3643SOL     OW22564   1.935   2.312   1.192  0.3764 -0.4540  0.2453
 3643SOL    HW122565   1.945   2.351   1.279 -3.4348  3.7897 -1.2074
 3643SOL    HW222566   1.846   2.341   1.171  0.5510  0.1345  0.3069
 3644SOL     OW22567   4.067   1.348   3.894  0.1448 -0.2156 -0.0823
 3644SOL    HW122568   4.011   1.331   3.819 -0.9536  0.6395  0.5409
 3644SOL    HW222569   4.154   1.334   3.857  0.5292 -0.4544  0.9072
 3645SOL     OW22570   1.589   3.931   7.489 -0.1752 -0.1548  0.1473
 3645SOL    HW122571   1.619   3.894   7.572  0.1733  0.5646  0.3408
 3645SOL    HW222572   1.543   4.005   7.526 -0.8337 -1.6766  2.3719
 3646SOL     OW22573   1.868   1.660   5.111  0.0894  0.7285  0.0400
 3646SOL    HW122574   1.902   1.703   5.032  1.3063 -0.9782 -0.3726
 3646SOL    HW222575   1.819   1.733   5.149 -1.0114 -0.3805  0.7527
 3647SOL     OW22576   1.487   0.080   5.401  0.1043 -0.0389 -0.7116
 3647SOL    HW122577   1.467   4.726   5.356  2.2439 -0.5993 -0.6111
 3647SOL    HW222578   1.576   0.065   5.431  0.7550  0.8873 -2.1866
 3648SOL     OW22579   3.580   0.384   4.295 -0.0202  0.7341  0.0054
 3648SOL    HW122580   3.657   0.333   4.320 -1.1232  0.2001  2.3111
 3648SOL    HW222581   3.624   0.457   4.252  1.5896  0.6523  1.5176
 3649SOL     OW22582   0.316   4.399   6.050  0.0638 -0.3729  0.3279
 3649SOL    HW122583   0.261   4.349   5.990 -0.2847  0.3248  0.0671
 3649SOL    HW222584   0.402   4.367   6.022 -0.7078 -1.6949 -0.5233
 3650SOL     OW22585   2.310   2.721  10.163  0.6636 -0.0151  0.2132
 3650SOL    HW122586   2.390   2.761  10.128 -0.3758  0.8862 -1.1467
 3650SOL    HW222587   2.248   2.770  10.108  2.1605 -0.0660 -1.4989
 3651SOL     OW22588   3.347   1.089   2.082  0.3806  0.1270  0.2986
 3651SOL    HW122589   3.296   1.081   2.002 -0.3903  1.5815  0.6651
 3651SOL    HW222590   3.292   1.054   2.152  0.1433  1.7903  0.9226
 3652SOL     OW22591   4.031   3.186   6.513 -0.0981 -0.7026  0.3644
 3652SOL    HW122592   3.995   3.169   6.426  1.5227 -0.5476 -0.3292
 3652SOL    HW222593   3.960   3.183   6.578  0.7514 -0.0448  1.3258
 3653SOL     OW22594   3.959   4.105  15.235  0.3642 -0.1366  0.3485
 3653SOL    HW122595   3.978   4.196  15.211 -2.4488  0.2118 -0.4856
 3653SOL    HW222596   3.870   4.090  15.203  0.7195 -1.8586  0.1326
 3654SOL     OW22597   4.125   3.090   7.233  0.1670 -0.3984  0.1724
 3654SOL    HW122598   4.097   3.177   7.262  0.4554  0.2839 -1.5869
 3654SOL    HW222599   4.078   3.075   7.152  0.9287  0.3652 -0.4103
 3655SOL     OW22600   0.754   2.694   8.976 -0.9178 -0.0169 -0.1709
 3655SOL    HW122601   0.660   2.698   8.958 -1.1529  1.1805  1.3251
 3655SOL    HW222602   0.758   2.600   8.959 -0.5722 -0.0602  0.1389
 3656SOL     OW22603   2.020   3.274   3.147  0.1203 -0.3796 -0.1200
 3656SOL    HW122604   2.070   3.277   3.066 -1.1081 -2.0351 -0.9365
 3656SOL    HW222605   2.098   3.271   3.202  1.5314 -1.1899 -2.1799
 3657SOL     OW22606   0.161   2.978   2.615  0.0583 -0.3076 -0.2256
 3657SOL    HW122607   0.238   2.923   2.601  1.3104  1.5626 -0.6241
 3657SOL    HW222608   0.091   2.912   2.622 -0.0631 -0.4168 -2.5300
 3658SOL     OW22609   1.658   2.728  11.332  0.1625  0.3505 -0.3166
 3658SOL    HW122610   1.741   2.687  11.306 -0.5720 -0.4015 -1.4411
 3658SOL    HW222611   1.692   2.778  11.406  1.5046 -1.8374  0.5651
 3659SOL     OW22612   1.164   0.343   3.831  0.6495 -0.6195 -0.2824
 3659SOL    HW122613   1.133   0.361   3.743 -1.5245 -0.8582  0.4294
 3659SOL    HW222614   1.193   0.252   3.826  0.5738 -0.6881  0.4479
 3660SOL     OW22615   2.195   2.003  12.567 -0.1442  0.2741 -0.4528
 3660SOL    HW122616   2.130   1.940  12.597  1.5609 -1.3655 -0.2299
 3660SOL    HW222617   2.227   2.037  12.651 -0.7954 -1.4433  0.4990
 3661SOL     OW22618   2.396   2.930  16.668 -0.0670 -0.4661  0.0337
 3661SOL    HW122619   2.454   2.955  16.597  0.7287 -1.4822  0.3231
 3661SOL    HW222620   2.333   3.002  16.665 -1.5607 -1.7299  0.9645
 3662SOL     OW22621   1.065   0.161   9.188 -0.3357  0.4067 -0.2846
 3662SOL    HW122622   1.122   0.083   9.188 -0.5099  0.2896 -1.8643
 3662SOL    HW222623   1.063   0.178   9.282 -1.7017  0.7753 -0.3827
 3663SOL     OW22624   2.043   1.475   8.861 -0.1105  0.0923 -0.0794
 3663SOL    HW122625   2.023   1.472   8.767 -2.0196 -1.2222  0.3759
 3663SOL    HW222626   1.958   1.504   8.894 -0.8220 -3.3550  1.1086
 3664SOL     OW22627   1.735   4.545  14.790  0.4729  0.5546  0.7645
 3664SOL    HW122628   1.760   4.636  14.770  0.1410 -0.2392 -3.2792
 3664SOL    HW222629   1.707   4.520  14.702 -1.4166  1.1014  1.1926
 3665SOL     OW22630   1.321   1.548   4.992  0.3905 -0.0591  0.1394
 3665SOL    HW122631   1.383   1.618   5.012 -2.5607  2.2082  1.4189
 3665SOL    HW222632   1.278   1.589   4.917 -1.4417  0.8323  1.6478
 3666SOL     OW22633   3.684   2.567   9.827 -0.1227  0.7300  0.2765
 3666SOL    HW122634   3.710   2.518   9.905  0.0242 -0.4324 -0.5090
 3666SOL    HW222635   3.596   2.534   9.808  0.3583  0.3879 -1.3475
 3667SOL     OW22636   1.676   1.200   7.438 -0.1280  0.0757 -0.1586
 3667SOL    HW122637   1.674   1.213   7.532 -2.4126 -0.7496 -0.1006
 3667SOL    HW222638   1.593   1.244   7.420  1.0396  1.6474 -1.7455
 3668SOL     OW22639   4.121   1.287   1.616 -0.5120 -0.1579  0.1745
 3668SOL    HW122640   4.212   1.317   1.625  0.0257 -1.1201 -1.9780
 3668SOL    HW222641   4.102   1.236   1.696  3.2061  0.3047  1.3741
 3669SOL     OW22642   1.136   3.897   1.441 -0.1621  0.4066 -0.2827
 3669SOL    HW122643   1.203   3.830   1.454 -0.8405  0.2042  2.1937
 3669SOL    HW222644   1.156   3.962   1.509  0.2369  0.4152 -0.4068
 3670SOL     OW22645   4.003   2.579   5.754  0.0422  0.2199  0.2190
 3670SOL    HW122646   3.957   2.500   5.725  1.1869 -0.0917 -0.7814
 3670SOL    HW222647   4.089   2.551   5.786  0.7080  2.1623  0.1245
 3671SOL     OW22648   2.877   3.774   7.163  0.2359 -0.0518  0.0644
 3671SOL    HW122649   2.952   3.829   7.187 -0.0314  1.4290 -2.4424
 3671SOL    HW222650   2.800   3.819   7.197  0.0893 -0.4468  0.2518
 3672SOL     OW22651   4.264   4.401   8.538 -1.0889  0.3225  0.1326
 3672SOL    HW122652   4.197   4.350   8.492 -0.1979  0.9262 -1.8781
 3672SOL    HW222653   4.280   4.345   8.613 -2.9174  0.0129  0.2815
 3673SOL     OW22654   1.079   4.619   7.756 -0.3132  0.4124 -0.1481
 3673SOL    HW122655   1.093   4.604   7.663 -1.1866 -1.4469  0.0213
 3673SOL    HW222656   1.021   4.695   7.748  0.8742  1.3657  0.2984
 3674SOL     OW22657   3.487   3.541  16.521  0.4333  0.2543 -0.2561
 3674SOL    HW122658   3.487   3.530  16.426  2.0681 -1.0352 -0.1116
 3674SOL    HW222659   3.476   3.636  16.527 -0.4320  0.0747  0.9112
 3675SOL     OW22660   3.510   1.474   3.516 -0.0498  0.0353  0.5893
 3675SOL    HW122661   3.549   1.386   3.510 -2.0758 -0.9784  2.0733
 3675SOL    HW222662   3.443   1.446   3.579 -1.4158 -0.6728 -1.2047
 3676SOL     OW22663   1.770   0.654   9.457  0.1461  0.6559  0.0916
 3676SOL    HW122664   1.737   0.609   9.535 -0.0958 -0.6223 -0.7557
 3676SOL    HW222665   1.789   0.585   9.394 -1.2228  0.9667 -0.6880
 3677SOL     OW22666   3.660   0.409   8.118  0.1536  0.0995 -0.3141
 3677SOL    HW122667   3.623   0.482   8.168 -1.0311 -0.3419 -0.5416
 3677SOL    HW222668   3.683   0.346   8.186  1.8675  0.2720 -0.7239
 3678SOL     OW22669   2.644   0.348   1.379 -0.1242  0.7150  0.2339
 3678SOL    HW122670   2.653   0.442   1.395  0.3316  0.5491  0.9858
 3678SOL    HW222671   2.689   0.309   1.454 -2.1913 -0.5714  0.7978
 3679SOL     OW22672   3.137   2.429  15.658  0.7508 -0.1993 -0.0087
 3679SOL    HW122673   3.052   2.453  15.694  1.4223  1.8260  0.2241
 3679SOL    HW222674   3.119   2.338  15.634  0.0925 -0.7668  2.5999
 3680SOL     OW22675   4.209   4.591   1.823 -0.3191  0.5192  0.1203
 3680SOL    HW122676   4.267   4.665   1.837  2.0983 -1.5433  0.9045
 3680SOL    HW222677   4.230   4.558   1.736 -2.4225 -0.7936  0.0833
 3681SOL     OW22678   3.170   0.201   4.036  0.3350 -0.6341 -0.2118
 3681SOL    HW122679   3.213   0.133   4.088  2.0536  1.2597  0.8612
 3681SOL    HW222680   3.180   0.280   4.090  2.1491  1.0480 -2.9963
 3682SOL     OW22681   0.652   4.132   3.075  0.4726 -0.1586  0.8711
 3682SOL    HW122682   0.643   4.177   3.159 -0.3988  0.7690  0.2856
 3682SOL    HW222683   0.574   4.078   3.059  0.1467 -0.0266  1.9644
 3683SOL     OW22684   2.349   4.421   7.415  0.3026 -0.0193 -0.4762
 3683SOL    HW122685   2.339   4.484   7.486 -0.7376 -0.3105 -0.3514
 3683SOL    HW222686   2.443   4.413   7.403  0.0926  2.1800 -3.7122
 3684SOL     OW22687   3.923   4.047  14.913 -0.2787 -1.3548  0.0593
 3684SOL    HW122688   4.008   4.090  14.915 -0.8496 -0.1699 -1.4464
 3684SOL    HW222689   3.881   4.080  14.834  0.6034  2.1599  1.0572
 3685SOL     OW22690   3.016   0.299   1.646  0.0463 -0.0367 -0.2526
 3685SOL    HW122691   3.037   0.234   1.578  0.9583  0.1744 -0.1785
 3685SOL    HW222692   2.921   0.304   1.636  0.3677  3.2487 -1.5423
 3686SOL     OW22693   0.765   1.938   6.947  0.2776  0.1705  0.2754
 3686SOL    HW122694   0.732   1.942   6.857 -0.6223 -1.2075  0.5411
 3686SOL    HW222695   0.842   1.993   6.933 -0.2064  0.3331 -1.8186
 3687SOL     OW22696   3.835   0.835   7.174  0.0837  0.4326 -0.0920
 3687SOL    HW122697   3.927   0.846   7.150  0.2623  2.1291  1.3538
 3687SOL    HW222698   3.836   0.758   7.232 -1.8585  0.3470 -0.1663
 3688SOL     OW22699   0.590   0.343   2.421 -0.3947 -0.3229  0.7794
 3688SOL    HW122700   0.528   0.361   2.350 -0.0567  1.2590  0.8938
 3688SOL    HW222701   0.582   0.248   2.418 -0.7307 -0.2747 -0.0915
 3689SOL     OW22702   0.625   3.432  10.903  0.0028 -0.2365 -0.5550
 3689SOL    HW122703   0.629   3.488  10.825 -0.6766 -0.0529 -0.4610
 3689SOL    HW222704   0.535   3.401  10.892 -0.4938  1.0925 -0.3176
 3690SOL     OW22705   3.056   2.250   4.129  0.4211  0.6905 -0.1750
 3690SOL    HW122706   3.093   2.302   4.058  2.6154  1.5144  1.5709
 3690SOL    HW222707   3.124   2.182   4.134 -1.4020 -1.0984  0.4380
 3691SOL     OW22708   3.930   3.244   0.585 -0.3842 -0.2234  0.0250
 3691SOL    HW122709   3.991   3.304   0.543  0.3817 -0.2718  1.0602
 3691SOL    HW222710   3.938   3.174   0.520 -0.0852  0.6049 -0.8273
 3692SOL     OW22711   1.175   0.122  16.502 -0.1360 -0.4800 -0.0340
 3692SOL    HW122712   1.132   0.076  16.431 -1.5233  0.3767  0.2623
 3692SOL    HW222713   1.168   0.055  16.571 -0.2893 -1.4349 -0.9880
 3693SOL     OW22714   0.584   2.332   2.032 -0.1253 -0.0501 -0.0204
 3693SOL    HW122715   0.560   2.358   1.943  1.9675 -3.1233 -1.4902
 3693SOL    HW222716   0.676   2.355   2.040  0.3835 -1.4466 -1.7972
 3694SOL     OW22717   2.996   1.978   3.805  0.5096  0.4082 -0.3772
 3694SOL    HW122718   3.035   1.922   3.873  0.1174  1.3094  0.5833
 3694SOL    HW222719   2.922   2.016   3.853  0.1314  1.8985 -2.1647
 3695SOL     OW22720   4.099   1.556  17.058 -0.2543 -0.2993  0.1311
 3695SOL    HW122721   4.045   1.478  17.049 -2.1574  1.1605 -1.3088
 3695SOL    HW222722   4.091   1.599  16.973 -0.3610  3.9111  2.2678
 3696SOL     OW22723   1.030   4.724   7.164 -0.1913 -0.3563 -0.0323
 3696SOL    HW122724   1.076   4.673   7.230 -0.1048  1.1930  1.1050
 3696SOL    HW222725   1.096   0.053   7.125 -1.4396  0.2320 -1.3023
 3697SOL     OW22726   0.619   0.231   9.367  0.1335  0.5102 -0.1437
 3697SOL    HW122727   0.646   0.290   9.438 -2.0921  1.2227  0.1140
 3697SOL    HW222728   0.647   0.277   9.288 -0.9376 -0.7333 -1.2386
 3698SOL     OW22729   0.712   1.702  13.400 -0.0115 -0.0655 -0.4704
 3698SOL    HW122730   0.666   1.622  13.426 -2.9217  1.1837 -1.8230
 3698SOL    HW222731   0.666   1.761  13.460 -1.6200 -0.3832 -1.4004
 3699SOL     OW22732   3.562   2.535   6.934  0.3132 -0.3910 -0.1388
 3699SOL    HW122733   3.495   2.468   6.920 -0.5292  0.6702 -1.1703
 3699SOL    HW222734   3.571   2.537   7.030  0.1330  0.9646 -0.1500
 3700SOL     OW22735   0.649   2.145  12.153 -0.5900  0.0133  0.1026
 3700SOL    HW122736   0.612   2.193  12.227 -0.0954 -0.8967  0.9466
 3700SOL    HW222737   0.648   2.055  12.186  2.7615 -0.5199 -1.2324
 3701SOL     OW22738   2.973   0.781  14.550  0.2732  0.1666  0.3371
 3701SOL    HW122739   2.917   0.756  14.477 -2.2833  0.0844  2.3232
 3701SOL    HW222740   2.903   0.834  14.589 -1.1757 -0.4305 -1.4907
 3702SOL     OW22741   1.245   0.781   7.100 -0.1396 -0.0274  0.1960
 3702SOL    HW122742   1.334   0.747   7.093  0.6048  2.0213 -0.2519
 3702SOL    HW222743   1.217   0.712   7.161 -2.1281 -0.3486 -1.0573
 3703SOL     OW22744   3.350   1.660   6.317 -0.1931  0.0246 -0.1920
 3703SOL    HW122745   3.323   1.725   6.382  1.4414  1.3855 -0.8676
 3703SOL    HW222746   3.343   1.717   6.240 -1.1447  1.7030  1.1398
 3704SOL     OW22747   3.889   0.165   5.837 -0.0601  0.9504  0.1092
 3704SOL    HW122748   3.880   0.103   5.910 -5.5403  2.8954  1.0614
 3704SOL    HW222749   3.884   0.251   5.878 -0.9226 -0.4796  3.0055
 3705SOL     OW22750   3.497   2.227   0.980  0.4403  0.0892  0.0698
 3705SOL    HW122751   3.542   2.311   0.976  1.8901 -0.6546  0.6861
 3705SOL    HW222752   3.527   2.187   0.898  2.4170  0.4907  0.5938
 3706SOL     OW22753   3.772   4.456   4.279 -0.0018  0.1853 -0.0741
 3706SOL    HW122754   3.753   4.448   4.373  2.1392 -1.3588  0.2314
 3706SOL    HW222755   3.866   4.437   4.279  0.1383  0.8620  0.1231
 3707SOL     OW22756   3.400   1.550   0.503  0.3425 -0.6977 -0.3276
 3707SOL    HW122757   3.321   1.540   0.451  1.0303  1.5289 -1.7875
 3707SOL    HW222758   3.398   1.467   0.551 -0.0104 -1.3872 -1.5426
 3708SOL     OW22759   0.703   2.393   2.705 -0.1922 -0.5162  0.4092
 3708SOL    HW122760   0.637   2.405   2.637 -0.8168  0.2253  1.1463
 3708SOL    HW222761   0.769   2.451   2.666 -0.6833  0.7237  1.4425
 3709SOL     OW22762   2.307   2.796   4.341  0.6426  0.2514  0.2099
 3709SOL    HW122763   2.368   2.811   4.413  1.2682  1.2826 -0.5393
 3709SOL    HW222764   2.339   2.715   4.303 -1.7845  0.7748 -2.9352
 3710SOL     OW22765   2.318   3.953  16.034  0.1905  0.2381  0.2328
 3710SOL    HW122766   2.405   3.914  16.036  0.0465 -0.1150 -0.8260
 3710SOL    HW222767   2.326   4.030  16.090 -1.0455  0.8031 -0.3673
 3711SOL     OW22768   1.247   3.558   5.300  0.1476 -0.6078 -0.0055
 3711SOL    HW122769   1.201   3.488   5.253 -1.4113  0.7603 -0.5314
 3711SOL    HW222770   1.333   3.557   5.258  0.1238  1.1038 -0.1090
 3712SOL     OW22771   3.894   3.615   8.302 -0.0735  0.1899  0.1525
 3712SOL    HW122772   3.865   3.537   8.350 -1.2131  0.8204  0.4625
 3712SOL    HW222773   3.970   3.643   8.354 -0.8447 -0.2091  1.5029
 3713SOL     OW22774   4.374   3.791   9.810  0.1731  0.2605 -0.0891
 3713SOL    HW122775   4.418   3.707   9.794 -3.6367 -2.0070  1.3409
 3713SOL    HW222776   4.280   3.770   9.810  0.5462 -1.3926  0.7888
 3714SOL     OW22777   2.233   3.696   6.758 -0.2933 -0.3086  0.2886
 3714SOL    HW122778   2.302   3.703   6.823 -1.0222 -2.2518  1.2705
 3714SOL    HW222779   2.270   3.633   6.696 -1.3106 -0.5243 -0.0969
 3715SOL     OW22780   4.254   1.362   5.968  0.5653 -0.2614  0.3877
 3715SOL    HW122781   4.272   1.346   6.061  1.5996 -1.1992  0.0176
 3715SOL    HW222782   4.238   1.271   5.943 -0.6999  0.3714 -1.1641
 3716SOL     OW22783   4.023   2.167   2.795  0.3685 -0.8084  0.2515
 3716SOL    HW122784   4.082   2.131   2.729  0.0073 -0.1705 -0.4227
 3716SOL    HW222785   4.054   2.256   2.807 -2.8530  0.4667 -0.8929
 3717SOL     OW22786   1.638   1.401   8.396 -0.2861 -0.5554 -0.2338
 3717SOL    HW122787   1.568   1.427   8.456 -0.0280  1.0924 -0.6585
 3717SOL    HW222788   1.689   1.352   8.461 -2.2533 -2.1672  0.0866
 3718SOL     OW22789   4.351   4.445   2.426 -0.6224  0.4600 -0.5306
 3718SOL    HW122790   4.414   4.436   2.498  0.4257 -2.6695 -1.8311
 3718SOL    HW222791   4.323   4.535   2.445  0.0245  0.2229  1.5595
 3719SOL     OW22792   4.172   0.832   8.338  0.0035 -0.0811 -0.0838
 3719SOL    HW122793   4.236   0.815   8.269  1.6878 -0.6314  1.5725
 3719SOL    HW222794   4.233   0.823   8.412  0.8804  0.2751 -0.7589
 3720SOL     OW22795   3.749   1.964   4.100  0.3745  0.2212  0.0865
 3720SOL    HW122796   3.819   2.028   4.088 -0.6641  1.5185  1.0685
 3720SOL    HW222797   3.713   1.968   4.011 -1.0075  1.1283  0.6973
 3721SOL     OW22798   4.249   1.917   8.911  0.2228 -0.0209  0.7301
 3721SOL    HW122799   4.228   1.939   9.002  0.7191 -1.1661  1.1118
 3721SOL    HW222800   4.182   1.851   8.893  1.7882 -0.8620 -2.0613
 3722SOL     OW22801   2.773   3.449   5.628 -0.2340  0.4270  0.8181
 3722SOL    HW122802   2.748   3.381   5.691 -1.7352  0.1302 -0.1119
 3722SOL    HW222803   2.758   3.408   5.543 -1.2301  3.0388 -0.2390
 3723SOL     OW22804   4.724   2.923  13.748  0.7009 -0.6129 -0.0150
 3723SOL    HW122805   0.019   2.844  13.699 -0.2363 -1.4722  0.9101
 3723SOL    HW222806   0.019   2.994  13.689  0.6340 -1.6022 -1.2347
 3724SOL     OW22807   1.375   1.191   9.111 -0.3245  0.5831 -0.1010
 3724SOL    HW122808   1.279   1.201   9.108 -0.2055  1.4107 -1.1297
 3724SOL    HW222809   1.388   1.146   9.195  3.4955 -0.3888 -1.2248
 3725SOL     OW22810   3.270   3.265  12.924 -0.0368 -0.4779 -0.1263
 3725SOL    HW122811   3.305   3.183  12.958  0.1605  0.0220  0.8628
 3725SOL    HW222812   3.233   3.236  12.841 -0.4228  0.3160 -0.2265
 3726SOL     OW22813   2.712   0.344   3.935  0.9074 -0.3123  0.4702
 3726SOL    HW122814   2.634   0.385   3.971  0.4138 -0.0807 -0.8696
 3726SOL    HW222815   2.779   0.407   3.962 -1.7187  3.0232 -0.8846
 3727SOL     OW22816   3.977   3.113   2.061 -0.2150 -0.7519  0.1039
 3727SOL    HW122817   4.004   3.023   2.038  0.7299 -0.0509 -1.5402
 3727SOL    HW222818   3.971   3.095   2.154 -1.9834 -1.1895 -0.1034
 3728SOL     OW22819   3.449   2.423  17.169  0.4551 -0.0487  0.5703
 3728SOL    HW122820   3.470   2.516  17.165  2.4309 -0.5043  0.2544
 3728SOL    HW222821   3.492   2.394  17.089 -1.6405 -0.3691 -0.4440
 3729SOL     OW22822   2.472   4.659   6.625  0.2165 -0.3665  0.4070
 3729SOL    HW122823   2.563   4.629   6.628  0.7991  1.4252  0.7561
 3729SOL    HW222824   2.435   4.589   6.571  0.1863  2.0065 -2.5861
 3730SOL     OW22825   2.827   0.522   0.971  0.0048  0.7104  0.4790
 3730SOL    HW122826   2.804   0.575   0.895 -0.9078 -0.0970  0.1914
 3730SOL    HW222827   2.883   0.577   1.026 -2.4582  2.5114  1.1949
 3731SOL     OW22828   1.190   3.877  13.416  0.0439 -0.1303  1.0463
 3731SOL    HW122829   1.260   3.935  13.386 -1.6009  0.1247 -2.2294
 3731SOL    HW222830   1.226   3.791  13.394  0.5956  0.7310 -1.3951
 3732SOL     OW22831   2.506   3.870  16.424 -0.0658 -0.1829  0.4592
 3732SOL    HW122832   2.414   3.874  16.402 -0.0942 -2.5222  0.1741
 3732SOL    HW222833   2.516   3.780  16.394  2.4098 -0.3983  1.9010
 3733SOL     OW22834   2.210   0.599  10.954  0.2220  0.3883  0.1160
 3733SOL    HW122835   2.237   0.538  10.886 -2.3516  0.0211 -0.5649
 3733SOL    HW222836   2.288   0.650  10.977  1.0044 -1.0639  0.7204
 3734SOL     OW22837   0.842   3.782   9.343  0.1830 -1.1318 -0.0509
 3734SOL    HW122838   0.921   3.739   9.375  0.5890 -1.4172 -1.4670
 3734SOL    HW222839   0.777   3.760   9.410  2.0192 -1.9871  1.4501
 3735SOL     OW22840   1.631   0.321   9.944  0.5025 -0.1561  0.0462
 3735SOL    HW122841   1.664   0.401   9.985  0.2713 -0.5694  1.0371
 3735SOL    HW222842   1.682   0.260   9.998  2.0243 -0.7094 -2.0083
 3736SOL     OW22843   2.786   3.588   4.883 -0.7748 -0.3045 -0.0304
 3736SOL    HW122844   2.813   3.572   4.973 -1.5226  0.7041  0.3750
 3736SOL    HW222845   2.867   3.625   4.847 -1.1745  0.0745 -0.5395
 3737SOL     OW22846   1.863   0.650  10.319  0.7419 -0.0734  0.1052
 3737SOL    HW122847   1.933   0.688  10.266  0.2749 -0.5866 -0.8898
 3737SOL    HW222848   1.911   0.647  10.401 -0.9822 -3.3909  0.9924
 3738SOL     OW22849   1.056   3.057   8.977 -0.8840  0.4836  0.1486
 3738SOL    HW122850   1.066   3.101   9.062 -2.4577  0.9165  0.1075
 3738SOL    HW222851   1.097   2.972   8.991  2.7797  2.5669  2.1275
 3739SOL     OW22852   1.568   2.222   0.461  0.1587 -0.1571 -0.1527
 3739SOL    HW122853   1.521   2.208   0.543  0.5981 -0.4735  0.0449
 3739SOL    HW222854   1.541   2.309   0.432  0.1548  0.0893  0.5934
 3740SOL     OW22855   2.809   3.514  12.077  0.5796 -0.9920  0.5848
 3740SOL    HW122856   2.722   3.499  12.039  0.6364  0.6674 -0.1841
 3740SOL    HW222857   2.843   3.577  12.014  0.1773 -1.0013  0.3566
 3741SOL     OW22858   0.848   1.449   7.356 -0.0842 -0.5406  0.1421
 3741SOL    HW122859   0.756   1.458   7.382  0.2197  0.7245  0.7907
 3741SOL    HW222860   0.894   1.507   7.417  0.8116 -0.6021 -0.4805
 3742SOL     OW22861   3.891   3.432   7.461 -0.2831  0.4716 -0.0963
 3742SOL    HW122862   3.824   3.476   7.408  2.4282  1.1482 -2.9548
 3742SOL    HW222863   3.851   3.346   7.451 -1.9185  1.2297 -0.0936
 3743SOL     OW22864   2.492   0.031  16.648  0.3797  0.0226 -0.0697
 3743SOL    HW122865   2.445   4.703  16.588  1.4657  0.2339 -1.1212
 3743SOL    HW222866   2.582   0.012  16.625  0.1359 -2.9153  1.4495
 3744SOL     OW22867   0.858   2.444   8.525  0.3278 -0.6313 -0.3777
 3744SOL    HW122868   0.932   2.427   8.583 -1.2576  0.1535  1.8671
 3744SOL    HW222869   0.911   2.474   8.451 -2.1263  1.5120 -1.2567
 3745SOL     OW22870   1.344   2.191   9.196  0.2151  0.2869 -0.1116
 3745SOL    HW122871   1.359   2.281   9.227 -1.4750  1.0088 -1.3663
 3745SOL    HW222872   1.379   2.142   9.270  0.8790  1.1699  0.1549
 3746SOL     OW22873   4.462   1.878  16.527  0.0014  0.7675 -0.0176
 3746SOL    HW122874   4.409   1.804  16.554  0.0047  1.2059  1.1881
 3746SOL    HW222875   4.519   1.884  16.604 -0.1018 -0.6185  0.1609
 3747SOL     OW22876   2.711   0.961   5.597 -0.0035 -0.4424  0.0150
 3747SOL    HW122877   2.749   0.882   5.561 -3.5591 -3.0350  1.9579
 3747SOL    HW222878   2.707   1.028   5.528 -0.8030  0.7889  1.2481
 3748SOL     OW22879   0.393   4.214   2.309 -0.2564  0.4294 -0.4476
 3748SOL    HW122880   0.304   4.179   2.315  0.3274 -1.3877 -2.0444
 3748SOL    HW222881   0.438   4.145   2.359 -0.7832  0.5832  0.2354
 3749SOL     OW22882   1.569   0.075   1.380  0.3602 -0.1864  0.7470
 3749SOL    HW122883   1.525   0.042   1.458  0.7074  0.3310  1.1670
 3749SOL    HW222884   1.561   0.168   1.402  1.2263  0.3871 -1.3303
 3750SOL     OW22885   3.589   2.349   0.107 -0.4521  0.1205 -0.4225
 3750SOL    HW122886   3.607   2.443   0.111 -0.9877  0.2736 -1.6198
 3750SOL    HW222887   3.499   2.342   0.141 -1.0344  1.5505 -1.6559
 3751SOL     OW22888   4.063   2.126   4.611 -0.5058 -0.0323 -0.6076
 3751SOL    HW122889   4.120   2.155   4.540 -1.9710  0.3688 -1.6119
 3751SOL    HW222890   4.123   2.113   4.684 -0.3123  0.4881 -0.6680
 3752SOL     OW22891   3.074   2.497   3.708  0.2251  0.2910 -0.3565
 3752SOL    HW122892   3.146   2.451   3.751  0.3742  2.8607  2.1143
 3752SOL    HW222893   3.000   2.448   3.743 -0.9432  2.6210  0.3963
 3753SOL     OW22894   3.505   4.197   6.077  0.8923 -0.1235 -0.9102
 3753SOL    HW122895   3.560   4.245   6.015  0.4980  0.2819 -0.9455
 3753SOL    HW222896   3.414   4.225   6.060  0.6315 -0.1182  0.5231
 3754SOL     OW22897   0.773   1.590   9.323  0.1000 -0.7654  0.2338
 3754SOL    HW122898   0.866   1.601   9.339 -0.5537  2.9838  1.4332
 3754SOL    HW222899   0.771   1.520   9.258  0.2527 -0.4625 -0.0973
 3755SOL     OW22900   1.677   1.841   4.736  0.4657 -0.6946  0.2003
 3755SOL    HW122901   1.664   1.752   4.768  1.8776 -0.6090  1.0287
 3755SOL    HW222902   1.705   1.823   4.646 -0.8000 -0.7011 -0.1886
 3756SOL     OW22903   1.290   0.936  13.491  0.1281 -0.7236  0.1928
 3756SOL    HW122904   1.329   0.849  13.503  1.3058 -0.1428  0.5781
 3756SOL    HW222905   1.302   0.987  13.570  0.1795 -0.6788  0.1557
 3757SOL     OW22906   2.116   3.820   3.512  0.1085  0.5119  0.1315
 3757SOL    HW122907   2.103   3.735   3.554  1.7353  0.7632  1.1463
 3757SOL    HW222908   2.027   3.852   3.497 -0.2606 -1.0520 -0.9854
 3758SOL     OW22909   2.107   3.526   5.317 -0.1484  0.1786 -0.6245
 3758SOL    HW122910   2.134   3.476   5.393 -2.2572  1.8140  1.2209
 3758SOL    HW222911   2.032   3.468   5.304  1.0392 -0.9739 -2.4004
 3759SOL     OW22912   3.629   1.975   8.325 -0.2284 -0.5825 -0.2065
 3759SOL    HW122913   3.722   1.981   8.302 -0.7903  0.2294 -2.2121
 3759SOL    HW222914   3.596   2.040   8.263 -1.4797 -0.0222  1.0513
 3760SOL     OW22915   1.069   0.599  11.650 -0.0088 -0.6958  0.2821
 3760SOL    HW122916   1.002   0.654  11.690  0.5607  0.2926 -0.1052
 3760SOL    HW222917   1.039   0.609  11.559 -0.9505 -0.5883  0.6007
 3761SOL     OW22918   4.567   1.583   6.459  0.2938 -0.3083 -0.1852
 3761SOL    HW122919   4.602   1.654   6.405 -3.0124  2.2093  0.9747
 3761SOL    HW222920   4.475   1.588   6.434  0.1784 -0.0213  0.2916
 3762SOL     OW22921   1.184   4.491   3.165 -0.4166  0.1590  0.2380
 3762SOL    HW122922   1.157   4.414   3.216  3.5687 -1.0891  0.4466
 3762SOL    HW222923   1.238   4.544   3.224 -0.3071  0.6095 -0.2663
 3763SOL     OW22924   0.214   2.434   1.747 -0.4412 -0.1191 -0.5911
 3763SOL    HW122925   0.179   2.484   1.674 -0.2225 -0.4091 -0.8954
 3763SOL    HW222926   0.140   2.414   1.804  1.6369  1.5307  2.6489
 3764SOL     OW22927   2.707   3.422   1.557 -0.4212 -0.1754 -0.3977
 3764SOL    HW122928   2.689   3.436   1.650 -0.5913  1.4870 -0.6763
 3764SOL    HW222929   2.800   3.401   1.559  0.0652  2.1201  2.4013
 3765SOL     OW22930   4.405   2.805   0.948 -0.1032  0.0081 -0.1317
 3765SOL    HW122931   4.430   2.844   1.032  1.9741 -0.8366 -0.3487
 3765SOL    HW222932   4.316   2.775   0.967  0.0169 -1.8415 -2.5106
 3766SOL     OW22933   0.396   1.708   9.611  0.0837  0.1677 -0.0061
 3766SOL    HW122934   0.410   1.619   9.577  3.9095 -0.0140  2.0362
 3766SOL    HW222935   0.425   1.760   9.537  0.1281  1.0079  0.6028
 3767SOL     OW22936   2.256   4.654  10.806  1.0458  0.2660 -0.2631
 3767SOL    HW122937   2.327   4.664  10.742 -1.5764  1.1616 -3.0242
 3767SOL    HW222938   2.298   4.620  10.885 -0.8865  1.0434  1.1050
 3768SOL     OW22939   3.882   1.367   8.932  0.0072  0.4789  0.3405
 3768SOL    HW122940   3.953   1.381   8.994 -2.3918  1.4234  2.8743
 3768SOL    HW222941   3.828   1.447   8.933  0.1164  0.5616 -0.9278
 3769SOL     OW22942   1.525   0.748   4.340 -0.4800  0.2613 -0.1883
 3769SOL    HW122943   1.592   0.797   4.292  1.1323 -2.2308 -0.4735
 3769SOL    HW222944   1.475   0.818   4.384 -0.6547 -0.1406  0.2532
 3770SOL     OW22945   3.109   4.047  11.266 -0.2529 -0.5280  0.0587
 3770SOL    HW122946   3.178   4.046  11.333  0.2014  2.4814 -0.3625
 3770SOL    HW222947   3.040   3.992  11.302  0.8663 -1.2808  1.0767
 3771SOL     OW22948   1.782   4.063   7.310 -0.0852 -0.1213 -0.0773
 3771SOL    HW122949   1.861   4.011   7.320 -0.8005 -1.2603 -0.2942
 3771SOL    HW222950   1.750   4.071   7.401  0.7013  1.2573  0.0795
 3772SOL     OW22951   0.273   1.925   1.823 -0.0029 -0.3114 -0.2708
 3772SOL    HW122952   0.280   2.004   1.771 -0.2777  0.8586  1.4485
 3772SOL    HW222953   0.204   1.949   1.886  0.4279  2.1224 -0.7404
 3773SOL     OW22954   1.967   3.820  16.524 -0.0017  0.6413 -0.3961
 3773SOL    HW122955   1.902   3.836  16.593  0.1795  0.4665 -0.1860
 3773SOL    HW222956   1.911   3.789  16.453 -2.1735  2.8943  0.3588
 3774SOL     OW22957   1.786   0.418  15.435 -0.3914 -0.2410  0.0782
 3774SOL    HW122958   1.865   0.386  15.478 -0.4688 -1.4460 -0.7029
 3774SOL    HW222959   1.799   0.511  15.415 -1.5830 -0.4734 -1.8096
 3775SOL     OW22960   3.753   1.614   2.275  0.0735 -0.1773  0.2826
 3775SOL    HW122961   3.796   1.532   2.298  1.4906  0.9524  1.7512
 3775SOL    HW222962   3.684   1.617   2.341  0.1046  2.0835  0.2371
 3776SOL     OW22963   4.006   3.097   5.561  0.1582 -0.2704 -0.4394
 3776SOL    HW122964   4.042   3.162   5.500 -1.9385 -1.0942 -2.5535
 3776SOL    HW222965   4.070   3.026   5.554  1.5355  0.9111  0.0112
 3777SOL     OW22966   1.748   2.809  14.271  0.6219  0.2901  0.0036
 3777SOL    HW122967   1.792   2.796  14.355  0.5964  0.2381  0.0087
 3777SOL    HW222968   1.689   2.875  14.306  0.2643  0.0618 -0.1769
 3778SOL     OW22969   3.392   0.656   4.224  0.3629 -0.3553  0.2177
 3778SOL    HW122970   3.386   0.681   4.316  1.7464 -0.1477  0.2553
 3778SOL    HW222971   3.482   0.624   4.220  0.6904  0.6148 -0.2224
 3779SOL     OW22972   0.794   2.697  11.489 -0.3576  0.4940 -0.0367
 3779SOL    HW122973   0.769   2.789  11.493  1.1851  0.8315  1.7961
 3779SOL    HW222974   0.746   2.651  11.558  2.7836 -0.6009  1.4421
 3780SOL     OW22975   0.529   4.473   5.191 -0.0138 -0.0801 -0.0803
 3780SOL    HW122976   0.496   4.396   5.236 -0.2199 -0.2508 -0.5201
 3780SOL    HW222977   0.625   4.466   5.188 -0.0101 -0.8347  2.6356
 3781SOL     OW22978   3.586   4.376  16.208  0.5401 -0.0344 -0.0480
 3781SOL    HW122979   3.574   4.310  16.141 -1.7012 -0.4632  0.7887
 3781SOL    HW222980   3.639   4.317  16.262  0.5521  1.7793  1.9285
 3782SOL     OW22981   3.897   2.906   3.293  0.1165  0.3117 -0.1827
 3782SOL    HW122982   3.934   2.988   3.262  0.2539  1.3831  2.8447
 3782SOL    HW222983   3.969   2.868   3.344  0.7035  1.0833 -0.4366
 3783SOL     OW22984   1.458   3.663   3.732  0.0617 -0.0016  0.3018
 3783SOL    HW122985   1.509   3.641   3.810  0.4027 -2.2128 -0.5506
 3783SOL    HW222986   1.365   3.646   3.749  0.5547 -1.7150  1.2957
 3784SOL     OW22987   4.608   4.320   1.631  0.0957  0.4979 -0.5693
 3784SOL    HW122988   4.630   4.227   1.626  1.6804  0.7453  1.6792
 3784SOL    HW222989   4.575   4.332   1.720 -0.1896 -1.0209 -0.4720
 3785SOL     OW22990   1.616   4.466   1.264 -0.0206  0.8221  0.4194
 3785SOL    HW122991   1.602   4.428   1.177 -0.5469 -0.3907  1.0365
 3785SOL    HW222992   1.663   4.548   1.248 -1.1310  1.5126  0.7255
 3786SOL     OW22993   0.406   4.461   7.079 -0.2366 -0.4976 -0.9836
 3786SOL    HW122994   0.410   4.556   7.083 -2.2169 -0.4472 -0.2867
 3786SOL    HW222995   0.495   4.434   7.104 -0.9816 -2.3052 -0.2684
 3787SOL     OW22996   0.883   0.984   6.110 -0.0793 -0.2103 -0.1273
 3787SOL    HW122997   0.926   0.919   6.166  1.6817  0.8463 -0.2263
 3787SOL    HW222998   0.799   0.942   6.092  0.2725 -1.4916  1.2811
 3788SOL     OW22999   1.945   1.194   7.331  0.4150 -0.0437  0.3948
 3788SOL    HW123000   1.850   1.207   7.338  0.2520 -0.0753 -1.6153
 3788SOL    HW223001   1.960   1.121   7.392  1.1575 -1.5290 -1.5635
 3789SOL     OW23002   4.380   3.516   7.128 -0.3353 -0.3846 -0.2326
 3789SOL    HW123003   4.331   3.463   7.064 -1.7055  0.6144 -0.0169
 3789SOL    HW223004   4.436   3.450   7.169 -1.2498 -1.5471 -0.8620
 3790SOL     OW23005   0.309   3.065   5.751 -0.1849  0.2016 -0.2263
 3790SOL    HW123006   0.330   2.998   5.816 -1.6283  0.2832  0.3292
 3790SOL    HW223007   0.312   3.143   5.807 -0.6204 -0.5389  0.8342
 3791SOL     OW23008   2.442   3.187   7.612  0.4178 -0.2761 -0.1102
 3791SOL    HW123009   2.423   3.187   7.706 -0.9723  2.2721 -0.3835
 3791SOL    HW223010   2.365   3.239   7.587  0.6210  0.1048  0.0687
 3792SOL     OW23011   3.565   2.831   5.794  0.2530  0.4872 -0.1265
 3792SOL    HW123012   3.628   2.766   5.826 -0.5868 -0.4518 -0.3560
 3792SOL    HW223013   3.542   2.873   5.877 -2.3905 -0.7428 -0.2422
 3793SOL     OW23014   4.066   2.859   0.808  0.3837  0.0448 -0.3737
 3793SOL    HW123015   3.995   2.830   0.865  0.5859  2.4783  1.1300
 3793SOL    HW223016   4.111   2.776   0.790 -0.5242 -0.5927  0.2927
 3794SOL     OW23017   4.312   1.108   6.485  0.2606  0.0371 -0.2079
 3794SOL    HW123018   4.291   1.076   6.572 -0.0439 -0.2211 -0.3756
 3794SOL    HW223019   4.374   1.176   6.512 -1.6277  0.4080  3.0540
 3795SOL     OW23020   2.463   0.552  10.411  0.4858 -0.2057 -0.7275
 3795SOL    HW123021   2.383   0.601  10.391  1.7491  2.0472 -0.2840
 3795SOL    HW223022   2.534   0.601  10.368  1.7177  0.2386  1.8175
 3796SOL     OW23023   0.249   4.247   7.192  0.1242  0.2063  0.3254
 3796SOL    HW123024   0.289   4.333   7.185  2.0334 -0.5595  1.6443
 3796SOL    HW223025   0.251   4.233   7.287 -1.9791 -0.1206  0.3228
 3797SOL     OW23026   1.353   4.465  12.721  0.3615 -0.5531 -0.1969
 3797SOL    HW123027   1.318   4.378  12.702 -1.1892  0.0755 -0.2664
 3797SOL    HW223028   1.279   4.519  12.692  1.0110  1.1916  1.3650
 3798SOL     OW23029   3.722   4.509  13.328  0.2767 -0.2538 -0.0561
 3798SOL    HW123030   3.699   4.540  13.241 -1.1380  2.1815  1.1945
 3798SOL    HW223031   3.790   4.574  13.345  0.1441 -0.8256  2.6487
 3799SOL     OW23032   2.476   0.095   9.272  0.3509  0.1198 -0.9455
 3799SOL    HW123033   2.537   0.023   9.258  1.5638  0.7940  0.8749
 3799SOL    HW223034   2.503   0.128   9.358  0.0570  2.0678 -1.5894
 3800SOL     OW23035   0.822   4.020   3.319 -0.2375  0.3502 -0.1768
 3800SOL    HW123036   0.896   4.026   3.259 -1.7937  0.1908 -2.1154
 3800SOL    HW223037   0.765   4.093   3.295  0.9638  0.7725 -1.7018
 3801SOL     OW23038   2.877   1.349   7.403 -0.2278 -0.6355  0.2557
 3801SOL    HW123039   2.923   1.270   7.376  0.1252 -0.0026 -0.9979
 3801SOL    HW223040   2.801   1.315   7.450  0.6764 -0.7563  1.6383
 3802SOL     OW23041   1.050   4.284   8.776 -0.4029 -0.7455  0.0338
 3802SOL    HW123042   1.119   4.231   8.735 -1.7265 -1.1709 -1.6342
 3802SOL    HW223043   0.989   4.211   8.788 -0.5555 -1.0186 -2.4674
 3803SOL     OW23044   3.094   2.053   1.265 -0.5296  0.0296  0.1226
 3803SOL    HW123045   3.046   2.116   1.319  0.2560 -1.0749  2.0789
 3803SOL    HW223046   3.029   2.025   1.199 -0.0584  1.4228 -0.9289
 3804SOL     OW23047   3.155   2.732   7.884 -0.4879 -0.0560  0.0203
 3804SOL    HW123048   3.090   2.670   7.853 -0.2324  0.6287 -1.8763
 3804SOL    HW223049   3.233   2.681   7.906 -0.0848 -0.1979 -1.7716
 3805SOL     OW23050   2.310   0.056   3.099  0.1538 -0.0171  0.3452
 3805SOL    HW123051   2.374   0.012   3.155  0.7338  1.5889  0.9538
 3805SOL    HW223052   2.252   0.075   3.172 -0.4176  2.9874 -0.8556
 3806SOL     OW23053   0.071   0.741   1.586  0.0985 -0.1585 -0.8841
 3806SOL    HW123054   0.117   0.784   1.658  0.3231  0.3033 -1.3090
 3806SOL    HW223055   0.120   0.659   1.574 -1.6786 -1.7014  2.4238
 3807SOL     OW23056   1.902   0.353   3.319 -0.3702 -0.3077 -0.2684
 3807SOL    HW123057   1.956   0.315   3.387  0.6360  1.6524  0.0371
 3807SOL    HW223058   1.817   0.337   3.359  0.4817  1.4931  2.2707
 3808SOL     OW23059   1.468   3.499   3.493 -0.0576  0.4101  0.4231
 3808SOL    HW123060   1.495   3.591   3.488  0.0943  0.4127  1.1841
 3808SOL    HW223061   1.383   3.506   3.537 -1.1916  2.6729 -2.1154
 3809SOL     OW23062   2.018   2.121   8.497  0.3707 -0.5415  0.0904
 3809SOL    HW123063   2.060   2.199   8.462 -1.3461  0.9930  1.4274
 3809SOL    HW223064   2.089   2.057   8.500  0.9136  0.0539  0.0232
 3810SOL     OW23065   1.248   1.547   3.153  0.0149 -0.0969  0.7182
 3810SOL    HW123066   1.293   1.532   3.236  1.3741  0.4185  0.0681
 3810SOL    HW223067   1.208   1.629   3.181  1.4728  0.2434  1.7831
 3811SOL     OW23068   4.393   2.974   3.752  0.3588  0.2495  0.2514
 3811SOL    HW123069   4.462   2.934   3.805 -1.5343 -2.1857  0.8944
 3811SOL    HW223070   4.394   3.058   3.796 -0.1314  0.2014  0.3496
 3812SOL     OW23071   2.285   2.961   3.546  0.4193 -0.6914  0.3254
 3812SOL    HW123072   2.273   2.898   3.618 -1.1976  1.1008  1.6300
 3812SOL    HW223073   2.225   2.934   3.477 -1.5792  2.7414  0.7168
 3813SOL     OW23074   1.888   1.430  14.812 -0.2279 -0.3606 -0.0846
 3813SOL    HW123075   1.974   1.467  14.831  0.1224 -2.2900  2.1481
 3813SOL    HW223076   1.827   1.483  14.863 -2.3090 -1.5911 -1.2589
 3814SOL     OW23077   3.091   2.943   3.318  0.4285  0.0461  0.4476
 3814SOL    HW123078   3.015   2.950   3.260  0.1330  4.4462  1.4076
 3814SOL    HW223079   3.159   2.961   3.252  1.5325 -2.9602  0.7759
 3815SOL     OW23080   4.475   3.343   2.764  0.1328 -0.1464 -1.0208
 3815SOL    HW123081   4.409   3.329   2.832  1.7560 -2.1546  0.1441
 3815SOL    HW223082   4.471   3.439   2.761 -1.8601 -0.1859  0.0430
 3816SOL     OW23083   4.202   4.515   4.458 -0.0340  0.4380 -0.4101
 3816SOL    HW123084   4.121   4.490   4.502  1.8636 -1.2536  2.1827
 3816SOL    HW223085   4.214   4.450   4.388 -0.6801 -0.4480  0.2975
 3817SOL     OW23086   0.629   2.707   2.333 -0.5212 -0.5969 -0.1436
 3817SOL    HW123087   0.659   2.735   2.247 -0.7067 -0.6793 -0.2354
 3817SOL    HW223088   0.663   2.617   2.337 -2.1081 -1.1846  0.4979
 3818SOL     OW23089   3.483   2.525   2.651 -0.5325 -0.4407 -0.3449
 3818SOL    HW123090   3.448   2.457   2.709 -1.3028  0.8988  0.7579
 3818SOL    HW223091   3.420   2.545   2.582  0.7673 -0.7031 -1.6083
 3819SOL     OW23092   3.700   0.703   5.388 -0.2096  0.1233 -0.1210
 3819SOL    HW123093   3.657   0.783   5.358 -1.2059 -1.2022 -2.2125
 3819SOL    HW223094   3.746   0.673   5.309  0.1286 -1.2005  0.5899
 3820SOL     OW23095   1.699   4.348   1.487  0.4282  0.6515 -0.2541
 3820SOL    HW123096   1.656   4.386   1.411  0.5088  1.7058  0.2213
 3820SOL    HW223097   1.763   4.418   1.503 -1.6108  2.8031 -1.5308
 3821SOL     OW23098   4.573   1.952  15.721  0.3288  0.3163  0.1586
 3821SOL    HW123099   4.586   1.964  15.815  1.4072 -0.5481  0.1254
 3821SOL    HW223100   4.483   1.920  15.724  0.4781 -0.0060  1.0567
 3822SOL     OW23101   3.008   1.982  13.989 -0.5033 -0.4877 -0.0618
 3822SOL    HW123102   2.962   2.048  13.937  0.7825 -0.4165 -1.1047
 3822SOL    HW223103   3.070   2.033  14.041  0.1258 -1.5896  0.2735
 3823SOL     OW23104   0.168   1.786   4.930  0.1044  0.3022 -0.1096
 3823SOL    HW123105   0.078   1.762   4.953  0.5850  0.5146  1.9121
 3823SOL    HW223106   0.182   1.858   4.991  2.0369 -3.1208  3.4835
 3824SOL     OW23107   4.089   3.176  16.085  0.2911  0.1689 -0.0880
 3824SOL    HW123108   4.023   3.110  16.060  1.7616 -0.4691 -2.2483
 3824SOL    HW223109   4.027   3.249  16.087 -0.4446 -0.4752  1.4419
 3825SOL     OW23110   1.094   0.071  16.241 -0.0020 -0.9821 -0.3391
 3825SOL    HW123111   1.161   0.003  16.232  1.0182 -0.4978  3.2660
 3825SOL    HW223112   1.059   0.101  16.158 -0.4800 -0.6526 -0.0186
 3826SOL     OW23113   2.703   2.100   9.734  0.3771  0.1128 -0.1762
 3826SOL    HW123114   2.781   2.114   9.788  0.9271  0.1379 -0.9610
 3826SOL    HW223115   2.714   2.177   9.678 -0.2596 -1.2980 -2.2660
 3827SOL     OW23116   3.923   1.159   1.990  0.0497 -0.4812 -0.3786
 3827SOL    HW123117   3.840   1.207   2.001  1.0361  0.7160  1.7587
 3827SOL    HW223118   3.934   1.136   2.082  0.7591  0.1709 -0.3091
 3828SOL     OW23119   4.573   2.605  12.050 -0.4519 -0.8410 -0.3607
 3828SOL    HW123120   4.605   2.695  12.062 -0.6963 -0.4722 -2.4071
 3828SOL    HW223121   4.660   2.566  12.057 -0.2512 -0.1103  1.2285
 3829SOL     OW23122   2.927   2.808   3.593  0.5103 -0.5466 -0.3115
 3829SOL    HW123123   2.932   2.772   3.504 -0.9611  0.4569 -0.8048
 3829SOL    HW223124   2.848   2.758   3.611 -0.0255  0.9188  1.3970
 3830SOL     OW23125   2.103   3.100   3.864 -0.2977  0.6690  0.9248
 3830SOL    HW123126   2.137   3.019   3.901  0.6774  0.7647  0.2364
 3830SOL    HW223127   2.015   3.080   3.832  0.1553  0.5732 -0.2625
 3831SOL     OW23128   2.664   4.425   6.906  0.2513  0.2551 -0.7995
 3831SOL    HW123129   2.641   4.503   6.956  0.5727  1.3143 -2.3126
 3831SOL    HW223130   2.589   4.374   6.939  1.3437 -0.8818 -0.0689
 3832SOL     OW23131   1.222   3.449  17.536 -0.0298  0.2353 -0.0664
 3832SOL    HW123132   1.144   3.400  17.562  0.0343  0.6817  0.9405
 3832SOL    HW223133   1.221   3.521  17.599 -2.4780  0.4296 -0.2949
 3833SOL     OW23134   3.111   1.706   7.324 -0.0677 -0.3087  0.0483
 3833SOL    HW123135   3.033   1.656   7.302  0.7730 -1.7485  0.3104
 3833SOL    HW223136   3.089   1.772   7.390 -0.4500 -0.6905  0.2999
 3834SOL     OW23137   0.499   2.713   8.625  0.2276  0.0325  0.1668
 3834SOL    HW123138   0.556   2.784   8.593 -0.5899 -0.0534 -1.4841
 3834SOL    HW223139   0.551   2.642   8.588  3.1033  1.1473  2.0725
 3835SOL     OW23140   2.686   1.186   6.229  0.2712  0.3656  0.2692
 3835SOL    HW123141   2.690   1.103   6.276 -2.6338  0.3157  0.4219
 3835SOL    HW223142   2.775   1.221   6.236 -0.1503  1.2333  1.1673
 3836SOL     OW23143   4.321   0.224   2.345 -0.3563 -0.2953  0.0888
 3836SOL    HW123144   4.262   0.289   2.381 -0.4511  1.8386 -4.0163
 3836SOL    HW223145   4.268   0.207   2.267  0.3115  0.9720 -0.6263
 3837SOL     OW23146   3.223   4.026   8.321  0.7221 -0.1458 -0.5910
 3837SOL    HW123147   3.204   4.073   8.403 -2.1849 -1.3866 -0.5332
 3837SOL    HW223148   3.225   3.942   8.367  0.1766  0.0259 -0.2416
 3838SOL     OW23149   2.750   1.606   3.734 -0.2147 -0.1833  0.7654
 3838SOL    HW123150   2.657   1.621   3.753 -0.3789 -0.2668  0.0608
 3838SOL    HW223151   2.771   1.574   3.821 -1.5309 -0.7290  0.8899
 3839SOL     OW23152   0.918   0.345   0.576 -0.3827 -0.3764 -0.2486
 3839SOL    HW123153   1.000   0.388   0.552 -0.3229  0.6394  1.7573
 3839SOL    HW223154   0.919   0.343   0.672 -0.2642 -0.1148 -0.2447
 3840SOL     OW23155   1.066   0.251   3.010 -0.0065  0.1359 -0.1187
 3840SOL    HW123156   1.009   0.256   2.933  0.7515  1.7180 -0.5802
 3840SOL    HW223157   1.119   0.330   2.998  0.1684 -0.1056 -0.9861
 3841SOL     OW23158   0.710   3.223   5.927 -0.3735  0.8764 -0.8218
 3841SOL    HW123159   0.690   3.301   5.980  2.3678  0.6530  0.5384
 3841SOL    HW223160   0.805   3.216   5.925 -0.5484 -2.3835  2.3489
 3842SOL     OW23161   1.632   0.868   3.432 -0.3435 -0.0410 -0.0986
 3842SOL    HW123162   1.636   0.961   3.452  0.6697 -0.2243  0.5828
 3842SOL    HW223163   1.548   0.840   3.469  1.5043 -1.6965  2.8378
 3843SOL     OW23164   2.268   1.179   7.220  0.0429 -0.6657 -0.2523
 3843SOL    HW123165   2.181   1.181   7.180  1.3462 -0.5903 -3.0526
 3843SOL    HW223166   2.312   1.251   7.175 -2.1251  1.6889  1.3753
 3844SOL     OW23167   1.690   4.470   3.803 -0.1705  0.3694 -0.0094
 3844SOL    HW123168   1.601   4.505   3.790 -0.2224  0.5110  0.7048
 3844SOL    HW223169   1.652   4.389   3.838 -0.8950  0.1038 -1.4100
 3845SOL     OW23170   1.997   2.434   0.955  0.3618  0.3141  0.1278
 3845SOL    HW123171   1.991   2.376   1.031 -0.1017  2.6829  1.8926
 3845SOL    HW223172   1.977   2.369   0.887 -1.9985  0.7249  0.4279
 3846SOL     OW23173   2.331   0.292   4.391 -0.3531 -0.4801  0.2388
 3846SOL    HW123174   2.269   0.365   4.401  0.9795  0.7562 -0.4267
 3846SOL    HW223175   2.409   0.348   4.391 -0.5202 -0.2530 -1.0684
 3847SOL     OW23176   2.159   0.324   0.082  0.0111  0.2842 -0.0839
 3847SOL    HW123177   2.091   0.374   0.037 -0.4587 -0.7520 -0.5314
 3847SOL    HW223178   2.220   0.393   0.105  0.7064  0.0520 -1.2218
 3848SOL     OW23179   2.660   3.945  12.207 -0.0358  0.4423 -0.0683
 3848SOL    HW123180   2.692   3.979  12.290  0.7958  4.9484 -2.2362
 3848SOL    HW223181   2.683   3.853  12.217  0.1927  0.4884 -0.1555
 3849SOL     OW23182   0.738   1.396   1.046  0.1496  0.5188  0.6308
 3849SOL    HW123183   0.741   1.428   0.956 -0.9397 -0.0115  0.4187
 3849SOL    HW223184   0.660   1.341   1.040 -0.4315  1.2785  1.1492
 3850SOL     OW23185   2.702   0.792  15.883 -0.1234 -0.0632 -0.2717
 3850SOL    HW123186   2.694   0.867  15.824 -0.5570  0.3566  0.3162
 3850SOL    HW223187   2.779   0.755  15.839  1.2936  0.9447  1.3355
 3851SOL     OW23188   1.659   1.202   9.176 -0.2541  0.2425  0.2811
 3851SOL    HW123189   1.595   1.159   9.234  0.9311  1.6988  2.6461
 3851SOL    HW223190   1.607   1.247   9.109 -2.0152 -1.7975  0.2624
 3852SOL     OW23191   2.432   4.591   3.265 -0.2483  0.0418 -0.9224
 3852SOL    HW123192   2.391   4.542   3.336  1.2629 -2.1351 -1.5603
 3852SOL    HW223193   2.483   4.648   3.322  0.2849  1.1367 -2.4775
 3853SOL     OW23194   2.197   0.240   8.276 -0.5956 -0.0872  0.1810
 3853SOL    HW123195   2.249   0.175   8.324  0.9787  0.4023 -0.8596
 3853SOL    HW223196   2.260   0.304   8.244  1.5573 -1.6918  1.1480
 3854SOL     OW23197   0.266   4.619   5.619  0.4348 -0.1426 -0.2772
 3854SOL    HW123198   0.309   4.535   5.632  1.2968  0.6630  2.0039
 3854SOL    HW223199   0.277   4.666   5.702 -0.7638  0.9493 -0.7227
 3855SOL     OW23200   1.619   3.693   5.496 -0.1599 -0.4424 -1.1742
 3855SOL    HW123201   1.534   3.716   5.535  1.1537  1.1390  0.7524
 3855SOL    HW223202   1.645   3.628   5.561 -1.2942 -0.5155 -0.7791
 3856SOL     OW23203   3.024   2.279   1.069  0.2098 -0.3081  0.3688
 3856SOL    HW123204   3.075   2.305   1.146 -0.6162 -0.3827  0.9406
 3856SOL    HW223205   3.097   2.259   1.011  1.0822  0.1123  1.3077
 3857SOL     OW23206   2.487   2.672   3.532 -0.2331 -0.2942  0.1645
 3857SOL    HW123207   2.444   2.736   3.589 -1.5421  0.0931 -1.2553
 3857SOL    HW223208   2.416   2.634   3.480 -1.7180  0.9684  1.2925
 3858SOL     OW23209   1.327   0.666   4.778 -0.0117 -0.0158 -0.4171
 3858SOL    HW123210   1.358   0.734   4.719 -0.7038 -0.5734 -1.4366
 3858SOL    HW223211   1.372   0.687   4.860 -0.5677 -1.4387  0.2719
 3859SOL     OW23212   1.921   0.916  14.876  0.5505  0.3696  0.1117
 3859SOL    HW123213   1.844   0.954  14.919  1.7627  3.0011  0.0078
 3859SOL    HW223214   1.960   0.997  14.841 -0.5940 -0.5537 -3.2987
 3860SOL     OW23215   4.102   1.521  16.364 -0.2065 -0.1209 -0.0634
 3860SOL    HW123216   4.090   1.530  16.459 -1.0327 -0.0125 -0.1789
 3860SOL    HW223217   4.014   1.489  16.344  0.4043 -1.4634 -0.6407
 3861SOL     OW23218   3.006   3.534   7.163  0.0496 -0.0656  0.1183
 3861SOL    HW123219   2.920   3.492   7.167 -0.4269  0.7555 -1.1952
 3861SOL    HW223220   2.985   3.626   7.147  0.6162 -0.1956 -1.4134
 3862SOL     OW23221   3.374   3.186   4.553  0.0340  0.4925 -0.3800
 3862SOL    HW123222   3.338   3.258   4.605  0.0324 -0.0395  0.3645
 3862SOL    HW223223   3.368   3.115   4.618  0.7947  0.8286  0.0546
 3863SOL     OW23224   4.668   2.837  15.692 -0.2849  0.7794 -0.2615
 3863SOL    HW123225   4.665   2.756  15.640 -1.5506  1.2622 -0.9397
 3863SOL    HW223226   4.590   2.884  15.663 -1.6835 -1.0264  0.5535
 3864SOL     OW23227   1.829   3.131  11.844 -0.3409  0.1423  0.6293
 3864SOL    HW123228   1.785   3.053  11.877  0.5206  0.0786  1.6104
 3864SOL    HW223229   1.920   3.121  11.873  0.2908 -3.1813 -2.4854
 3865SOL     OW23230   4.453   0.394  12.568  0.0016 -0.0979  0.4786
 3865SOL    HW123231   4.370   0.442  12.568 -1.4139 -2.5836  1.0144
 3865SOL    HW223232   4.503   0.454  12.624  1.9444 -0.6739 -0.6401
 3866SOL     OW23233   4.567   1.878  15.219  0.3667 -0.3860 -0.3655
 3866SOL    HW123234   4.659   1.855  15.224  0.5054  0.5483  1.6593
 3866SOL    HW223235   4.565   1.902  15.127 -1.4125 -0.5699 -0.3744
 3867SOL     OW23236   3.007   2.928   0.347  0.0206 -0.1733  0.7579
 3867SOL    HW123237   2.965   2.998   0.398 -0.6870  1.5833 -2.2230
 3867SOL    HW223238   2.929   2.901   0.299  1.0900 -0.2079 -0.9790
 3868SOL     OW23239   0.201   1.242  14.730 -0.6480 -0.1139  0.4844
 3868SOL    HW123240   0.279   1.227  14.677 -1.1005 -2.9791  0.6504
 3868SOL    HW223241   0.125   1.258  14.674 -0.4953 -1.8260 -0.2139
 3869SOL     OW23242   4.309   0.527   5.830 -0.3617 -0.0465  0.0400
 3869SOL    HW123243   4.310   0.443   5.878  2.4304 -1.5710 -2.7149
 3869SOL    HW223244   4.277   0.493   5.747  1.0965 -5.2422  1.5802
 3870SOL     OW23245   1.288   2.952   1.420  0.3172  0.3303 -1.1025
 3870SOL    HW123246   1.342   2.968   1.342  2.6354 -1.5589  0.1039
 3870SOL    HW223247   1.314   2.863   1.445 -1.2196  0.2553  0.1974
 3871SOL     OW23248   2.178   4.215   5.320  0.2528  0.1992  0.0230
 3871SOL    HW123249   2.153   4.127   5.348 -1.2014  0.0229 -1.8438
 3871SOL    HW223250   2.150   4.222   5.229  0.2007 -0.0115  0.0217
 3872SOL     OW23251   1.526   3.770  11.484 -0.0276 -0.5766 -0.4689
 3872SOL    HW123252   1.540   3.675  11.480  0.4736 -0.4671 -1.2483
 3872SOL    HW223253   1.616   3.799  11.471  0.1453 -0.6529  0.5280
 3873SOL     OW23254   1.630   2.069   0.919 -0.0209  0.2814  0.1509
 3873SOL    HW123255   1.655   2.037   0.832 -0.1580 -1.2091  0.6642
 3873SOL    HW223256   1.570   2.003   0.955 -1.4613  0.5040 -1.8140
 3874SOL     OW23257   3.578   2.486  11.267 -0.2200 -0.1911 -0.0114
 3874SOL    HW123258   3.523   2.410  11.248 -0.1931 -0.0933 -0.4835
 3874SOL    HW223259   3.667   2.453  11.253 -0.0127  1.8041 -3.2636
 3875SOL     OW23260   4.169   1.962  17.310 -0.0309 -0.1020  0.5433
 3875SOL    HW123261   4.213   2.045  17.290  1.5881 -1.0813  0.0832
 3875SOL    HW223262   4.141   1.995  17.395  0.8882 -1.4516  1.3552
 3876SOL     OW23263   0.321   3.910  16.974  0.1976  0.5974 -0.2541
 3876SOL    HW123264   0.229   3.932  16.989 -0.1752 -0.7541 -0.5733
 3876SOL    HW223265   0.366   3.942  17.052  2.5798 -0.2594 -1.2723
 3877SOL     OW23266   0.050   1.905  16.494 -0.5613 -0.3001  1.1089
 3877SOL    HW123267   0.089   1.837  16.439 -0.3014 -3.1960  4.8643
 3877SOL    HW223268   0.045   1.851  16.572  1.8007 -0.5008  1.1320
 3878SOL     OW23269   3.850   1.509   7.393 -0.4335  0.2058 -0.3500
 3878SOL    HW123270   3.943   1.490   7.378 -0.4336  0.5748 -0.8058
 3878SOL    HW223271   3.811   1.434   7.347 -0.9424  0.8263 -0.9317
 3879SOL     OW23272   3.487   3.997  16.317 -0.0667  0.9323 -0.3232
 3879SOL    HW123273   3.501   3.942  16.240  0.1000  0.2700  0.1879
 3879SOL    HW223274   3.436   4.074  16.290  0.6443  1.5320  0.0200
 3880SOL     OW23275   1.224   2.450   7.082  0.4690 -0.1884  0.0861
 3880SOL    HW123276   1.196   2.423   6.995  0.8103 -3.2394  0.8890
 3880SOL    HW223277   1.253   2.360   7.102 -0.1849  0.1632  2.6545
 3881SOL     OW23278   2.217   2.126   7.915 -0.5822  0.0565 -0.0242
 3881SOL    HW123279   2.218   2.138   8.010 -2.2900  0.2093 -0.0179
 3881SOL    HW223280   2.312   2.131   7.904 -0.8296  1.7568 -1.3262
 3882SOL     OW23281   4.535   3.782   3.990 -0.2022 -0.1289 -0.2570
 3882SOL    HW123282   4.604   3.762   3.926  0.7568  0.6360  0.5498
 3882SOL    HW223283   4.602   3.775   4.057 -0.5396  0.3264  0.1192
 3883SOL     OW23284   0.349   2.972   1.454  0.5079  0.0386 -0.0209
 3883SOL    HW123285   0.330   3.022   1.375  0.8498 -1.8880 -1.3256
 3883SOL    HW223286   0.436   3.008   1.470 -0.1928  0.9401  1.7171
 3884SOL     OW23287   2.912   1.492   8.817 -0.5381  0.0682  0.3253
 3884SOL    HW123288   2.961   1.516   8.738 -1.6582 -1.2587 -0.7779
 3884SOL    HW223289   2.973   1.426   8.849 -1.8429 -0.7233  1.2149
 3885SOL     OW23290   3.952   1.714   1.514 -0.0391  0.2680 -1.3975
 3885SOL    HW123291   3.875   1.757   1.477 -0.4112  0.5667 -0.2744
 3885SOL    HW223292   4.017   1.701   1.445  0.6022  0.8554 -0.9127
 3886SOL     OW23293   2.725   1.688   3.260 -0.4239  0.2513  0.7069
 3886SOL    HW123294   2.804   1.739   3.279 -0.0243  0.3826 -1.3552
 3886SOL    HW223295   2.724   1.713   3.168 -0.8293  0.0656  0.6582
 3887SOL     OW23296   3.420   4.419   0.279  0.4931 -0.3124 -0.7666
 3887SOL    HW123297   3.486   4.486   0.298 -1.2283  1.2719 -0.2359
 3887SOL    HW223298   3.394   4.389   0.366 -0.0353  0.9023 -0.5018
 3888SOL     OW23299   3.735   4.551  15.384 -0.0799  0.0846 -0.3024
 3888SOL    HW123300   3.644   4.561  15.356 -1.4533 -2.5124  3.2022
 3888SOL    HW223301   3.746   4.470  15.435  1.6953 -0.5689 -1.7477
 3889SOL     OW23302   0.624   0.201   8.879  0.1728  0.7161  0.4671
 3889SOL    HW123303   0.613   0.112   8.846  0.3752  0.9083 -0.1162
 3889SOL    HW223304   0.679   0.185   8.956 -0.3320 -0.5052  0.5781
 3890SOL     OW23305   4.521   0.607  13.959  0.1038  0.2423 -0.5142
 3890SOL    HW123306   4.606   0.574  13.988  0.1518  1.2340  0.4520
 3890SOL    HW223307   4.481   0.640  14.039 -0.3703 -2.4992  0.3767
 3891SOL     OW23308   2.341   4.093   8.997  0.1523  0.2539  0.9475
 3891SOL    HW123309   2.359   4.110   8.904 -0.9995 -2.3182  0.2535
 3891SOL    HW223310   2.310   4.005   8.977 -0.7959  1.2948 -2.1924
 3892SOL     OW23311   4.405   4.504   6.182  0.2990  0.3641 -0.1169
 3892SOL    HW123312   4.335   4.527   6.121  0.4335 -4.5748 -2.1287
 3892SOL    HW223313   4.453   4.587   6.194  1.2460 -0.1130 -0.5952
 3893SOL     OW23314   1.498   3.443   8.969 -0.7504 -0.9603 -0.1432
 3893SOL    HW123315   1.465   3.493   9.044 -0.8813  0.9241 -1.4615
 3893SOL    HW223316   1.591   3.465   8.979 -1.3072  2.6337 -2.6950
 3894SOL     OW23317   2.064   3.343  10.602  0.0403 -0.3598  0.0507
 3894SOL    HW123318   2.094   3.278  10.666  0.1930 -0.3398 -0.0027
 3894SOL    HW223319   2.103   3.426  10.630  1.7347 -1.4238  0.8634
 3895SOL     OW23320   1.439   2.695   8.916 -0.1745 -0.8934  0.5631
 3895SOL    HW123321   1.372   2.627   8.919 -2.3205  1.1145 -1.4651
 3895SOL    HW223322   1.512   2.642   8.945  1.5679  2.1305  1.7089
 3896SOL     OW23323   1.351   3.789  11.693  0.2286  0.1314 -0.1863
 3896SOL    HW123324   1.387   3.726  11.755  0.0018  0.0567 -0.1290
 3896SOL    HW223325   1.412   3.768  11.622  2.6382 -0.5721  2.0700
 3897SOL     OW23326   4.381   3.365  10.705  0.0426 -0.2828 -0.1779
 3897SOL    HW123327   4.364   3.274  10.681 -0.6558  0.2437 -1.6587
 3897SOL    HW223328   4.371   3.355  10.800 -0.8280  0.9568 -0.1447
 3898SOL     OW23329   0.891   4.064   9.696  0.1947 -0.1393  0.1561
 3898SOL    HW123330   0.859   4.133   9.756  0.0113 -0.6442  0.6408
 3898SOL    HW223331   0.980   4.098   9.694 -1.1599  3.5168  0.0368
 3899SOL     OW23332   0.346   4.097   4.089  0.7960 -0.3228 -0.7056
 3899SOL    HW123333   0.403   4.023   4.107  0.1390 -0.1923  1.8601
 3899SOL    HW223334   0.302   4.057   4.014  1.8226 -0.3298 -1.3165
 3900SOL     OW23335   2.381   2.308   8.894 -0.1168  0.0171  0.3198
 3900SOL    HW123336   2.340   2.297   8.979 -0.4000 -0.0477  0.1751
 3900SOL    HW223337   2.330   2.248   8.840 -2.0376  1.3980  0.6040
 3901SOL     OW23338   2.541   1.588   4.105  0.4326  0.2884 -0.0701
 3901SOL    HW123339   2.498   1.511   4.142 -0.1090  0.4231 -0.4168
 3901SOL    HW223340   2.626   1.574   4.147  1.0201  1.0299 -1.0124
 3902SOL     OW23341   3.616   4.497   7.544  0.1559 -0.1881 -0.1064
 3902SOL    HW123342   3.676   4.426   7.522  1.0750  0.2122  1.1004
 3902SOL    HW223343   3.645   4.566   7.484  0.3955  0.7219  1.0378
 3903SOL     OW23344   2.775   4.408   4.748 -0.1674  0.2947  0.0411
 3903SOL    HW123345   2.708   4.378   4.687 -1.0422  0.2131  1.0391
 3903SOL    HW223346   2.732   4.396   4.832 -3.2263 -0.6937 -1.6745
 3904SOL     OW23347   1.188   0.858   6.381  0.6571  0.0229 -0.7131
 3904SOL    HW123348   1.113   0.831   6.433  0.0202  1.4453 -0.8965
 3904SOL    HW223349   1.163   0.948   6.359 -1.4560  0.0451  1.8584
 3905SOL     OW23350   2.785   1.792   2.650 -0.6842 -0.1858  0.0306
 3905SOL    HW123351   2.843   1.717   2.659 -0.8382 -0.5377 -1.9719
 3905SOL    HW223352   2.826   1.861   2.703 -0.7454 -0.8366  0.9225
 3906SOL     OW23353   2.143   3.847   0.977 -0.0048 -0.5398 -0.0078
 3906SOL    HW123354   2.099   3.927   0.947  1.6756 -0.0947 -1.3197
 3906SOL    HW223355   2.238   3.861   0.972 -0.0409 -0.1889  0.2872
 3907SOL     OW23356   0.793   0.434   8.844  0.1020 -0.0825  0.1062
 3907SOL    HW123357   0.859   0.370   8.870 -1.6955 -2.1784 -0.4414
 3907SOL    HW223358   0.715   0.381   8.829  0.3187 -0.2035 -0.6330
 3908SOL     OW23359   0.878   4.603   0.970 -0.4830 -0.3035 -0.0044
 3908SOL    HW123360   0.889   4.676   0.910 -0.7886 -0.7944 -0.6667
 3908SOL    HW223361   0.956   4.554   0.946 -0.7688 -0.6021 -0.3318
 3909SOL     OW23362   1.898   4.106  16.476  0.7141 -0.2127  0.1809
 3909SOL    HW123363   1.943   4.022  16.481  0.7536 -0.1461  0.9431
 3909SOL    HW223364   1.951   4.168  16.528 -0.0411  0.7493 -0.2003
 3910SOL     OW23365   1.604   3.406   2.157 -0.2288 -0.2644 -0.3150
 3910SOL    HW123366   1.537   3.337   2.160 -1.2258  0.7437  0.4218
 3910SOL    HW223367   1.670   3.372   2.217 -0.8112 -0.2560  0.3298
 3911SOL     OW23368   2.726   1.319   3.454  0.3156 -0.4457 -0.1038
 3911SOL    HW123369   2.673   1.394   3.427  0.9263 -1.4200 -3.9208
 3911SOL    HW223370   2.667   1.258   3.497 -1.2317  0.2591 -1.2313
 3912SOL     OW23371   2.121   1.381   5.683 -0.1579 -0.7669 -0.0335
 3912SOL    HW123372   2.185   1.435   5.729 -0.3315 -0.3231 -0.3136
 3912SOL    HW223373   2.047   1.391   5.744 -0.5385 -1.1805 -0.4254
 3913SOL     OW23374   2.239   3.629   7.564  0.1080 -0.4409  0.0800
 3913SOL    HW123375   2.241   3.659   7.473 -3.5970  0.3609  0.2587
 3913SOL    HW223376   2.311   3.678   7.602 -0.2631 -1.0022  1.5009
 3914SOL     OW23377   2.672   2.164   6.664  0.0994 -0.1378  0.5493
 3914SOL    HW123378   2.597   2.149   6.606 -0.1150  0.7771  0.5931
 3914SOL    HW223379   2.630   2.181   6.748 -1.4107  0.6015 -0.3614
 3915SOL     OW23380   0.013   4.387   9.340 -0.4090  0.6699 -0.0198
 3915SOL    HW123381   0.015   4.423   9.251  1.6457  0.3170 -0.1303
 3915SOL    HW223382   0.021   4.468   9.390 -0.9843  0.2773  0.7027
 3916SOL     OW23383   1.926   2.707   5.356 -0.3123 -0.0906 -0.0920
 3916SOL    HW123384   1.943   2.772   5.288 -0.1774  0.9509  0.9423
 3916SOL    HW223385   1.938   2.623   5.310  2.6315 -0.4299  1.3105
 3917SOL     OW23386   0.666   0.935   8.937  0.0138  0.2279 -0.4334
 3917SOL    HW123387   0.666   0.843   8.962 -1.6921 -0.1213 -1.7596
 3917SOL    HW223388   0.580   0.936   8.895  0.1796 -1.5157 -0.7920
 3918SOL     OW23389   2.117   2.552   6.842 -0.2588 -0.2283  0.5104
 3918SOL    HW123390   2.077   2.465   6.839  0.1241 -0.2933 -3.5693
 3918SOL    HW223391   2.080   2.595   6.764 -2.2823 -0.0437  1.5678
 3919SOL     OW23392   2.685   0.642   1.313  0.2484 -0.3617 -0.2199
 3919SOL    HW123393   2.684   0.728   1.354 -0.0071 -0.0949 -0.7766
 3919SOL    HW223394   2.612   0.638   1.250  1.3404 -1.6406 -1.4132
 3920SOL     OW23395   4.636   1.597   5.495 -0.1914  0.0582  0.5306
 3920SOL    HW123396   4.642   1.642   5.411 -4.1858 -0.5943 -0.1090
 3920SOL    HW223397   4.547   1.611   5.528  0.4471  1.0094  1.8445
 3921SOL     OW23398   0.222   2.018   5.114 -0.0192 -0.4236 -0.2077
 3921SOL    HW123399   0.135   2.058   5.110 -0.6189 -1.4804  2.5467
 3921SOL    HW223400   0.284   2.086   5.088  0.9795 -0.4157  2.1615
 3922SOL     OW23401   3.483   1.970   0.655  0.4468  0.5880 -0.4629
 3922SOL    HW123402   3.433   1.944   0.732  2.1858  0.4567  0.6321
 3922SOL    HW223403   3.498   1.881   0.624 -1.7702 -0.0675  0.3445
 3923SOL     OW23404   3.972   2.902  14.459 -0.2148 -0.7983 -0.0119
 3923SOL    HW123405   3.929   2.851  14.390  0.7335  0.0627 -1.2391
 3923SOL    HW223406   4.067   2.894  14.446 -0.4131 -1.3712 -1.1787
 3924SOL     OW23407   4.182   0.463   0.878  0.6560  0.2736  0.0739
 3924SOL    HW123408   4.118   0.393   0.891  1.1204 -0.4324 -1.4024
 3924SOL    HW223409   4.186   0.504   0.964  1.2416 -1.3571  0.8194
 3925SOL     OW23410   1.058   2.703   9.273  0.3207 -0.0383 -0.2546
 3925SOL    HW123411   1.080   2.773   9.333 -0.7433  0.1346 -0.0683
 3925SOL    HW223412   0.987   2.747   9.226  0.2506  1.0475  0.8982
 3926SOL     OW23413   1.724   1.819   8.301 -0.6698 -0.3011  0.2646
 3926SOL    HW123414   1.636   1.799   8.333 -0.5751 -1.0442  0.0561
 3926SOL    HW223415   1.755   1.873   8.373  0.3589 -0.4236 -0.0868
 3927SOL     OW23416   1.079   1.662  11.174  0.2445 -0.0126 -0.7023
 3927SOL    HW123417   1.023   1.700  11.242  1.7016  0.4465  0.2553
 3927SOL    HW223418   1.017   1.628  11.110 -0.2581 -0.7857  0.2013
 3928SOL     OW23419   2.604   1.977   3.166  0.2708  0.1960  0.4001
 3928SOL    HW123420   2.615   1.904   3.106 -0.3366  1.1703 -0.8936
 3928SOL    HW223421   2.547   1.935   3.231 -1.1348 -3.3643 -3.1460
 3929SOL     OW23422   4.675   0.306   7.766  0.5256  0.2001 -0.6103
 3929SOL    HW123423   0.036   0.277   7.754  0.1101 -1.4706  0.2491
 3929SOL    HW223424   4.620   0.261   7.703 -0.8625 -0.7612  1.2783
 3930SOL     OW23425   2.167   3.436   7.733 -0.4360 -0.4694 -0.0674
 3930SOL    HW123426   2.235   3.453   7.798 -0.0934 -0.9308 -0.2989
 3930SOL    HW223427   2.217   3.456   7.654 -2.7532 -1.1347 -1.7125
 3931SOL     OW23428   1.872   1.947  12.447 -0.4211  0.4528  0.6886
 3931SOL    HW123429   1.936   1.938  12.376 -0.8054 -2.0218  0.6552
 3931SOL    HW223430   1.915   1.903  12.520  0.7329  2.6515  1.3344
 3932SOL     OW23431   1.983   2.739   9.406  0.5648  0.1057 -0.5509
 3932SOL    HW123432   2.049   2.771   9.467  0.2012 -0.7292  0.2815
 3932SOL    HW223433   2.021   2.654   9.382 -1.9332 -0.9214 -0.7774
 3933SOL     OW23434   4.174   0.312   8.678  0.0669 -0.4619  0.0889
 3933SOL    HW123435   4.135   0.238   8.724  2.0388 -1.2859  0.4101
 3933SOL    HW223436   4.265   0.329   8.702 -0.0247 -0.5208  0.4821
 3934SOL     OW23437   1.272   0.144   7.122 -0.8012 -0.5345 -0.3631
 3934SOL    HW123438   1.237   0.206   7.186 -0.2178 -1.1132  0.5136
 3934SOL    HW223439   1.365   0.147   7.144 -0.1812 -0.7260 -2.9764
 3935SOL     OW23440   0.035   2.153  16.613  0.3607 -0.0181 -0.1176
 3935SOL    HW123441   0.083   2.172  16.532 -0.1416 -0.0014 -0.4142
 3935SOL    HW223442   0.013   2.061  16.596 -0.6432  0.1638  0.1986
 3936SOL     OW23443   0.245   2.394   6.562 -0.2674  0.0527  0.1263
 3936SOL    HW123444   0.336   2.402   6.531 -0.2278  0.1645  0.2721
 3936SOL    HW223445   0.237   2.299   6.565 -0.8111  0.0906 -0.2215
 3937SOL     OW23446   3.143   4.281   8.605  0.0471 -0.0232 -0.4515
 3937SOL    HW123447   3.056   4.258   8.638  0.2195 -1.5796 -1.0541
 3937SOL    HW223448   3.176   4.194   8.583 -0.1101  0.3237 -2.1266
 3938SOL     OW23449   1.704   3.397   9.684  0.0205 -0.3507 -0.9587
 3938SOL    HW123450   1.685   3.324   9.742  4.0865  0.7143  1.7645
 3938SOL    HW223451   1.751   3.458   9.742 -2.0052  0.1353  0.1768
 3939SOL     OW23452   0.772   3.939   5.892  0.3273 -0.3440 -0.1330
 3939SOL    HW123453   0.778   3.874   5.821 -0.0435 -0.3015 -0.2019
 3939SOL    HW223454   0.866   3.957   5.894  0.4253 -0.7299 -0.9938
 3940SOL     OW23455   0.223   4.540   8.423 -0.5597 -0.3111 -0.9179
 3940SOL    HW123456   0.220   4.626   8.467 -1.3038 -0.2096 -1.1617
 3940SOL    HW223457   0.141   4.537   8.374 -0.9334  0.1590 -0.3307
 3941SOL     OW23458   0.245   0.971   7.060 -0.3254 -0.0618 -0.4333
 3941SOL    HW123459   0.233   1.062   7.034 -3.0803 -0.5045 -0.8098
 3941SOL    HW223460   0.316   0.978   7.123  0.7044 -1.6389 -1.4194
 3942SOL     OW23461   2.845   3.305   6.855  0.1478  0.2498 -0.1353
 3942SOL    HW123462   2.862   3.291   6.948  1.9702 -0.3094 -0.5668
 3942SOL    HW223463   2.772   3.367   6.865 -0.6174 -0.6406 -0.2766
 3943SOL     OW23464   4.512   3.836   6.247 -0.1671 -0.0796 -0.2354
 3943SOL    HW123465   4.545   3.921   6.219  0.8399  0.1494  1.7002
 3943SOL    HW223466   4.532   3.830   6.340  0.8904  1.2332 -0.3753
 3944SOL     OW23467   1.648   3.939   3.193  0.0529  0.1507  0.1912
 3944SOL    HW123468   1.740   3.915   3.182 -0.1396 -0.4549 -0.0787
 3944SOL    HW223469   1.597   3.859   3.183  0.4136  0.0657 -0.9169
 3945SOL     OW23470   4.203   2.657  14.307  0.4570 -0.0835 -0.2836
 3945SOL    HW123471   4.127   2.614  14.349  1.3507 -1.7775 -0.4122
 3945SOL    HW223472   4.278   2.602  14.328 -1.4769 -1.9698  1.7137
 3946SOL     OW23473   1.489   4.622   3.737 -0.2671 -0.0495  0.0198
 3946SOL    HW123474   1.448   4.647   3.655  0.3298  4.5957  1.1487
 3946SOL    HW223475   1.486   4.708   3.777 -1.7249 -0.2928  0.4154
 3947SOL     OW23476   2.090   0.721  16.742  0.0348  0.4307  0.1119
 3947SOL    HW123477   2.106   0.707  16.835 -2.8211 -0.6193  0.4671
 3947SOL    HW223478   2.099   0.633  16.704  1.3946  0.9621 -0.7868
 3948SOL     OW23479   3.598   1.654  14.604  0.7123  0.2853 -0.0903
 3948SOL    HW123480   3.543   1.661  14.526 -0.1412  1.4363  0.6251
 3948SOL    HW223481   3.643   1.738  14.603 -0.6555  1.0267  0.1422
 3949SOL     OW23482   4.281   1.470   7.613 -0.6272 -0.1731  0.3498
 3949SOL    HW123483   4.218   1.402   7.640  1.2214 -1.0442  2.4896
 3949SOL    HW223484   4.255   1.489   7.523  4.2641 -0.4898 -1.0787
 3950SOL     OW23485   1.734   0.895   2.623 -0.2581 -0.2134 -0.1763
 3950SOL    HW123486   1.737   0.802   2.643 -1.6585  0.1111  1.4994
 3950SOL    HW223487   1.711   0.925   2.711 -0.1716 -1.1647  0.1725
 3951SOL     OW23488   4.200   4.219   1.176 -0.6385 -0.2650  0.6045
 3951SOL    HW123489   4.260   4.160   1.131 -1.0926 -1.0448  1.0393
 3951SOL    HW223490   4.265   4.244   1.241  0.8467 -3.1019  0.2107
 3952SOL     OW23491   3.222   0.546   3.717 -0.2381  0.4340  0.0255
 3952SOL    HW123492   3.150   0.590   3.671 -0.9531 -2.9087 -2.0494
 3952SOL    HW223493   3.184   0.526   3.803  0.2657  0.9458  0.3584
 3953SOL     OW23494   3.921   0.614   2.931 -0.6711  0.1837 -0.2562
 3953SOL    HW123495   4.005   0.588   2.969 -1.2348 -0.8846  0.2645
 3953SOL    HW223496   3.905   0.544   2.868 -1.2399  0.7908 -0.7995
 3954SOL     OW23497   2.096   4.718   0.794  0.4809  1.0747  0.2195
 3954SOL    HW123498   2.181   0.014   0.829 -0.0648  1.5093  1.2201
 3954SOL    HW223499   2.052   4.674   0.867 -0.8629  2.6551  0.3547
 3955SOL     OW23500   1.682   4.479  14.499 -0.2481 -0.3541  0.2365
 3955SOL    HW123501   1.640   4.457  14.416 -0.4988  0.9710  0.0039
 3955SOL    HW223502   1.701   4.391  14.530  0.7948 -0.0322  0.5020
 3956SOL     OW23503   3.657   0.687  13.426  0.5007  0.6856 -0.0070
 3956SOL    HW123504   3.702   0.744  13.489 -0.2220  0.7627  0.4390
 3956SOL    HW223505   3.660   0.605  13.476  0.7500  0.5512 -0.2400
 3957SOL     OW23506   0.186   0.574  15.982  0.1717 -0.9202  0.2533
 3957SOL    HW123507   0.263   0.576  15.926  1.2909  3.2647  1.9082
 3957SOL    HW223508   0.225   0.588  16.069 -0.2786  0.7515  0.1762
 3958SOL     OW23509   1.003   0.265   1.263  0.3046  0.1165 -0.0428
 3958SOL    HW123510   0.974   0.279   1.353  1.4117 -0.9891  0.4854
 3958SOL    HW223511   1.094   0.292   1.280  0.6875 -0.7243 -0.7287
 3959SOL     OW23512   1.362   3.367   4.327 -0.9706 -0.2070  0.2400
 3959SOL    HW123513   1.450   3.401   4.320 -0.3456 -2.3311 -2.1367
 3959SOL    HW223514   1.307   3.424   4.381 -0.8665 -0.0528  0.1807
 3960SOL     OW23515   2.074   2.603   5.564 -0.3467 -0.0108 -0.5435
 3960SOL    HW123516   2.037   2.677   5.612 -0.7957  0.1147 -1.0842
 3960SOL    HW223517   2.018   2.609   5.487 -1.0966  1.0246  0.0894
 3961SOL     OW23518   4.637   2.440   5.775 -0.2309  0.0360 -0.7383
 3961SOL    HW123519   4.658   2.533   5.779  1.3012 -0.3476  0.4066
 3961SOL    HW223520   4.690   2.409   5.849  1.1438 -0.0908 -1.7835
 3962SOL     OW23521   0.470   3.869   8.852  0.2131  0.1424  0.3577
 3962SOL    HW123522   0.556   3.885   8.889  1.2950 -0.9802 -1.6949
 3962SOL    HW223523   0.422   3.951   8.842 -0.0026  0.1597  1.5378
 3963SOL     OW23524   3.101   3.707   6.860  0.2792  0.2688 -0.1407
 3963SOL    HW123525   3.177   3.742   6.813  1.0750 -0.0683  0.8994
 3963SOL    HW223526   3.158   3.696   6.936 -1.1026  0.0199  0.8534
 3964SOL     OW23527   4.365   0.040   6.327 -0.3912 -0.2948  0.3646
 3964SOL    HW123528   4.341   0.112   6.269  0.7114 -0.3916 -0.2309
 3964SOL    HW223529   4.456   0.062   6.350  0.0114  0.2442 -1.7422
 3965SOL     OW23530   4.563   2.960   4.240 -0.0292 -0.1801 -0.2929
 3965SOL    HW123531   4.490   2.915   4.282 -0.3332 -0.2496 -0.8988
 3965SOL    HW223532   4.629   2.894   4.261 -0.3841 -0.7074 -0.8361
 3966SOL     OW23533   4.277   2.306   8.226 -0.2735 -0.5879 -0.0173
 3966SOL    HW123534   4.364   2.328   8.259 -0.0049 -0.7414 -0.6420
 3966SOL    HW223535   4.281   2.236   8.161  0.4971 -1.6193  1.1421
 3967SOL     OW23536   1.435   2.099   5.645 -0.7449 -0.0218  0.0057
 3967SOL    HW123537   1.418   2.005   5.639 -1.4935  0.2676 -2.3198
 3967SOL    HW223538   1.435   2.113   5.740 -0.2918  2.3439 -0.3270
 3968SOL     OW23539   4.073   1.907  13.339  0.4281  0.4181  0.1872
 3968SOL    HW123540   3.981   1.897  13.313  1.3921  0.9442 -3.4190
 3968SOL    HW223541   4.066   1.993  13.379 -2.3595  0.4038 -0.2890
 3969SOL     OW23542   3.883   3.654   8.028 -0.5064 -0.0977  0.0591
 3969SOL    HW123543   3.897   3.666   8.122 -3.0969  0.8013  0.3240
 3969SOL    HW223544   3.873   3.559   8.025 -0.6032 -0.0694 -0.5090
 3970SOL     OW23545   2.969   3.997   3.052 -0.4560  0.3076  0.0066
 3970SOL    HW123546   3.050   4.039   3.025 -0.0361 -1.1745 -1.0172
 3970SOL    HW223547   2.920   3.984   2.971 -1.0978 -2.5500  0.8596
 3971SOL     OW23548   3.257   3.358   4.723 -0.0524 -0.2306 -0.2784
 3971SOL    HW123549   3.183   3.419   4.717  1.6694  1.8288 -0.2885
 3971SOL    HW223550   3.269   3.364   4.818  0.0154 -4.6311  0.0085
 3972SOL     OW23551   4.035   3.675  14.343  0.0999 -0.7228  0.0637
 3972SOL    HW123552   4.094   3.601  14.356  2.9792  1.3802 -1.0863
 3972SOL    HW223553   4.036   3.679  14.248 -2.9069 -2.1200 -0.0209
 3973SOL     OW23554   1.006   4.045   4.471 -0.7219 -0.1678  0.2296
 3973SOL    HW123555   1.015   4.001   4.386  0.2052  0.1910  0.1363
 3973SOL    HW223556   1.006   4.135   4.438 -1.2259 -1.3841 -3.1639
 3974SOL     OW23557   1.325   2.736   0.052  0.1592  0.1840 -0.9459
 3974SOL    HW123558   1.276   2.681  17.707 -3.1074 -0.4697  2.2493
 3974SOL    HW223559   1.394   2.751  17.705 -1.6303  1.0809 -2.6587
 3975SOL     OW23560   0.560   3.761   4.011 -0.3442 -0.2316  0.2009
 3975SOL    HW123561   0.525   3.674   4.031 -0.8875 -0.6848 -2.7586
 3975SOL    HW223562   0.526   3.802   4.090 -0.0346  0.9054 -0.2594
 3976SOL     OW23563   3.053   2.303  13.541  0.1492  0.3408 -0.3051
 3976SOL    HW123564   3.128   2.253  13.507 -0.4694  0.2086 -1.4699
 3976SOL    HW223565   3.089   2.391  13.527  0.0111  0.4334 -0.0723
 3977SOL     OW23566   1.813   4.008  14.157  0.1522  0.2005  0.9308
 3977SOL    HW123567   1.859   4.087  14.129 -0.6759  0.3023 -0.1175
 3977SOL    HW223568   1.732   4.046  14.190 -0.7992 -2.1587  1.2896
 3978SOL     OW23569   3.917   2.255  16.306 -0.3915 -0.4028  0.6501
 3978SOL    HW123570   3.999   2.274  16.352 -0.9150 -1.2572  1.9672
 3978SOL    HW223571   3.951   2.207  16.231 -1.3099 -0.2654  0.1409
 3979SOL     OW23572   2.269   0.622   5.531  0.5015 -0.3702  0.7885
 3979SOL    HW123573   2.195   0.566   5.507  0.1008  0.3528  0.3380
 3979SOL    HW223574   2.227   0.707   5.543  1.2530 -0.1281  1.7028
 3980SOL     OW23575   1.888   2.347   3.430  0.2303 -0.0911 -0.5666
 3980SOL    HW123576   1.902   2.344   3.336  0.8336 -0.9034 -0.4448
 3980SOL    HW223577   1.981   2.352   3.453 -0.2824  0.8621  1.3235
 3981SOL     OW23578   4.175   1.987   9.627 -0.7015 -0.5928 -0.6677
 3981SOL    HW123579   4.103   1.991   9.689 -0.4949  2.3569 -0.6626
 3981SOL    HW223580   4.160   1.897   9.597 -1.7495 -1.4654  2.4171
 3982SOL     OW23581   2.541   1.726   6.391 -0.1360 -0.0765 -0.3343
 3982SOL    HW123582   2.589   1.785   6.334  0.3225  0.5502  0.7120
 3982SOL    HW223583   2.457   1.771   6.399 -0.4637 -0.8964  0.8436
 3983SOL     OW23584   3.849   3.216   4.756 -0.2789 -0.1022 -0.3104
 3983SOL    HW123585   3.796   3.284   4.795 -2.8252 -2.3619  0.1626
 3983SOL    HW223586   3.780   3.169   4.710  0.4686 -1.2912 -0.2496
 3984SOL     OW23587   3.741   2.159   7.397 -0.1660 -0.1759  0.0034
 3984SOL    HW123588   3.690   2.227   7.441 -0.7100 -1.7521  1.7986
 3984SOL    HW223589   3.708   2.163   7.307 -0.3445 -0.4277  0.0548
 3985SOL     OW23590   4.284   0.126   6.982  0.0722 -0.9297  0.2178
 3985SOL    HW123591   4.214   0.061   6.985  0.2168 -1.1810 -1.8107
 3985SOL    HW223592   4.309   0.133   6.890 -2.9212 -1.0692 -0.6239
 3986SOL     OW23593   2.151   4.150   3.531  0.6157 -0.6490 -0.2879
 3986SOL    HW123594   2.108   4.137   3.447 -1.4208 -0.2589  0.7004
 3986SOL    HW223595   2.236   4.107   3.523  2.1607  2.1981  0.6185
 3987SOL     OW23596   4.578   0.559  12.715  0.1794  0.1393  0.1455
 3987SOL    HW123597   4.583   0.517  12.801 -2.6221 -0.5672 -0.0115
 3987SOL    HW223598   4.580   0.654  12.729 -2.0870 -0.0651  1.9727
 3988SOL     OW23599   4.154   4.229   2.587 -0.5224  0.1624 -0.0371
 3988SOL    HW123600   4.088   4.160   2.580 -1.1550  0.5766  1.8814
 3988SOL    HW223601   4.162   4.251   2.494 -1.1182  0.7620  0.0563
 3989SOL     OW23602   4.401   2.387   7.948 -0.4074 -0.4643 -0.2578
 3989SOL    HW123603   4.390   2.440   8.027 -0.4841 -3.1203  1.5160
 3989SOL    HW223604   4.318   2.404   7.904 -0.3161 -0.7051 -0.5163
 3990SOL     OW23605   3.780   2.405  14.196 -0.5130  0.0564  0.1192
 3990SOL    HW123606   3.724   2.412  14.273 -0.5582  0.6755  0.0247
 3990SOL    HW223607   3.824   2.322  14.216  0.5338  1.1520  2.3625
 3991SOL     OW23608   1.786   0.263   7.378 -0.3114 -0.1911 -0.6986
 3991SOL    HW123609   1.844   0.214   7.436  0.7486  1.7530 -0.1075
 3991SOL    HW223610   1.824   0.249   7.291 -1.2845 -0.4243 -1.0956
 3992SOL     OW23611   2.301   3.810   3.744 -0.1147 -0.5560 -0.2927
 3992SOL    HW123612   2.301   3.717   3.766  0.1235 -1.0100 -2.1910
 3992SOL    HW223613   2.278   3.817   3.651 -4.1596  1.7507  0.9341
 3993SOL     OW23614   2.302   1.879   6.317  0.4374 -0.0153 -0.0043
 3993SOL    HW123615   2.258   1.964   6.320  1.1023  0.3292  0.2294
 3993SOL    HW223616   2.242   1.826   6.369 -0.3064  2.8112  2.0198
 3994SOL     OW23617   3.376   4.372   7.498 -0.1276  0.6127 -0.1566
 3994SOL    HW123618   3.407   4.285   7.475 -0.1034  0.1951  1.4243
 3994SOL    HW223619   3.455   4.425   7.509  0.1723 -0.2781  2.0284
 3995SOL     OW23620   0.351   3.495   4.585 -0.2469 -0.0997 -0.4138
 3995SOL    HW123621   0.300   3.521   4.508  1.0570  1.7308 -0.6410
 3995SOL    HW223622   0.431   3.458   4.548 -0.0064  1.2952 -1.2994
 3996SOL     OW23623   1.424   2.376   3.015  0.5106 -0.4155 -0.5034
 3996SOL    HW123624   1.389   2.299   3.061 -1.5437  0.8855  0.1096
 3996SOL    HW223625   1.406   2.345   2.927 -0.4180  0.9092 -0.7720
 3997SOL     OW23626   3.624   2.987   6.547  0.5435  0.0648 -0.1278
 3997SOL    HW123627   3.682   3.063   6.547  0.8469 -0.1584 -1.0398
 3997SOL    HW223628   3.684   2.922   6.581 -0.8317 -1.7130 -1.0681
 3998SOL     OW23629   2.367   0.769  16.381 -0.0288  1.0860 -0.0009
 3998SOL    HW123630   2.346   0.835  16.315  1.6883  1.9652  0.3246
 3998SOL    HW223631   2.442   0.813  16.422  0.7387 -0.3490  0.1331
 3999SOL     OW23632   3.662   1.972   4.560 -0.0997  0.5882  0.0541
 3999SOL    HW123633   3.698   1.906   4.501  2.1791  2.8631 -1.1009
 3999SOL    HW223634   3.726   1.965   4.630  0.9514  2.1657 -0.7343
 4000SOL     OW23635   0.293   4.010   4.764  0.1365  0.2510  0.2564
 4000SOL    HW123636   0.198   4.006   4.777  0.3632 -1.4898  1.3985
 4000SOL    HW223637   0.298   4.061   4.683 -0.9229 -0.1544 -0.0711
 4001SOL     OW23638   4.716   2.988   8.601 -0.3494 -0.0871 -0.5208
 4001SOL    HW123639   0.010   2.896   8.588  2.3811  0.2377  1.8646
 4001SOL    HW223640   4.632   2.975   8.644 -1.0196 -0.3954 -1.9416
 4002SOL     OW23641   0.554   1.503   3.117 -0.2606  0.1184  0.3526
 4002SOL    HW123642   0.600   1.583   3.139  3.5174 -1.6442 -1.1360
 4002SOL    HW223643   0.612   1.447   3.169  0.8090  1.7507  0.8983
 4003SOL     OW23644   4.720   2.152  13.535 -0.5260  0.1638  0.6173
 4003SOL    HW123645   0.032   2.157  13.621  0.1962  0.3030  0.2565
 4003SOL    HW223646   4.661   2.228  13.534 -0.8525 -0.1086 -1.0892
 4004SOL     OW23647   0.282   1.829   8.033  0.2369 -0.2906 -0.7189
 4004SOL    HW123648   0.280   1.912   7.985 -0.3080  0.1316  0.0381
 4004SOL    HW223649   0.370   1.799   8.008  0.0159 -0.4957 -1.2468
 4005SOL     OW23650   4.234   1.665  17.265  0.0025  0.1712  0.1824
 4005SOL    HW123651   4.186   1.748  17.258  1.2886  0.6973 -2.5199
 4005SOL    HW223652   4.163   1.622  17.217  1.1018 -0.5605 -0.7650
 4006SOL     OW23653   2.297   1.811   6.046  0.1012 -0.3953 -0.7342
 4006SOL    HW123654   2.304   1.812   6.141  0.9839 -2.0502 -0.7764
 4006SOL    HW223655   2.224   1.751   6.035 -0.0384 -0.2391 -0.6545
 4007SOL     OW23656   1.621   2.877   2.366 -0.0099  0.2953 -0.1809
 4007SOL    HW123657   1.603   2.953   2.422 -0.1357 -1.3692  2.0215
 4007SOL    HW223658   1.668   2.911   2.290  0.7615  1.1171  0.6502
 4008SOL     OW23659   0.609   3.831   2.180 -0.8378 -0.0833  0.5669
 4008SOL    HW123660   0.665   3.906   2.164  0.3902 -1.1665 -0.2148
 4008SOL    HW223661   0.611   3.782   2.097 -0.4480  0.6275  0.1624
 4009SOL     OW23662   4.275   3.498   5.307  0.0666 -0.4670  0.6222
 4009SOL    HW123663   4.316   3.445   5.375 -3.9989 -2.2562  1.7388
 4009SOL    HW223664   4.188   3.505   5.347 -0.5085  3.0140 -1.2532
 4010SOL     OW23665   3.170   4.317  10.586 -0.5521 -0.1101 -0.3742
 4010SOL    HW123666   3.091   4.367  10.603  0.5423  1.8113 -0.9185
 4010SOL    HW223667   3.206   4.322  10.674 -0.6052 -0.5215 -0.3307
 4011SOL     OW23668   1.783   3.729   9.406 -0.2266 -0.1493 -0.6960
 4011SOL    HW123669   1.705   3.704   9.455 -0.0442  0.7164  0.0209
 4011SOL    HW223670   1.806   3.638   9.388  1.5715 -0.0593  1.1627
 4012SOL     OW23671   4.166   1.144   8.888 -0.6596  0.3163  0.4406
 4012SOL    HW123672   4.154   1.238   8.881  0.8595  0.5308  0.6403
 4012SOL    HW223673   4.084   1.104   8.919  0.2615 -1.8613  0.0879
 4013SOL     OW23674   3.283   1.380  14.630 -0.1461  0.4495 -0.5580
 4013SOL    HW123675   3.317   1.341  14.710 -0.9512 -1.5335 -1.1751
 4013SOL    HW223676   3.357   1.364  14.572  1.2128 -0.0751  1.3572
 4014SOL     OW23677   0.857   4.377   2.150 -0.3340  0.3505 -0.1398
 4014SOL    HW123678   0.871   4.442   2.082  0.9308 -2.6967 -2.7963
 4014SOL    HW223679   0.781   4.410   2.198 -0.1311  0.0090  0.4198
 4015SOL     OW23680   3.052   0.498   8.327  0.0214  0.3047 -0.4245
 4015SOL    HW123681   3.058   0.465   8.416 -0.1609  0.8120 -0.2229
 4015SOL    HW223682   3.143   0.514   8.304  0.0190 -0.4838 -0.9977
 4016SOL     OW23683   1.232   1.782   0.902  0.1311 -0.1903 -0.7078
 4016SOL    HW123684   1.232   1.862   0.849  0.1482  0.2801 -0.0062
 4016SOL    HW223685   1.323   1.760   0.881 -0.2738 -2.0525 -0.4905
 4017SOL     OW23686   1.949   3.043   4.462 -0.3949 -0.0102 -0.4582
 4017SOL    HW123687   1.973   2.950   4.462 -0.0328  0.0789 -2.8583
 4017SOL    HW223688   1.875   3.041   4.523 -0.4904  2.2965 -0.5094
 4018SOL     OW23689   2.142   1.900   7.793 -0.7898  0.8052 -0.1717
 4018SOL    HW123690   2.085   1.892   7.870  0.2600 -1.9623  0.3156
 4018SOL    HW223691   2.183   1.980   7.825  1.6865 -0.5858  0.1650
 4019SOL     OW23692   1.940   1.842   5.818  0.1193 -0.8046  0.5683
 4019SOL    HW123693   1.906   1.767   5.866 -0.6800 -1.6783 -1.3633
 4019SOL    HW223694   1.899   1.916   5.863 -3.4969 -2.6537  0.3216
 4020SOL     OW23695   3.228   1.523  16.277  0.2951  0.5127  0.0546
 4020SOL    HW123696   3.301   1.512  16.216  0.0583  0.6719 -0.2616
 4020SOL    HW223697   3.201   1.610  16.247  3.3955  1.6567  0.6050
 4021SOL     OW23698   4.430   2.187   4.661  0.2866 -0.6394 -0.0556
 4021SOL    HW123699   4.492   2.114   4.657 -0.1788 -1.1351  1.9445
 4021SOL    HW223700   4.483   2.260   4.693  0.8923 -1.6464  1.2816
 4022SOL     OW23701   2.969   4.138   0.439  0.4303  0.2131  0.7314
 4022SOL    HW123702   3.005   4.223   0.463 -1.7280  2.0880 -2.6645
 4022SOL    HW223703   3.026   4.127   0.363  1.2605  1.5351  1.1687
 4023SOL     OW23704   4.680   1.380   7.407 -0.5695  0.1544  0.3687
 4023SOL    HW123705   0.020   1.420   7.460 -0.4736 -0.7591  0.9376
 4023SOL    HW223706   4.689   1.288   7.433 -0.9292  0.5345  1.8751
 4024SOL     OW23707   2.437   2.069   2.672 -0.0481 -0.0877 -0.2784
 4024SOL    HW123708   2.445   1.991   2.617  2.7793  1.2363 -1.7130
 4024SOL    HW223709   2.424   2.133   2.602  1.8164  1.7573  1.0486
 4025SOL     OW23710   2.205   3.858  16.325 -0.3643 -0.5533 -0.1021
 4025SOL    HW123711   2.195   3.934  16.267  2.9807 -0.0249  0.0254
 4025SOL    HW223712   2.168   3.787  16.272 -1.4207  0.5531 -0.8627
 4026SOL     OW23713   2.279   2.210   0.943 -0.1573 -0.3107 -0.3226
 4026SOL    HW123714   2.316   2.220   1.031 -0.3207  2.3894 -0.5647
 4026SOL    HW223715   2.278   2.299   0.910 -0.6165 -0.5038 -0.8395
 4027SOL     OW23716   2.583   1.875   8.859  0.3756  0.0173 -0.6266
 4027SOL    HW123717   2.554   1.883   8.768 -1.1684  2.4920  0.0918
 4027SOL    HW223718   2.612   1.783   8.864 -0.2929 -0.2309 -1.3249
 4028SOL     OW23719   1.866   2.541   8.207 -0.8102  0.1955 -0.1032
 4028SOL    HW123720   1.904   2.456   8.187 -2.4306 -1.1479  2.4887
 4028SOL    HW223721   1.778   2.531   8.169 -2.4993  1.1557  3.5395
 4029SOL     OW23722   3.956   2.203   5.109 -0.4124  0.4705  0.0032
 4029SOL    HW123723   3.914   2.243   5.033 -0.5989  0.4735  0.1080
 4029SOL    HW223724   3.990   2.280   5.154 -1.3191  1.7533 -1.5208
 4030SOL     OW23725   2.708   2.913   3.237 -0.0757 -0.2477 -0.2391
 4030SOL    HW123726   2.672   2.834   3.196 -1.2174  1.1122 -1.8215
 4030SOL    HW223727   2.649   2.929   3.311  1.7762 -1.6304  1.5533
 4031SOL     OW23728   1.266   2.023   5.329  0.3102  0.1591  0.0705
 4031SOL    HW123729   1.285   2.108   5.368 -0.5509  0.1736  0.4604
 4031SOL    HW223730   1.174   2.037   5.309  0.4793 -0.2318 -0.9495
 4032SOL     OW23731   0.807   4.588   8.540 -0.4684 -0.2395  0.0966
 4032SOL    HW123732   0.862   4.642   8.597  0.7935  0.0337 -1.3806
 4032SOL    HW223733   0.733   4.649   8.534  0.4381  1.0676  2.4567
 4033SOL     OW23734   2.098   1.946   9.763 -0.1313  0.7429 -0.0066
 4033SOL    HW123735   2.010   1.931   9.798  0.5451 -3.6846 -0.2014
 4033SOL    HW223736   2.158   1.883   9.803 -2.0631 -0.4329  1.0631
 4034SOL     OW23737   2.538   3.254   1.439  0.0898  0.3450 -0.1883
 4034SOL    HW123738   2.598   3.192   1.397 -1.0574  0.7876 -2.4990
 4034SOL    HW223739   2.591   3.329   1.466  1.5815 -0.6558 -0.3920
 4035SOL     OW23740   2.518   4.274   5.280 -0.1914  0.6280 -0.8041
 4035SOL    HW123741   2.514   4.369   5.288  0.5973  0.6599 -0.7822
 4035SOL    HW223742   2.469   4.272   5.198 -2.3027  0.7216  0.4582
 4036SOL     OW23743   0.887   4.500   3.021 -0.1374  0.1432  0.5199
 4036SOL    HW123744   0.867   4.419   2.974 -2.5345  1.2333 -0.3499
 4036SOL    HW223745   0.944   4.533   2.951 -1.2933  1.3303  0.1195
 4037SOL     OW23746   2.657   4.166  16.724 -0.1468 -0.4472 -0.2127
 4037SOL    HW123747   2.643   4.168  16.630 -2.3390  0.8090  0.1390
 4037SOL    HW223748   2.636   4.074  16.738  1.6762 -0.7367  0.6110
 4038SOL     OW23749   2.267   3.019  13.594  0.5397 -0.1549  0.6783
 4038SOL    HW123750   2.325   3.026  13.670  0.6337  0.2049  0.5707
 4038SOL    HW223751   2.300   2.944  13.545 -0.1645 -0.9635  1.4258
 4039SOL     OW23752   4.340   2.610   8.126  0.1771 -0.1599 -0.2145
 4039SOL    HW123753   4.359   2.613   8.220 -1.4507 -0.8730  0.1449
 4039SOL    HW223754   4.399   2.677   8.093 -0.5012  0.4269 -0.2235
 4040SOL     OW23755   1.841   2.573   4.388  0.0000 -0.2473  0.2351
 4040SOL    HW123756   1.909   2.633   4.356 -0.0999  0.7972  2.0313
 4040SOL    HW223757   1.812   2.539   4.303 -0.8840  2.0949 -0.3957
 4041SOL     OW23758   3.618   2.139  16.081  0.0992 -0.2620  0.1562
 4041SOL    HW123759   3.545   2.178  16.129 -1.4888  0.5103 -2.8566
 4041SOL    HW223760   3.671   2.216  16.059 -0.2704  0.2680  1.1409
 4042SOL     OW23761   3.913   1.282   3.693 -0.3930 -0.7854 -0.2425
 4042SOL    HW123762   3.881   1.210   3.747  1.9145 -1.0606  0.7511
 4042SOL    HW223763   3.902   1.246   3.606 -0.3378 -0.7493 -0.2643
 4043SOL     OW23764   3.604   4.012   6.268  0.1160 -0.1873  0.0711
 4043SOL    HW123765   3.586   4.033   6.359  0.6353  1.0234 -0.1067
 4043SOL    HW223766   3.569   4.084   6.216 -2.4024  0.2832  2.4590
 4044SOL     OW23767   4.409   3.941   7.625 -0.0747 -0.0129 -0.1586
 4044SOL    HW123768   4.496   3.978   7.641 -0.7863  0.4757  2.4201
 4044SOL    HW223769   4.405   3.991   7.544  1.9946 -0.5606 -0.6131
 4045SOL     OW23770   2.729   0.059   3.993 -0.0083  0.3694 -0.3624
 4045SOL    HW123771   2.746   0.147   3.958 -1.1371  0.3181 -1.0474
 4045SOL    HW223772   2.765   0.004   3.924 -1.4796 -0.3482 -0.5536
 4046SOL     OW23773   2.697   3.261   1.182 -0.0955 -0.3759 -0.2645
 4046SOL    HW123774   2.661   3.345   1.212  0.6410 -0.2631  0.2999
 4046SOL    HW223775   2.712   3.282   1.090 -0.0159 -0.3798 -0.2522
 4047SOL     OW23776   1.283   0.423   4.998 -0.1882  0.0148  0.2951
 4047SOL    HW123777   1.351   0.409   5.064 -0.9563 -0.4963  0.9795
 4047SOL    HW223778   1.336   0.427   4.918 -1.2794  0.6188 -0.3891
 4048SOL     OW23779   2.284   2.367   2.670 -0.3741  0.6837 -0.8815
 4048SOL    HW123780   2.371   2.359   2.709 -1.2657 -3.5465  0.2134
 4048SOL    HW223781   2.296   2.330   2.583 -0.4742 -0.3407 -0.4564
 4049SOL     OW23782   1.339   2.363   2.443  0.0163 -0.1618  0.1205
 4049SOL    HW123783   1.298   2.387   2.526 -0.2096 -0.8022  0.1940
 4049SOL    HW223784   1.423   2.407   2.458  0.4654 -0.5729 -1.2336
 4050SOL     OW23785   1.691   3.865   6.925  0.3672 -0.6107 -0.7062
 4050SOL    HW123786   1.675   3.835   7.014 -0.5020 -0.2493 -0.7389
 4050SOL    HW223787   1.784   3.881   6.942 -0.3970  0.1272  2.7595
 4051SOL     OW23788   3.921   1.081  15.739 -0.7938  0.1714  0.3577
 4051SOL    HW123789   3.966   1.005  15.776  0.4541  0.6927 -0.1001
 4051SOL    HW223790   3.945   1.075  15.646 -1.9397  0.8335  0.0250
 4052SOL     OW23791   4.146   2.092   2.250 -0.3961 -0.0938  0.2088
 4052SOL    HW123792   4.130   2.186   2.254 -3.1435 -0.4826 -1.1334
 4052SOL    HW223793   4.127   2.065   2.160 -3.0317  1.3747  0.3409
 4053SOL     OW23794   1.289   3.699   7.666  0.5462 -0.1160 -0.4725
 4053SOL    HW123795   1.323   3.659   7.746  0.9732  0.1239 -0.5336
 4053SOL    HW223796   1.329   3.650   7.594  1.9904 -2.3312  1.8718
 4054SOL     OW23797   1.487   0.140   3.876 -0.1206 -0.1592  0.4540
 4054SOL    HW123798   1.420   0.202   3.907  0.4304  0.6784 -0.0424
 4054SOL    HW223799   1.554   0.157   3.941 -0.6774 -2.0254  1.5149
 4055SOL     OW23800   0.029   2.390   5.507  0.0318 -0.2254 -0.2404
 4055SOL    HW123801   4.715   2.409   5.590 -0.1614  2.1534 -0.8814
 4055SOL    HW223802   0.023   2.476   5.465  0.5298 -0.6945 -1.2863
 4056SOL     OW23803   1.984   3.681   2.319  0.5726 -0.7766 -0.6088
 4056SOL    HW123804   2.071   3.640   2.327 -0.1097 -1.9708  0.8000
 4056SOL    HW223805   2.010   3.769   2.293 -0.8302 -0.7606 -1.9186
 4057SOL     OW23806   1.435   1.352   3.677  0.2895 -0.3356 -0.0645
 4057SOL    HW123807   1.444   1.355   3.772 -1.0171 -0.5093  0.0745
 4057SOL    HW223808   1.393   1.268   3.658 -1.3187  0.7675 -1.3593
 4058SOL     OW23809   2.424   3.169   7.879  0.1156 -0.2071  0.4578
 4058SOL    HW123810   2.385   3.256   7.891  0.1600 -0.4926  2.7776
 4058SOL    HW223811   2.429   3.135   7.969  1.9183 -1.6429 -0.1864
 4059SOL     OW23812   0.113   2.029   6.142 -0.2620 -0.1294 -0.0108
 4059SOL    HW123813   0.195   2.030   6.093  0.2354 -0.2001  0.8071
 4059SOL    HW223814   0.124   2.107   6.197 -0.8334  0.9493 -1.4341
 4060SOL     OW23815   1.862   0.597   5.353  0.3539  0.1420  0.0118
 4060SOL    HW123816   1.831   0.507   5.342  2.2053 -0.5506  0.5345
 4060SOL    HW223817   1.836   0.615   5.444  1.3436 -2.5828  0.8242
 4061SOL     OW23818   3.711   4.018  16.641  0.2340 -0.3748 -0.9386
 4061SOL    HW123819   3.731   4.019  16.734  0.8850 -0.4117 -1.0737
 4061SOL    HW223820   3.795   3.980  16.616  0.9260 -0.6562  1.8175
 4062SOL     OW23821   3.837   1.327  13.681  0.1032 -0.3589 -0.1550
 4062SOL    HW123822   3.824   1.412  13.723  0.7009 -0.5527  0.4236
 4062SOL    HW223823   3.749   1.291  13.688 -0.2891  0.3035 -1.5446
 4063SOL     OW23824   2.052   0.589   9.209  0.8641 -0.0945 -0.3668
 4063SOL    HW123825   2.137   0.572   9.168 -0.1479 -3.0542 -1.2587
 4063SOL    HW223826   2.071   0.630   9.294 -0.8997 -1.4126  0.6726
 4064SOL     OW23827   2.167   2.198   5.002 -0.0660  0.1132 -0.1307
 4064SOL    HW123828   2.159   2.272   4.942  2.9598 -0.0694 -0.7747
 4064SOL    HW223829   2.078   2.196   5.037 -0.2581 -1.2828 -0.7119
 4065SOL     OW23830   2.576   3.049   6.543  0.2828  0.3336 -0.0325
 4065SOL    HW123831   2.517   3.093   6.604  0.5181  1.4361 -0.6128
 4065SOL    HW223832   2.647   3.020   6.600 -1.2437 -1.9623  0.7114
 4066SOL     OW23833   0.809   2.023   5.490  0.0857  0.0316 -0.8267
 4066SOL    HW123834   0.834   1.944   5.537 -0.8910 -0.6020 -1.3702
 4066SOL    HW223835   0.856   2.003   5.410  0.2098  1.7802 -1.1888
 4067SOL     OW23836   3.128   1.623  11.950  0.2279  0.6181  0.3073
 4067SOL    HW123837   3.067   1.585  11.887  0.1880  1.0796  0.0668
 4067SOL    HW223838   3.083   1.698  11.988  0.1660  1.5938 -1.6615
 4068SOL     OW23839   2.105   3.162   7.705 -0.0356  0.3589 -0.2005
 4068SOL    HW123840   2.049   3.128   7.775  2.2649 -0.2636  1.3146
 4068SOL    HW223841   2.107   3.255   7.729  1.4035 -0.2393  2.0004
 4069SOL     OW23842   0.288   3.601   4.333  0.7334 -0.0539  0.0867
 4069SOL    HW123843   0.246   3.667   4.389 -1.0017 -0.9879 -0.1314
 4069SOL    HW223844   0.271   3.639   4.247 -2.2051  0.8459  1.0492
 4070SOL     OW23845   3.812   2.714  15.137 -0.2691 -0.7373 -0.3956
 4070SOL    HW123846   3.884   2.756  15.183  2.7638 -0.6485 -5.2240
 4070SOL    HW223847   3.754   2.790  15.127  1.2616  0.4089 -0.5082
 4071SOL     OW23848   3.726   2.383   1.380 -0.2690  0.1775  0.1730
 4071SOL    HW123849   3.685   2.305   1.344 -1.2651  0.6470  0.2999
 4071SOL    HW223850   3.753   2.427   1.299 -2.8965 -3.0147 -2.4551
 4072SOL     OW23851   2.671   3.461   8.094 -0.2159  0.4574  0.1641
 4072SOL    HW123852   2.716   3.471   8.179  0.0954  2.3591 -0.2189
 4072SOL    HW223853   2.615   3.538   8.098  1.6711  1.9087 -1.7886
 4073SOL     OW23854   1.783   1.629   8.940  0.0133  0.2002  0.3261
 4073SOL    HW123855   1.829   1.712   8.930  0.6608  0.1905  3.2720
 4073SOL    HW223856   1.744   1.653   9.024  0.3259  0.6056  0.3557
 4074SOL     OW23857   1.636   2.278   4.655  0.1606  0.0357  0.1959
 4074SOL    HW123858   1.645   2.197   4.605  1.3885 -0.6021  1.4525
 4074SOL    HW223859   1.545   2.279   4.682  0.1936 -0.2384  0.3119
 4075SOL     OW23860   0.986   0.221  16.762 -0.0825 -0.7615 -0.0430
 4075SOL    HW123861   0.930   0.161  16.712  1.3847 -1.8858 -0.3511
 4075SOL    HW223862   1.068   0.184  16.729  0.2197 -1.4626  1.4905
 4076SOL     OW23863   2.302   3.262   3.578  0.2120 -0.3265  0.1089
 4076SOL    HW123864   2.338   3.179   3.610  1.4715  0.2003  0.0472
 4076SOL    HW223865   2.360   3.335   3.596 -0.6187  0.8448 -1.9393
 4077SOL     OW23866   4.507   3.009   7.522  0.5772  0.1759 -0.3055
 4077SOL    HW123867   4.417   2.985   7.542  0.0496  2.5051  0.1913
 4077SOL    HW223868   4.540   3.009   7.612 -0.2450 -1.9302 -0.0194
 4078SOL     OW23869   2.334   0.985   9.480 -0.2579 -0.1711  0.2415
 4078SOL    HW123870   2.265   1.022   9.535 -1.8181 -0.9348 -1.1968
 4078SOL    HW223871   2.415   1.010   9.525 -0.6428 -0.0222  0.8431
 4079SOL     OW23872   1.041   2.028   2.494 -0.3417  0.1019  0.0867
 4079SOL    HW123873   1.057   2.027   2.589 -0.3793 -2.5744  0.0689
 4079SOL    HW223874   0.947   2.042   2.508 -0.2931 -0.5837  1.0784
 4080SOL     OW23875   0.676   3.864  17.277 -0.1474  0.4217 -0.0768
 4080SOL    HW123876   0.623   3.795  17.238  0.7630 -0.4058  0.1545
 4080SOL    HW223877   0.762   3.823  17.270 -0.7092 -0.6100 -0.9743
 4081SOL     OW23878   1.040   0.645   3.739 -0.1335 -0.4204  0.4042
 4081SOL    HW123879   1.055   0.599   3.822 -0.7104  0.9835  1.2919
 4081SOL    HW223880   1.084   0.727   3.762  0.6712 -0.1510 -2.1390
 4082SOL     OW23881   0.620   3.385   5.127 -0.3024 -0.1021  0.0264
 4082SOL    HW123882   0.665   3.302   5.143  1.2920  0.8441  0.5366
 4082SOL    HW223883   0.527   3.362   5.128 -0.4662  0.5461 -0.8184
 4083SOL     OW23884   4.321   1.160   2.290  0.0258 -0.0392  0.7976
 4083SOL    HW123885   4.358   1.233   2.240  0.4555 -1.3864 -0.8174
 4083SOL    HW223886   4.271   1.113   2.223  0.6844  2.6736 -1.6275
 4084SOL     OW23887   4.218   3.340   3.766 -0.4173 -0.2324  0.3813
 4084SOL    HW123888   4.312   3.334   3.782 -0.2944 -0.2326 -0.3536
 4084SOL    HW223889   4.187   3.365   3.853 -0.7403 -3.4560  1.2061
 4085SOL     OW23890   2.603   0.770   8.099  0.3253  0.1222  0.6409
 4085SOL    HW123891   2.656   0.836   8.053  0.8325 -2.0480 -1.8970
 4085SOL    HW223892   2.631   0.699   8.042  2.7215  1.0562  0.6656
 4086SOL     OW23893   1.109   0.366   7.749  0.1400  0.3343  0.2293
 4086SOL    HW123894   1.028   0.321   7.724  1.3314 -0.1294 -2.8921
 4086SOL    HW223895   1.108   0.368   7.844 -0.7550 -2.2954  0.2686
 4087SOL     OW23896   3.810   4.311  13.166 -0.0766  0.3776 -0.3469
 4087SOL    HW123897   3.802   4.376  13.236  2.4660 -0.8194  1.0652
 4087SOL    HW223898   3.756   4.349  13.097 -1.3395 -1.7003 -0.4848
 4088SOL     OW23899   2.058   4.040  14.825  0.7013  0.8846 -0.2100
 4088SOL    HW123900   2.015   4.125  14.825 -0.3540  0.3577  1.4285
 4088SOL    HW223901   2.108   4.054  14.745 -0.0307  0.7961 -0.6803
 4089SOL     OW23902   0.282   2.146   7.249 -0.6837 -0.4792 -0.1047
 4089SOL    HW123903   0.309   2.056   7.267 -0.2844 -0.1051  1.1611
 4089SOL    HW223904   0.232   2.165   7.329  2.2666  1.2610  1.3233
 4090SOL     OW23905   4.337   2.260  17.481  0.4181  0.1653  0.5978
 4090SOL    HW123906   4.260   2.203  17.492  1.8901 -2.0991 -0.9394
 4090SOL    HW223907   4.321   2.289  17.392  0.0983 -1.2119  0.1980
 4091SOL     OW23908   1.701   4.454   7.771  0.0579 -0.3066 -0.0427
 4091SOL    HW123909   1.738   4.484   7.688 -2.4883  0.0670 -1.0515
 4091SOL    HW223910   1.654   4.536   7.787  0.0066 -0.4659  0.6177
 4092SOL     OW23911   1.560   1.284   1.515 -0.1252  0.1877  0.3596
 4092SOL    HW123912   1.577   1.296   1.608 -0.3644  0.0892  0.4168
 4092SOL    HW223913   1.467   1.263   1.525  0.1097 -1.3269 -0.5481
 4093SOL     OW23914   0.732   4.219   0.928  0.4543 -0.2090  0.2894
 4093SOL    HW123915   0.706   4.259   0.845 -1.2078 -2.2764 -0.1706
 4093SOL    HW223916   0.654   4.170   0.954  0.8594  0.3189  2.5097
 4094SOL     OW23917   0.318   3.190   3.458 -0.2024  0.1104  0.1461
 4094SOL    HW123918   0.328   3.130   3.533 -1.8572 -1.2358 -0.7120
 4094SOL    HW223919   0.286   3.133   3.388  0.2446 -1.3843  1.1399
 4095SOL     OW23920   0.281   4.431   6.614  0.5018 -0.0246 -0.2645
 4095SOL    HW123921   0.280   4.468   6.703  0.5053  1.1818 -0.7658
 4095SOL    HW223922   0.268   4.516   6.572  0.7859  0.8273  1.3389
 4096SOL     OW23923   0.314   3.337  14.382 -0.0398 -0.6636  0.0558
 4096SOL    HW123924   0.261   3.343  14.303 -1.5638 -0.7425  1.0623
 4096SOL    HW223925   0.378   3.267  14.371  2.0672  1.2786 -0.0695
 4097SOL     OW23926   3.849   2.942   0.499  0.4752 -0.1539  0.0861
 4097SOL    HW123927   3.803   2.862   0.474 -0.7689  1.1152 -1.7062
 4097SOL    HW223928   3.903   2.956   0.421 -1.5550  0.8160 -1.1722
 4098SOL     OW23929   4.658   2.298   8.883 -0.1055  0.4769  0.0414
 4098SOL    HW123930   4.571   2.272   8.913 -0.4787  0.3747 -1.1091
 4098SOL    HW223931   4.726   2.267   8.943 -2.7605 -1.9631  1.7645
 4099SOL     OW23932   0.804   1.126  12.943  0.0410 -0.4168  0.5864
 4099SOL    HW123933   0.759   1.052  12.983 -0.3525  0.2523  1.3766
 4099SOL    HW223934   0.738   1.195  12.937  1.2963  0.6541 -1.0701
 4100SOL     OW23935   1.464   3.395   4.021  0.7113 -0.1166 -0.1756
 4100SOL    HW123936   1.447   3.377   3.928 -0.8114  1.6104 -0.2455
 4100SOL    HW223937   1.488   3.309   4.054  1.3791  0.3315  0.5239
 4101SOL     OW23938   0.150   3.380   4.225  0.5811 -0.3280  0.0283
 4101SOL    HW123939   0.220   3.435   4.260 -2.1296  2.4995  0.9886
 4101SOL    HW223940   0.080   3.434   4.261 -0.0164 -0.6448 -0.6650
 4102SOL     OW23941   4.257   3.339   6.514  0.2321 -0.7389 -0.3018
 4102SOL    HW123942   4.172   3.295   6.511  1.0435 -2.3707  0.7532
 4102SOL    HW223943   4.314   3.282   6.567 -1.2184 -0.3482  1.6600
 4103SOL     OW23944   1.950   2.309   6.837 -0.1710  0.0531  0.9908
 4103SOL    HW123945   2.008   2.261   6.897  1.5882  0.6030 -0.2614
 4103SOL    HW223946   1.939   2.245   6.767 -1.0856  0.6186  0.6219
 4104SOL     OW23947   1.789   0.741   7.743  0.3352  0.1511 -0.1384
 4104SOL    HW123948   1.720   0.734   7.809 -1.4099  1.7902 -1.7812
 4104SOL    HW223949   1.782   0.831   7.711 -2.5897  0.4506  1.3245
 4105SOL     OW23950   3.675   3.139   3.228  0.2552 -0.1381  0.1211
 4105SOL    HW123951   3.729   3.088   3.168  1.4242  0.2728  0.8142
 4105SOL    HW223952   3.594   3.087   3.225  0.3087 -0.0267 -3.1195
 4106SOL     OW23953   2.904   0.095  16.926  0.0093  0.7086  0.3890
 4106SOL    HW123954   2.985   0.124  16.969  0.7490 -0.9888  0.1578
 4106SOL    HW223955   2.887   0.011  16.970  1.1202  0.9928  1.3714
 4107SOL     OW23956   3.857   4.679   6.005  0.3515  0.1414  0.5060
 4107SOL    HW123957   3.825   4.668   6.095  1.5790  0.0328  0.9319
 4107SOL    HW223958   3.846   4.589   5.975  0.8827  0.3567 -0.3409
 4108SOL     OW23959   2.882   1.216   3.235 -0.0408  0.0889  0.2934
 4108SOL    HW123960   2.968   1.203   3.277 -0.1464 -1.0671  0.1525
 4108SOL    HW223961   2.827   1.224   3.313 -0.2928 -0.5077  0.1798
 4109SOL     OW23962   4.313   3.089  10.688  0.4921  0.0369 -0.2348
 4109SOL    HW123963   4.219   3.092  10.705  0.7479 -2.2322  1.7381
 4109SOL    HW223964   4.307   3.098  10.593 -0.9857  1.0445 -0.0378
 4110SOL     OW23965   4.156   0.584  11.889  0.2954 -0.1373 -0.5172
 4110SOL    HW123966   4.120   0.584  11.800 -2.8324 -1.0999  0.7632
 4110SOL    HW223967   4.135   0.501  11.931  1.7588  0.7570  1.9845
 4111SOL     OW23968   0.732   4.393  11.696  0.7227 -0.0438  0.1208
 4111SOL    HW123969   0.722   4.472  11.749  1.2392 -0.2569  0.5314
 4111SOL    HW223970   0.763   4.340  11.769  0.2713 -0.9439 -0.3338
 4112SOL     OW23971   4.347   2.317   6.505 -0.3610  0.0451  0.7961
 4112SOL    HW123972   4.256   2.346   6.508 -0.4410  0.1676 -3.0342
 4112SOL    HW223973   4.353   2.299   6.599  0.4355  0.1605  0.7697
 4113SOL     OW23974   1.069   2.928   1.261  0.0385  0.1697  0.1994
 4113SOL    HW123975   1.117   2.983   1.323  0.5621  0.9648 -0.9205
 4113SOL    HW223976   1.123   2.921   1.183 -1.2098  0.3720 -0.6730
 4114SOL     OW23977   0.234   0.081   8.831  0.0791 -0.6820 -0.4137
 4114SOL    HW123978   0.196   0.071   8.744 -1.0972  0.5282 -0.0372
 4114SOL    HW223979   0.288   0.160   8.825 -2.0128  0.7109 -0.8320
 4115SOL     OW23980   1.633   0.230   0.494 -0.2110  0.6410 -0.6589
 4115SOL    HW123981   1.645   0.188   0.579  0.6955  3.3378  0.5583
 4115SOL    HW223982   1.540   0.255   0.492 -0.4265 -0.0468  1.0391
 4116SOL     OW23983   1.353   3.976   7.020 -0.3793  0.0630 -0.1332
 4116SOL    HW123984   1.440   4.009   6.997  0.4580 -1.4394  0.8537
 4116SOL    HW223985   1.341   4.018   7.104  2.4104  1.2326 -0.3241
 4117SOL     OW23986   4.217   1.545   9.608  0.6967  0.4597 -0.0068
 4117SOL    HW123987   4.286   1.482   9.630 -0.8375 -0.8507  1.1325
 4117SOL    HW223988   4.139   1.488   9.613  1.2808 -0.3556 -0.1603
 4118SOL     OW23989   3.319   0.981   6.677  0.0302  0.9393  0.1213
 4118SOL    HW123990   3.408   1.016   6.677 -0.4587  2.1798  1.6377
 4118SOL    HW223991   3.280   1.029   6.750  0.3008  0.7050  0.4189
 4119SOL     OW23992   2.702   4.232   7.340  0.0492 -0.0633  0.3788
 4119SOL    HW123993   2.713   4.198   7.428  2.6898  1.4188  0.5992
 4119SOL    HW223994   2.781   4.203   7.294 -1.0250 -0.1488 -1.4155
 4120SOL     OW23995   1.742   3.640  16.028  0.1579 -0.9375  0.3517
 4120SOL    HW123996   1.759   3.546  16.034 -0.1317 -0.9721  0.6221
 4120SOL    HW223997   1.813   3.669  15.970  0.1161  0.6691  1.1028
 4121SOL     OW23998   4.073   3.610   3.221 -0.3399  0.0034 -0.1458
 4121SOL    HW123999   4.124   3.530   3.227 -0.4676 -0.2438 -2.2192
 4121SOL    HW224000   4.104   3.635   3.134 -0.1561  0.4979  0.0628
 4122SOL     OW24001   3.659   3.079   6.278 -0.4753 -0.9532  0.0895
 4122SOL    HW124002   3.732   3.022   6.298  0.8807  0.1646 -1.6798
 4122SOL    HW224003   3.602   3.059   6.352 -1.2559  1.3911  0.1434
 4123SOL     OW24004   3.003   2.056   8.722 -0.2473  0.4915  0.0330
 4123SOL    HW124005   2.970   1.966   8.726  1.1834 -0.0081  0.3480
 4123SOL    HW224006   3.069   2.054   8.791  0.0680 -1.3536 -0.3033
 4124SOL     OW24007   4.067   2.010   0.097  0.3384  0.6754  0.4432
 4124SOL    HW124008   4.070   2.065   0.176 -1.6919 -0.4992  1.3231
 4124SOL    HW224009   3.976   1.982   0.101  0.3389  0.6110 -0.0552
 4125SOL     OW24010   2.925   3.877   8.471  0.5183 -0.3877  0.1150
 4125SOL    HW124011   2.946   3.970   8.460 -0.5871  0.1033  2.1163
 4125SOL    HW224012   2.836   3.878   8.506  0.7085 -0.6612  0.5998
 4126SOL     OW24013   1.240   4.353   3.931  0.3883 -0.3013  0.2798
 4126SOL    HW124014   1.284   4.268   3.930  0.2656 -0.3740  0.8571
 4126SOL    HW224015   1.156   4.329   3.969  0.4794 -0.2126  0.5410
 4127SOL     OW24016   4.253   1.643   5.859  0.3575 -0.3961 -0.0488
 4127SOL    HW124017   4.269   1.551   5.879  2.2932 -0.0787 -0.1132
 4127SOL    HW224018   4.337   1.688   5.852 -0.9577  1.9146 -1.1088
 4128SOL     OW24019   3.682   2.273   7.116  0.4944  0.3324  0.5119
 4128SOL    HW124020   3.773   2.303   7.118  0.4895  0.1524  3.2412
 4128SOL    HW224021   3.628   2.350   7.133 -0.7707 -0.0317 -1.7967
 4129SOL     OW24022   0.350   0.585   6.370  0.5095 -0.4095 -0.2829
 4129SOL    HW124023   0.321   0.647   6.437  0.1461 -1.8342  0.8566
 4129SOL    HW224024   0.436   0.610   6.336 -0.3818  3.5943  0.3753
 4130SOL     OW24025   0.439   3.057   2.029  0.0488 -0.1740 -0.9519
 4130SOL    HW124026   0.530   3.047   2.059 -0.6266  0.8207  1.4184
 4130SOL    HW224027   0.453   3.035   1.937 -0.2320  0.6556 -1.1884
 4131SOL     OW24028   4.351   0.848   5.127  0.2503 -0.0108 -0.5673
 4131SOL    HW124029   4.419   0.854   5.193 -0.4256  1.1109  0.0299
 4131SOL    HW224030   4.367   0.759   5.096 -1.0118 -0.1617 -0.8110
 4132SOL     OW24031   4.681   1.913   2.627  0.1117 -0.2641 -0.6525
 4132SOL    HW124032   4.633   1.831   2.615 -0.6881  0.3245 -1.4307
 4132SOL    HW224033   4.608   1.974   2.635 -0.5483 -1.0216 -0.9126
 4133SOL     OW24034   4.716   3.898   3.557  0.0153 -0.0562 -0.4219
 4133SOL    HW124035   0.079   3.900   3.532 -0.0304  1.3797 -0.4798
 4133SOL    HW224036   4.708   3.989   3.584 -2.4129 -0.6495  0.9043
 4134SOL     OW24037   3.390   1.627   1.543  0.6902 -0.0157 -0.0955
 4134SOL    HW124038   3.406   1.695   1.609  0.1605 -0.3343  0.3651
 4134SOL    HW224039   3.385   1.683   1.466  0.5012  1.5620  1.0715
 4135SOL     OW24040   3.530   4.400   2.727  0.7699 -0.8866  0.3439
 4135SOL    HW124041   3.579   4.479   2.749 -0.9451  0.0611  0.7655
 4135SOL    HW224042   3.573   4.379   2.645 -0.3009 -1.8447  0.0345
 4136SOL     OW24043   4.299   1.844  15.757  0.3182  0.0836  0.2663
 4136SOL    HW124044   4.346   1.762  15.766 -1.5943 -1.0155  0.3911
 4136SOL    HW224045   4.305   1.881  15.846  0.7813 -0.7175  0.5578
 4137SOL     OW24046   3.993   2.975   7.627 -0.3550  0.7275  0.4780
 4137SOL    HW124047   3.918   3.035   7.633  0.5081  1.9522 -1.0879
 4137SOL    HW224048   3.974   2.924   7.706 -1.2767  0.9063  0.3755
 4138SOL     OW24049   0.820   3.743   4.112  0.2333  0.1270 -0.5054
 4138SOL    HW124050   0.835   3.668   4.055 -0.2203 -1.1970  1.1069
 4138SOL    HW224051   0.733   3.774   4.089  1.4121  3.1623 -0.8273
 4139SOL     OW24052   1.354   1.953  14.912 -0.2535 -0.8580  0.0992
 4139SOL    HW124053   1.281   1.986  14.965  1.1522  0.4789  1.2144
 4139SOL    HW224054   1.309   1.883  14.865 -0.7176 -0.9329  0.6533
 4140SOL     OW24055   1.807   0.643   7.195 -0.4070 -0.1209 -0.1977
 4140SOL    HW124056   1.813   0.645   7.100  1.2868  1.5653 -0.0566
 4140SOL    HW224057   1.731   0.593   7.225 -0.3020 -1.7337 -2.6558
 4141SOL     OW24058   0.837   2.681   4.318  0.1438 -0.7366 -0.4016
 4141SOL    HW124059   0.797   2.596   4.302  2.5472 -2.3222  1.9961
 4141SOL    HW224060   0.930   2.658   4.321  0.1235 -0.3987  2.1152
 4142SOL     OW24061   0.611   1.820   2.179  0.1641 -0.1350 -0.0289
 4142SOL    HW124062   0.590   1.912   2.195  2.0874  0.1302  0.9707
 4142SOL    HW224063   0.707   1.819   2.169  0.2896  0.0346  1.1879
 4143SOL     OW24064   0.420   2.059   2.251  0.3885  0.1572  0.1265
 4143SOL    HW124065   0.385   2.073   2.163 -0.5885 -1.1716  0.3047
 4143SOL    HW224066   0.349   2.089   2.309 -0.4856  1.4190 -1.5864
 4144SOL     OW24067   1.796   0.886   4.779 -1.1756 -0.1770  0.0004
 4144SOL    HW124068   1.734   0.940   4.730 -0.4823  2.0180  1.5664
 4144SOL    HW224069   1.794   0.923   4.867 -0.7073 -1.0211  0.3671
 4145SOL     OW24070   0.558   3.216   6.980 -0.1140  0.2387  0.0470
 4145SOL    HW124071   0.592   3.305   6.965 -2.9247  1.1585 -0.7749
 4145SOL    HW224072   0.619   3.182   7.046  1.3331  0.5781 -1.0984
 4146SOL     OW24073   0.236   3.950   3.458  0.1379  0.0077  0.7186
 4146SOL    HW124074   0.251   3.909   3.373  0.2804 -0.7179  1.0909
 4146SOL    HW224075   0.311   3.916   3.507 -0.4837 -0.0879  1.6003
 4147SOL     OW24076   3.685   1.788   7.815  0.2016 -0.5486  0.1775
 4147SOL    HW124077   3.702   1.857   7.751 -2.4199 -0.2991 -0.2543
 4147SOL    HW224078   3.649   1.844   7.883 -0.2473  0.0561 -0.5603
 4148SOL     OW24079   2.910   1.998   6.665  0.2428  0.1792 -0.0328
 4148SOL    HW124080   2.945   1.970   6.750 -1.2812  1.7523  1.1345
 4148SOL    HW224081   2.827   2.044   6.683 -0.5782 -0.7887 -1.3228
 4149SOL     OW24082   3.031   4.404   6.107  0.1090  0.0009  0.0473
 4149SOL    HW124083   3.060   4.455   6.183  2.6034 -1.0381 -0.1980
 4149SOL    HW224084   2.957   4.456   6.078  1.7206  1.2107 -1.8951
 4150SOL     OW24085   2.049   3.004   9.355  0.4253 -0.3938  0.3280
 4150SOL    HW124086   1.971   2.954   9.376  1.4061 -1.6706  0.9220
 4150SOL    HW224087   2.111   2.986   9.425  0.6001  0.0801  0.2944
 4151SOL     OW24088   3.059   2.286   1.391  0.1177 -0.7893  0.0997
 4151SOL    HW124089   3.101   2.359   1.438 -1.8452  0.1647  0.3511
 4151SOL    HW224090   2.986   2.332   1.351  0.7195 -0.5926 -0.7800
 4152SOL     OW24091   3.813   2.341   0.459 -0.4703  0.1985 -0.4385
 4152SOL    HW124092   3.735   2.292   0.433  0.3116 -0.4723 -1.4764
 4152SOL    HW224093   3.824   2.322   0.553 -1.8398  0.0409 -0.2993
 4153SOL     OW24094   2.822   0.668   6.516  0.0124  0.1421  0.4299
 4153SOL    HW124095   2.790   0.647   6.429  0.8072  1.1210 -0.0952
 4153SOL    HW224096   2.887   0.736   6.495 -1.1417  1.4816  1.1862
 4154SOL     OW24097   1.409   1.568   6.488  0.9648  1.2301  0.3499
 4154SOL    HW124098   1.462   1.610   6.421  1.8910 -0.6686 -0.1041
 4154SOL    HW224099   1.459   1.494   6.521 -2.7793 -0.0335  3.2492
 4155SOL     OW24100   0.687   0.438   7.914 -0.0961  0.4780  0.5919
 4155SOL    HW124101   0.717   0.510   7.860  0.3192 -0.5593 -0.5584
 4155SOL    HW224102   0.768   0.399   7.947 -1.1476 -0.8269  1.6652
 4156SOL     OW24103   3.531   0.935  11.198  0.0399  0.2788  0.0174
 4156SOL    HW124104   3.529   0.926  11.103 -1.0071 -1.0647  0.1795
 4156SOL    HW224105   3.475   1.011  11.216 -0.7370  0.1998 -2.0739
 4157SOL     OW24106   0.250   1.977   9.009  0.5356  0.1053  0.7899
 4157SOL    HW124107   0.208   1.910   8.956  1.0264  1.0348 -0.7835
 4157SOL    HW224108   0.320   1.996   8.947  0.6188 -0.5066  0.6980
 4158SOL     OW24109   2.408   1.780   3.238  0.2512 -0.1561  0.0340
 4158SOL    HW124110   2.414   1.685   3.248 -1.5907 -0.2997 -0.1836
 4158SOL    HW224111   2.416   1.816   3.327  1.7662  1.5473 -0.8091
 4159SOL     OW24112   3.325   0.579   6.238  0.3874 -1.1200  0.2788
 4159SOL    HW124113   3.418   0.588   6.218 -0.1261 -2.6368 -2.7922
 4159SOL    HW224114   3.316   0.490   6.202 -1.9630 -0.8047  0.0984
 4160SOL     OW24115   2.885   1.042   3.525 -0.4518 -0.1402 -0.4055
 4160SOL    HW124116   2.970   1.079   3.501 -0.8884  1.3954  0.3553
 4160SOL    HW224117   2.902   1.019   3.616  2.0798 -0.4369 -0.9469
 4161SOL     OW24118   1.188   0.694   7.722 -0.5867  0.0761  0.2886
 4161SOL    HW124119   1.242   0.696   7.801 -1.8111  0.3148  1.1216
 4161SOL    HW224120   1.100   0.677   7.756 -1.8019 -0.6790 -3.2296
 4162SOL     OW24121   0.958   1.372  10.119 -0.0022 -0.0704  0.7079
 4162SOL    HW124122   0.943   1.306  10.186  1.2319 -1.5687 -0.4974
 4162SOL    HW224123   0.971   1.448  10.176  1.4938  0.4244 -0.2894
 4163SOL     OW24124   2.473   3.472  10.876 -0.0522 -0.3818 -0.8283
 4163SOL    HW124125   2.542   3.517  10.925 -0.3585 -2.7160  1.7513
 4163SOL    HW224126   2.416   3.543  10.846  0.5362 -0.0046 -1.0522
 4164SOL     OW24127   0.757   1.602  16.201  0.1836  0.0444 -0.1057
 4164SOL    HW124128   0.705   1.523  16.218 -1.5641  1.3317  0.5887
 4164SOL    HW224129   0.790   1.577  16.115  2.7173  3.2486 -0.0585
 4165SOL     OW24130   0.729   2.425  13.983 -0.2371  0.7819 -0.1930
 4165SOL    HW124131   0.819   2.434  13.952 -0.1867  1.9429  0.2845
 4165SOL    HW224132   0.727   2.498  14.045 -0.6450 -0.1201  0.8454
 4166SOL     OW24133   2.691   4.142  12.537  0.0604 -0.7246 -0.1070
 4166SOL    HW124134   2.641   4.214  12.577 -0.4644 -0.3577 -1.3993
 4166SOL    HW224135   2.636   4.130  12.459 -0.3703 -0.5908  0.1738
 4167SOL     OW24136   1.399   3.248  12.690 -0.1848  0.3705 -0.4016
 4167SOL    HW124137   1.476   3.191  12.684 -0.9134 -0.3462 -3.1220
 4167SOL    HW224138   1.460   3.319  12.714 -0.6903  0.7224 -0.1676
 4168SOL     OW24139   3.812   3.708   5.305 -0.3369  0.2287 -0.2314
 4168SOL    HW124140   3.737   3.705   5.246  0.8373 -0.8136 -1.6500
 4168SOL    HW224141   3.857   3.786   5.272  2.3992 -1.4298 -0.4072
 4169SOL     OW24142   2.429   0.731   8.633  0.0230  0.5202 -0.0814
 4169SOL    HW124143   2.401   0.718   8.543  0.2331 -0.5917  0.0051
 4169SOL    HW224144   2.363   0.797   8.654  1.5792  0.9389  3.5870
 4170SOL     OW24145   0.505   0.394  15.305  0.2141  0.4118 -0.0818
 4170SOL    HW124146   0.507   0.373  15.399 -1.7404 -0.3297 -0.2194
 4170SOL    HW224147   0.566   0.332  15.266 -0.7598 -0.3018 -0.4414
 4171SOL     OW24148   3.460   1.928   2.683  0.7283 -0.4113  0.7647
 4171SOL    HW124149   3.497   1.901   2.768 -1.3928 -1.8021  1.2330
 4171SOL    HW224150   3.419   2.014   2.698  0.9531  0.0662 -1.4111
 4172SOL     OW24151   4.542   4.556   4.152  0.5788 -0.0464 -0.4596
 4172SOL    HW124152   4.607   4.615   4.190 -0.6182  0.3169  1.0157
 4172SOL    HW224153   4.466   4.581   4.204  0.7200 -1.2872  0.3358
 4173SOL     OW24154   3.992   2.812   4.484 -0.0692 -0.4342 -0.7959
 4173SOL    HW124155   3.902   2.832   4.513 -0.0380 -0.9422 -0.3492
 4173SOL    HW224156   3.996   2.725   4.524  1.5208  1.3876  3.0287
 4174SOL     OW24157   4.498   0.210   7.590 -0.3905 -0.4837  0.3356
 4174SOL    HW124158   4.432   0.142   7.604 -2.2694  0.8513 -2.0712
 4174SOL    HW224159   4.441   0.285   7.606 -0.3258 -0.0733 -1.3905
 4175SOL     OW24160   0.451   3.458  12.198  0.1093 -0.3460 -0.0999
 4175SOL    HW124161   0.528   3.477  12.144 -0.1585  0.4314 -0.1968
 4175SOL    HW224162   0.468   3.502  12.282 -1.8444  0.6143 -0.2268
 4176SOL     OW24163   1.577   4.410   6.095  0.1612 -0.3758  0.0840
 4176SOL    HW124164   1.499   4.431   6.044  1.0550 -1.6632 -1.8297
 4176SOL    HW224165   1.630   4.356   6.036  1.0028 -0.1846  0.6681
 4177SOL     OW24166   3.609   2.740   1.484  0.2642  0.0710 -0.0390
 4177SOL    HW124167   3.619   2.831   1.514 -0.6025  0.9022 -2.2747
 4177SOL    HW224168   3.540   2.751   1.418 -0.7825 -0.3028  0.9940
 4178SOL     OW24169   2.966   1.784   3.313 -0.0609  0.0788 -0.1401
 4178SOL    HW124170   2.963   1.792   3.408 -0.5023 -2.9643  0.1053
 4178SOL    HW224171   2.989   1.872   3.286 -3.8606  1.0708 -0.2041
 4179SOL     OW24172   2.555   4.500   5.536  0.0137 -0.0223 -0.3040
 4179SOL    HW124173   2.603   4.580   5.513 -1.8085  0.7667 -1.3529
 4179SOL    HW224174   2.505   4.535   5.609  1.9633  2.9038 -0.3548
 4180SOL     OW24175   3.931   4.046   4.159 -0.3229 -0.0319 -0.2699
 4180SOL    HW124176   3.848   4.054   4.113 -1.3851 -3.0733  1.1067
 4180SOL    HW224177   3.921   3.960   4.200 -1.2218 -0.4016 -1.2547
 4181SOL     OW24178   3.765   0.724  16.930 -0.0523  0.1423 -0.1057
 4181SOL    HW124179   3.726   0.638  16.947  2.4778 -0.8537  0.7611
 4181SOL    HW224180   3.701   0.785  16.966  4.0669  2.4658  3.1985
 4182SOL     OW24181   0.734   1.927  11.507  0.2871 -0.8940  0.1146
 4182SOL    HW124182   0.752   1.871  11.582  0.8373  0.5695  1.0822
 4182SOL    HW224183   0.710   2.015  11.539 -3.1693 -1.0321 -2.0719
 4183SOL     OW24184   3.951   4.329   7.264  0.1983  0.7721  0.1860
 4183SOL    HW124185   3.993   4.398   7.212  1.4432  1.5287  2.2087
 4183SOL    HW224186   4.016   4.260   7.278  0.0381  0.4714 -0.5473
 4184SOL     OW24187   1.234   3.527   4.496  0.3709 -0.2166 -0.9559
 4184SOL    HW124188   1.242   3.515   4.591 -1.7019 -1.6843 -0.9562
 4184SOL    HW224189   1.199   3.616   4.486  1.9670  0.5190  0.0043
 4185SOL     OW24190   1.479   2.469  11.773 -0.0238 -1.1085  0.4377
 4185SOL    HW124191   1.471   2.375  11.789  0.3013 -0.7450  2.6725
 4185SOL    HW224192   1.389   2.495  11.793  0.2236 -1.5347  2.1409
 4186SOL     OW24193   3.607   2.668  12.492  0.5318  0.1894  0.0663
 4186SOL    HW124194   3.570   2.605  12.430  0.7529  0.0661  0.0582
 4186SOL    HW224195   3.699   2.642  12.484  0.3281 -0.6679  0.5458
 4187SOL     OW24196   3.904   1.181   4.858  0.2435 -0.0305  0.5027
 4187SOL    HW124197   3.846   1.254   4.835  0.4738  0.2148  0.7014
 4187SOL    HW224198   3.837   1.113   4.871 -0.9750  1.3169  1.2704
 4188SOL     OW24199   2.228   3.587  13.374  0.0897 -0.4591 -0.0289
 4188SOL    HW124200   2.177   3.515  13.410 -0.7531  0.4084  0.4796
 4188SOL    HW224201   2.290   3.526  13.333 -0.1479 -1.1723  0.6829
 4189SOL     OW24202   2.061   0.992   6.578  0.4290  0.2692  0.2101
 4189SOL    HW124203   2.113   1.058   6.532  2.3109 -0.9152  0.6240
 4189SOL    HW224204   2.133   0.940   6.614 -0.3694  0.5123  2.1138
 4190SOL     OW24205   0.292   3.552  14.832 -0.0099 -0.4769  0.3163
 4190SOL    HW124206   0.234   3.478  14.847  0.8585 -1.0508  0.8063
 4190SOL    HW224207   0.367   3.528  14.886  0.3643 -0.4528 -0.1968
 4191SOL     OW24208   1.807   4.455   5.709  0.6465 -0.1302  0.3337
 4191SOL    HW124209   1.862   4.400   5.654  1.7944  3.5338 -2.1798
 4191SOL    HW224210   1.859   4.533   5.731  2.8240 -0.8319 -2.3562
 4192SOL     OW24211   0.549   3.498   1.490 -0.1419  0.3806 -0.2820
 4192SOL    HW124212   0.554   3.430   1.557 -0.4499 -1.3057 -1.9601
 4192SOL    HW224213   0.636   3.484   1.452 -0.0911 -1.0769  0.3826
 4193SOL     OW24214   2.364   2.622  15.249 -0.1633  0.3982 -0.1746
 4193SOL    HW124215   2.421   2.566  15.195 -0.8185  1.0540 -1.5498
 4193SOL    HW224216   2.279   2.585  15.224  0.9519 -1.5475 -1.0863
 4194SOL     OW24217   4.056   1.291   4.153 -0.0584  0.9570 -0.7095
 4194SOL    HW124218   4.085   1.200   4.146 -4.5400 -0.5724 -0.0561
 4194SOL    HW224219   4.051   1.320   4.062 -0.7790 -1.7255 -1.5231
 4195SOL     OW24220   3.882   2.469   7.178  0.0280 -0.0813  0.3123
 4195SOL    HW124221   3.796   2.507   7.195 -0.7903 -2.5012  1.4699
 4195SOL    HW224222   3.921   2.515   7.252 -0.8014  2.4015 -0.7771
 4196SOL     OW24223   2.813   3.905  12.981  0.2410 -0.6612 -0.4823
 4196SOL    HW124224   2.843   3.992  13.007 -0.7334 -0.4118 -0.1689
 4196SOL    HW224225   2.802   3.931  12.890 -0.8695 -3.1122 -1.0489
 4197SOL     OW24226   0.144   1.776   8.848 -0.2371 -0.7426  0.4032
 4197SOL    HW124227   0.085   1.826   8.792  0.9336  0.5309  0.2902
 4197SOL    HW224228   0.089   1.712   8.892  1.4478 -2.7341 -0.4089
 4198SOL     OW24229   0.293   2.046   9.550 -0.1703 -0.4823  0.2264
 4198SOL    HW124230   0.270   2.026   9.460 -2.7159 -1.4770  1.0990
 4198SOL    HW224231   0.371   2.100   9.535 -0.1112 -0.4288  0.7252
 4199SOL     OW24232   2.657   3.401   4.744 -0.5493  0.3089  0.0729
 4199SOL    HW124233   2.699   3.467   4.799  0.0545 -0.0025 -0.0111
 4199SOL    HW224234   2.597   3.368   4.811  0.9892 -1.5393  0.5232
 4200SOL     OW24235   0.587   0.448  13.159 -0.1049  0.0035  0.0776
 4200SOL    HW124236   0.496   0.477  13.151  0.5865  1.7396 -1.4153
 4200SOL    HW224237   0.600   0.395  13.080 -1.0974 -2.0012  1.2476
 4201SOL     OW24238   3.656   0.994   5.305  0.5146  0.6250 -0.3457
 4201SOL    HW124239   3.589   1.059   5.284  0.1311  0.4882  0.4547
 4201SOL    HW224240   3.737   1.041   5.324  2.6523 -2.3311 -2.1821
 4202SOL     OW24241   2.322   0.607   8.395 -0.6035  0.2189  0.1536
 4202SOL    HW124242   2.266   0.553   8.451  0.4688  0.0169  1.0289
 4202SOL    HW224243   2.390   0.547   8.365 -0.1022  1.4459 -1.1575
 4203SOL     OW24244   3.796   3.410   1.342  0.2006  0.0555 -0.1101
 4203SOL    HW124245   3.814   3.461   1.262 -0.4646  0.0168 -0.2860
 4203SOL    HW224246   3.841   3.458   1.411  1.3084 -2.7794  1.1395
 4204SOL     OW24247   2.335   1.394   2.279  0.3236 -0.3816  0.5453
 4204SOL    HW124248   2.303   1.456   2.344  1.5246  0.6170  0.1905
 4204SOL    HW224249   2.390   1.334   2.329  2.4582  1.6059  0.5893
 4205SOL     OW24250   3.333   3.829   6.701  0.0298 -0.2176  0.1559
 4205SOL    HW124251   3.419   3.791   6.719  0.2384  0.5831  0.8583
 4205SOL    HW224252   3.353   3.919   6.726 -1.1063 -0.3637  1.6247
 4206SOL     OW24253   3.079   2.885   1.227  0.1989 -0.0891 -0.5318
 4206SOL    HW124254   2.987   2.911   1.228  0.0130 -0.6899 -2.6423
 4206SOL    HW224255   3.098   2.806   1.176 -0.7956 -1.4483  1.1612
 4207SOL     OW24256   0.266   1.140   2.811 -0.0978 -0.1680 -0.0395
 4207SOL    HW124257   0.177   1.169   2.792 -0.2090 -0.7804 -0.4754
 4207SOL    HW224258   0.311   1.184   2.739  3.3825 -1.8662  1.0892
 4208SOL     OW24259   0.296   4.258   4.512 -0.1153 -0.0524  0.1513
 4208SOL    HW124260   0.207   4.292   4.523  0.5511  1.3923  1.0836
 4208SOL    HW224261   0.298   4.209   4.430 -0.3726 -0.0132  0.1221
 4209SOL     OW24262   0.191   2.247   2.191  0.2674  0.3729 -0.0171
 4209SOL    HW124263   0.134   2.321   2.170  3.4038  2.8773  0.3324
 4209SOL    HW224264   0.273   2.294   2.208  0.7746 -1.0573  1.4864
 4210SOL     OW24265   2.026   2.434   1.653 -0.7159 -0.1669 -0.2110
 4210SOL    HW124266   1.956   2.379   1.688 -2.9662  2.2258 -0.9110
 4210SOL    HW224267   2.012   2.516   1.701 -2.3453 -0.6907  0.2094
 4211SOL     OW24268   4.027   0.034   4.739 -0.1749 -0.2053 -0.1069
 4211SOL    HW124269   4.017   0.124   4.772 -1.3464 -0.4435  0.1913
 4211SOL    HW224270   3.991   4.726   4.819  0.8899 -0.6925  0.1403
 4212SOL     OW24271   3.265   1.259   5.456  0.0894  0.0950  0.4036
 4212SOL    HW124272   3.341   1.268   5.398  1.4764 -1.0152  2.0517
 4212SOL    HW224273   3.304   1.206   5.526  2.1213  1.3085  0.1953
 4213SOL     OW24274   0.888   2.879  16.578  0.0429  0.0825 -0.2900
 4213SOL    HW124275   0.829   2.809  16.549 -0.7013  0.0696  1.2817
 4213SOL    HW224276   0.833   2.957  16.578 -1.9665 -1.3461 -0.1455
 4214SOL     OW24277   1.403   2.217   4.808  0.7536  0.6364  0.3933
 4214SOL    HW124278   1.434   2.137   4.850 -1.0718 -0.4082 -0.2948
 4214SOL    HW224279   1.360   2.261   4.882 -1.3162  0.0469 -0.4677
 4215SOL     OW24280   2.107   4.231   5.060 -0.2408  0.6311 -0.0213
 4215SOL    HW124281   2.024   4.222   5.013 -0.0674  0.9337 -0.3930
 4215SOL    HW224282   2.125   4.321   5.036 -0.0483  0.8265  0.8793
 4216SOL     OW24283   0.792   0.951   9.517  0.0341  0.2327 -0.5901
 4216SOL    HW124284   0.873   0.900   9.515 -0.4548 -0.5709  0.0387
 4216SOL    HW224285   0.789   0.974   9.610 -1.6413  0.2872 -0.6628
 4217SOL     OW24286   0.939   2.078  14.742  0.0544 -0.4625 -0.5500
 4217SOL    HW124287   1.007   2.073  14.809  1.6558  0.3764 -2.0921
 4217SOL    HW224288   0.916   2.170  14.748  1.0804 -0.1688 -0.9916
 4218SOL     OW24289   1.177   0.584  10.864 -0.8802  0.3097 -0.1991
 4218SOL    HW124290   1.086   0.554  10.853 -0.1341 -1.3023 -2.0564
 4218SOL    HW224291   1.157   0.664  10.913 -1.6889 -0.4019  0.6421
 4219SOL     OW24292   3.687   2.578   2.445 -0.3968  0.3061 -0.5768
 4219SOL    HW124293   3.684   2.497   2.393  2.3511  1.5252 -2.6129
 4219SOL    HW224294   3.631   2.562   2.521  0.5420  1.6656  0.4113
 4220SOL     OW24295   4.162   3.121   1.576  0.0573  0.3234  0.1142
 4220SOL    HW124296   4.218   3.045   1.563 -2.1676 -0.8816 -2.4102
 4220SOL    HW224297   4.229   3.190   1.577 -0.8668  1.2435 -1.6921
 4221SOL     OW24298   4.240   3.512   2.181  0.5989 -0.5826 -0.4317
 4221SOL    HW124299   4.321   3.533   2.227  0.1449 -2.4366  1.2182
 4221SOL    HW224300   4.263   3.446   2.115  0.2384 -1.1429  0.0040
 4222SOL     OW24301   1.708   1.750   9.193 -0.3798  0.2783 -0.5446
 4222SOL    HW124302   1.762   1.825   9.219 -1.8324  1.1726 -0.0843
 4222SOL    HW224303   1.694   1.704   9.276 -0.1244  1.8869  0.3857
 4223SOL     OW24304   1.263   2.727   7.752 -0.2944  0.0142  0.5350
 4223SOL    HW124305   1.236   2.813   7.783 -0.8269 -1.2136  3.5233
 4223SOL    HW224306   1.187   2.702   7.698  1.1635  0.0736 -1.5228
 4224SOL     OW24307   1.858   2.778   6.397  0.2555  0.0604  0.0735
 4224SOL    HW124308   1.854   2.872   6.417 -1.6397 -0.2157  1.0200
 4224SOL    HW224309   1.768   2.758   6.370  0.3729  0.1373 -0.3808
 4225SOL     OW24310   4.160   1.032   9.584 -0.5862  0.3313  0.6943
 4225SOL    HW124311   4.247   1.062   9.556  0.0724 -1.6475  0.6460
 4225SOL    HW224312   4.097   1.096   9.548  1.1344  0.9857 -1.2031
 4226SOL     OW24313   4.237   4.242  10.771 -0.4154 -0.5049  0.0449
 4226SOL    HW124314   4.259   4.290  10.691 -0.1877 -2.5211 -1.1182
 4226SOL    HW224315   4.323   4.247  10.813 -1.6813  1.3007  2.3734
 4227SOL     OW24316   0.797   0.320   1.880  0.2554 -0.5624  0.5949
 4227SOL    HW124317   0.781   0.279   1.795 -2.9065  0.9303  0.4799
 4227SOL    HW224318   0.711   0.344   1.915  0.0577  0.8985 -0.8920
 4228SOL     OW24319   3.360   1.929   3.551  0.2201 -0.5835  0.0417
 4228SOL    HW124320   3.421   1.984   3.503  0.0680  0.1638  0.6922
 4228SOL    HW224321   3.378   1.954   3.642  1.4395  2.2649 -0.9975
 4229SOL     OW24322   0.045   3.583   7.403 -0.3402 -0.1318 -0.3171
 4229SOL    HW124323   0.037   3.623   7.316  2.2521 -1.0083 -0.9701
 4229SOL    HW224324   4.683   3.579   7.431 -0.0789  2.1096  0.7705
 4230SOL     OW24325   3.699   0.843   1.543 -0.3083  0.2332  0.2747
 4230SOL    HW124326   3.648   0.803   1.473 -1.2202  3.7779 -1.0922
 4230SOL    HW224327   3.699   0.779   1.614  2.4125  2.6938  2.5101
 4231SOL     OW24328   1.468   1.142   5.640  0.2968 -0.2137 -0.4810
 4231SOL    HW124329   1.480   1.153   5.545 -0.3832 -0.3485 -0.5827
 4231SOL    HW224330   1.372   1.143   5.638  0.2871  0.7796  0.3019
 4232SOL     OW24331   4.411   3.454   4.416 -0.1731  0.2052  0.1787
 4232SOL    HW124332   4.374   3.393   4.352 -2.0972  2.2724 -0.6447
 4232SOL    HW224333   4.407   3.404   4.498  1.0329 -0.6399 -0.2752
 4233SOL     OW24334   2.874   3.771   5.271  0.3172 -0.3176 -0.0195
 4233SOL    HW124335   2.925   3.829   5.327 -0.6824  0.4686  0.0837
 4233SOL    HW224336   2.913   3.788   5.185 -0.4099  2.5863  0.2218
 4234SOL     OW24337   0.501   2.340  13.344 -0.7331 -0.2543  0.0816
 4234SOL    HW124338   0.430   2.304  13.397 -0.0209 -1.0425  0.5017
 4234SOL    HW224339   0.510   2.432  13.367  0.3487 -0.2983 -0.1711
 4235SOL     OW24340   3.171   3.971   5.796  0.1569 -0.2885 -0.7266
 4235SOL    HW124341   3.096   3.913   5.807 -0.3390  0.9995  2.7850
 4235SOL    HW224342   3.141   4.044   5.850  0.1938 -1.1627  0.4618
 4236SOL     OW24343   0.477   4.481   2.905  0.1595 -0.0355  0.0259
 4236SOL    HW124344   0.405   4.543   2.917 -0.4263 -0.9646  1.3083
 4236SOL    HW224345   0.483   4.445   2.994 -2.8237 -1.6401 -0.4331
 4237SOL     OW24346   0.862   1.979   3.051  0.1654 -0.5425  0.2898
 4237SOL    HW124347   0.891   2.062   3.089 -2.9839 -0.0167  1.6046
 4237SOL    HW224348   0.806   2.011   2.980 -1.2625 -0.4462  1.4608
 4238SOL     OW24349   0.967   3.166   4.933  0.0831  0.1133 -0.1188
 4238SOL    HW124350   0.959   3.079   4.893  2.3048  0.2778 -0.9369
 4238SOL    HW224351   0.900   3.203   4.876 -1.9219 -0.1312  2.0598
 4239SOL     OW24352   4.274   3.778   2.735  0.0033  0.3646  0.3120
 4239SOL    HW124353   4.299   3.870   2.746 -0.6608  0.3964  1.4657
 4239SOL    HW224354   4.258   3.767   2.641  1.9380 -0.8287  0.1269
 4240SOL     OW24355   1.163   3.713   6.440 -0.7724 -0.2143 -0.2150
 4240SOL    HW124356   1.077   3.753   6.454 -0.6560 -0.6597  1.7968
 4240SOL    HW224357   1.225   3.776   6.478 -2.7900  1.1199  0.8578
 4241SOL     OW24358   2.685   1.749   3.008 -0.0637 -0.5610 -0.5238
 4241SOL    HW124359   2.678   1.654   2.994  0.5073 -0.6798 -0.0333
 4241SOL    HW224360   2.649   1.785   2.927 -1.3937 -0.8754 -0.0572
 4242SOL     OW24361   1.402   2.504  12.946  0.1090 -0.0291  0.6451
 4242SOL    HW124362   1.319   2.461  12.926  0.0471 -0.4659  1.8469
 4242SOL    HW224363   1.431   2.456  13.023  3.9652  0.1400 -0.7100
 4243SOL     OW24364   3.787   0.249   8.303 -0.5353  0.2940  0.0590
 4243SOL    HW124365   3.883   0.247   8.306 -0.5340  1.5376  1.1079
 4243SOL    HW224366   3.772   0.289   8.389  1.1137  3.3682 -1.0910
 4244SOL     OW24367   0.114   3.470   4.791 -0.2969 -0.0586  0.1302
 4244SOL    HW124368   0.171   3.492   4.717 -1.5749  5.0077  0.6222
 4244SOL    HW224369   0.164   3.514   4.859  1.2255  0.6485 -1.4494
 4245SOL     OW24370   2.654   2.112   7.310 -0.4056 -0.1532  0.0771
 4245SOL    HW124371   2.652   2.206   7.327 -0.0446  0.2014 -1.8421
 4245SOL    HW224372   2.629   2.101   7.218 -0.1888 -1.4882  0.1792
 4246SOL     OW24373   3.164   1.916  15.701  0.1011 -0.0523  0.6897
 4246SOL    HW124374   3.134   1.887  15.787 -0.5338  0.2334  0.5653
 4246SOL    HW224375   3.120   1.859  15.638 -0.9587  2.0783 -0.5186
 4247SOL     OW24376   1.086   3.496   8.127 -0.6408  0.4494 -0.4518
 4247SOL    HW124377   1.073   3.414   8.174  1.5460  0.1868 -0.2829
 4247SOL    HW224378   1.017   3.486   8.062  1.3779 -0.0662 -2.5239
 4248SOL     OW24379   1.275   3.833   2.197  0.4838  0.0118  0.3880
 4248SOL    HW124380   1.312   3.919   2.179 -0.3189  0.1817 -0.4830
 4248SOL    HW224381   1.345   3.769   2.186  0.2781 -0.0612 -0.4845
 4249SOL     OW24382   3.988   4.037   2.513  0.2691 -0.3813  0.2059
 4249SOL    HW124383   3.961   3.945   2.514 -1.0201  0.0238  1.8762
 4249SOL    HW224384   3.949   4.064   2.430  2.4256  3.2063  0.3614
 4250SOL     OW24385   4.650   3.673   4.890  0.2898  0.0925 -0.1742
 4250SOL    HW124386   4.661   3.617   4.813 -1.8265 -1.1598  0.4534
 4250SOL    HW224387   4.700   3.634   4.962  0.4069  0.4503 -0.0575
 4251SOL     OW24388   4.486   0.658   6.651  0.1565  0.4641  0.2117
 4251SOL    HW124389   4.540   0.633   6.576 -0.6018 -1.0312  0.1539
 4251SOL    HW224390   4.412   0.706   6.614  0.1562  0.8835  0.7623
 4252SOL     OW24391   1.585   1.933   3.442  0.3330  0.5505  0.2691
 4252SOL    HW124392   1.596   2.026   3.463  1.5218  0.3268  0.6397
 4252SOL    HW224393   1.637   1.889   3.509  0.4022 -2.1115 -1.5308
 4253SOL     OW24394   2.756   2.097   3.913 -0.1381 -0.1161 -0.4936
 4253SOL    HW124395   2.747   2.009   3.950  1.9456 -0.3258 -0.5078
 4253SOL    HW224396   2.669   2.106   3.873 -0.2928 -1.4754 -0.4505
 4254SOL     OW24397   0.451   0.258   8.011  0.4562  0.0770  0.0193
 4254SOL    HW124398   0.484   0.180   7.966 -1.2507 -2.5282  3.2873
 4254SOL    HW224399   0.468   0.314   7.936 -0.1849 -0.2878 -0.4003
 4255SOL     OW24400   4.049   0.286   5.482 -0.7262  0.3104 -0.1946
 4255SOL    HW124401   3.956   0.273   5.502 -0.4130 -2.4391 -0.5167
 4255SOL    HW224402   4.088   0.211   5.528 -0.8716  0.0983 -0.4150
 4256SOL     OW24403   3.317   2.028   0.433 -0.2690  0.5920 -0.0132
 4256SOL    HW124404   3.270   1.946   0.447  0.7323 -0.3013 -1.7853
 4256SOL    HW224405   3.368   2.023   0.514 -0.0177  2.3837 -0.0692
 4257SOL     OW24406   2.669   4.185  13.709  0.0042  0.0622 -0.5953
 4257SOL    HW124407   2.693   4.277  13.701  0.5889  0.1623  2.4260
 4257SOL    HW224408   2.577   4.190  13.686 -0.4074 -0.9707  0.8379
 4258SOL     OW24409   1.738   0.637   8.608 -0.6805  0.1331  0.3809
 4258SOL    HW124410   1.789   0.609   8.685 -0.2530 -0.8237 -0.2510
 4258SOL    HW224411   1.803   0.629   8.539 -1.2127  1.9848 -0.3308
 4259SOL     OW24412   3.363   3.124   3.423 -0.0240 -0.4245 -0.2580
 4259SOL    HW124413   3.383   3.056   3.358 -0.2859  0.7679 -1.6077
 4259SOL    HW224414   3.280   3.159   3.389 -0.0451 -1.9216 -1.7541
 4260SOL     OW24415   1.564   3.819   8.856 -0.7499  0.1701 -0.3971
 4260SOL    HW124416   1.623   3.873   8.804 -2.1087  0.3911 -1.7057
 4260SOL    HW224417   1.575   3.854   8.945 -2.6402 -0.0921 -0.0502
 4261SOL     OW24418   1.616   3.244  10.491  0.6175 -0.7672 -0.0520
 4261SOL    HW124419   1.643   3.264  10.581 -2.0795  1.5077  0.2610
 4261SOL    HW224420   1.591   3.333  10.466  0.7373 -0.0543  2.3637
 4262SOL     OW24421   3.478   0.492   2.572 -0.2379 -0.2984  0.6054
 4262SOL    HW124422   3.456   0.421   2.633 -0.7737  0.4183  1.2512
 4262SOL    HW224423   3.509   0.452   2.491  1.1653 -0.5122  1.2564
 4263SOL     OW24424   3.570   3.563   4.366  0.2673  0.5140 -0.1888
 4263SOL    HW124425   3.643   3.514   4.404  0.3538  1.0038  0.2884
 4263SOL    HW224426   3.593   3.569   4.273  2.8005 -1.5960  0.2992
 4264SOL     OW24427   2.114   4.114   8.275 -0.4205 -0.4923  0.1781
 4264SOL    HW124428   2.031   4.093   8.232 -0.6936 -2.0117  1.4302
 4264SOL    HW224429   2.180   4.105   8.206 -2.1725  0.5776 -1.6315
 4265SOL     OW24430   4.204   4.603   4.993  0.1728 -0.2381  0.0244
 4265SOL    HW124431   4.167   4.517   5.013 -2.5599  0.6136 -1.4219
 4265SOL    HW224432   4.279   4.581   4.936 -0.2951  0.7818 -0.9715
 4266SOL     OW24433   1.055   0.878   4.773  0.2507  0.2020 -0.2001
 4266SOL    HW124434   1.138   0.838   4.796  0.1489 -0.2149 -0.5601
 4266SOL    HW224435   1.073   0.967   4.803  0.2600  0.5857 -1.3729
 4267SOL     OW24436   1.677   0.553   6.652 -0.0281  0.3016  0.2693
 4267SOL    HW124437   1.748   0.564   6.589  0.7960 -0.3425  1.0862
 4267SOL    HW224438   1.701   0.465   6.682 -0.2427 -0.3739 -1.4975
 4268SOL     OW24439   0.142   4.037   0.435 -0.0917 -1.1021 -0.2128
 4268SOL    HW124440   0.069   4.093   0.460 -1.0927 -3.1960  1.4733
 4268SOL    HW224441   0.207   4.068   0.499  1.3637 -1.7663 -1.3762
 4269SOL     OW24442   1.356   3.216   5.157 -0.2632  0.2162  0.1454
 4269SOL    HW124443   1.402   3.299   5.170 -1.8433  0.8643  1.5630
 4269SOL    HW224444   1.404   3.196   5.077 -0.1897 -0.6995  0.4145
 4270SOL     OW24445   4.234   2.623  12.701 -0.2247 -0.5651 -0.7018
 4270SOL    HW124446   4.146   2.652  12.680 -0.8717 -1.8330  0.2308
 4270SOL    HW224447   4.265   2.577  12.623  1.7794 -1.3328  0.5498
 4271SOL     OW24448   0.466   2.731   3.653  0.5831 -0.2865 -0.0652
 4271SOL    HW124449   0.424   2.740   3.567  1.4694 -2.3895 -0.7175
 4271SOL    HW224450   0.558   2.716   3.630  0.5777  0.8656 -0.8670
 4272SOL     OW24451   1.748   1.535   3.034 -0.6467 -0.1150 -0.0314
 4272SOL    HW124452   1.742   1.441   3.018 -2.1526 -0.3370  1.8464
 4272SOL    HW224453   1.687   1.553   3.105  0.8556 -4.2664  2.3084
 4273SOL     OW24454   0.082   0.388   5.490 -0.1598  0.5207 -0.2836
 4273SOL    HW124455   0.018   0.316   5.490  1.5208 -0.9892  3.1508
 4273SOL    HW224456   0.119   0.387   5.402  0.7982 -0.6853  0.1361
 4274SOL     OW24457   3.820   1.043   4.564  0.4928  0.1867  0.4334
 4274SOL    HW124458   3.746   1.092   4.600 -0.5806 -0.6646 -0.6150
 4274SOL    HW224459   3.873   1.117   4.537  0.4957  0.2494  0.6125
 4275SOL     OW24460   4.418   2.325  15.364  0.8785 -0.1277 -0.4293
 4275SOL    HW124461   4.401   2.232  15.380 -0.8563  0.2759  0.0955
 4275SOL    HW224462   4.513   2.333  15.365  0.9766 -0.9934 -1.9845
 4276SOL     OW24463   0.628   1.614   6.075  0.1526 -0.5184 -0.2801
 4276SOL    HW124464   0.572   1.648   6.144 -0.0603  1.1076 -1.2595
 4276SOL    HW224465   0.711   1.599   6.120 -1.3716 -2.1914  1.9691
 4277SOL     OW24466   0.868   3.254  10.857 -0.6048 -0.0246 -0.8605
 4277SOL    HW124467   0.803   3.184  10.859 -0.5406 -0.0328  1.7469
 4277SOL    HW224468   0.948   3.201  10.856 -0.3856  0.2781  0.0571
 4278SOL     OW24469   1.946   3.388   4.933 -0.0886 -0.0137  0.4924
 4278SOL    HW124470   1.993   3.347   5.005 -3.4799 -0.3902  2.5103
 4278SOL    HW224471   1.979   3.363   4.847  0.4715 -3.1710  1.6618
 4279SOL     OW24472   1.429   3.583   1.670  0.4934 -0.4682 -0.0978
 4279SOL    HW124473   1.462   3.533   1.745 -0.1915 -1.7752 -0.6725
 4279SOL    HW224474   1.336   3.583   1.692  0.7781 -0.7334  1.0943
 4280SOL     OW24475   2.704   0.888  10.455  0.1441  0.2417  0.2185
 4280SOL    HW124476   2.729   0.883  10.547 -0.1026 -0.0664  0.2655
 4280SOL    HW224477   2.611   0.909  10.456  0.1064  0.1114 -0.9326
 4281SOL     OW24478   3.043   3.550  10.496 -0.1030 -0.4422 -0.7100
 4281SOL    HW124479   3.090   3.536  10.413  0.1705 -1.4809 -0.3853
 4281SOL    HW224480   2.992   3.629  10.481 -0.6134 -0.4111  1.3003
 4282SOL     OW24481   4.364   0.725  13.759 -0.0878 -0.1715  0.3437
 4282SOL    HW124482   4.444   0.735  13.809  0.4338 -0.5756 -0.3997
 4282SOL    HW224483   4.403   0.713  13.672  1.0762  1.1296  0.6929
 4283SOL     OW24484   4.667   0.956   4.328 -1.2014 -0.1316  0.4250
 4283SOL    HW124485   4.595   0.918   4.379 -0.6605  0.2875  1.4749
 4283SOL    HW224486   4.690   1.033   4.380  2.3667 -1.5054  0.8528
 4284SOL     OW24487   2.495   3.523   2.893  0.2079  0.2300  0.4066
 4284SOL    HW124488   2.487   3.604   2.842  4.2378 -0.2422 -0.9584
 4284SOL    HW224489   2.405   3.506   2.920  0.5729  0.1810  1.5992
 4285SOL     OW24490   2.155   3.887  10.730 -0.2045 -0.1472  0.1307
 4285SOL    HW124491   2.109   3.970  10.745 -1.0567 -0.4245 -0.9879
 4285SOL    HW224492   2.131   3.860  10.642 -1.3942  2.3467 -0.3009
 4286SOL     OW24493   0.491   1.481   4.313 -0.3009 -0.0096 -0.2022
 4286SOL    HW124494   0.504   1.420   4.240 -0.6833  1.3734 -1.4317
 4286SOL    HW224495   0.578   1.476   4.354 -1.7361  1.6023  3.0129
 4287SOL     OW24496   3.900   1.940   2.947  0.2411  0.4421 -0.0540
 4287SOL    HW124497   3.902   1.966   3.039  0.0413  1.2803 -0.2879
 4287SOL    HW224498   3.972   1.994   2.915 -1.7210  3.5014  0.6470
 4288SOL     OW24499   3.870   3.967   5.923 -0.1306  0.0470  0.0992
 4288SOL    HW124500   3.890   3.897   5.986 -1.3258  2.3618  3.0306
 4288SOL    HW224501   3.955   3.973   5.878  1.2759  2.4178  3.0992
 4289SOL     OW24502   2.458   3.754   3.292  0.0924 -0.0112 -0.2162
 4289SOL    HW124503   2.409   3.673   3.277  0.5755 -0.6175  1.4365
 4289SOL    HW224504   2.543   3.726   3.327 -0.7247 -3.8565 -1.2781
 4290SOL     OW24505   2.500   3.550  10.293 -0.2767  0.0984 -1.0136
 4290SOL    HW124506   2.460   3.630  10.259 -0.7632  0.1554 -0.3185
 4290SOL    HW224507   2.558   3.529  10.220 -1.1412 -2.6612 -0.8779
 4291SOL     OW24508   4.369   3.374   0.535  0.5913  0.0617  0.3117
 4291SOL    HW124509   4.399   3.452   0.581  1.2115  0.6303 -1.0594
 4291SOL    HW224510   4.386   3.308   0.602  0.1740  0.3331  0.6847
 4292SOL     OW24511   0.380   3.686   5.975  0.0854  0.5444 -0.4172
 4292SOL    HW124512   0.332   3.736   6.041  0.2902 -1.1491  1.0072
 4292SOL    HW224513   0.425   3.759   5.932 -0.5795  0.5399 -1.1103
 4293SOL     OW24514   2.769   4.504   5.157  0.2600 -0.2013  0.3052
 4293SOL    HW124515   2.855   4.464   5.167  1.0802  2.3509  3.2487
 4293SOL    HW224516   2.794   4.594   5.137 -0.3211 -0.1130 -0.0523
 4294SOL     OW24517   1.587   0.603   3.286  0.2709 -0.2336  0.1154
 4294SOL    HW124518   1.680   0.589   3.264  0.2617 -0.4248  0.1961
 4294SOL    HW224519   1.586   0.672   3.353  1.0324  0.8704 -0.9974
 4295SOL     OW24520   0.969   3.941   4.203 -0.2711  0.3386 -0.1587
 4295SOL    HW124521   1.045   3.913   4.152  0.8266  1.6594  0.7397
 4295SOL    HW224522   0.899   3.880   4.179 -0.6473  0.3417  0.9340
 4296SOL     OW24523   4.149   1.074   8.594 -0.0068 -0.0195 -0.1893
 4296SOL    HW124524   4.117   0.993   8.556  2.3711 -0.4515 -1.3069
 4296SOL    HW224525   4.153   1.057   8.688  2.2337  0.5523 -0.1708
 4297SOL     OW24526   1.064   2.410   6.836 -0.2474  0.2142  0.0471
 4297SOL    HW124527   1.100   2.366   6.759  0.7634 -1.5635  1.5504
 4297SOL    HW224528   1.002   2.462   6.785 -1.9361  0.3254  2.2225
 4298SOL     OW24529   3.469   1.834   1.303  0.5901 -0.2713 -0.6061
 4298SOL    HW124530   3.462   1.863   1.212  0.4276  0.8191 -0.2549
 4298SOL    HW224531   3.385   1.861   1.342  0.5314  1.2329 -1.7449
 4299SOL     OW24532   0.651   4.209  13.175 -0.0068  0.0132 -0.4837
 4299SOL    HW124533   0.706   4.154  13.231 -0.4320 -1.3628 -1.4190
 4299SOL    HW224534   0.702   4.290  13.181 -0.6816  0.4439 -0.7250
 4300SOL     OW24535   4.693   4.507   2.114 -0.1897  0.0145 -0.0671
 4300SOL    HW124536   4.706   4.567   2.188  1.0272  1.3486 -1.3627
 4300SOL    HW224537   0.050   4.466   2.111  0.8874  2.2401  0.5904
 4301SOL     OW24538   2.162   1.201   8.277 -0.0937  0.3812  0.3551
 4301SOL    HW124539   2.174   1.128   8.216 -0.7888  1.4543 -1.0967
 4301SOL    HW224540   2.192   1.150   8.351 -0.6779  2.3844  1.9754
 4302SOL     OW24541   1.051   0.673   5.902 -0.0604  0.1491  0.2044
 4302SOL    HW124542   1.063   0.638   5.990  0.3768 -1.4770 -0.5038
 4302SOL    HW224543   1.097   0.757   5.898  0.5003 -0.2742 -2.3515
 4303SOL     OW24544   0.913   2.253  16.092 -0.1187 -0.2057  0.1640
 4303SOL    HW124545   0.846   2.230  16.156 -0.1202 -0.3218  0.1203
 4303SOL    HW224546   0.864   2.231  16.013  2.8606  1.0943 -2.0674
 4304SOL     OW24547   1.126   3.787   5.385  1.1049  0.0152 -0.4640
 4304SOL    HW124548   1.160   3.698   5.370  2.1701  0.2233  0.6951
 4304SOL    HW224549   1.076   3.802   5.305 -2.3807 -1.1795  1.4644
 4305SOL     OW24550   4.100   0.883  15.822  0.0021 -0.3338 -0.0700
 4305SOL    HW124551   4.150   0.808  15.852 -0.1701 -0.8131 -0.9896
 4305SOL    HW224552   4.164   0.923  15.763  0.9627 -0.6541  0.7605
 4306SOL     OW24553   1.293   1.075   4.293  0.8180  0.2104  0.1737
 4306SOL    HW124554   1.221   1.111   4.345  0.8884  1.7538 -0.7990
 4306SOL    HW224555   1.356   1.146   4.301 -2.5297  3.1590  0.0613
 4307SOL     OW24556   2.108   2.107   1.268  0.3150  0.0263  0.3723
 4307SOL    HW124557   2.167   2.157   1.325  0.1285 -1.0169  1.4836
 4307SOL    HW224558   2.047   2.175   1.239  1.4486  0.9683  0.1761
 4308SOL     OW24559   2.725   2.000  14.423  0.9193  0.1155 -0.1856
 4308SOL    HW124560   2.693   1.982  14.335 -1.4519 -0.0722  0.7062
 4308SOL    HW224561   2.731   1.912  14.461  1.3380 -0.5754 -1.8657
 4309SOL     OW24562   2.099   4.683   2.267  0.5011  0.4081  0.4017
 4309SOL    HW124563   2.159   0.028   2.273 -1.0941  1.5687  2.0902
 4309SOL    HW224564   2.017   4.728   2.286  0.7456  0.9687  0.1102
 4310SOL     OW24565   0.285   0.613  17.051 -0.0663  0.2537  0.7396
 4310SOL    HW124566   0.212   0.570  17.096 -0.6005 -0.2421 -0.5998
 4310SOL    HW224567   0.311   0.680  17.114 -1.1031  0.1717  1.2722
 4311SOL     OW24568   4.473   3.017   5.619 -0.0789 -0.2087 -0.0931
 4311SOL    HW124569   4.478   2.933   5.573  0.1277  0.7077 -1.7477
 4311SOL    HW224570   4.450   2.990   5.708  1.0870  1.0296  0.5856
 4312SOL     OW24571   1.734   2.243   5.818  0.2515  0.0309 -0.9147
 4312SOL    HW124572   1.678   2.228   5.742 -0.6660  0.9686 -0.4271
 4312SOL    HW224573   1.770   2.330   5.797 -2.6790  0.9703 -2.1455
 4313SOL     OW24574   1.751   1.609  14.976  0.1817 -0.8338  0.3622
 4313SOL    HW124575   1.765   1.586  15.068 -0.9853 -1.9842  0.2494
 4313SOL    HW224576   1.678   1.671  14.982 -2.0297 -3.2800 -1.5181
 4314SOL     OW24577   3.119   0.831  13.450 -0.4098 -0.0663 -0.1731
 4314SOL    HW124578   3.135   0.890  13.376  2.8421 -0.2139  0.4139
 4314SOL    HW224579   3.197   0.840  13.505  0.1738 -2.1742 -0.6373
 4315SOL     OW24580   2.057   0.046   0.408 -0.0697  0.6964 -0.0102
 4315SOL    HW124581   2.009   0.127   0.425  2.2557  1.9803  0.5616
 4315SOL    HW224582   2.147   0.075   0.425 -0.1323 -0.1777  1.8996
 4316SOL     OW24583   3.285   3.601   4.436  0.1487  0.0229 -0.1972
 4316SOL    HW124584   3.211   3.548   4.406 -1.2374  0.2776  2.7943
 4316SOL    HW224585   3.360   3.561   4.390  0.6471  1.3528 -0.5575
 4317SOL     OW24586   2.287   2.486   5.188 -0.1171  0.3487  0.5031
 4317SOL    HW124587   2.192   2.480   5.185  0.0351  0.2087 -3.1557
 4317SOL    HW224588   2.318   2.396   5.195  0.1507  0.5238  1.5698
 4318SOL     OW24589   4.626   1.034   4.867  0.2772  0.2713 -0.7222
 4318SOL    HW124590   4.671   1.116   4.848  1.8549 -0.2563  0.7560
 4318SOL    HW224591   4.560   1.065   4.929  0.1374  0.8843 -1.1768
 4319SOL     OW24592   4.629   0.982   8.179 -0.2112 -0.3014  0.3817
 4319SOL    HW124593   4.719   1.010   8.194 -0.6340  0.1410  2.0594
 4319SOL    HW224594   4.595   1.070   8.197 -0.2165 -0.2837  0.2864
 4320SOL     OW24595   3.898   0.176   1.970  0.3111  0.3182  0.0142
 4320SOL    HW124596   3.990   0.194   1.954  0.5062  0.5528  1.4225
 4320SOL    HW224597   3.895   0.083   1.949  0.7193 -0.0844  1.7161
 4321SOL     OW24598   1.293   1.111   2.067 -0.2131 -0.4640 -0.0449
 4321SOL    HW124599   1.357   1.077   2.129  0.8545  1.6705  0.0424
 4321SOL    HW224600   1.298   1.206   2.079  1.7157 -0.7675  1.5913
 4322SOL     OW24601   4.362   2.785   3.506  0.1344  0.2426 -0.4328
 4322SOL    HW124602   4.367   2.839   3.584 -0.9441  0.0471 -0.2350
 4322SOL    HW224603   4.436   2.727   3.524  0.6663  1.0772  0.0731
 4323SOL     OW24604   1.068   1.635   1.217 -0.0426 -0.2007  0.2759
 4323SOL    HW124605   1.114   1.595   1.290  0.6851  2.0764  1.0577
 4323SOL    HW224606   1.123   1.601   1.147 -1.5049  1.9057 -1.9162
 4324SOL     OW24607   0.679   0.961   3.426  0.2914  0.8796 -0.2060
 4324SOL    HW124608   0.643   1.005   3.503  1.9734 -0.2594  1.2320
 4324SOL    HW224609   0.771   0.985   3.436  0.2990  1.1634 -0.9469
 4325SOL     OW24610   1.962   4.658  10.793 -0.7772 -0.3101  0.9219
 4325SOL    HW124611   1.954   4.713  10.872  2.4068  1.7108 -0.1785
 4325SOL    HW224612   2.057   4.662  10.788 -0.8235 -0.8364 -0.2801
 4326SOL     OW24613   3.275   4.326  10.332  0.5073  0.0834  0.0677
 4326SOL    HW124614   3.195   4.304  10.380 -1.0275  0.2646 -2.3547
 4326SOL    HW224615   3.342   4.299  10.395 -1.7761 -0.7790  2.1420
 4327SOL     OW24616   2.885   4.496   5.486 -0.5256 -0.2790  0.1747
 4327SOL    HW124617   2.921   4.440   5.417  0.5610  1.8823 -0.9949
 4327SOL    HW224618   2.792   4.485   5.465 -0.6374 -1.0321  1.0835
 4328SOL     OW24619   0.099   4.209   5.919 -0.7151 -0.7437  0.2968
 4328SOL    HW124620   0.040   4.191   5.992 -0.5150 -1.8215  0.1822
 4328SOL    HW224621   0.032   4.227   5.853 -0.5776  0.2364  0.4143
 4329SOL     OW24622   1.919   0.868   2.309 -0.5235 -0.5888  0.1665
 4329SOL    HW124623   1.826   0.860   2.329 -0.9084  0.7150 -1.1023
 4329SOL    HW224624   1.929   0.959   2.281  1.0375 -0.2053  1.9063
 4330SOL     OW24625   1.979   3.277   9.178 -0.2669 -0.1044 -0.5836
 4330SOL    HW124626   1.914   3.224   9.131  0.4798 -0.4812 -1.1847
 4330SOL    HW224627   1.995   3.205   9.240  0.1614  0.9793  0.5704
 4331SOL     OW24628   0.608   2.733  16.829  0.2206 -0.0800 -0.3753
 4331SOL    HW124629   0.515   2.713  16.821  0.6312 -1.7171 -1.0415
 4331SOL    HW224630   0.613   2.798  16.759  0.5705 -1.5523 -1.7227
 4332SOL     OW24631   0.678   2.456  12.496 -0.5429 -0.4683  0.3458
 4332SOL    HW124632   0.729   2.375  12.494 -1.6646 -1.1928  0.9845
 4332SOL    HW224633   0.690   2.496  12.410 -0.1206  0.3850  0.7972
 4333SOL     OW24634   4.374   3.935   6.827  0.2896  0.2414 -0.6245
 4333SOL    HW124635   4.406   4.023   6.808 -1.0706  1.1052  1.1161
 4333SOL    HW224636   4.339   3.911   6.741  0.4264  0.0691 -0.6329
 4334SOL     OW24637   1.648   3.180   6.201  0.6910  0.0876  0.6836
 4334SOL    HW124638   1.611   3.250   6.256 -0.6029  0.9146 -1.2581
 4334SOL    HW224639   1.716   3.231   6.159  1.2495 -1.3298 -0.1120
 4335SOL     OW24640   3.490   3.688   7.246  0.2730  0.2295  0.0050
 4335SOL    HW124641   3.463   3.640   7.324  1.4433 -0.4865 -0.0493
 4335SOL    HW224642   3.544   3.761   7.277  1.8415 -0.8365 -0.2189
 4336SOL     OW24643   3.509   3.592   6.737  0.0532 -0.2809  0.3369
 4336SOL    HW124644   3.567   3.522   6.706  1.4821  0.6654  0.8574
 4336SOL    HW224645   3.498   3.566   6.828 -1.5132  2.2848  0.8581
 4337SOL     OW24646   0.793   2.949   1.238 -0.3764 -0.1287  0.2346
 4337SOL    HW124647   0.882   2.931   1.207  0.3309  2.0874  1.0172
 4337SOL    HW224648   0.761   2.859   1.238 -1.9037  0.4306  2.1648
 4338SOL     OW24649   3.357   1.869   4.588 -0.3904  0.1017 -0.3438
 4338SOL    HW124650   3.317   1.951   4.617  0.3072  0.4512 -0.3628
 4338SOL    HW224651   3.427   1.906   4.533 -0.0781  0.8707  0.5621
 4339SOL     OW24652   1.604   4.513   8.864 -0.0733  0.0086  0.5918
 4339SOL    HW124653   1.684   4.461   8.850 -1.4282 -2.2723  1.2538
 4339SOL    HW224654   1.624   4.569   8.939  0.9385  1.9561 -1.1231
 4340SOL     OW24655   1.868   3.449   3.524 -0.0073  0.1180 -0.5237
 4340SOL    HW124656   1.912   3.365   3.537 -0.7972  0.2172  2.6713
 4340SOL    HW224657   1.824   3.430   3.440 -0.0880  0.2970 -0.5208
 4341SOL     OW24658   3.240   3.682   4.687 -0.1166  0.0103  0.2294
 4341SOL    HW124659   3.293   3.762   4.686  2.2190 -1.5250  1.0381
 4341SOL    HW224660   3.248   3.663   4.594  1.3899  2.3465 -0.1226
 4342SOL     OW24661   2.435   0.295   5.741 -0.4177  0.2793 -0.0683
 4342SOL    HW124662   2.514   0.295   5.796 -0.7372 -0.9937  0.3970
 4342SOL    HW224663   2.433   0.390   5.729  1.1861 -0.1629 -3.9903
 4343SOL     OW24664   4.432   2.345   3.720 -0.2766 -0.5919 -0.2974
 4343SOL    HW124665   4.355   2.310   3.675 -0.8734  0.6088 -0.2048
 4343SOL    HW224666   4.501   2.289   3.683  0.0172 -0.1948 -0.3500
 4344SOL     OW24667   2.490   0.538   6.274 -0.0801  0.5791  0.1900
 4344SOL    HW124668   2.476   0.499   6.188 -0.9808 -2.6293  1.7915
 4344SOL    HW224669   2.545   0.613   6.252  3.1629 -1.8872 -0.1982
 4345SOL     OW24670   0.871   0.062   5.713 -0.3291 -0.3635 -0.0425
 4345SOL    HW124671   0.879   0.026   5.802 -3.1749 -0.2007  0.2804
 4345SOL    HW224672   0.879   0.153   5.740 -1.8362 -0.8092  1.9304
 4346SOL     OW24673   3.760   4.252  10.783 -0.2010 -0.1382  0.2164
 4346SOL    HW124674   3.701   4.178  10.773 -2.4492  1.7315 -0.4662
 4346SOL    HW224675   3.726   4.279  10.869 -0.3838  1.8217 -0.4614
 4347SOL     OW24676   2.641   2.700  16.047  0.7128 -0.3172 -0.0946
 4347SOL    HW124677   2.594   2.781  16.028 -0.0523 -1.1469 -1.7534
 4347SOL    HW224678   2.717   2.711  15.990  2.1005 -3.9850  1.0165
 4348SOL     OW24679   1.997   2.013   8.804  0.0023 -0.3914  0.0369
 4348SOL    HW124680   1.950   1.970   8.732  1.4387  1.3271 -1.9375
 4348SOL    HW224681   1.981   1.953   8.877 -1.3025  1.1479  1.0109
 4349SOL     OW24682   4.218   4.693  15.310 -0.3498  0.0412 -0.1965
 4349SOL    HW124683   4.129   4.663  15.295 -0.2797 -1.7594  2.8760
 4349SOL    HW224684   4.254   4.706  15.222 -0.5828  2.4059  0.0488
 4350SOL     OW24685   0.020   1.096   9.542 -0.6792 -0.0373  0.3441
 4350SOL    HW124686   0.070   1.109   9.462  0.1515  0.7579  0.9929
 4350SOL    HW224687   0.084   1.046   9.593 -0.7008 -0.2097  0.2049
 4351SOL     OW24688   1.192   1.449   1.422 -0.3441 -0.0213  0.3863
 4351SOL    HW124689   1.221   1.368   1.465 -1.0948 -2.4984 -3.7426
 4351SOL    HW224690   1.271   1.499   1.444 -2.5923  4.0409 -0.7669
 4352SOL     OW24691   0.166   0.368   5.200  0.5590 -0.0461 -0.1353
 4352SOL    HW124692   0.209   0.445   5.165 -0.8039  1.1037  0.7337
 4352SOL    HW224693   0.090   0.354   5.143 -0.0950 -0.7265  0.8782
 4353SOL     OW24694   3.688   4.405   3.816  0.3277 -0.0923 -0.0683
 4353SOL    HW124695   3.736   4.342   3.763  0.4879  0.4621 -0.5793
 4353SOL    HW224696   3.627   4.436   3.749  0.8856 -1.3691 -1.1842
 4354SOL     OW24697   3.367   3.135   7.310  0.1872  0.6557 -0.1813
 4354SOL    HW124698   3.386   3.228   7.318 -2.4201  1.2153 -0.3392
 4354SOL    HW224699   3.273   3.135   7.329  0.2417  1.3234  0.0805
 4355SOL     OW24700   2.696   1.221   2.659  0.1036 -0.3871  0.4791
 4355SOL    HW124701   2.679   1.303   2.613  1.5902  0.0687  0.7248
 4355SOL    HW224702   2.611   1.190   2.689 -0.2613  1.0379  0.9066
 4356SOL     OW24703   4.297   3.691   6.214  0.0392  0.9485 -0.1438
 4356SOL    HW124704   4.364   3.746   6.175  1.0033  0.5511  0.9406
 4356SOL    HW224705   4.344   3.633   6.274  0.9697 -0.6799 -2.4666
 4357SOL     OW24706   1.856   2.949  10.701  0.4842  0.0959 -0.0884
 4357SOL    HW124707   1.892   2.864  10.723 -1.4206 -0.1279  2.2153
 4357SOL    HW224708   1.826   2.981  10.786  3.1261 -1.0702  1.2604
 4358SOL     OW24709   2.824   0.692  15.487 -0.0434  0.3848  0.2994
 4358SOL    HW124710   2.734   0.722  15.480 -1.2676 -3.6001 -1.3265
 4358SOL    HW224711   2.865   0.713  15.403 -1.3851 -0.1187 -0.4782
 4359SOL     OW24712   2.738   0.225   2.258  0.3364  0.5908 -0.0291
 4359SOL    HW124713   2.820   0.274   2.248 -0.0225  1.4034  1.0592
 4359SOL    HW224714   2.737   0.220   2.353 -1.3191  1.3520 -0.0083
 4360SOL     OW24715   0.378   0.650   9.017  0.0261  0.3792 -0.3372
 4360SOL    HW124716   0.462   0.685   9.047 -0.6720  0.1703  1.8554
 4360SOL    HW224717   0.411   0.568   8.980 -1.8747 -0.1008 -0.9562
 4361SOL     OW24718   2.922   0.420   6.034  0.1504  0.3801 -0.2484
 4361SOL    HW124719   3.012   0.410   6.004 -0.0284 -1.5109 -0.1235
 4361SOL    HW224720   2.935   0.368   6.114  0.8317 -1.3212 -1.4865
 4362SOL     OW24721   2.085   0.723   7.674 -0.1640  0.7618  0.2070
 4362SOL    HW124722   1.995   0.709   7.705  0.8460 -2.5059  1.6167
 4362SOL    HW224723   2.128   0.658   7.729 -3.0454 -0.5981  0.8614
 4363SOL     OW24724   3.394   0.591   8.117 -0.3519 -0.5343 -0.1281
 4363SOL    HW124725   3.402   0.555   8.205 -0.4535 -0.2188  0.0123
 4363SOL    HW224726   3.467   0.654   8.119  0.7984 -1.9136  1.5722
 4364SOL     OW24727   2.359   4.060   4.358  0.2605  0.3210  0.6319
 4364SOL    HW124728   2.363   4.150   4.328  0.8564 -0.1668 -0.7709
 4364SOL    HW224729   2.301   4.081   4.430  1.0223 -1.0149  1.6496
 4365SOL     OW24730   0.261   1.806   8.330 -0.2651 -0.2771  0.0996
 4365SOL    HW124731   0.289   1.826   8.241 -0.5498 -2.5463 -0.5019
 4365SOL    HW224732   0.166   1.803   8.317 -0.2012  2.1260 -0.8608
 4366SOL     OW24733   0.646   3.427  11.178 -0.3057  0.0511  0.0911
 4366SOL    HW124734   0.741   3.421  11.189  0.0319  2.3336 -1.7067
 4366SOL    HW224735   0.649   3.435  11.082 -0.3599  2.6670  0.3030
 4367SOL     OW24736   3.894   4.125   2.274  0.1327 -0.1026  0.4707
 4367SOL    HW124737   3.905   4.205   2.223 -2.6208  1.0592  1.7055
 4367SOL    HW224738   3.940   4.063   2.218 -0.8169  0.0067 -0.4381
 4368SOL     OW24739   4.093   2.035   6.185 -0.3885 -0.3089 -0.5456
 4368SOL    HW124740   4.143   2.116   6.195  2.4862 -2.3043  1.3057
 4368SOL    HW224741   4.004   2.052   6.217 -0.9351 -0.1283 -2.1370
 4369SOL     OW24742   1.717   3.096  11.317  0.1658  0.1703 -0.0339
 4369SOL    HW124743   1.746   3.098  11.408  1.3307 -2.0495 -0.3602
 4369SOL    HW224744   1.630   3.058  11.327  0.3085 -0.3191 -0.6428
 4370SOL     OW24745   3.650   3.829  13.543  0.3437  0.4276 -0.0178
 4370SOL    HW124746   3.662   3.923  13.561 -0.7900  0.3575  1.1350
 4370SOL    HW224747   3.734   3.789  13.562  1.3219  2.4114 -0.1609
 4371SOL     OW24748   2.890   3.852   5.805  0.2929  0.2527  0.3132
 4371SOL    HW124749   2.818   3.914   5.821 -0.2320 -0.7419  1.7570
 4371SOL    HW224750   2.845   3.774   5.837  0.4850  0.4712  1.1022
 4372SOL     OW24751   0.499   2.397   4.462  0.0186 -0.0246  0.6075
 4372SOL    HW124752   0.431   2.443   4.413  0.0605 -0.4018  0.1942
 4372SOL    HW224753   0.534   2.467   4.517  2.6235 -1.3804  0.6846
 4373SOL     OW24754   1.317   4.481   6.436  0.4627 -0.2008 -0.2836
 4373SOL    HW124755   1.240   4.434   6.404 -0.8505  0.0177  2.5424
 4373SOL    HW224756   1.284   4.520   6.516  4.3024  0.3164  1.0437
 4374SOL     OW24757   0.606   1.507  10.399 -0.2152  0.0248  0.4116
 4374SOL    HW124758   0.533   1.451  10.374 -1.2915  1.3124  0.6536
 4374SOL    HW224759   0.555   1.580  10.437  0.2784  0.3965  0.3593
 4375SOL     OW24760   1.019   4.149  14.538 -0.0556  0.2651 -0.5292
 4375SOL    HW124761   1.093   4.207  14.554  0.7155 -1.1578  1.0714
 4375SOL    HW224762   1.011   4.098  14.619 -0.5572  1.2658  0.0685
 4376SOL     OW24763   2.308   0.850   6.644  0.1516 -0.8093  0.4281
 4376SOL    HW124764   2.400   0.839   6.620  0.1652 -1.0275  0.5799
 4376SOL    HW224765   2.267   0.786   6.585 -1.6560  0.8694 -0.1440
 4377SOL     OW24766   3.536   2.479   1.566 -0.1626  0.0198  0.0914
 4377SOL    HW124767   3.597   2.426   1.515 -2.8678 -2.6049 -0.4247
 4377SOL    HW224768   3.558   2.566   1.535 -1.7648  0.5586  0.4760
 4378SOL     OW24769   1.186   4.101   0.084  0.6128  0.6114  0.4500
 4378SOL    HW124770   1.227   4.059   0.159 -0.0758 -0.2136  0.3617
 4378SOL    HW224771   1.107   4.046   0.078  0.1831  1.4254 -1.4102
 4379SOL     OW24772   1.257   0.621   1.990  0.5800  0.1166 -0.6562
 4379SOL    HW124773   1.251   0.697   1.932 -0.6004  2.1626  2.1571
 4379SOL    HW224774   1.313   0.564   1.937  1.3014  1.9446 -1.8243
 4380SOL     OW24775   0.867   0.909   2.647  0.2654 -0.5533  0.3559
 4380SOL    HW124776   0.837   0.940   2.732  2.9332  2.9795  0.0104
 4380SOL    HW224777   0.791   0.857   2.620  0.9317 -0.9051 -0.8566
 4381SOL     OW24778   4.725   4.345   6.974  0.4693 -0.1721 -0.9265
 4381SOL    HW124779   0.034   4.395   7.046 -0.9013 -0.6173  0.0913
 4381SOL    HW224780   4.684   4.413   6.919  0.2580  0.4371 -0.0199
 4382SOL     OW24781   0.292   3.839  10.500  0.1389  0.1716  0.0930
 4382SOL    HW124782   0.355   3.827  10.571  1.2208  0.3602 -0.8269
 4382SOL    HW224783   0.244   3.756  10.494 -0.0598  0.3764 -1.2203
 4383SOL     OW24784   1.755   1.677   2.104  1.0866  0.4256  0.4047
 4383SOL    HW124785   1.747   1.772   2.099  1.1029  0.3165 -1.9829
 4383SOL    HW224786   1.690   1.660   2.172  1.9236  0.4051  1.1934
 4384SOL     OW24787   4.190   2.063   9.366 -0.1096  0.1726  0.0255
 4384SOL    HW124788   4.196   2.034   9.457 -1.4085 -0.9355 -0.2174
 4384SOL    HW224789   4.095   2.061   9.349 -0.1462 -1.2655  0.3480
 4385SOL     OW24790   3.855   3.220   7.721 -0.5079 -0.2970  0.1830
 4385SOL    HW124791   3.858   3.300   7.667  2.2238 -0.9372 -0.5933
 4385SOL    HW224792   3.766   3.207   7.753 -0.7346  3.5692  1.1310
 4386SOL     OW24793   1.352   4.200   8.069 -0.0393 -0.0569 -0.2441
 4386SOL    HW124794   1.430   4.254   8.057 -0.3970  0.3492 -0.7248
 4386SOL    HW224795   1.370   4.145   8.146  1.8760 -0.3670 -0.9065
 4387SOL     OW24796   1.488   4.220   3.256  0.2927 -0.0665  0.4461
 4387SOL    HW124797   1.439   4.216   3.174  0.8409 -0.1721  0.1199
 4387SOL    HW224798   1.553   4.159   3.222  0.8195  0.0441  1.2372
 4388SOL     OW24799   3.987   4.047   1.999  0.2419 -0.1486  0.5531
 4388SOL    HW124800   4.019   4.133   1.970  0.1190 -0.9302 -1.8956
 4388SOL    HW224801   4.062   3.993   1.973  1.4408  1.4381  0.6710
 4389SOL     OW24802   2.177   3.580   8.538  0.2835  0.6191  0.0779
 4389SOL    HW124803   2.142   3.516   8.600  0.3783  0.4877 -0.0044
 4389SOL    HW224804   2.260   3.535   8.521  1.2980  2.5359 -0.1001
 4390SOL     OW24805   0.898   0.679  10.515  0.1233 -0.8114  0.4013
 4390SOL    HW124806   0.867   0.718  10.597  1.5708  0.9236  0.1206
 4390SOL    HW224807   0.847   0.599  10.524  0.4100 -0.9250  1.0742
 4391SOL     OW24808   0.486   1.486   6.869  0.3800 -0.1894  0.1628
 4391SOL    HW124809   0.525   1.571   6.891 -0.8800  0.6127 -0.7036
 4391SOL    HW224810   0.391   1.497   6.865  0.2722 -1.3033 -0.3064
 4392SOL     OW24811   1.418   4.046   7.853  0.0624 -0.5102 -0.3259
 4392SOL    HW124812   1.381   4.090   7.777 -0.1937  1.3976  0.9159
 4392SOL    HW224813   1.403   4.107   7.925  1.0808 -2.9474  1.9631
 4393SOL     OW24814   1.921   1.156   4.169 -0.3735  0.1487 -0.0792
 4393SOL    HW124815   1.934   1.082   4.110 -0.0213 -0.8463  1.2280
 4393SOL    HW224816   2.013   1.177   4.188 -0.0219 -1.1072 -0.3693
 4394SOL     OW24817   2.173   4.410   5.990  0.4564 -0.6192 -0.5452
 4394SOL    HW124818   2.162   4.354   5.913 -2.5380  0.0811 -0.6082
 4394SOL    HW224819   2.268   4.403   6.002  0.2687  0.3777  1.4951
 4395SOL     OW24820   0.193   1.674  16.331  0.6841 -0.5489 -0.4160
 4395SOL    HW124821   0.187   1.673  16.235  0.0740 -1.1096 -0.3759
 4395SOL    HW224822   0.147   1.592  16.352 -2.8169  0.5469 -3.8084
 4396SOL     OW24823   1.115   2.850   2.892 -0.1370  0.2075  0.4128
 4396SOL    HW124824   1.179   2.797   2.845 -1.0453  0.4190 -1.0687
 4396SOL    HW224825   1.053   2.782   2.920 -2.3442  1.6867 -0.9218
 4397SOL     OW24826   1.614   3.953  16.038  0.4709 -0.1698 -0.0681
 4397SOL    HW124827   1.628   3.973  16.131  0.1190  1.1881 -0.3051
 4397SOL    HW224828   1.522   3.925  16.041  0.3178  0.5685  2.3601
 4398SOL     OW24829   0.984   1.890   1.238  0.0847  0.4115 -0.3954
 4398SOL    HW124830   1.002   1.800   1.211 -0.5066  0.3406 -0.5391
 4398SOL    HW224831   1.030   1.952   1.181  2.2320 -1.1977 -0.4033
 4399SOL     OW24832   2.369   2.350  10.053  0.2072 -0.4288 -0.0601
 4399SOL    HW124833   2.389   2.348   9.959  0.2746  0.2958 -0.0613
 4399SOL    HW224834   2.410   2.427  10.092 -1.0815 -0.7967  2.0465
 4400SOL     OW24835   2.857   1.374   6.600 -0.0155  0.0069  0.8653
 4400SOL    HW124836   2.832   1.423   6.679  0.5748 -0.0889  1.1106
 4400SOL    HW224837   2.838   1.286   6.632  1.4722 -0.7284 -0.2636
 4401SOL     OW24838   4.506   4.162   2.035  0.1807  0.9548 -0.6011
 4401SOL    HW124839   4.477   4.233   2.092 -1.1797  0.1854 -0.3266
 4401SOL    HW224840   4.584   4.198   1.994  0.6485  1.3565  0.6327
 4402SOL     OW24841   1.315   0.073   8.243  0.3867 -0.1733  0.4105
 4402SOL    HW124842   1.405   0.099   8.228  0.0764  0.4234 -0.4355
 4402SOL    HW224843   1.280   0.158   8.270 -1.4701 -1.3669  1.8768
 4403SOL     OW24844   3.292   3.484  10.297 -0.2688  0.5033  0.3307
 4403SOL    HW124845   3.236   3.419  10.253 -0.4360  1.4624 -0.8625
 4403SOL    HW224846   3.380   3.447  10.290 -1.0036 -1.4339  1.2814
 4404SOL     OW24847   3.434   3.374   8.518 -0.3217 -0.0331  0.2791
 4404SOL    HW124848   3.489   3.309   8.474 -0.0151  0.2014  0.3139
 4404SOL    HW224849   3.450   3.341   8.606 -0.2157 -1.0608 -0.1264
 4405SOL     OW24850   1.213   2.575   2.660  0.2017  0.1714 -0.1884
 4405SOL    HW124851   1.274   2.633   2.614 -0.9916  2.9485  1.6829
 4405SOL    HW224852   1.248   2.583   2.749 -0.1146  0.3288 -0.0773
 4406SOL     OW24853   0.363   3.607  10.119 -0.5529  0.2082 -0.3445
 4406SOL    HW124854   0.416   3.631  10.195 -1.8295 -2.1056  1.2901
 4406SOL    HW224855   0.371   3.683  10.062 -3.1403 -0.2776 -1.3600
 4407SOL     OW24856   2.342   0.086   7.345 -0.1237  0.1420  0.5613
 4407SOL    HW124857   2.394   0.006   7.344  1.7779  1.3953 -0.5635
 4407SOL    HW224858   2.401   0.142   7.295 -0.8006  0.2337 -0.1436
 4408SOL     OW24859   1.966   3.887   7.381  0.0480 -0.1111 -0.4919
 4408SOL    HW124860   1.942   3.843   7.463  1.5997  2.8719  1.5644
 4408SOL    HW224861   2.053   3.919   7.404 -0.3914  0.1697  0.8144
 4409SOL     OW24862   1.566   0.242   4.746 -0.3790 -0.6231 -0.5037
 4409SOL    HW124863   1.583   0.260   4.838  1.0039 -0.2708 -0.8220
 4409SOL    HW224864   1.518   0.159   4.750 -0.9356 -0.2460  0.3350
 4410SOL     OW24865   1.273   3.573   8.865  0.0660 -0.4941  0.2620
 4410SOL    HW124866   1.338   3.504   8.853  0.6140  0.0662  0.0750
 4410SOL    HW224867   1.225   3.547   8.944  0.3338 -1.7802  0.0149
 4411SOL     OW24868   1.322   3.990   5.481 -0.5290 -0.3356  0.4831
 4411SOL    HW124869   1.349   3.917   5.537 -0.1054 -0.7215 -0.2077
 4411SOL    HW224870   1.240   3.950   5.452 -0.2510  1.0113 -2.2269
 4412SOL     OW24871   0.675   3.581   2.561  0.0049  0.0993  0.1784
 4412SOL    HW124872   0.644   3.504   2.513  1.4800  0.7815 -1.8912
 4412SOL    HW224873   0.603   3.644   2.559  0.3343  0.5135  1.4304
 4413SOL     OW24874   2.053   2.636   3.511 -0.2797  0.2782 -0.6709
 4413SOL    HW124875   2.039   2.575   3.584  0.4989 -0.2277 -0.9458
 4413SOL    HW224876   2.044   2.720   3.555  0.2029  2.0576 -3.9981
 4414SOL     OW24877   0.002   3.549   5.123  0.4502  0.3220  0.0465
 4414SOL    HW124878   4.718   3.597   5.205  0.4149 -2.5649  1.7405
 4414SOL    HW224879   4.643   3.513   5.109  1.5254 -2.3435  0.2288
 4415SOL     OW24880   2.621   3.073  11.330 -0.2103 -0.3745 -0.3196
 4415SOL    HW124881   2.606   3.052  11.422  1.4440  1.0294  0.2729
 4415SOL    HW224882   2.594   3.164  11.317 -1.2142 -0.6825 -0.3669
 4416SOL     OW24883   2.971   4.514  16.508 -0.4692 -0.1420  0.2071
 4416SOL    HW124884   2.953   4.607  16.519  1.1316  0.2877 -0.8728
 4416SOL    HW224885   3.058   4.515  16.468 -0.2789  0.7898  0.6584
 4417SOL     OW24886   4.224   2.094   4.827 -0.5588  0.4041 -0.2643
 4417SOL    HW124887   4.292   2.091   4.760 -1.7531 -0.1534 -1.4519
 4417SOL    HW224888   4.240   2.180   4.866 -1.2279 -0.3333  1.6319
 4418SOL     OW24889   0.685   3.972   2.612 -0.3541 -0.3209  0.8698
 4418SOL    HW124890   0.648   3.980   2.523 -2.2375  0.9778  1.7792
 4418SOL    HW224891   0.631   3.899   2.643  2.0818 -1.8775  1.4664
 4419SOL     OW24892   3.547   0.438   2.061 -0.1535 -0.0380 -0.7948
 4419SOL    HW124893   3.590   0.498   2.001 -0.5518 -1.9245 -2.9838
 4419SOL    HW224894   3.526   0.361   2.008  0.7505 -0.4186 -0.5914
 4420SOL     OW24895   4.138   1.231   7.706  0.3953 -0.3549 -0.6204
 4420SOL    HW124896   4.113   1.185   7.626  1.7440 -2.0654 -0.0516
 4420SOL    HW224897   4.164   1.154   7.756 -0.8505 -0.7729 -0.6347
 4421SOL     OW24898   3.692   2.427  15.701  0.0335 -0.2226  0.1206
 4421SOL    HW124899   3.598   2.441  15.689  0.1280 -0.4142 -0.8433
 4421SOL    HW224900   3.724   2.425  15.611  1.2292  1.4756  0.5105
 4422SOL     OW24901   2.616   2.135   7.595  0.3825  0.2064 -1.2174
 4422SOL    HW124902   2.534   2.152   7.549  0.4511  0.2300 -1.3306
 4422SOL    HW224903   2.678   2.138   7.522  1.9173  1.3957  0.1216
 4423SOL     OW24904   1.636   2.934   9.393 -0.0579 -0.2141  0.0882
 4423SOL    HW124905   1.698   2.976   9.452  1.9727 -0.7668 -1.6550
 4423SOL    HW224906   1.550   2.961   9.424 -0.1965 -0.7275  0.1633
 4424SOL     OW24907   4.080   1.481  16.615  0.0580  0.2302 -0.2676
 4424SOL    HW124908   4.000   1.507  16.661  0.7470  1.5450  0.1863
 4424SOL    HW224909   4.136   1.459  16.689 -3.1511 -2.7647  1.2552
 4425SOL     OW24910   3.824   2.881   5.342  0.1982 -0.0930  0.5233
 4425SOL    HW124911   3.803   2.892   5.435 -2.8624 -1.1207 -0.0253
 4425SOL    HW224912   3.878   2.958   5.328 -0.3894  0.4457  1.2140
 4426SOL     OW24913   2.902   1.847   2.404  0.0200  0.4716 -0.1998
 4426SOL    HW124914   2.980   1.800   2.433  0.4331  1.3175  0.0407
 4426SOL    HW224915   2.837   1.820   2.470  0.4653  1.0489  0.4727
 4427SOL     OW24916   0.984   4.264  13.630  0.1330  0.1158  0.6070
 4427SOL    HW124917   1.020   4.239  13.545  2.7657  0.0634  1.7580
 4427SOL    HW224918   0.948   4.350  13.607  1.3010  0.3301 -0.3943
 4428SOL     OW24919   3.109   3.922  11.815 -0.1717 -0.8196  0.0985
 4428SOL    HW124920   3.110   3.863  11.739  2.4108  0.7629 -1.1152
 4428SOL    HW224921   3.053   3.877  11.878  1.5009 -0.3652  1.9081
 4429SOL     OW24922   1.492   1.614   8.159  0.2994  0.2394  0.1446
 4429SOL    HW124923   1.493   1.672   8.235  0.4531 -0.5058  0.7102
 4429SOL    HW224924   1.537   1.538   8.194  2.5059  1.2350 -0.5249
 4430SOL     OW24925   3.157   1.460   1.509 -0.5609 -0.3121  0.3969
 4430SOL    HW124926   3.238   1.510   1.500 -1.3475  0.8960  0.0311
 4430SOL    HW224927   3.100   1.536   1.525 -1.9474 -1.0728 -0.8808
 4431SOL     OW24928   1.632   1.875   6.009 -0.4707 -0.0627 -0.1475
 4431SOL    HW124929   1.552   1.828   6.035 -0.9280  0.7103 -0.1645
 4431SOL    HW224930   1.594   1.918   5.932 -2.8605 -1.7515  0.0692
 4432SOL     OW24931   0.223   0.679   2.900  0.4291  0.5704 -0.6515
 4432SOL    HW124932   0.226   0.640   2.813 -1.9178  0.7483 -0.8051
 4432SOL    HW224933   0.270   0.761   2.883  0.5740  0.4112 -1.0195
 4433SOL     OW24934   0.093   4.094   7.001  0.2124 -0.4500  0.5770
 4433SOL    HW124935   0.150   4.139   7.063  1.0773 -1.1586  0.2980
 4433SOL    HW224936   0.038   4.169   6.978 -0.2774 -1.7143 -2.4526
 4434SOL     OW24937   0.725   1.703   4.186 -0.5918  0.1232 -0.1955
 4434SOL    HW124938   0.732   1.664   4.099 -3.2073 -3.1674  1.0949
 4434SOL    HW224939   0.671   1.778   4.162 -0.0340  0.5806 -0.0430
 4435SOL     OW24940   2.144   2.149   2.872 -0.0534 -0.2419  0.4039
 4435SOL    HW124941   2.080   2.191   2.815  0.9588  1.0891  0.2336
 4435SOL    HW224942   2.192   2.110   2.798  0.4028  2.9259 -0.9735
 4436SOL     OW24943   1.572   3.994   8.105 -0.1637 -0.2576 -0.3340
 4436SOL    HW124944   1.493   4.007   8.157  0.5024 -0.1486  0.6564
 4436SOL    HW224945   1.592   3.904   8.132  2.3649  0.3050 -0.2821
 4437SOL     OW24946   4.623   1.526   4.973 -0.8163 -0.2428  0.5486
 4437SOL    HW124947   4.680   1.495   5.043  0.9872 -0.4332 -0.9812
 4437SOL    HW224948   4.629   1.619   4.996 -2.7991 -0.4130  1.6767
 4438SOL     OW24949   3.749   1.509  14.053 -0.4730 -0.4715  0.3989
 4438SOL    HW124950   3.661   1.547  14.052 -0.3154 -0.0992  0.2764
 4438SOL    HW224951   3.782   1.544  13.970  0.4505 -0.2791  0.8470
 4439SOL     OW24952   1.559   1.252   6.330  0.3521 -0.5161  0.2033
 4439SOL    HW124953   1.501   1.295   6.267 -1.6395 -0.9863  1.6909
 4439SOL    HW224954   1.586   1.178   6.276  0.7940  0.2668 -0.6479
 4440SOL     OW24955   4.179   0.669   9.560  0.3410 -0.2227 -0.7869
 4440SOL    HW124956   4.095   0.633   9.530 -0.2310 -0.4813  1.1559
 4440SOL    HW224957   4.155   0.749   9.606  0.6517 -1.9895  2.4166
 4441SOL     OW24958   1.465   0.263   2.294  0.8941 -0.3798  0.0311
 4441SOL    HW124959   1.422   0.209   2.361  0.4270  1.0066  0.8649
 4441SOL    HW224960   1.433   0.349   2.323  3.0429 -0.0941  1.5234
 4442SOL     OW24961   3.535   4.654   4.220  0.2911 -0.5194 -0.2348
 4442SOL    HW124962   3.590   4.657   4.298 -0.1590  0.5168  0.0394
 4442SOL    HW224963   3.528   4.559   4.212 -2.5160 -0.3778  0.2912
 4443SOL     OW24964   2.924   0.083  16.468  0.4076 -0.6484  0.3367
 4443SOL    HW124965   2.894   0.161  16.421  1.2637 -0.0829  0.7274
 4443SOL    HW224966   3.000   0.051  16.418  1.2932 -0.6958  1.7029
 4444SOL     OW24967   1.666   2.384   2.180 -0.4375 -0.1261  0.4283
 4444SOL    HW124968   1.660   2.397   2.085 -1.7232 -3.5955  0.0466
 4444SOL    HW224969   1.649   2.476   2.201 -0.7521 -0.1801  0.4163
 4445SOL     OW24970   1.517   3.723   8.121  0.4060  0.3946  0.1134
 4445SOL    HW124971   1.448   3.738   8.057 -0.4375  0.7786  1.1294
 4445SOL    HW224972   1.471   3.669   8.186  1.0489 -0.6460 -0.2818
 4446SOL     OW24973   0.683   3.288   7.745  0.2257 -0.0807  0.1801
 4446SOL    HW124974   0.631   3.316   7.671 -0.9936 -0.1155  1.0282
 4446SOL    HW224975   0.738   3.222   7.702 -0.8713 -2.9298  3.1696
 4447SOL     OW24976   3.313   2.957   4.699 -0.2026  0.3825  0.0647
 4447SOL    HW124977   3.360   2.915   4.772  1.0503 -0.8521 -1.4367
 4447SOL    HW224978   3.229   2.910   4.699  1.0364 -1.8289  0.1604
 4448SOL     OW24979   1.945   3.594   3.062  0.6476 -0.0992 -0.1485
 4448SOL    HW124980   1.982   3.531   3.123  0.2665 -0.6032 -0.4419
 4448SOL    HW224981   1.907   3.541   2.991  1.5368  0.4245 -1.0157
 4449SOL     OW24982   2.242   0.784   1.229  0.0148  0.0765 -0.1520
 4449SOL    HW124983   2.257   0.873   1.196 -0.8399  0.5124  0.6314
 4449SOL    HW224984   2.195   0.807   1.309 -2.3713 -0.2231 -1.4913
 4450SOL     OW24985   4.557   3.737   6.515  0.4987  0.7109 -0.5268
 4450SOL    HW124986   4.588   3.653   6.480  1.0885  1.1669 -1.1111
 4450SOL    HW224987   4.599   3.750   6.600 -0.7009 -2.3043  0.5392
 4451SOL     OW24988   1.449   0.288   6.839  0.2310  0.0039 -0.2501
 4451SOL    HW124989   1.399   0.241   6.906  1.0599 -0.4981  0.0125
 4451SOL    HW224990   1.526   0.234   6.854 -0.6423 -0.6340  1.9142
 4452SOL     OW24991   3.480   4.343  17.233 -0.0414  0.0498 -0.3200
 4452SOL    HW124992   3.549   4.377  17.290 -0.9019 -0.4678  1.0127
 4452SOL    HW224993   3.407   4.404  17.245 -0.1118  0.1620 -1.3498
 4453SOL     OW24994   2.762   4.175   4.471 -0.1499 -0.1419  0.6489
 4453SOL    HW124995   2.691   4.163   4.535 -0.4485  1.0799  0.5531
 4453SOL    HW224996   2.814   4.103   4.506 -3.0089 -1.1550  2.8151
 4454SOL     OW24997   1.060   3.013  11.725  0.8457  0.3019  0.3089
 4454SOL    HW124998   1.001   3.047  11.659 -0.1497 -1.6129  0.1996
 4454SOL    HW224999   1.016   2.935  11.759  2.5499 -0.9903 -0.4625
 4455SOL     OW25000   0.176   3.572   3.909  0.9435 -0.3003  0.2549
 4455SOL    HW125001   0.107   3.608   3.853  0.7252 -0.7521  0.2331
 4455SOL    HW225002   0.195   3.656   3.952 -2.1859  1.0644 -1.0118
 4456SOL     OW25003   4.274   3.785   3.783  0.0108 -0.6490  0.0044
 4456SOL    HW125004   4.350   3.774   3.840 -0.5004 -1.8960  0.4583
 4456SOL    HW225005   4.219   3.844   3.834  0.9105 -1.6786  2.1662
 4457SOL     OW25006   1.728   2.795   8.393 -0.3517  0.3725  0.4065
 4457SOL    HW125007   1.774   2.744   8.459 -0.7696  0.1110  0.4929
 4457SOL    HW225008   1.649   2.742   8.392 -0.5724  0.7112 -0.8524
 4458SOL     OW25009   2.231   2.528   9.061  0.7799 -0.2464 -0.0196
 4458SOL    HW125010   2.149   2.576   9.068  1.5382  0.8276  1.4592
 4458SOL    HW225011   2.220   2.448   9.112 -0.6455 -0.8062 -1.2099
 4459SOL     OW25012   3.830   1.347   6.704  0.2691 -0.4614  0.7017
 4459SOL    HW125013   3.850   1.254   6.697 -0.5987 -0.7327  1.9458
 4459SOL    HW225014   3.772   1.349   6.628  1.8346 -1.9480 -0.5534
 4460SOL     OW25015   4.584   4.278  17.125  0.7119  0.0161 -0.0266
 4460SOL    HW125016   4.671   4.240  17.131  1.3298  1.5884  0.9602
 4460SOL    HW225017   4.575   4.330  17.205  3.1354  0.1333  0.1532
 4461SOL     OW25018   0.604   0.830   5.453 -0.6376 -0.2080 -0.6205
 4461SOL    HW125019   0.582   0.891   5.523 -0.3946  0.1896 -0.8893
 4461SOL    HW225020   0.646   0.883   5.385  0.2407 -1.4936 -1.0892
 4462SOL     OW25021   1.147   2.209  11.523  0.2542 -0.6880  0.0034
 4462SOL    HW125022   1.231   2.241  11.489 -1.4047  2.5450 -1.0378
 4462SOL    HW225023   1.125   2.141  11.460  1.8681 -0.7402 -0.5191
 4463SOL     OW25024   1.786   0.048   8.524 -0.2424 -0.0904  0.2584
 4463SOL    HW125025   1.809   0.122   8.580 -0.5851  1.2872 -1.4313
 4463SOL    HW225026   1.871   0.007   8.510 -0.2358 -0.6517  1.8756
 4464SOL     OW25027   1.008   1.909  10.461 -0.4774  0.3671  0.3360
 4464SOL    HW125028   1.047   1.865  10.536  1.5339  0.4650 -0.6224
 4464SOL    HW225029   1.080   1.964  10.429 -0.1403 -0.3217 -0.0995
 4465SOL     OW25030   1.668   2.971   7.759 -0.6918 -0.6680  0.0299
 4465SOL    HW125031   1.579   3.000   7.778  0.5916  2.0334  2.0502
 4465SOL    HW225032   1.687   2.919   7.837  3.5055  1.4195  0.4329
 4466SOL     OW25033   2.982   4.156   9.638 -0.3445 -0.1823 -0.3326
 4466SOL    HW125034   3.060   4.100   9.630 -2.5648 -3.2137 -0.9760
 4466SOL    HW225035   2.987   4.186   9.728 -0.7882  1.3971 -0.8380
 4467SOL     OW25036   4.353   0.374   2.796 -0.8262 -0.2311 -0.1084
 4467SOL    HW125037   4.314   0.425   2.725  0.1991 -0.8345 -1.0986
 4467SOL    HW225038   4.314   0.419   2.872 -1.2815 -1.5220  0.4216
 4468SOL     OW25039   2.355   1.857   2.493  0.3085  0.0909  0.7261
 4468SOL    HW125040   2.287   1.904   2.444  3.0872 -0.2506 -3.4606
 4468SOL    HW225041   2.388   1.786   2.438  0.2642 -0.6039  1.5826
 4469SOL     OW25042   2.446   1.433   2.033  0.1394  0.1539  0.3770
 4469SOL    HW125043   2.445   1.347   1.991  1.5542 -0.1598  0.9878
 4469SOL    HW225044   2.410   1.418   2.120 -1.0682  1.7886  0.1542
 4470SOL     OW25045   2.268   4.159  12.901 -0.0571 -0.5673 -0.3515
 4470SOL    HW125046   2.263   4.087  12.837 -0.6761 -0.5901 -0.2783
 4470SOL    HW225047   2.197   4.143  12.962 -0.6316 -1.1504 -1.1650
 4471SOL     OW25048   3.431   3.293   1.600 -0.2494 -0.7188  0.4759
 4471SOL    HW125049   3.411   3.254   1.515  0.9248 -0.1096 -0.0800
 4471SOL    HW225050   3.475   3.372   1.570  0.0914 -1.3075 -0.5710
 4472SOL     OW25051   0.331   1.525   6.173 -0.4748 -0.3339  0.4106
 4472SOL    HW125052   0.397   1.567   6.228  2.2735 -1.0049 -2.3574
 4472SOL    HW225053   0.260   1.525   6.238 -1.8344 -0.3563 -1.0603
 4473SOL     OW25054   1.391   4.135   2.970  0.2525  0.6818  0.5126
 4473SOL    HW125055   1.457   4.157   2.904 -1.6031  2.4148 -0.7802
 4473SOL    HW225056   1.372   4.043   2.955 -0.9070  0.8451  0.9551
 4474SOL     OW25057   1.979   0.270   6.060  0.6943  0.2692 -0.0036
 4474SOL    HW125058   2.015   0.268   6.149 -0.9400 -1.5310  0.6057
 4474SOL    HW225059   1.964   0.363   6.044  0.5789  0.3827  0.7343
 4475SOL     OW25060   3.414   0.781   2.156 -0.2398  0.1862  0.2285
 4475SOL    HW125061   3.333   0.828   2.135 -0.9119 -1.2628 -0.4267
 4475SOL    HW225062   3.410   0.772   2.251  0.9760 -3.5995 -0.0619
 4476SOL     OW25063   2.293   2.890   2.024 -0.6416  0.3432 -0.0909
 4476SOL    HW125064   2.239   2.967   2.008 -1.0315 -0.3096 -1.9252
 4476SOL    HW225065   2.340   2.905   2.106 -3.3876  1.3471  1.2699
 4477SOL     OW25066   3.780   2.326  11.357 -0.1068 -0.5186 -0.5465
 4477SOL    HW125067   3.748   2.236  11.359 -2.1973  0.2651  1.4968
 4477SOL    HW225068   3.823   2.336  11.272  0.6712 -0.4435 -0.1466
 4478SOL     OW25069   2.011   1.827  12.623  0.2816  0.0249  0.5778
 4478SOL    HW125070   2.037   1.735  12.620  0.6055  0.1404 -0.1107
 4478SOL    HW225071   1.937   1.833  12.684  0.0401  3.2350 -0.0456
 4479SOL     OW25072   3.068   3.622   2.736 -0.2175  0.0304 -0.2111
 4479SOL    HW125073   3.145   3.585   2.779 -2.1262 -1.3194  2.0913
 4479SOL    HW225074   3.004   3.558   2.768  0.0085  0.4509  1.0645
 4480SOL     OW25075   2.238   0.368   3.243 -0.0849  0.1233  0.5985
 4480SOL    HW125076   2.254   0.284   3.286 -1.0820  0.2480  1.2077
 4480SOL    HW225077   2.319   0.414   3.268  1.5677 -2.2941 -0.2652
 4481SOL     OW25078   0.036   2.882   3.998 -0.5014 -0.0613  0.5405
 4481SOL    HW125079   4.693   2.844   3.949 -1.2772  3.0618 -0.7740
 4481SOL    HW225080   0.056   2.958   3.943  0.0834  0.4646  1.4671
 4482SOL     OW25081   0.824   3.914   8.273 -0.3401 -0.7847  0.2311
 4482SOL    HW125082   0.802   3.857   8.346  0.1071 -0.4945  0.5896
 4482SOL    HW225083   0.738   3.928   8.233  0.1358 -0.1135 -0.5547
 4483SOL     OW25084   3.592   0.790   5.104 -0.5739 -0.6028  0.3118
 4483SOL    HW125085   3.609   0.867   5.157 -2.0600 -1.4320  2.0214
 4483SOL    HW225086   3.670   0.791   5.049 -0.6276  0.3487  0.2648
 4484SOL     OW25087   2.065   0.960   4.785  0.1197 -0.5697  0.5513
 4484SOL    HW125088   2.108   0.919   4.860  1.7648  0.6332  0.2845
 4484SOL    HW225089   1.972   0.939   4.786  0.0686 -0.3173  1.0624
 4485SOL     OW25090   4.520   1.521   4.233 -0.7653 -0.2141 -0.0339
 4485SOL    HW125091   4.603   1.556   4.265  0.1680 -0.8562 -1.7880
 4485SOL    HW225092   4.550   1.441   4.191  2.9823  0.0644  2.0941
 4486SOL     OW25093   3.671   2.483  17.453 -0.2202  0.0436  0.4764
 4486SOL    HW125094   3.596   2.425  17.440  0.3713 -0.9178  1.3712
 4486SOL    HW225095   3.740   2.418  17.451 -0.4617 -0.0574 -3.7132
 4487SOL     OW25096   0.806   3.200  14.122 -0.5599 -0.2378  0.0295
 4487SOL    HW125097   0.860   3.279  14.121  0.4390 -0.9193  0.0480
 4487SOL    HW225098   0.751   3.227  14.195  0.5942  1.4274  0.2763
 4488SOL     OW25099   2.500   3.678   2.483  0.8527  0.0826  0.2891
 4488SOL    HW125100   2.464   3.721   2.406  0.5461  2.2672  1.6663
 4488SOL    HW225101   2.561   3.619   2.439  1.5513  0.1237  1.1972
 4489SOL     OW25102   2.234   1.981  13.957 -0.0807  0.0871 -0.3332
 4489SOL    HW125103   2.166   1.973  13.890 -2.1718  1.1173  1.6841
 4489SOL    HW225104   2.283   1.910  13.915 -1.6576 -2.4691  2.2105
 4490SOL     OW25105   4.029   3.765  12.350 -0.2176  0.3474  0.5828
 4490SOL    HW125106   4.042   3.674  12.378  1.7327 -0.2369 -2.2225
 4490SOL    HW225107   3.937   3.769  12.324 -0.3602 -3.6367  0.3850
 4491SOL     OW25108   2.979   3.622   4.235  0.7238 -0.2747 -0.0059
 4491SOL    HW125109   2.945   3.710   4.223 -0.8933 -0.7682  0.9338
 4491SOL    HW225110   2.926   3.581   4.304  0.6805  0.4577  0.3926
 4492SOL     OW25111   2.418   3.876   0.133 -0.1616  0.4991  0.1099
 4492SOL    HW125112   2.511   3.862   0.150 -0.0486  0.5545 -0.4383
 4492SOL    HW225113   2.383   3.935   0.199 -0.3296 -0.3071  0.7403
 4493SOL     OW25114   4.517   2.013  16.282 -0.8500  0.0337 -0.0828
 4493SOL    HW125115   4.517   1.968  16.366  0.6369  0.5497  0.1954
 4493SOL    HW225116   4.607   1.996  16.256 -1.0900  0.9474 -1.5437
 4494SOL     OW25117   4.228   1.597  10.427  0.1816  0.0688  0.1095
 4494SOL    HW125118   4.269   1.661  10.485  0.4169  0.1588 -0.1559
 4494SOL    HW225119   4.142   1.578  10.464 -0.0006 -2.1568 -1.4346
 4495SOL     OW25120   4.524   1.427  16.039  0.1417 -0.8028  0.0632
 4495SOL    HW125121   4.533   1.464  15.951  2.5009 -2.1998 -0.2730
 4495SOL    HW225122   4.506   1.502  16.096 -0.1239 -1.5651  0.9757
 4496SOL     OW25123   2.672   0.424   8.152  0.2704 -0.0593 -0.4635
 4496SOL    HW125124   2.682   0.330   8.140  1.5345  0.0798 -0.4638
 4496SOL    HW225125   2.757   0.460   8.126 -0.5858  0.7549 -2.1605
 4497SOL     OW25126   3.730   1.000  12.601  0.2725  0.0099 -0.1042
 4497SOL    HW125127   3.820   1.030  12.613  0.3440 -0.2470  0.0102
 4497SOL    HW225128   3.709   0.988  12.694 -0.5055  1.9378 -0.0350
 4498SOL     OW25129   3.546   1.994   2.395  0.6378 -0.2378 -0.2792
 4498SOL    HW125130   3.521   1.983   2.486 -1.0214  3.0232 -0.3489
 4498SOL    HW225131   3.468   1.960   2.351  0.1335  2.1601 -1.2584
 4499SOL     OW25132   4.726   3.968  16.997  0.6424 -0.6120 -0.1563
 4499SOL    HW125133   4.648   3.958  17.051  0.0949  2.6074 -0.3137
 4499SOL    HW225134   4.690   3.972  16.908  1.6534  0.6799 -0.5091
 4500SOL     OW25135   3.834   2.644  14.083 -0.2949  0.3730  0.0194
 4500SOL    HW125136   3.823   2.561  14.129  0.9139  0.5398  0.6143
 4500SOL    HW225137   3.768   2.697  14.129  1.3304  1.1958  1.4075
 4501SOL     OW25138   2.157   3.454   1.037  0.6030  0.2117 -0.8462
 4501SOL    HW125139   2.137   3.361   1.051  1.7453 -0.1036 -1.2872
 4501SOL    HW225140   2.241   3.454   0.991 -1.0181 -0.4078 -3.7726
 4502SOL     OW25141   0.709   4.532  13.179 -0.0253 -0.4195 -0.6285
 4502SOL    HW125142   0.773   4.579  13.233 -0.7540  1.2088 -1.1617
 4502SOL    HW225143   0.761   4.516  13.101  0.4093 -1.5944 -0.0866
 4503SOL     OW25144   2.123   4.440  15.918 -0.3255 -0.1087  0.2924
 4503SOL    HW125145   2.202   4.444  15.865  0.6196  0.4272  1.7438
 4503SOL    HW225146   2.081   4.370  15.868 -1.0322  0.6987 -0.2510
 4504SOL     OW25147   2.309   1.555   8.069  0.1641  0.1845 -0.3473
 4504SOL    HW125148   2.381   1.589   8.122 -0.6242 -2.6200  2.5264
 4504SOL    HW225149   2.238   1.586   8.125 -0.0746 -0.9167 -0.0303
 4505SOL     OW25150   2.794   3.956   3.597 -0.4650  0.1150 -0.0333
 4505SOL    HW125151   2.864   3.891   3.588  0.2972  1.3340 -2.9275
 4505SOL    HW225152   2.777   3.982   3.507  1.1505 -0.9182 -0.6583
 4506SOL     OW25153   4.253   4.517  12.127 -0.4496  0.4621  0.2386
 4506SOL    HW125154   4.282   4.579  12.194 -0.8876 -0.4857  1.2935
 4506SOL    HW225155   4.160   4.514  12.146 -0.2213 -1.0054  1.1337
 4507SOL     OW25156   0.969   2.085   4.963 -0.1476  0.7567  0.5780
 4507SOL    HW125157   1.057   2.055   4.942 -0.6144  1.0678 -1.7930
 4507SOL    HW225158   0.917   2.037   4.899  0.0755 -2.0954  2.5438
 4508SOL     OW25159   3.481   4.405   5.726  0.0971 -0.5795 -0.3682
 4508SOL    HW125160   3.409   4.344   5.705  1.2216 -2.6137  1.6324
 4508SOL    HW225161   3.553   4.347   5.752 -0.3172 -0.7246  0.4496
 4509SOL     OW25162   3.893   2.029   8.258  0.2628 -0.4344  0.5133
 4509SOL    HW125163   3.982   2.039   8.293  0.9744  0.1615 -1.4449
 4509SOL    HW225164   3.893   1.997   8.168 -0.9803  0.8699  0.0580
 4510SOL     OW25165   3.121   0.429  12.424 -0.7761 -0.1505  0.1496
 4510SOL    HW125166   3.158   0.517  12.411 -3.0700  0.4945 -2.0624
 4510SOL    HW225167   3.197   0.375  12.446 -1.1213  0.6833  3.3102
 4511SOL     OW25168   1.696   1.576   2.391 -0.5038  0.0164 -0.4834
 4511SOL    HW125169   1.724   1.667   2.403 -1.2101 -0.3598  3.7082
 4511SOL    HW225170   1.607   1.588   2.424 -0.2400  1.2828 -0.2232
 4512SOL     OW25171   2.727   3.905   7.337 -0.3740  0.5090  0.1862
 4512SOL    HW125172   2.648   3.946   7.301 -0.0502 -1.6834 -3.0994
 4512SOL    HW225173   2.730   3.954   7.419  0.0957  1.6023 -0.4847
 4513SOL     OW25174   0.167   2.536   3.889 -0.7837  0.5730  0.3335
 4513SOL    HW125175   0.139   2.472   3.823 -0.0815 -0.4663  1.0582
 4513SOL    HW225176   0.257   2.508   3.907 -0.5807  0.1034 -1.3858
 4514SOL     OW25177   1.174   3.758  17.639 -0.1783 -0.1199  0.4008
 4514SOL    HW125178   1.079   3.763  17.646 -0.0313  2.4648  0.6237
 4514SOL    HW225179   1.191   3.837  17.588  0.6641 -0.8683 -0.4711
 4515SOL     OW25180   4.565   2.900   1.552 -0.2907 -0.3747  0.1361
 4515SOL    HW125181   4.565   2.947   1.636 -2.0466  0.4410 -0.3229
 4515SOL    HW225182   4.658   2.875   1.546 -0.7209 -2.3432  1.4352
 4516SOL     OW25183   4.702   0.283   3.995 -0.4358  0.0331  0.4573
 4516SOL    HW125184   0.003   0.306   4.083 -0.9327 -0.0055  0.6393
 4516SOL    HW225185   4.606   0.281   3.999 -0.4042 -1.3566  0.2212
 4517SOL     OW25186   3.690   4.145  10.278 -0.1932 -0.4615  0.4184
 4517SOL    HW125187   3.724   4.224  10.320  2.0254 -0.3985 -1.4668
 4517SOL    HW225188   3.770   4.118  10.232 -1.3359 -0.5781 -1.4959
 4518SOL     OW25189   1.795   3.881   5.819 -0.4519 -0.0970  0.6034
 4518SOL    HW125190   1.741   3.939   5.764 -1.8706 -2.1261 -0.1402
 4518SOL    HW225191   1.749   3.893   5.902 -1.2667  2.9038 -0.2714
 4519SOL     OW25192   0.507   2.821  16.556  0.6955  0.5323  0.5269
 4519SOL    HW125193   0.429   2.780  16.593  0.4122 -0.2303 -0.9037
 4519SOL    HW225194   0.566   2.749  16.535 -0.5910  0.0369 -1.3950
 4520SOL     OW25195   3.548   1.192   3.071  0.0481  0.2456  0.0860
 4520SOL    HW125196   3.602   1.114   3.080  1.3022  1.3677  2.2453
 4520SOL    HW225197   3.612   1.259   3.095 -0.1058  1.2082 -2.1617
 4521SOL     OW25198   0.979   3.515  16.026  0.1415 -0.4816  0.1599
 4521SOL    HW125199   1.021   3.507  16.112  0.7711  4.1637  0.2824
 4521SOL    HW225200   0.885   3.517  16.042  0.1478  0.0525  0.1537
 4522SOL     OW25201   3.279   2.330   0.120 -0.3231  0.2621  0.3301
 4522SOL    HW125202   3.254   2.279   0.197  1.6784 -0.8561  0.2419
 4522SOL    HW225203   3.300   2.262   0.056 -0.8930  0.8253 -0.4562
 4523SOL     OW25204   4.466   2.349   4.134 -0.1208 -0.0445 -0.0651
 4523SOL    HW125205   4.391   2.325   4.079  0.0197 -2.3005  0.7188
 4523SOL    HW225206   4.510   2.263   4.130 -0.6244 -0.2852 -0.3894
 4524SOL     OW25207   4.102   0.912   1.449  0.1000  0.3030 -0.1145
 4524SOL    HW125208   4.029   0.971   1.463 -0.7979 -0.9893  0.5961
 4524SOL    HW225209   4.158   0.931   1.524 -0.1721 -0.3448  0.2502
 4525SOL     OW25210   1.265   0.402   8.898  1.0333  0.6259  0.6286
 4525SOL    HW125211   1.335   0.451   8.944  0.5516  2.3844 -0.5019
 4525SOL    HW225212   1.316   0.349   8.837 -1.5454 -0.6037 -0.4259
 4526SOL     OW25213   2.795   0.709   8.309  0.4718 -0.3464  0.3580
 4526SOL    HW125214   2.707   0.696   8.275  1.2212 -2.6678 -0.6739
 4526SOL    HW225215   2.824   0.620   8.330 -0.8196 -0.6953  0.6944
 4527SOL     OW25216   2.577   2.619   2.619  0.4265  0.3583 -0.1393
 4527SOL    HW125217   2.530   2.699   2.641 -0.7899 -0.0105 -1.4080
 4527SOL    HW225218   2.598   2.638   2.527  1.2576 -1.0648 -0.2420
 4528SOL     OW25219   1.913   4.370  15.370  0.1337 -0.8366 -0.2677
 4528SOL    HW125220   1.846   4.433  15.343  2.7588  1.1870 -2.1426
 4528SOL    HW225221   1.896   4.354  15.462  1.6317 -1.3420 -0.0803
 4529SOL     OW25222   0.138   3.663   9.167  0.1123  0.4010 -0.4279
 4529SOL    HW125223   0.222   3.703   9.190  0.6872 -0.6286 -0.7645
 4529SOL    HW225224   0.141   3.644   9.074 -0.9849 -0.9179 -0.1956
 4530SOL     OW25225   2.968   3.458   6.397 -0.5690  0.0893 -0.2949
 4530SOL    HW125226   2.972   3.455   6.492 -0.6804  0.4800 -0.2777
 4530SOL    HW225227   2.941   3.548   6.376  0.1626 -0.3292 -3.0332
 4531SOL     OW25228   3.802   3.965   7.123 -0.4645  0.3768 -0.1765
 4531SOL    HW125229   3.890   3.953   7.160  0.0907  0.0284 -1.5788
 4531SOL    HW225230   3.748   3.909   7.179  0.2026 -1.9351 -1.8231
 4532SOL     OW25231   3.054   4.170  16.729 -0.3767  0.7398 -0.2450
 4532SOL    HW125232   3.001   4.092  16.744  0.3216 -0.0068 -1.6972
 4532SOL    HW225233   2.998   4.236  16.772 -2.5604  0.0152 -1.9692
 4533SOL     OW25234   0.089   2.698   5.706 -0.1452 -0.4804  0.5605
 4533SOL    HW125235   0.107   2.731   5.619  0.7936  0.8568  1.2699
 4533SOL    HW225236   0.175   2.668   5.737 -1.2473 -2.4405  1.7720
 4534SOL     OW25237   0.676   0.866   3.774  0.1187  0.1843  0.1228
 4534SOL    HW125238   0.652   0.944   3.725  3.5867  0.8924 -0.4136
 4534SOL    HW225239   0.602   0.851   3.833 -0.8046 -1.8721 -1.5151
 4535SOL     OW25240   4.587   1.973   4.669  0.4268 -0.2497 -0.1306
 4535SOL    HW125241   4.566   1.922   4.590 -1.6354  1.3614 -0.6121
 4535SOL    HW225242   4.611   1.896   4.720  2.3770  1.4756  1.5476
 4536SOL     OW25243   1.966   3.707  17.012  0.1450 -0.5521  0.2703
 4536SOL    HW125244   2.014   3.633  16.974 -1.1478 -0.2064 -1.9820
 4536SOL    HW225245   1.983   3.687  17.104  2.7892 -3.5028 -0.8343
 4537SOL     OW25246   4.472   2.783   5.483  0.2547  0.2134 -0.1683
 4537SOL    HW125247   4.468   2.804   5.390 -0.7151  0.2928 -0.1055
 4537SOL    HW225248   4.554   2.734   5.480 -0.8194 -1.6074  0.3652
 4538SOL     OW25249   4.248   1.653   2.848 -0.3723 -0.3335 -0.4566
 4538SOL    HW125250   4.319   1.647   2.784 -1.3270 -1.4078 -1.4285
 4538SOL    HW225251   4.283   1.695   2.926  2.6536  0.1187 -2.0430
 4539SOL     OW25252   1.038   3.914  15.411  0.2311  1.0122  0.0708
 4539SOL    HW125253   1.109   3.851  15.419 -1.1527 -0.4908  0.7551
 4539SOL    HW225254   0.978   3.884  15.480 -1.5285  2.1298 -0.9704
 4540SOL     OW25255   1.244   3.812   2.735  0.5232  0.4369  0.7236
 4540SOL    HW125256   1.250   3.813   2.830  1.1284  2.0188  0.6598
 4540SOL    HW225257   1.204   3.898   2.723 -2.6275 -0.8630  1.9601
 4541SOL     OW25258   0.717   2.444   4.251 -0.7481  0.2037  0.7908
 4541SOL    HW125259   0.646   2.396   4.294  0.0855  0.2754  2.2521
 4541SOL    HW225260   0.748   2.380   4.187 -2.8505  0.6429 -0.6845
 4542SOL     OW25261   3.668   4.472   5.366  0.5702 -0.7891 -0.2487
 4542SOL    HW125262   3.616   4.394   5.383 -0.2799 -0.1138  0.2110
 4542SOL    HW225263   3.612   4.546   5.390  1.1103 -0.5628  0.3103
 4543SOL     OW25264   1.979   1.268   2.622  1.1532  0.2017  0.0083
 4543SOL    HW125265   2.023   1.269   2.707 -0.5801  0.1889  0.9088
 4543SOL    HW225266   1.959   1.361   2.606 -1.8616 -0.7061 -1.3665
 4544SOL     OW25267   0.693   2.543   4.629 -0.0992  0.6265 -0.0548
 4544SOL    HW125268   0.674   2.636   4.622  1.3171  0.9159  0.0047
 4544SOL    HW225269   0.638   2.504   4.696  1.1433 -0.7856  0.1422
 4545SOL     OW25270   2.702   0.796  10.731 -0.4386  0.1868 -0.4800
 4545SOL    HW125271   2.683   0.875  10.781  0.6621  0.4271 -0.4555
 4545SOL    HW225272   2.722   0.734  10.802  0.5381  0.8499 -0.1873
 4546SOL     OW25273   2.818   1.249   7.029  0.2909 -0.2074  0.3268
 4546SOL    HW125274   2.886   1.317   7.025 -1.1491  1.2391  0.4149
 4546SOL    HW225275   2.872   1.170   7.025  1.2768  0.5189 -0.6731
 4547SOL     OW25276   3.829   4.022  13.785 -0.3269 -0.0008  0.0034
 4547SOL    HW125277   3.846   3.929  13.802  1.5561  0.3610  0.0678
 4547SOL    HW225278   3.861   4.060  13.867 -1.8097  0.3480  0.4196
 4548SOL     OW25279   1.618   2.830   3.927 -0.3556 -0.3770 -0.2592
 4548SOL    HW125280   1.634   2.786   3.844  0.1875  1.3654 -1.0754
 4548SOL    HW225281   1.552   2.768   3.957 -0.8579 -0.3096 -1.2229
 4549SOL     OW25282   4.638   0.743   7.013  0.7321  0.1928  0.4527
 4549SOL    HW125283   4.596   0.740   7.099 -0.7618 -1.2228 -0.3243
 4549SOL    HW225284   4.658   0.650   7.002 -2.7756 -0.2446 -2.0435
 4550SOL     OW25285   0.020   0.728   5.949 -0.0272 -0.1721 -0.2912
 4550SOL    HW125286   0.005   0.634   5.960 -1.7103  0.1922  0.5988
 4550SOL    HW225287   4.683   0.763   6.009 -0.1464  1.3430 -1.3073
 4551SOL     OW25288   0.795   4.025   1.636 -0.0551  0.0921 -0.3411
 4551SOL    HW125289   0.850   4.009   1.713  0.1571 -2.8899 -1.1332
 4551SOL    HW225290   0.737   4.094   1.668 -0.0584  0.1627 -0.5011
 4552SOL     OW25291   4.105   0.455   6.350 -0.3325  0.2684  0.0921
 4552SOL    HW125292   4.180   0.509   6.374 -0.0175 -0.0551 -0.1611
 4552SOL    HW225293   4.104   0.476   6.257 -0.1296 -1.8741 -0.4055
 4553SOL     OW25294   4.153   4.605  11.619 -0.2197  0.3183 -0.1477
 4553SOL    HW125295   4.180   4.671  11.683 -0.5259 -1.3747  1.7556
 4553SOL    HW225296   4.059   4.616  11.605 -0.2682 -0.7654 -0.7012
 4554SOL     OW25297   3.396   2.750   9.547 -0.2277 -0.7025 -0.0008
 4554SOL    HW125298   3.399   2.658   9.521 -1.3411  0.0164 -2.6778
 4554SOL    HW225299   3.454   2.761   9.622  1.2158  0.3396 -1.2526
 4555SOL     OW25300   2.479   3.752   7.650 -0.4360 -0.5111 -0.7993
 4555SOL    HW125301   2.548   3.685   7.650  0.0566 -0.0032 -1.1685
 4555SOL    HW225302   2.510   3.823   7.707 -1.0704 -0.6402 -0.2969
 4556SOL     OW25303   0.339   4.190  10.518 -0.0078  0.1739  0.1586
 4556SOL    HW125304   0.248   4.159  10.521  0.0284  0.2319  1.7865
 4556SOL    HW225305   0.358   4.186  10.424  0.5777 -1.6678  0.3372
 4557SOL     OW25306   2.915   3.971   3.857 -0.5042 -0.1520  0.6047
 4557SOL    HW125307   2.856   4.043   3.880  0.8175  1.3354 -0.6267
 4557SOL    HW225308   2.894   3.949   3.766 -1.6602  1.1266  0.5586
 4558SOL     OW25309   2.349   2.184   3.102  0.0308 -0.1001 -0.2013
 4558SOL    HW125310   2.297   2.153   3.028  0.6234 -1.2927 -0.1100
 4558SOL    HW225311   2.401   2.104   3.111 -1.1888 -0.8700 -0.0144
 4559SOL     OW25312   1.320   0.396   4.166 -0.1343  0.1076 -0.2658
 4559SOL    HW125313   1.367   0.388   4.083 -0.8602 -2.2266 -0.4491
 4559SOL    HW225314   1.297   0.489   4.173 -2.4276 -0.4129 -1.0496
 4560SOL     OW25315   3.317   2.498   7.265 -0.5598  0.2951  0.5456
 4560SOL    HW125316   3.288   2.548   7.341  2.4919  0.6458  1.4943
 4560SOL    HW225317   3.238   2.506   7.212 -1.7292 -0.1426  2.2374
 4561SOL     OW25318   1.064   4.456   3.434 -0.2622  0.2867  0.0423
 4561SOL    HW125319   1.022   4.432   3.517 -1.5107 -1.2897 -1.0659
 4561SOL    HW225320   1.096   4.374   3.398 -0.7618  0.1047  0.0201
 4562SOL     OW25321   1.431   0.173   3.584 -0.6606  0.1693 -0.2832
 4562SOL    HW125322   1.434   0.268   3.591  1.7479  0.1881 -1.5412
 4562SOL    HW225323   1.351   0.164   3.636 -0.4922  2.3953  0.3826
 4563SOL     OW25324   0.872   0.316   2.477  0.1433 -0.3621 -0.2150
 4563SOL    HW125325   0.796   0.300   2.421  0.0911  3.2641 -1.2211
 4563SOL    HW225326   0.874   0.412   2.476 -3.3925 -0.2407  2.4851
 4564SOL     OW25327   3.776   0.831   2.881  1.0902  0.0094  0.0963
 4564SOL    HW125328   3.700   0.785   2.845 -1.1852  2.8444  1.3273
 4564SOL    HW225329   3.833   0.756   2.900  0.5153 -1.0060 -2.1413
 4565SOL     OW25330   1.423   0.814   3.583  0.1629  0.4472  0.2470
 4565SOL    HW125331   1.338   0.849   3.557 -0.3973 -1.4465 -0.4442
 4565SOL    HW225332   1.438   0.862   3.664 -1.0348  1.5026 -0.1422
 4566SOL     OW25333   3.981   2.331  17.391  0.4623 -0.8472 -0.1720
 4566SOL    HW125334   3.990   2.354  17.299  0.6740 -1.2369 -0.2494
 4566SOL    HW225335   3.910   2.267  17.388  0.6782 -1.1325  0.8313
 4567SOL     OW25336   2.012   0.688   9.546  0.5684 -0.1577 -0.2804
 4567SOL    HW125337   1.920   0.706   9.529  0.5650  2.5655  2.5543
 4567SOL    HW225338   2.007   0.612   9.605  0.0034 -0.6465 -0.9597
 4568SOL     OW25339   3.214   4.563   4.696  0.0545  0.1206  0.0498
 4568SOL    HW125340   3.166   4.546   4.614 -0.8673 -0.7493  0.7748
 4568SOL    HW225341   3.165   4.505   4.754 -0.7432  0.9139  0.1787
 4569SOL     OW25342   4.683   1.081  11.895  0.3082 -0.3862 -0.4596
 4569SOL    HW125343   4.695   1.137  11.972 -0.9437  0.1397 -0.6555
 4569SOL    HW225344   4.618   1.127  11.842  0.1356 -2.1436 -1.7862
 4570SOL     OW25345   4.345   0.513   6.870 -0.0258 -0.2377 -0.4151
 4570SOL    HW125346   4.390   0.568   6.806  0.5670  2.1900  2.0640
 4570SOL    HW225347   4.405   0.439   6.878 -0.3633 -0.2273  2.4377
 4571SOL     OW25348   2.865   1.681   8.404 -0.5387  0.2198 -0.1858
 4571SOL    HW125349   2.923   1.737   8.353 -0.7810  1.0100  0.3951
 4571SOL    HW225350   2.849   1.609   8.343  0.1155 -0.3608  0.3180
 4572SOL     OW25351   1.806   0.007   4.516  0.3569 -0.1818 -0.5464
 4572SOL    HW125352   1.834   4.705   4.429  0.3817 -0.5872 -0.3925
 4572SOL    HW225353   1.776   4.652   4.551 -0.1633 -0.0307 -0.6304
 4573SOL     OW25354   4.144   0.792   2.764  0.3661  1.0244 -0.1608
 4573SOL    HW125355   4.178   0.715   2.718  1.2994  0.8601  0.8138
 4573SOL    HW225356   4.136   0.852   2.690 -0.6684  0.4330 -0.5305
 4574SOL     OW25357   0.833   4.053   2.895 -0.7043 -0.1741  0.6741
 4574SOL    HW125358   0.755   4.081   2.945 -0.9491  0.6987 -0.1986
 4574SOL    HW225359   0.834   4.127   2.835 -1.4815 -1.5982 -1.0922
 4575SOL     OW25360   4.689   0.153   5.498  0.2825 -0.6894 -0.0106
 4575SOL    HW125361   0.001   0.078   5.453  0.3190 -0.3194 -0.5965
 4575SOL    HW225362   4.603   0.116   5.516  0.1039  0.2547  1.0789
 4576SOL     OW25363   1.523   3.721   3.124 -0.0475 -0.0260 -0.0357
 4576SOL    HW125364   1.474   3.707   3.043 -1.0315 -1.5611  0.8079
 4576SOL    HW225365   1.569   3.638   3.135  0.3968  0.1394 -0.7003
 4577SOL     OW25366   2.248   4.125  16.903 -0.3735 -0.0459  0.4771
 4577SOL    HW125367   2.294   4.043  16.883 -2.1788 -0.7422 -0.8226
 4577SOL    HW225368   2.168   4.097  16.948 -1.6166  0.7167 -1.2421
 4578SOL     OW25369   2.679   3.573   2.276 -0.2024  0.8048 -0.2943
 4578SOL    HW125370   2.653   3.610   2.192  0.5984  1.8163 -0.0991
 4578SOL    HW225371   2.775   3.571   2.278 -0.2284 -1.7675 -1.0930
 4579SOL     OW25372   0.065   2.032  16.221 -0.0752 -0.0747 -0.2388
 4579SOL    HW125373   0.078   2.121  16.190 -0.9113 -0.8314 -2.7731
 4579SOL    HW225374   0.111   2.021  16.304  0.7925 -2.7839 -1.0534
 4580SOL     OW25375   2.402   4.581   7.718 -0.3064  0.2159 -0.0412
 4580SOL    HW125376   2.439   4.493   7.720  0.2167  0.3805 -2.5472
 4580SOL    HW225377   2.472   4.630   7.762  0.4299 -1.3406  0.5010
 4581SOL     OW25378   1.096   0.137  13.201 -0.0298 -0.3533  0.2319
 4581SOL    HW125379   1.190   0.121  13.189 -0.9070 -2.7492 -3.2323
 4581SOL    HW225380   1.093   0.233  13.193  0.9219 -0.4614 -1.4730
 4582SOL     OW25381   2.632   0.049   5.278  0.0752  0.4890 -0.0914
 4582SOL    HW125382   2.661   0.061   5.368 -0.6232 -1.1052  0.3498
 4582SOL    HW225383   2.563   0.115   5.275 -0.7068 -0.3598 -1.1011
 4583SOL     OW25384   1.981   3.599   8.341  0.1214  0.0391 -0.3860
 4583SOL    HW125385   1.905   3.642   8.379  1.8257  0.3895  2.5734
 4583SOL    HW225386   2.037   3.573   8.414  1.5176  0.0633 -1.4295
 4584SOL     OW25387   4.693   2.384   2.714 -0.1396 -0.4132 -0.5947
 4584SOL    HW125388   4.677   2.303   2.762 -0.1734 -0.9580 -1.5309
 4584SOL    HW225389   4.727   2.347   2.633  3.3277 -0.5190  0.8832
 4585SOL     OW25390   2.123   2.909   5.422 -0.1503  0.1597 -0.2830
 4585SOL    HW125391   2.176   2.833   5.443 -2.4593 -0.9402  1.5682
 4585SOL    HW225392   2.114   2.903   5.327  2.0612  3.4160 -0.6974
 4586SOL     OW25393   4.331   3.041  10.408 -0.1517 -0.3312 -0.1926
 4586SOL    HW125394   4.317   3.132  10.381 -1.4501  0.3022  2.5792
 4586SOL    HW225395   4.411   3.028  10.358 -0.6472 -2.3092 -0.4693
 4587SOL     OW25396   2.008   4.595   5.859  0.4955  0.2440  0.2072
 4587SOL    HW125397   2.053   4.524   5.905  0.7642 -0.8540 -1.7362
 4587SOL    HW225398   2.090   4.632   5.825 -0.8904  1.2379 -2.0528
 4588SOL     OW25399   2.418   4.022   4.791 -0.5846 -0.0930  0.1487
 4588SOL    HW125400   2.399   4.046   4.882 -1.5007  1.4176 -0.4286
 4588SOL    HW225401   2.451   3.933   4.800  1.6399  0.6621 -0.5680
 4589SOL     OW25402   4.080   3.621   4.283 -0.0407 -0.2266 -0.6888
 4589SOL    HW125403   4.138   3.623   4.359 -1.6328  1.0096  0.4919
 4589SOL    HW225404   4.140   3.624   4.209 -0.5274  2.0716 -0.9881
 4590SOL     OW25405   2.697   1.446  13.966 -0.7881 -0.0374  0.3314
 4590SOL    HW125406   2.636   1.520  13.963 -0.4505  0.1220 -2.7005
 4590SOL    HW225407   2.774   1.481  13.920 -0.8297  2.1364  1.9142
 4591SOL     OW25408   3.970   1.289   6.411 -0.1615 -0.5539  0.0736
 4591SOL    HW125409   3.983   1.379   6.380 -2.4262 -0.9481 -2.0713
 4591SOL    HW225410   3.959   1.304   6.505 -0.3565 -0.1394 -0.0127
 4592SOL     OW25411   1.277   1.756   5.289 -0.3529  0.1441  0.1654
 4592SOL    HW125412   1.184   1.739   5.305 -0.3883  1.7606  1.6728
 4592SOL    HW225413   1.283   1.851   5.299  0.8056  0.1735 -0.8343
 4593SOL     OW25414   4.374   0.744  14.162 -0.1977 -0.6815 -0.6958
 4593SOL    HW125415   4.317   0.729  14.237  0.1394  1.7137  0.0675
 4593SOL    HW225416   4.310   0.785  14.104  1.2119  0.1392 -1.6654
 4594SOL     OW25417   1.483   3.438  10.352 -0.1035 -0.4298 -0.5226
 4594SOL    HW125418   1.448   3.479  10.274 -1.5655 -0.9436 -0.1447
 4594SOL    HW225419   1.433   3.485  10.419  0.6272  1.9034 -1.6422
 4595SOL     OW25420   1.466   3.141   4.450  0.2834 -0.5190 -0.2668
 4595SOL    HW125421   1.542   3.197   4.470 -1.0648  1.7678 -1.5312
 4595SOL    HW225422   1.409   3.202   4.402 -0.2466 -0.4540  0.4317
 4596SOL     OW25423   1.416   0.856   6.010  0.3086  0.5921 -0.0470
 4596SOL    HW125424   1.427   0.949   5.991  0.5221  0.3501 -1.0978
 4596SOL    HW225425   1.401   0.824   5.921  1.3581 -2.0535  0.7350
 4597SOL     OW25426   0.985   4.603  11.555 -0.2349 -0.7450  0.7435
 4597SOL    HW125427   1.040   4.680  11.543  0.9554 -1.6785  0.2157
 4597SOL    HW225428   0.937   4.610  11.638  1.1875  0.0164  1.4996
 4598SOL     OW25429   1.697   2.913   9.140  0.4295  0.5574 -0.5879
 4598SOL    HW125430   1.689   2.906   9.235 -0.0130 -0.0635 -0.6692
 4598SOL    HW225431   1.604   2.916   9.120  0.4794  0.4083 -0.8419
 4599SOL     OW25432   2.345   0.128   5.334 -0.1720 -0.6162 -0.2734
 4599SOL    HW125433   2.311   0.149   5.421  0.4226 -0.0163 -0.1847
 4599SOL    HW225434   2.360   0.217   5.303  0.2443 -1.1214 -1.5524
 4600SOL     OW25435   4.275   3.444  14.724  0.2317  0.2294 -0.0269
 4600SOL    HW125436   4.314   3.468  14.809 -0.3311 -1.1573  0.6141
 4600SOL    HW225437   4.255   3.530  14.686 -1.1775  0.9582  2.3303
 4601SOL     OW25438   4.467   1.899  14.694 -0.0907 -0.3469  0.2751
 4601SOL    HW125439   4.459   1.977  14.638 -0.2805  0.0887  0.9163
 4601SOL    HW225440   4.531   1.848  14.644  1.0957  2.3732 -0.9751
 4602SOL     OW25441   1.584   4.521   6.365 -0.6833 -0.3055 -0.5633
 4602SOL    HW125442   1.503   4.488   6.404 -0.1917 -0.3105  0.4493
 4602SOL    HW225443   1.594   4.464   6.288 -0.8934 -1.8039  0.5120
 4603SOL     OW25444   2.557   0.247  10.178 -0.1737 -0.1170  0.3589
 4603SOL    HW125445   2.596   0.193  10.109  1.4808 -0.6396  1.6897
 4603SOL    HW225446   2.630   0.306  10.197 -0.1536  0.4854 -1.5758
 4604SOL     OW25447   0.104   0.217   2.386 -0.3573  0.6123 -0.3751
 4604SOL    HW125448   0.036   0.155   2.412  0.5599 -1.2578 -2.4365
 4604SOL    HW225449   0.072   0.304   2.409 -2.5490 -0.4928  0.7787
 4605SOL     OW25450   3.179   3.375   3.945 -0.3002 -0.1121  0.4938
 4605SOL    HW125451   3.256   3.425   3.972 -0.1346  0.6701 -1.4801
 4605SOL    HW225452   3.219   3.294   3.912 -1.5102 -1.1553  1.5688
 4606SOL     OW25453   3.636   3.909   4.901  0.1827 -0.4754 -0.0985
 4606SOL    HW125454   3.617   3.962   4.823  3.4221  1.3775  0.3941
 4606SOL    HW225455   3.579   3.961   4.957 -1.2337 -0.4670 -1.5288
 4607SOL     OW25456   2.450   3.643   8.181  0.1414 -0.2687 -0.3667
 4607SOL    HW125457   2.419   3.553   8.191  0.3371 -0.3316 -0.3301
 4607SOL    HW225458   2.450   3.664   8.274 -0.8383  2.2168 -0.9450
 4608SOL     OW25459   2.452   1.087   7.373 -0.5196  0.3155  0.5312
 4608SOL    HW125460   2.521   1.142   7.409 -1.5782  0.8470  1.7524
 4608SOL    HW225461   2.392   1.145   7.324  0.1551 -0.1114 -0.7982
 4609SOL     OW25462   1.541   4.718   6.191  0.0665 -0.4348 -0.2459
 4609SOL    HW125463   1.557   4.654   6.261  1.0262  0.2551  0.1738
 4609SOL    HW225464   1.541   4.658   6.117  1.4871  1.1908 -1.5709
 4610SOL     OW25465   4.120   4.616   3.974 -0.3217  0.2678  0.2858
 4610SOL    HW125466   4.056   4.640   4.041 -0.4311 -0.5778  0.4840
 4610SOL    HW225467   4.102   4.523   3.961  1.4392  0.0029 -0.1941
 4611SOL     OW25468   1.637   1.363   4.563  0.0079 -0.3622 -0.1120
 4611SOL    HW125469   1.673   1.396   4.645 -0.2774 -1.6376  0.5272
 4611SOL    HW225470   1.701   1.302   4.527 -0.0923 -1.2175  1.1490
 4612SOL     OW25471   2.542   3.703   2.009  0.0066 -0.1981  0.0686
 4612SOL    HW125472   2.459   3.662   2.033 -0.9316  0.3077 -2.3403
 4612SOL    HW225473   2.533   3.797   2.027 -0.3695 -0.5459  1.7011
 4613SOL     OW25474   4.191   2.866   5.326 -0.1518  0.4589  0.2075
 4613SOL    HW125475   4.135   2.837   5.254  0.2910 -2.6097  1.0819
 4613SOL    HW225476   4.140   2.855   5.407 -1.1049  2.1032 -0.1648
 4614SOL     OW25477   0.858   2.516   1.784  0.4408 -0.1971  0.2591
 4614SOL    HW125478   0.904   2.456   1.843  0.4203 -0.5535 -0.0887
 4614SOL    HW225479   0.833   2.451   1.719  2.4995  0.8167 -1.5308
 4615SOL     OW25480   2.844   3.797   6.873 -0.3068  0.2368 -0.2016
 4615SOL    HW125481   2.930   3.759   6.856 -0.2228  0.7404 -0.9258
 4615SOL    HW225482   2.854   3.799   6.968  0.4634 -2.3905 -0.2257
 4616SOL     OW25483   0.934   0.446  10.825 -0.2409  0.1035 -0.7193
 4616SOL    HW125484   0.873   0.378  10.853 -1.7294  0.5866 -2.7895
 4616SOL    HW225485   0.901   0.446  10.735 -1.6425 -0.1568 -0.2021
 4617SOL     OW25486   4.175   0.300   3.307  0.2232 -0.0817 -0.1095
 4617SOL    HW125487   4.132   0.270   3.387 -0.4197 -0.2904 -0.5274
 4617SOL    HW225488   4.226   0.223   3.285 -1.1622 -1.9057  3.0371
 4618SOL     OW25489   1.731   2.922   0.930 -0.7556  0.4354  0.5158
 4618SOL    HW125490   1.733   2.845   0.987 -0.9853  1.4518  1.8949
 4618SOL    HW225491   1.657   2.901   0.873  0.2180 -0.9514 -0.2349
 4619SOL     OW25492   4.087   4.052   3.706 -0.2804  0.3865  1.0202
 4619SOL    HW125493   4.068   3.990   3.636 -0.3256  1.7944 -0.2078
 4619SOL    HW225494   4.011   4.029   3.760 -2.0700  0.7058 -1.3808
 4620SOL     OW25495   1.243   1.841   3.457  0.0788  0.1804  0.1149
 4620SOL    HW125496   1.264   1.748   3.466 -1.8266 -0.2703 -0.1826
 4620SOL    HW225497   1.246   1.868   3.549  0.6457  0.3322  0.0556
 4621SOL     OW25498   0.102   3.490   9.443 -0.5149 -0.2164  0.5004
 4621SOL    HW125499   0.159   3.494   9.366 -0.4539 -2.1554  0.4536
 4621SOL    HW225500   0.168   3.481   9.512  1.1359  0.7625 -0.9586
 4622SOL     OW25501   1.177   1.792  14.738 -0.3091  0.2306  0.6187
 4622SOL    HW125502   1.225   1.711  14.721 -1.5059 -0.3568  0.0658
 4622SOL    HW225503   1.104   1.755  14.787  0.6791 -0.1237  1.8202
 4623SOL     OW25504   0.906   2.336  11.581 -0.3476 -0.3598 -0.1899
 4623SOL    HW125505   0.992   2.296  11.570 -0.2416  0.0507 -0.8542
 4623SOL    HW225506   0.852   2.283  11.521 -1.4470  0.9125 -0.3221
 4624SOL     OW25507   1.041   0.247   1.979  0.2953  0.1765 -0.0317
 4624SOL    HW125508   0.950   0.274   1.966 -0.1102  0.2337  3.0473
 4624SOL    HW225509   1.072   0.329   2.018 -0.2038 -1.0568  2.9385
 4625SOL     OW25510   1.008   4.531   9.352  0.6761 -0.0523  0.1023
 4625SOL    HW125511   1.020   4.449   9.400  0.4107 -1.0967 -1.6133
 4625SOL    HW225512   1.062   4.518   9.275 -2.2631 -0.3451 -1.8974
 4626SOL     OW25513   4.660   2.824  16.514  0.2559  0.4128  0.4862
 4626SOL    HW125514   4.659   2.832  16.419  2.2668  1.2244  0.5449
 4626SOL    HW225515   4.673   2.916  16.540 -1.6136  1.5693 -2.7102
 4627SOL     OW25516   2.487   1.609   5.603 -0.1379  0.4909  0.0478
 4627SOL    HW125517   2.569   1.630   5.558  0.8681 -2.2128  0.6059
 4627SOL    HW225518   2.486   1.676   5.671 -1.2176 -0.0527  0.5779
 4628SOL     OW25519   2.123   3.394   5.558 -0.1686 -0.1096  0.0003
 4628SOL    HW125520   2.191   3.442   5.604 -0.6545  1.7893 -1.2719
 4628SOL    HW225521   2.108   3.321   5.618  0.3711  0.2329  0.5429
 4629SOL     OW25522   0.061   0.401   9.600 -0.3817  0.4758  0.0574
 4629SOL    HW125523   0.135   0.341   9.607 -1.0352 -0.4987 -1.2676
 4629SOL    HW225524   0.101   0.486   9.618  0.6070 -0.0609  0.4015
 4630SOL     OW25525   4.241   4.695   9.071  0.8365  0.0661  0.3270
 4630SOL    HW125526   4.176   4.645   9.021  0.9588  0.1453  0.0876
 4630SOL    HW225527   4.232   4.655   9.157  0.0955  0.0325  0.2343
 4631SOL     OW25528   3.852   0.141  11.973 -0.6234 -0.3717  0.1969
 4631SOL    HW125529   3.798   0.077  11.926  0.5427 -0.5387 -0.9187
 4631SOL    HW225530   3.934   0.092  11.976  0.0933  0.7478 -1.1517
 4632SOL     OW25531   0.228   2.868   6.543  0.2828  0.1984  0.0552
 4632SOL    HW125532   0.164   2.915   6.598  0.5532  1.2027 -0.4943
 4632SOL    HW225533   0.252   2.938   6.483 -0.8455  1.0403  0.5715
 4633SOL     OW25534   4.362   3.823   5.620  0.2258  0.3797  0.1638
 4633SOL    HW125535   4.437   3.880   5.602 -0.7497  1.3685 -0.7888
 4633SOL    HW225536   4.395   3.737   5.594  0.3475  0.1644  1.0390
 4634SOL     OW25537   0.182   3.770   5.760  0.0585  0.0570  0.2889
 4634SOL    HW125538   0.153   3.842   5.816 -0.6578  0.0980 -0.1344
 4634SOL    HW225539   0.238   3.724   5.822  1.2168  0.0441 -0.7644
 4635SOL     OW25540   3.671   2.786   7.997  0.2791 -0.4150 -0.5130
 4635SOL    HW125541   3.591   2.837   7.987  0.7422  0.0878 -1.7547
 4635SOL    HW225542   3.659   2.752   8.085  0.3730  0.5103 -0.1421
 4636SOL     OW25543   1.508   1.452   6.138  0.0226  0.2586  0.2082
 4636SOL    HW125544   1.554   1.517   6.190  1.2848 -0.7472  0.3618
 4636SOL    HW225545   1.442   1.508   6.097  0.6610  1.5846  1.0046
 4637SOL     OW25546   2.070   1.312   8.022  0.6005  0.2570 -0.2213
 4637SOL    HW125547   2.097   1.272   8.105 -0.3383  1.0364  0.4574
 4637SOL    HW225548   2.127   1.389   8.013 -0.8667  1.0948 -2.2989
 4638SOL     OW25549   2.684   3.103   5.252 -0.5559  0.1364 -0.7280
 4638SOL    HW125550   2.644   3.096   5.165 -2.2883  0.5884  0.0484
 4638SOL    HW225551   2.720   3.014   5.260 -0.0504  0.5384  1.2994
 4639SOL     OW25552   2.462   4.516  10.263 -0.7105  0.1464 -0.7241
 4639SOL    HW125553   2.547   4.472  10.266 -1.8941 -2.2142 -1.4782
 4639SOL    HW225554   2.410   4.439  10.240 -0.1441 -0.8671  1.4101
 4640SOL     OW25555   3.546   4.339   7.784 -0.4070  0.4858  0.2816
 4640SOL    HW125556   3.485   4.271   7.757 -0.3506  1.3101 -1.9029
 4640SOL    HW225557   3.533   4.350   7.878  1.4975  0.9591  0.5036
 4641SOL     OW25558   2.403   2.689   3.933 -0.4539 -0.0157 -0.3693
 4641SOL    HW125559   2.339   2.731   3.876  0.5079 -0.8578 -2.0732
 4641SOL    HW225560   2.474   2.752   3.943 -1.3973  0.6152  2.3736
 4642SOL     OW25561   2.907   3.757   9.697  0.4775 -0.0576  0.1873
 4642SOL    HW125562   2.819   3.731   9.726  0.6313  0.8640  1.4513
 4642SOL    HW225563   2.945   3.723   9.778 -1.0524  0.0271  0.9318
 4643SOL     OW25564   1.966   2.104  10.421  0.0059 -0.2338  0.3655
 4643SOL    HW125565   1.979   2.108  10.327 -1.3278  2.7210  0.2926
 4643SOL    HW225566   2.051   2.072  10.451  0.8041  0.3708 -1.2411
 4644SOL     OW25567   1.748   1.698  16.454  0.3060 -0.3024  0.3104
 4644SOL    HW125568   1.815   1.765  16.439 -0.9359  1.7553  4.0176
 4644SOL    HW225569   1.775   1.634  16.388 -2.0700  0.3458 -1.2663
 4645SOL     OW25570   4.018   1.692   8.871 -0.5628 -0.3362  0.4489
 4645SOL    HW125571   3.929   1.658   8.865 -1.2756  1.1158  2.7658
 4645SOL    HW225572   4.068   1.636   8.811 -1.0893 -0.9581  0.5890
 4646SOL     OW25573   0.038   1.855   3.119  0.2117  0.4543  0.3951
 4646SOL    HW125574   0.058   1.948   3.111  0.7910  0.3252  0.2859
 4646SOL    HW225575   4.676   1.864   3.092 -0.1313  0.3376  1.5426
 4647SOL     OW25576   4.078   1.976  14.122 -0.4659 -0.0482 -0.0879
 4647SOL    HW125577   4.113   1.976  14.033 -1.4022  0.4098 -0.4580
 4647SOL    HW225578   4.146   1.939  14.178 -0.0927  1.3968  0.4221
 4648SOL     OW25579   2.570   4.230   7.088 -0.5622  0.2155  0.0748
 4648SOL    HW125580   2.535   4.145   7.064 -1.4626  0.8490 -0.8764
 4648SOL    HW225581   2.603   4.221   7.178  1.2017  0.0707 -0.5922
 4649SOL     OW25582   3.761   4.635   6.265 -0.3483  0.0535 -0.1803
 4649SOL    HW125583   3.750   4.725   6.296  2.1835 -1.0411  3.7641
 4649SOL    HW225584   3.834   4.605   6.319  0.5945  0.1149 -1.4180
 4650SOL     OW25585   4.350   1.273  15.465  0.3626  0.4716 -0.1058
 4650SOL    HW125586   4.408   1.197  15.471 -0.7073 -0.2825  0.6181
 4650SOL    HW225587   4.404   1.343  15.503 -0.1451  1.3810 -1.0505
 4651SOL     OW25588   0.100   2.832   1.538 -0.4778 -0.9363 -0.4328
 4651SOL    HW125589   0.122   2.857   1.628 -0.7033  1.3532 -1.0273
 4651SOL    HW225590   0.183   2.847   1.492  0.0836 -0.9322  0.5712
 4652SOL     OW25591   0.883   3.812   2.739 -0.3047 -0.1913 -0.3055
 4652SOL    HW125592   0.888   3.888   2.796 -0.3717  0.5121 -1.2319
 4652SOL    HW225593   0.831   3.849   2.667 -0.2574  0.5614  0.0542
 4653SOL     OW25594   3.110   4.559   7.530 -0.1894  0.2003  0.3519
 4653SOL    HW125595   3.149   4.474   7.510  0.2426  0.9745 -2.0767
 4653SOL    HW225596   3.173   4.600   7.588 -0.0814  0.9046 -0.2640
 4654SOL     OW25597   0.513   0.959  10.778  0.2047 -0.2467 -0.0112
 4654SOL    HW125598   0.542   1.001  10.697 -0.7665  0.9321  0.2374
 4654SOL    HW225599   0.419   0.975  10.771  0.2032 -1.5475 -2.8668
 4655SOL     OW25600   1.968   4.352   2.023  0.7515 -0.7655  0.3511
 4655SOL    HW125601   1.903   4.422   2.031  1.7472 -0.0658  2.5618
 4655SOL    HW225602   2.044   4.386   2.070  1.4426  0.4316 -1.6353
 4656SOL     OW25603   1.808   4.723   2.689  0.1752  0.1541  0.2490
 4656SOL    HW125604   1.745   0.036   2.630  0.7610  1.1662  0.3354
 4656SOL    HW225605   1.758   4.698   2.766  0.1631 -0.1306  0.1501
 4657SOL     OW25606   2.911   2.397   2.710 -0.1781 -0.1639  0.4896
 4657SOL    HW125607   2.842   2.425   2.649  2.2395 -1.4260 -2.8407
 4657SOL    HW225608   2.919   2.305   2.685 -2.7059  0.3213 -2.0755
 4658SOL     OW25609   2.316   2.859   6.223  0.4800  0.0589 -0.1416
 4658SOL    HW125610   2.337   2.846   6.316 -3.0294 -0.2706  0.6027
 4658SOL    HW225611   2.405   2.871   6.189  0.7086  0.9023  0.7548
 4659SOL     OW25612   3.325   2.734  10.883 -0.7193  0.1696 -0.0758
 4659SOL    HW125613   3.319   2.737  10.788  3.2983  0.3013 -0.3349
 4659SOL    HW225614   3.414   2.703  10.901 -0.5004  1.1366  0.5001
 4660SOL     OW25615   1.885   2.335  12.042 -0.1105 -0.5756  0.3783
 4660SOL    HW125616   1.923   2.303  12.123  0.2758  1.4015  0.9711
 4660SOL    HW225617   1.807   2.381  12.074 -0.1067 -0.8519  0.7801
 4661SOL     OW25618   4.031   1.156   8.306  0.2853 -0.7326  0.4031
 4661SOL    HW125619   3.983   1.074   8.314  0.3329 -0.5861  2.0589
 4661SOL    HW225620   4.008   1.189   8.392 -0.8324 -0.1544 -0.1102
 4662SOL     OW25621   0.562   2.975  14.650  0.0790  0.1098  0.3349
 4662SOL    HW125622   0.563   3.071  14.653 -0.3667  0.1480 -0.8268
 4662SOL    HW225623   0.638   2.956  14.705  1.4222  1.2343 -1.1536
 4663SOL     OW25624   2.664   0.992  10.884 -0.2607  0.1552 -0.1952
 4663SOL    HW125625   2.645   0.989  10.977  2.4687  0.3002  0.3832
 4663SOL    HW225626   2.750   1.034  10.895 -0.2702 -0.0339  0.6140
 4664SOL     OW25627   1.233   0.000   4.502 -0.4802  0.7053  0.8106
 4664SOL    HW125628   1.261   4.677   4.427  0.9089 -1.0789  2.5635
 4664SOL    HW225629   1.149   0.042   4.485 -0.2950  1.2826  1.3038
 4665SOL     OW25630   2.005   1.980  13.815 -0.4752 -0.1425 -0.3701
 4665SOL    HW125631   1.928   1.924  13.818 -0.0377 -0.6703  0.9960
 4665SOL    HW225632   1.984   2.007  13.725  1.9173  0.9887 -0.6217
 4666SOL     OW25633   3.390   2.618   8.157 -0.1241  0.3019  0.5695
 4666SOL    HW125634   3.388   2.631   8.252 -3.0710 -2.3210  0.8475
 4666SOL    HW225635   3.299   2.633   8.133 -0.7210 -1.0357  1.9855
 4667SOL     OW25636   1.964   3.683  12.703  0.0488 -0.7352  0.1140
 4667SOL    HW125637   2.001   3.653  12.786 -0.1339 -1.1706  0.0391
 4667SOL    HW225638   1.933   3.598  12.671 -1.5172  0.6616 -2.1163
 4668SOL     OW25639   1.895   0.900   6.039 -0.4301  0.3978 -0.0238
 4668SOL    HW125640   1.942   0.984   6.040 -0.9236  0.6923 -2.0284
 4668SOL    HW225641   1.944   0.862   5.966 -1.0420  0.1334 -0.2914
 4669SOL     OW25642   1.485   3.423  17.570 -0.3061  0.1515 -0.3420
 4669SOL    HW125643   1.511   3.500  17.520 -0.1773 -0.3882 -1.1188
 4669SOL    HW225644   1.390   3.433  17.567 -0.1798  0.3983 -3.5660
 4670SOL     OW25645   0.983   3.935   0.074 -0.0862 -0.3283 -0.8397
 4670SOL    HW125646   0.894   3.954   0.101 -0.1287 -1.4629 -0.2047
 4670SOL    HW225647   0.967   3.941  17.696 -2.3614  2.1301 -0.2904
 4671SOL     OW25648   1.386   3.993   2.483 -0.1611 -0.0164 -0.4190
 4671SOL    HW125649   1.442   3.969   2.408 -0.2230 -2.0357  0.1751
 4671SOL    HW225650   1.445   4.033   2.546  1.2149 -2.2528 -0.2561
 4672SOL     OW25651   0.891   2.990   5.623  0.1070  0.6759 -0.2152
 4672SOL    HW125652   0.972   3.023   5.661  1.0317 -1.8814  0.0272
 4672SOL    HW225653   0.836   3.069   5.621  0.7958  1.0612 -3.5320
 4673SOL     OW25654   0.341   4.170   5.165 -0.3832 -0.1847  0.0268
 4673SOL    HW125655   0.309   4.203   5.249  1.6617  0.2716  0.6289
 4673SOL    HW225656   0.258   4.167   5.117  0.7003  0.2316 -1.8470
 4674SOL     OW25657   0.804   3.038   2.170 -0.0955  0.9650 -0.1721
 4674SOL    HW125658   0.890   3.078   2.158 -0.0965  0.9731 -0.1515
 4674SOL    HW225659   0.806   3.020   2.263 -0.8720 -2.3804 -0.8242
 4675SOL     OW25660   3.323   0.333   3.479  0.2643  0.2832 -0.2471
 4675SOL    HW125661   3.241   0.318   3.525  1.0573  0.1752  1.1236
 4675SOL    HW225662   3.385   0.337   3.552 -0.1065  2.3937 -0.0435
 4676SOL     OW25663   2.669   0.980  15.676  0.1441  0.3865 -0.4769
 4676SOL    HW125664   2.577   0.963  15.657  0.0386 -0.2613  0.5844
 4676SOL    HW225665   2.698   1.052  15.620  1.9844  0.8316  1.0126
 4677SOL     OW25666   4.075   0.855   2.291  0.1945 -0.8041  0.0658
 4677SOL    HW125667   4.166   0.836   2.267  1.0942  3.2087  0.3556
 4677SOL    HW225668   4.022   0.778   2.267 -2.9060  0.8103  1.7768
 4678SOL     OW25669   1.065   0.957   2.034  0.0568 -0.1323  0.4956
 4678SOL    HW125670   1.022   0.948   1.948  4.1560 -0.7223 -1.5029
 4678SOL    HW225671   1.144   1.007   2.019 -1.0151  1.6703  0.9077
 4679SOL     OW25672   0.220   2.515   0.642  0.0818  0.1093 -0.3054
 4679SOL    HW125673   0.137   2.532   0.598 -0.4562  0.0556  0.7024
 4679SOL    HW225674   0.278   2.482   0.573  1.1328  1.8040 -0.2384
 4680SOL     OW25675   2.540   1.390   1.200  0.0137 -0.4009  0.2786
 4680SOL    HW125676   2.520   1.341   1.120  1.6695  0.4771 -0.6647
 4680SOL    HW225677   2.525   1.478   1.165 -1.8888 -0.4173  1.0374
 4681SOL     OW25678   0.841   4.131   7.559  0.2065 -0.4681 -0.0372
 4681SOL    HW125679   0.811   4.052   7.513 -0.5907 -0.0002 -0.3358
 4681SOL    HW225680   0.851   4.097   7.647 -0.2291  3.4246  1.4955
 4682SOL     OW25681   1.645   0.398   8.447 -0.1027 -0.4343  0.1676
 4682SOL    HW125682   1.650   0.407   8.352  0.0788  1.8928  0.4091
 4682SOL    HW225683   1.691   0.480   8.465 -1.2150  0.3724 -0.6414
 4683SOL     OW25684   1.531   2.446   7.482 -0.0282  0.3013  0.0762
 4683SOL    HW125685   1.568   2.366   7.446 -0.6464 -0.0505  0.2226
 4683SOL    HW225686   1.560   2.521   7.430 -0.9772  1.1801  0.8097
 4684SOL     OW25687   1.822   4.129   4.198  0.8781 -0.2935 -0.1768
 4684SOL    HW125688   1.846   4.038   4.212  0.6995  0.1336  2.8499
 4684SOL    HW225689   1.817   4.140   4.103 -0.4767 -0.9001 -0.1742
 4685SOL     OW25690   4.399   0.832  13.214 -0.5304  0.1344  0.5775
 4685SOL    HW125691   4.494   0.818  13.206 -0.1181  0.7509  4.4047
 4685SOL    HW225692   4.401   0.906  13.275  2.1643  1.8070 -1.5375
 4686SOL     OW25693   2.923   2.040  10.485  0.6185 -0.2654  0.6970
 4686SOL    HW125694   2.887   1.966  10.436  0.9532  0.7213 -1.0047
 4686SOL    HW225695   2.894   2.026  10.576  1.6288  0.1202  1.0791
 4687SOL     OW25696   0.104   0.370   4.259 -0.3024 -0.2853 -0.0813
 4687SOL    HW125697   0.189   0.326   4.249 -1.8158 -2.8214 -1.7881
 4687SOL    HW225698   0.119   0.459   4.227 -0.8514 -0.1775 -0.0340
 4688SOL     OW25699   1.467   4.313   7.228  0.3568  0.0720 -0.0718
 4688SOL    HW125700   1.546   4.296   7.177 -0.6286 -1.1535 -1.2052
 4688SOL    HW225701   1.516   4.316   7.310  0.3438 -1.1825 -0.0170
 4689SOL     OW25702   0.159   1.140   8.698  0.9924  0.5523 -0.3140
 4689SOL    HW125703   0.180   1.164   8.788  1.1363 -1.6830  0.2709
 4689SOL    HW225704   0.072   1.101   8.709  1.2291 -0.3235 -1.4861
 4690SOL     OW25705   0.444   3.025   8.537 -0.3188 -0.1162  0.0988
 4690SOL    HW125706   0.517   3.082   8.562  1.2459 -1.3573 -1.6140
 4690SOL    HW225707   0.387   3.033   8.613  0.5722 -1.0661  0.8471
 4691SOL     OW25708   1.556   2.754   6.945 -0.0031 -0.6245  0.2564
 4691SOL    HW125709   1.533   2.691   6.876  0.9803 -0.8719  0.1486
 4691SOL    HW225710   1.625   2.698   6.982  1.5851 -1.1868 -3.5559
 4692SOL     OW25711   2.670   2.571   2.861  0.0307 -0.2532 -0.4249
 4692SOL    HW125712   2.698   2.500   2.804  1.1450 -0.2675  0.1413
 4692SOL    HW225713   2.636   2.620   2.786 -1.4456 -0.6372 -0.0104
 4693SOL     OW25714   4.382   1.937   5.076 -0.3760  1.0094 -0.0254
 4693SOL    HW125715   4.363   2.000   5.006 -0.5691 -0.2834 -1.1321
 4693SOL    HW225716   4.404   1.988   5.154  0.7057 -1.3546  1.1901
 4694SOL     OW25717   3.593   4.146   9.139 -0.2926 -0.5608 -0.0601
 4694SOL    HW125718   3.525   4.111   9.082 -1.4517 -0.4650  1.2536
 4694SOL    HW225719   3.534   4.199   9.192  0.3879 -0.0980  0.2442
 4695SOL     OW25720   2.622   4.080   8.042  0.2494 -0.8023  0.2893
 4695SOL    HW125721   2.631   4.015   8.112  2.2856 -1.0703 -0.2306
 4695SOL    HW225722   2.572   4.148   8.087  0.3553 -0.6227  0.1330
 4696SOL     OW25723   3.368   1.097   7.013 -0.2514  0.1810  0.4375
 4696SOL    HW125724   3.311   1.025   6.985  0.6450  0.6333 -2.6267
 4696SOL    HW225725   3.445   1.042   7.031 -0.7050 -0.1787  1.2662
 4697SOL     OW25726   0.660   4.319   3.295 -0.4964 -0.1810 -0.1099
 4697SOL    HW125727   0.668   4.298   3.388 -2.8102 -0.0529  0.1132
 4697SOL    HW225728   0.716   4.397   3.294  1.2466 -1.4410 -0.0901
 4698SOL     OW25729   1.095   4.342   8.077  0.3331  0.4224 -0.6108
 4698SOL    HW125730   1.173   4.286   8.079  0.3968  0.5605  0.6506
 4698SOL    HW225731   1.134   4.418   8.119 -1.7554  0.3859  1.3877
 4699SOL     OW25732   0.876   3.217   3.238  0.0171  0.2297  0.6028
 4699SOL    HW125733   0.901   3.308   3.223  0.1581 -0.0164 -0.6508
 4699SOL    HW225734   0.916   3.182   3.158  0.7529 -0.0105  1.0714
 4700SOL     OW25735   4.051   0.371   5.199  0.9503 -0.1672 -0.4314
 4700SOL    HW125736   4.071   0.316   5.275 -0.1527 -0.6154 -0.4692
 4700SOL    HW225737   4.006   0.445   5.240  2.4391  2.0254 -2.7305
 4701SOL     OW25738   0.204   3.751   4.111 -0.4493 -0.4416 -0.1527
 4701SOL    HW125739   0.191   3.825   4.052  1.4452 -0.5950 -0.7394
 4701SOL    HW225740   0.124   3.769   4.161 -0.7874  1.1540 -1.2582
 4702SOL     OW25741   3.238   3.151   7.976 -0.4887 -0.5736  0.5285
 4702SOL    HW125742   3.203   3.105   8.053 -3.0888  1.0136  0.3042
 4702SOL    HW225743   3.159   3.139   7.924 -0.2564  3.1519 -0.7120
 4703SOL     OW25744   4.681   1.019  10.760  1.2485  0.3221 -0.2335
 4703SOL    HW125745   0.017   0.996  10.826 -0.8461 -2.5731  0.7999
 4703SOL    HW225746   4.719   1.104  10.737  1.3020  0.4640  0.3800
 4704SOL     OW25747   1.208   0.796   2.186  0.6484  0.3561 -0.1654
 4704SOL    HW125748   1.208   0.717   2.133 -1.6271 -0.5238  1.1546
 4704SOL    HW225749   1.148   0.851   2.137 -1.1808  0.2180  1.9320
 4705SOL     OW25750   2.254   1.967   8.542  0.2346  0.4793  0.0186
 4705SOL    HW125751   2.252   1.883   8.588  0.0773  0.7241  0.4566
 4705SOL    HW225752   2.339   1.959   8.499 -0.2518  1.6119 -1.1620
 4706SOL     OW25753   3.385   1.083   5.122 -0.1182 -0.1957  0.8275
 4706SOL    HW125754   3.432   1.138   5.184 -1.3463  0.1434  1.4548
 4706SOL    HW225755   3.295   1.112   5.135 -0.5939 -1.9092  1.4322
 4707SOL     OW25756   1.659   2.505   9.631 -0.3787  0.1404 -0.0577
 4707SOL    HW125757   1.719   2.519   9.704  0.1944 -0.5701 -0.3806
 4707SOL    HW225758   1.677   2.569   9.562 -0.5496 -0.7795 -0.9728
 4708SOL     OW25759   3.810   4.434   7.998  0.3852 -0.2740  0.2080
 4708SOL    HW125760   3.820   4.462   8.089 -0.6288 -1.0083  0.5455
 4708SOL    HW225761   3.829   4.340   8.003  2.0111  0.0887  0.6747
 4709SOL     OW25762   4.480   2.832   5.213  0.0599 -0.1376 -0.2797
 4709SOL    HW125763   4.527   2.772   5.155  3.6211  1.5164  0.9291
 4709SOL    HW225764   4.411   2.862   5.153  0.3682  0.6575 -0.2381
 4710SOL     OW25765   2.866   0.777   2.993 -0.3922  0.1241 -0.2209
 4710SOL    HW125766   2.870   0.768   3.088  2.3375 -0.2097 -0.3577
 4710SOL    HW225767   2.853   0.872   2.988  2.2458  0.5853  1.7109
 4711SOL     OW25768   0.205   4.423   0.628 -0.4829 -0.2205 -0.8898
 4711SOL    HW125769   0.110   4.435   0.626 -0.4368  0.1392 -0.9810
 4711SOL    HW225770   0.237   4.476   0.701  0.4340  0.2584 -1.6342
 4712SOL     OW25771   4.127   2.146   7.011 -0.4857  0.4139  0.2647
 4712SOL    HW125772   4.056   2.128   7.074 -0.3731 -0.1093  0.2437
 4712SOL    HW225773   4.095   2.231   6.980  2.3974  1.0145 -1.0273
 4713SOL     OW25774   3.254   2.362   2.282 -0.3266  0.1632 -0.1742
 4713SOL    HW125775   3.256   2.394   2.191  1.5945 -0.2275 -0.2768
 4713SOL    HW225776   3.190   2.426   2.313 -1.3948 -2.3380  2.6916
 4714SOL     OW25777   4.102   4.323   7.885 -0.5879  0.1214  0.4139
 4714SOL    HW125778   4.131   4.252   7.828  0.0336  0.5831  0.1480
 4714SOL    HW225779   4.042   4.284   7.948 -0.7670 -0.6439 -0.2243
 4715SOL     OW25780   2.805   1.555  17.406 -0.2215  0.2239  0.1465
 4715SOL    HW125781   2.759   1.472  17.417 -0.1425  0.3416  1.4231
 4715SOL    HW225782   2.893   1.532  17.375  0.2082  1.9858  0.0982
 4716SOL     OW25783   3.727   3.352  13.799 -0.9862  0.5950 -0.3049
 4716SOL    HW125784   3.699   3.272  13.844 -1.3538  0.4207 -0.8376
 4716SOL    HW225785   3.639   3.388  13.783 -0.6624  0.8265 -1.5523
 4717SOL     OW25786   2.109   4.414  12.274  0.5223  0.2558 -0.4068
 4717SOL    HW125787   2.090   4.442  12.363  1.9126  0.4106 -0.1528
 4717SOL    HW225788   2.027   4.377  12.240 -0.4783  2.8127 -0.7748
 4718SOL     OW25789   3.921   1.464   1.833 -0.0194 -0.3113 -0.2737
 4718SOL    HW125790   3.937   1.416   1.752  0.9188  0.6862 -0.6796
 4718SOL    HW225791   3.832   1.442   1.859 -0.3797 -1.6447 -2.7106
 4719SOL     OW25792   1.833   4.364  17.148  0.1338 -0.2046 -0.4364
 4719SOL    HW125793   1.764   4.300  17.136 -0.1587  0.0290 -0.0039
 4719SOL    HW225794   1.881   4.363  17.065  0.3050 -2.6875 -0.2937
 4720SOL     OW25795   2.063   4.311  16.156 -0.7103  0.1390  0.7312
 4720SOL    HW125796   2.069   4.369  16.080  1.3160 -0.5062  0.3889
 4720SOL    HW225797   1.982   4.329  16.204 -0.5973  0.5734  0.7550
 4721SOL     OW25798   3.179   0.472  10.527  0.2083 -0.2730  0.6548
 4721SOL    HW125799   3.179   0.568  10.532 -1.5059 -0.2718  0.7509
 4721SOL    HW225800   3.274   0.468  10.524  0.2472  1.3705 -0.6649
 4722SOL     OW25801   0.967   2.856   6.271  0.2063 -0.5784 -0.5095
 4722SOL    HW125802   0.954   2.761   6.272 -0.5947 -0.4490  1.5811
 4722SOL    HW225803   0.902   2.875   6.204  3.3275  1.3497 -2.9575
 4723SOL     OW25804   0.266   2.463   2.955 -0.5156  0.0337  0.3091
 4723SOL    HW125805   0.245   2.420   2.872 -0.1138 -1.2402  0.8553
 4723SOL    HW225806   0.361   2.464   2.944 -0.5647  2.2532  0.0880
 4724SOL     OW25807   1.277   2.172  10.894  0.4973 -0.0541  0.4924
 4724SOL    HW125808   1.362   2.177  10.850 -0.5577  0.8441 -1.4358
 4724SOL    HW225809   1.241   2.104  10.837  1.0987 -0.3836  0.5073
 4725SOL     OW25810   2.763   2.359   6.484 -0.1264 -0.0526 -0.1484
 4725SOL    HW125811   2.738   2.291   6.545 -0.0279  0.6639  0.6886
 4725SOL    HW225812   2.683   2.354   6.431 -1.5218  1.1876  1.8577
 4726SOL     OW25813   2.241   1.621   6.676 -0.1558 -0.7452 -0.4525
 4726SOL    HW125814   2.181   1.549   6.695 -1.2263  0.3351  0.2917
 4726SOL    HW225815   2.255   1.664   6.760 -2.7782 -2.4899  0.8715
 4727SOL     OW25816   4.613   0.423   1.849 -0.5731 -0.0627 -0.4901
 4727SOL    HW125817   4.697   0.387   1.821  0.3151 -0.0266  2.0978
 4727SOL    HW225818   4.573   0.350   1.896  2.6293  0.1365  2.5978
 4728SOL     OW25819   3.097   4.551   2.573  0.1599 -0.0162 -0.7109
 4728SOL    HW125820   3.161   4.622   2.563 -1.7901  2.0256  1.1800
 4728SOL    HW225821   3.152   4.476   2.549  1.1439  0.1892  0.8726
 4729SOL     OW25822   1.836   2.147  10.893 -0.2014  0.1472 -0.5066
 4729SOL    HW125823   1.855   2.130  10.985 -0.4346 -0.6423 -0.5983
 4729SOL    HW225824   1.811   2.056  10.873  1.2430 -0.0052 -1.6364
 4730SOL     OW25825   2.852   4.238   2.880  0.1537 -0.6478  0.0587
 4730SOL    HW125826   2.787   4.198   2.938 -0.5155  0.5253  0.1104
 4730SOL    HW225827   2.801   4.263   2.803 -2.3202 -5.1760  0.2141
 4731SOL     OW25828   2.928   1.886   4.245  0.3548  0.6127  0.4173
 4731SOL    HW125829   2.905   1.966   4.292 -1.3494  0.8277 -0.7986
 4731SOL    HW225830   3.023   1.888   4.257  0.2964 -1.2098  1.2102
 4732SOL     OW25831   3.544   2.008   0.081 -0.5880 -0.5705 -0.4120
 4732SOL    HW125832   3.568   2.081   0.137  0.3338 -3.0026  2.3948
 4732SOL    HW225833   3.479   2.056   0.029 -1.5005  0.1961  1.4617
 4733SOL     OW25834   4.581   4.407   5.595 -0.4166  0.3423 -0.1797
 4733SOL    HW125835   4.578   4.328   5.650  0.0949  0.8018  0.5015
 4733SOL    HW225836   4.619   4.370   5.515 -2.5882  0.7020 -1.3952
 4734SOL     OW25837   0.939   2.351   5.331 -0.1870  0.2310  0.3262
 4734SOL    HW125838   0.856   2.307   5.313 -0.0892 -1.0080  2.8265
 4734SOL    HW225839   0.895   2.420   5.380 -0.2275  0.2006  0.3333
 4735SOL     OW25840   3.294   2.364   9.264 -0.2157 -0.3281 -0.2498
 4735SOL    HW125841   3.294   2.430   9.195  1.7965  0.0549  0.1337
 4735SOL    HW225842   3.211   2.330   9.230 -0.0398  0.1076 -1.1225
 4736SOL     OW25843   3.892   2.583  12.438 -0.2521  0.1091 -0.0096
 4736SOL    HW125844   3.901   2.626  12.523 -0.7836  0.1467  0.0333
 4736SOL    HW225845   3.956   2.512  12.442 -1.2519 -0.9004 -1.5736
 4737SOL     OW25846   3.876   1.900   2.541  0.1801  0.5112  0.0324
 4737SOL    HW125847   3.840   1.977   2.497 -0.0866  0.2443 -0.2141
 4737SOL    HW225848   3.801   1.872   2.595 -0.4521 -0.0339 -1.1251
 4738SOL     OW25849   0.257   1.222   4.901 -0.2169 -0.3601 -0.2900
 4738SOL    HW125850   0.237   1.130   4.915  3.6825 -1.4006 -1.8304
 4738SOL    HW225851   0.173   1.250   4.864  0.1340  2.7415  1.2154
 4739SOL     OW25852   2.490   3.024  13.314  0.1758  0.1327  0.8163
 4739SOL    HW125853   2.478   2.938  13.355 -2.4941 -0.1367 -0.5316
 4739SOL    HW225854   2.582   3.040  13.336  0.1757 -0.9028  1.5683
 4740SOL     OW25855   2.035   1.404   6.827  0.3684 -0.0024  0.1545
 4740SOL    HW125856   1.956   1.366   6.789  0.1232  0.7460 -0.0941
 4740SOL    HW225857   2.005   1.485   6.868 -1.8819  1.4275 -4.3079
 4741SOL     OW25858   4.717   4.586   2.834 -0.2674  0.0725  0.1609
 4741SOL    HW125859   0.020   4.556   2.918  1.7126 -0.4521 -0.7895
 4741SOL    HW225860   0.058   4.562   2.773 -0.1846 -2.8822  1.4123
 4742SOL     OW25861   0.643   3.099   1.655 -0.5268 -0.6125  0.0522
 4742SOL    HW125862   0.702   3.113   1.581 -0.7982  0.9443  0.1303
 4742SOL    HW225863   0.632   3.191   1.678  1.9867 -0.2776 -0.0320
 4743SOL     OW25864   3.208   2.056  14.137  0.9199  0.0326 -0.2367
 4743SOL    HW125865   3.278   1.994  14.158  1.3190  0.5879  0.0673
 4743SOL    HW225866   3.173   2.071  14.224  1.8656 -0.9578  0.3109
 4744SOL     OW25867   4.194   1.055   4.137 -0.5857 -0.0673  0.2757
 4744SOL    HW125868   4.270   1.083   4.085 -0.8377 -0.0119 -0.0613
 4744SOL    HW225869   4.135   1.014   4.073 -1.9554 -0.7514  1.9915
 4745SOL     OW25870   4.243   1.599  15.517 -0.1648 -0.0726 -0.6372
 4745SOL    HW125871   4.209   1.545  15.446 -0.7629 -1.4452  0.7040
 4745SOL    HW225872   4.178   1.580  15.584  0.3803 -1.8681 -0.6264
 4746SOL     OW25873   1.617   2.592  14.972  0.0219  0.2035  0.0856
 4746SOL    HW125874   1.667   2.525  14.925  0.6628 -0.2569  1.4154
 4746SOL    HW225875   1.662   2.600  15.056  0.7513 -1.0251 -0.1829
 4747SOL     OW25876   3.814   3.657   9.753 -0.2628  0.4551  0.3477
 4747SOL    HW125877   3.800   3.595   9.681 -0.0551 -1.2370  1.7695
 4747SOL    HW225878   3.851   3.604   9.823 -1.7377 -0.8785  0.1243
 4748SOL     OW25879   0.955   2.516  12.001  0.2582  0.0098  0.2840
 4748SOL    HW125880   0.910   2.435  12.022 -0.3610  1.0500  2.9013
 4748SOL    HW225881   1.045   2.484  12.001  0.2025 -0.1443  0.1033
 4749SOL     OW25882   4.330   3.052   2.462  0.1622 -0.1093  0.1738
 4749SOL    HW125883   4.328   2.988   2.391 -0.9059 -0.6819  0.7284
 4749SOL    HW225884   4.403   3.017   2.514  1.3152  1.2218 -0.5625
 4750SOL     OW25885   3.287   2.066  11.282 -0.2000 -0.5304  0.0460
 4750SOL    HW125886   3.332   1.994  11.325 -0.8096  0.0577  1.6534
 4750SOL    HW225887   3.194   2.045  11.291  0.0584 -1.4628  0.5313
 4751SOL     OW25888   1.178   2.259   5.444 -0.4344 -0.6456  0.5430
 4751SOL    HW125889   1.083   2.270   5.437  0.1179  3.6793 -0.0110
 4751SOL    HW225890   1.182   2.228   5.534 -0.6131 -2.2267  0.0073
 4752SOL     OW25891   1.181   0.664   4.548 -0.6584  0.1747 -0.0188
 4752SOL    HW125892   1.241   0.646   4.620 -0.4281  1.2288  0.0605
 4752SOL    HW225893   1.112   0.705   4.600  0.5708  2.5396 -0.2172
 4753SOL     OW25894   0.448   3.038  17.246 -0.2799 -0.8953  0.4095
 4753SOL    HW125895   0.432   2.996  17.330 -1.7586 -1.1887 -0.0308
 4753SOL    HW225896   0.373   3.098  17.239 -0.4555 -1.2462 -0.6683
 4754SOL     OW25897   0.950   0.743  12.954  0.1684 -0.1001 -0.6625
 4754SOL    HW125898   0.956   0.688  12.875 -1.0142 -0.0481 -0.7798
 4754SOL    HW225899   0.901   0.680  13.007  2.5533 -0.5176  1.0742
 4755SOL     OW25900   1.757   1.941   0.177  0.3715  0.3995 -0.3000
 4755SOL    HW125901   1.847   1.933   0.146  0.0530  1.1288 -1.4225
 4755SOL    HW225902   1.736   2.029   0.147 -1.3544 -0.6152 -2.0986
 4756SOL     OW25903   2.087   3.933   7.657  0.7661 -0.0907  0.0146
 4756SOL    HW125904   2.073   3.881   7.735  1.2731 -0.0867  0.1088
 4756SOL    HW225905   2.136   4.000   7.704  2.1397  0.3658 -2.0663
 4757SOL     OW25906   2.658   3.380   6.553 -0.2589  0.1507 -0.0440
 4757SOL    HW125907   2.645   3.451   6.491  0.8069  0.6811  0.3406
 4757SOL    HW225908   2.695   3.302   6.513 -1.3670 -0.7848  0.7293
 4758SOL     OW25909   2.282   4.696   7.995 -0.0142  0.5346 -0.5682
 4758SOL    HW125910   2.225   4.633   7.951  1.3911  0.0895 -1.7748
 4758SOL    HW225911   2.235   4.694   8.078 -1.4445 -0.7812 -1.4183
 4759SOL     OW25912   3.810   1.673   6.255 -0.2192 -0.2986  0.9182
 4759SOL    HW125913   3.814   1.654   6.161  2.2901  0.3076  0.9049
 4759SOL    HW225914   3.810   1.769   6.249 -0.3523 -0.2833  1.1691
 4760SOL     OW25915   3.402   3.485   4.091 -0.2533  0.1972  0.0696
 4760SOL    HW125916   3.337   3.552   4.111 -1.6815 -1.5258  1.2136
 4760SOL    HW225917   3.415   3.441   4.175 -0.9341 -2.6612 -1.3101
 4761SOL     OW25918   0.699   2.984   4.961 -0.0513  0.1765 -0.1239
 4761SOL    HW125919   0.679   3.023   5.046 -0.7467  0.9262 -0.6326
 4761SOL    HW225920   0.633   2.915   4.969 -0.9534  1.0030 -0.3514
 4762SOL     OW25921   0.220   1.968   9.298 -0.4540 -0.0913 -0.1224
 4762SOL    HW125922   0.229   1.976   9.203  0.0392  3.1429  0.1955
 4762SOL    HW225923   0.258   1.882   9.318  0.3183  0.5728  1.3164
 4763SOL     OW25924   1.171   1.443   3.820  0.1710 -0.2970 -0.2131
 4763SOL    HW125925   1.192   1.507   3.888 -4.1387  0.7510  0.0992
 4763SOL    HW225926   1.184   1.360   3.864  0.5930 -1.2456 -2.1229
 4764SOL     OW25927   3.359   0.274  12.455  0.0009  0.4908  0.1472
 4764SOL    HW125928   3.322   0.216  12.388  0.4615 -3.0104  2.9343
 4764SOL    HW225929   3.446   0.240  12.475 -0.0109 -0.2114 -0.9678
 4765SOL     OW25930   2.559   2.874  12.049 -0.4866  0.5894 -0.5018
 4765SOL    HW125931   2.561   2.779  12.037 -0.6780  0.5229 -0.0023
 4765SOL    HW225932   2.652   2.892  12.040 -0.1962 -0.4086  0.4777
 4766SOL     OW25933   1.259   2.286   8.393  0.7794 -0.5081  0.2253
 4766SOL    HW125934   1.197   2.259   8.461  0.5529 -1.2068 -0.2618
 4766SOL    HW225935   1.297   2.203   8.365  1.2360 -0.1071 -0.3371
 4767SOL     OW25936   4.412   3.165   5.005 -0.0406 -0.1597  0.7212
 4767SOL    HW125937   4.458   3.182   5.087 -1.6542 -2.5421  2.1352
 4767SOL    HW225938   4.466   3.200   4.935 -1.3654 -1.6886 -1.0778
 4768SOL     OW25939   3.933   0.740   3.821  0.2281  0.5295 -0.0100
 4768SOL    HW125940   3.911   0.766   3.732 -0.0109 -2.3307 -0.7916
 4768SOL    HW225941   3.906   0.648   3.818 -1.9729  1.1332  1.0886
 4769SOL     OW25942   3.621   4.313  17.008  0.3593 -0.0041  0.7790
 4769SOL    HW125943   3.575   4.240  16.967  1.9040 -0.6003  0.0949
 4769SOL    HW225944   3.572   4.318  17.090 -0.6643  1.3567  0.0913
 4770SOL     OW25945   3.617   3.829  11.479 -0.6161  0.6121  0.1857
 4770SOL    HW125946   3.649   3.801  11.393 -1.5370  1.3123 -0.3808
 4770SOL    HW225947   3.686   3.782  11.526 -1.3663 -3.9612 -3.2467
 4771SOL     OW25948   1.987   3.162   2.749  0.3672  0.3454  0.4002
 4771SOL    HW125949   1.899   3.129   2.768  1.6330 -1.2677  3.3920
 4771SOL    HW225950   2.028   3.077   2.730 -0.6806 -0.4425  1.6547
 4772SOL     OW25951   2.503   1.147   2.315 -0.0808  0.1276  0.1415
 4772SOL    HW125952   2.592   1.136   2.281  0.2558  2.4616  0.2852
 4772SOL    HW225953   2.454   1.084   2.263 -0.4784 -1.5431  2.5306
 4773SOL     OW25954   4.218   0.916  15.355  0.1287  0.2521  0.0556
 4773SOL    HW125955   4.286   0.952  15.298 -1.3279  2.9256  0.0039
 4773SOL    HW225956   4.192   0.833  15.314 -0.5217  0.0401  0.8983
 4774SOL     OW25957   0.256   1.100   6.597  0.0719  0.3121 -0.4993
 4774SOL    HW125958   0.317   1.162   6.636 -0.6522  0.6117  0.1598
 4774SOL    HW225959   0.256   1.129   6.505 -1.3470  0.8298 -0.3312
 4775SOL     OW25960   1.501   4.567   8.179 -0.1551 -0.0056  0.2481
 4775SOL    HW125961   1.513   4.487   8.128  2.3150 -0.2393  1.1974
 4775SOL    HW225962   1.435   4.535   8.240  0.6332 -1.2241  0.4835
 4776SOL     OW25963   3.084   2.770   1.709  0.4266  0.2365  1.1561
 4776SOL    HW125964   3.139   2.803   1.780  1.5572 -2.7269  1.6501
 4776SOL    HW225965   3.108   2.841   1.649 -0.5790 -0.9275 -0.6385
 4777SOL     OW25966   2.222   1.557   2.442 -0.3718  0.0235 -0.2009
 4777SOL    HW125967   2.190   1.639   2.405 -0.4879 -0.8949 -2.1444
 4777SOL    HW225968   2.159   1.520   2.504  0.1911 -1.2671 -0.4039
 4778SOL     OW25969   0.547   0.039   9.186 -0.0661 -0.0753 -0.4390
 4778SOL    HW125970   0.622   0.072   9.137 -0.6346  0.6250 -0.8519
 4778SOL    HW225971   0.547   0.106   9.255 -2.3812 -1.3029  0.7708
 4779SOL     OW25972   3.837   4.724   3.278 -0.4064 -0.0641 -0.2328
 4779SOL    HW125973   3.863   4.634   3.295 -2.9893 -0.5555  1.0166
 4779SOL    HW225974   3.864   0.038   3.359 -3.1780  1.3198 -0.0290
 4780SOL     OW25975   2.318   1.370  10.858 -0.3675  0.1494  0.4116
 4780SOL    HW125976   2.314   1.384  10.952 -2.0967 -0.8171  0.4759
 4780SOL    HW225977   2.332   1.275  10.855 -1.8349 -0.0888  1.1569
 4781SOL     OW25978   2.950   2.104   6.180  0.3891 -0.3283  0.8380
 4781SOL    HW125979   3.013   2.115   6.109 -1.9165 -1.4634 -1.3927
 4781SOL    HW225980   2.944   2.191   6.219  0.1729 -0.1617  0.4270
 4782SOL     OW25981   4.191   1.710   7.710 -0.0466  0.2828 -0.2363
 4782SOL    HW125982   4.239   1.629   7.692 -0.0345  0.2593 -0.0953
 4782SOL    HW225983   4.113   1.677   7.755  0.2393  0.7095  0.5550
 4783SOL     OW25984   3.574   0.483   4.651 -0.2362 -0.5670  0.0344
 4783SOL    HW125985   3.530   0.405   4.617 -0.3892 -0.5552  0.2078
 4783SOL    HW225986   3.503   0.498   4.713 -1.1325 -1.7896 -0.6885
 4784SOL     OW25987   0.541   0.081   3.016  0.0807  0.1288  0.1024
 4784SOL    HW125988   0.628   0.049   2.992  0.9502  1.8208  0.9694
 4784SOL    HW225989   0.525   0.043   3.103 -1.0573  0.2768 -0.0444
 4785SOL     OW25990   0.781   4.200   8.876 -0.2042  0.1303 -0.4510
 4785SOL    HW125991   0.752   4.212   8.967 -0.3977 -1.7128 -0.2542
 4785SOL    HW225992   0.790   4.290   8.847 -0.6893  0.2949 -0.0934
 4786SOL     OW25993   0.672   2.092   7.316 -0.0278 -0.5464 -0.2235
 4786SOL    HW125994   0.614   2.168   7.323 -0.5484 -0.8114 -1.6437
 4786SOL    HW225995   0.618   2.023   7.355 -0.6033 -0.7424 -1.3582
 4787SOL     OW25996   4.355   4.394  15.892 -0.3482 -0.0356  0.6136
 4787SOL    HW125997   4.311   4.465  15.939  0.5367 -0.0427  1.4535
 4787SOL    HW225998   4.289   4.373  15.826 -0.2413 -2.9568  1.4307
 4788SOL     OW25999   2.407   3.249   8.906  0.2078 -0.4164  0.5265
 4788SOL    HW126000   2.433   3.320   8.847 -2.9933  0.4104  0.1092
 4788SOL    HW226001   2.358   3.304   8.967 -2.2728  0.2025 -1.9728
 4789SOL     OW26002   2.708   1.640   8.884  0.2691  0.0804 -0.1634
 4789SOL    HW126003   2.776   1.588   8.842 -0.6514 -1.8373  0.7079
 4789SOL    HW226004   2.690   1.588   8.962  2.8938 -0.4236  0.0981
 4790SOL     OW26005   4.690   0.224   3.114  0.5160  0.2804  0.0650
 4790SOL    HW126006   4.607   0.205   3.158  0.3911  0.7407  0.0290
 4790SOL    HW226007   0.028   0.166   3.151  0.2051  1.1434  1.9834
 4791SOL     OW26008   0.554   1.557  14.303 -0.4217  0.8076 -0.5487
 4791SOL    HW126009   0.586   1.469  14.286 -1.6370  0.6452 -1.9886
 4791SOL    HW226010   0.513   1.558  14.389  0.2673 -0.8259 -0.2114
 4792SOL     OW26011   1.179   2.991   8.222 -0.8589  0.5424  0.1284
 4792SOL    HW126012   1.166   3.030   8.136  0.6226  1.0913  0.1575
 4792SOL    HW226013   1.131   2.910   8.205 -1.8748  1.7859 -2.7984
 4793SOL     OW26014   2.798   3.796  15.447 -0.2677  0.8783 -0.0619
 4793SOL    HW126015   2.806   3.822  15.355 -0.9098  3.5050  0.6328
 4793SOL    HW226016   2.882   3.833  15.475 -0.0161  0.4529 -0.2590
 4794SOL     OW26017   3.834   3.773   2.023  0.0042  0.0674 -0.1750
 4794SOL    HW126018   3.865   3.693   1.981  0.0962  0.2140 -0.3886
 4794SOL    HW226019   3.793   3.730   2.098 -2.1959  2.9490  0.2965
 4795SOL     OW26020   2.925   1.558   2.617 -0.0115 -0.1975  0.3684
 4795SOL    HW126021   2.972   1.527   2.539 -0.6717  1.7162 -0.8144
 4795SOL    HW226022   2.936   1.490   2.683  1.8088 -1.0208 -0.7835
 4796SOL     OW26023   3.139   4.060   1.939  0.5371  0.0002  0.2543
 4796SOL    HW126024   3.172   3.971   1.946  0.5164  0.0616  1.1558
 4796SOL    HW226025   3.210   4.116   1.973 -0.7024  0.7208  1.6695
 4797SOL     OW26026   1.497   2.071  15.642  0.0022  0.2044 -0.1245
 4797SOL    HW126027   1.441   2.118  15.704  0.5383  3.2810 -1.9214
 4797SOL    HW226028   1.503   2.144  15.580 -0.4928  0.1592 -0.2229
 4798SOL     OW26029   1.755   2.464   7.691 -0.2330 -0.8972 -0.5436
 4798SOL    HW126030   1.754   2.471   7.596  1.2028  3.2919 -0.2624
 4798SOL    HW226031   1.670   2.502   7.711 -0.3289 -1.7873  0.7519
 4799SOL     OW26032   3.433   1.049   3.847 -0.1814  0.2328 -1.1867
 4799SOL    HW126033   3.446   0.961   3.811  0.8270 -0.4173  0.7897
 4799SOL    HW226034   3.489   1.047   3.924 -0.3366  2.1835 -1.0182
 4800SOL     OW26035   1.954   0.488   6.449 -0.3763 -0.2491 -0.1160
 4800SOL    HW126036   1.955   0.392   6.444  0.9765 -0.2989  1.1041
 4800SOL    HW226037   1.905   0.506   6.369  0.8406 -0.9557 -1.0316
 4801SOL     OW26038   0.050   0.927   6.405  0.1290  0.2605  0.0504
 4801SOL    HW126039   0.090   1.014   6.406  1.9237 -0.5550  0.5433
 4801SOL    HW226040   0.068   0.898   6.316 -0.7083  1.5808 -0.5603
 4802SOL     OW26041   3.964   3.387   8.031  0.4234  0.1378 -0.3795
 4802SOL    HW126042   4.000   3.335   7.960 -0.1564  1.1759 -1.4341
 4802SOL    HW226043   4.048   3.407   8.072 -0.0295  0.0176  0.6255
 4803SOL     OW26044   2.533   3.637   4.159 -0.1353  0.4713 -0.4753
 4803SOL    HW126045   2.464   3.633   4.225 -0.3448 -0.6960 -0.7502
 4803SOL    HW226046   2.513   3.548   4.128  0.3857  0.3469 -0.4537
 4804SOL     OW26047   3.248   2.322   3.853  0.4551 -0.1635  0.2939
 4804SOL    HW126048   3.316   2.267   3.816  1.6117  1.7931 -0.5165
 4804SOL    HW226049   3.282   2.345   3.940 -0.5040 -2.9511  1.3963
 4805SOL     OW26050   1.081   2.620   6.645 -0.3091 -0.2087 -0.0434
 4805SOL    HW126051   1.154   2.672   6.677 -0.0250 -0.2146 -0.6900
 4805SOL    HW226052   1.109   2.602   6.556  0.6433  1.2050 -0.0250
 4806SOL     OW26053   1.539   4.380   7.971 -0.2355  0.1846  0.4416
 4806SOL    HW126054   1.610   4.393   7.908 -0.2541 -0.0165  0.3798
 4806SOL    HW226055   1.484   4.444   7.926  0.9142  0.0928 -1.1100
 4807SOL     OW26056   4.349   1.716   3.371 -0.1648  0.0727  0.3380
 4807SOL    HW126057   4.322   1.640   3.423  3.4572 -2.0202 -0.8101
 4807SOL    HW226058   4.442   1.703   3.355 -0.4400 -0.1884 -1.0079
 4808SOL     OW26059   2.715   2.383  10.590 -0.7009  0.3284 -0.2363
 4808SOL    HW126060   2.800   2.379  10.545 -0.0706 -0.0163  0.9835
 4808SOL    HW226061   2.683   2.299  10.558 -1.6656  0.2002  1.0831
 4809SOL     OW26062   1.922   2.580   6.623 -0.4323 -0.2771 -0.0432
 4809SOL    HW126063   1.854   2.636   6.585  0.1891  1.9667  2.2001
 4809SOL    HW226064   1.870   2.552   6.698 -0.1580 -0.9340 -0.0995
 4810SOL     OW26065   2.401   4.250   2.852  0.0467  0.2926  0.3271
 4810SOL    HW126066   2.411   4.319   2.917  0.2760  2.1016 -1.6333
 4810SOL    HW226067   2.488   4.213   2.868  0.2662  0.6954  0.0683
 4811SOL     OW26068   3.420   4.200  15.378 -0.0599  0.4078 -0.0089
 4811SOL    HW126069   3.482   4.247  15.323 -0.3999 -1.7909 -2.3021
 4811SOL    HW226070   3.410   4.128  15.315  1.1197 -1.2162  1.6406
 4812SOL     OW26071   2.379   4.344   5.028  1.2552  0.2804 -0.1587
 4812SOL    HW126072   2.469   4.323   5.002  1.0792 -0.0704 -0.4792
 4812SOL    HW226073   2.343   4.369   4.943 -1.1674 -1.2108  0.4445
 4813SOL     OW26074   2.164   0.838   4.990  0.3359  0.4178 -0.0462
 4813SOL    HW126075   2.230   0.775   4.963 -2.1564 -2.0425 -0.3515
 4813SOL    HW226076   2.172   0.811   5.081 -1.1521 -0.9366 -0.3243
 4814SOL     OW26077   2.688   3.392   4.287 -0.4658  0.1646  0.1451
 4814SOL    HW126078   2.622   3.334   4.323  0.0438 -0.2602  0.3880
 4814SOL    HW226079   2.732   3.339   4.220 -3.1760 -2.3193  0.3532
 4815SOL     OW26080   0.593   2.522   5.679 -0.3796  0.1952 -0.3125
 4815SOL    HW126081   0.643   2.532   5.760 -1.7146 -0.1940  0.5621
 4815SOL    HW226082   0.667   2.514   5.619  0.0931 -1.4543  0.5249
 4816SOL     OW26083   1.054   0.975   5.908  0.0051  0.0935 -0.9278
 4816SOL    HW126084   1.122   1.010   5.964 -1.2163 -1.3223  1.4743
 4816SOL    HW226085   0.996   0.972   5.985  0.8364  0.6829 -0.2809
 4817SOL     OW26086   2.365   2.542   4.582 -0.6481  0.3953  0.2499
 4817SOL    HW126087   2.439   2.582   4.536  0.6776  1.2839  3.1609
 4817SOL    HW226088   2.301   2.529   4.513 -0.0144 -0.4215 -0.1794
 4818SOL     OW26089   4.635   0.478   5.897 -0.0624 -0.0031  0.1570
 4818SOL    HW126090   4.676   0.409   5.845  0.5456  1.0187 -0.7221
 4818SOL    HW226091   4.558   0.506   5.847  0.3306 -2.0486 -1.6108
 4819SOL     OW26092   1.704   1.274  11.740 -0.1076 -0.1738  0.9310
 4819SOL    HW126093   1.670   1.357  11.706 -1.1002 -0.6487  0.7405
 4819SOL    HW226094   1.637   1.224  11.692  0.8007  1.4497 -2.0662
 4820SOL     OW26095   1.576   0.611   2.192 -0.1616 -0.2141  0.3922
 4820SOL    HW126096   1.579   0.694   2.240 -2.7878  1.0283 -1.6047
 4820SOL    HW226097   1.499   0.571   2.232  0.6556 -0.6396  1.5484
 4821SOL     OW26098   0.885   0.652   2.444  0.1296 -0.2357  0.2499
 4821SOL    HW126099   0.935   0.724   2.482 -1.6442  1.3182 -0.3325
 4821SOL    HW226100   0.850   0.695   2.366  0.7054 -1.2134 -0.5523
 4822SOL     OW26101   2.587   0.729   7.035 -0.6406  0.9378 -0.4722
 4822SOL    HW126102   2.505   0.764   7.000 -0.4059  1.4223 -0.5309
 4822SOL    HW226103   2.635   0.687   6.964  1.2220 -2.6716  2.9055
 4823SOL     OW26104   1.596   4.553   2.403 -0.2792 -0.1810 -0.0149
 4823SOL    HW126105   1.633   4.626   2.353 -0.7560  0.5757  0.7410
 4823SOL    HW226106   1.627   4.472   2.364  1.2069  1.1034 -1.4955
 4824SOL     OW26107   0.831   0.363   4.272 -0.1557  0.2263  0.3884
 4824SOL    HW126108   0.909   0.410   4.304  0.6826  0.2505 -1.7242
 4824SOL    HW226109   0.784   0.341   4.353  2.3190  0.4675  1.8946
 4825SOL     OW26110   1.890   3.404   2.870  1.0782 -0.1710  0.2732
 4825SOL    HW126111   1.912   3.313   2.887 -0.0577 -0.5855 -0.5131
 4825SOL    HW226112   1.936   3.409   2.786  0.6308 -1.3851 -0.0374
 4826SOL     OW26113   1.157   0.372   2.611 -1.0745  0.3205 -0.2868
 4826SOL    HW126114   1.080   0.372   2.553  1.2236 -1.3430 -3.3231
 4826SOL    HW226115   1.179   0.465   2.611  0.1752  0.0122  1.5016
 4827SOL     OW26116   2.054   0.275   2.041 -0.1178 -0.6421  0.3452
 4827SOL    HW126117   2.150   0.285   2.042 -0.3288  1.2164  0.1622
 4827SOL    HW226118   2.025   0.353   2.087  1.4767  1.7475 -2.7509
 4828SOL     OW26119   1.596   1.317   8.136 -0.1671 -0.7280 -0.8830
 4828SOL    HW126120   1.631   1.364   8.060  0.1185  1.4763  0.6233
 4828SOL    HW226121   1.670   1.311   8.196 -2.3516 -0.2116  1.8418
 4829SOL     OW26122   3.562   3.832   5.227  0.5152 -0.4577  0.4960
 4829SOL    HW126123   3.577   3.892   5.301 -2.0685 -1.3125  1.7303
 4829SOL    HW226124   3.500   3.883   5.174  2.8698  0.0891 -1.7409
 4830SOL     OW26125   1.946   4.200   6.879 -0.8516  0.0880 -0.5528
 4830SOL    HW126126   1.939   4.282   6.928 -4.1319  0.4381 -1.6787
 4830SOL    HW226127   1.961   4.129   6.942  0.7721  1.5230  0.6959
 4831SOL     OW26128   4.567   2.812   9.334  0.4258  0.4868  0.0727
 4831SOL    HW126129   4.619   2.798   9.412  1.1703  0.2794 -0.4628
 4831SOL    HW226130   4.624   2.765   9.273  0.3096 -0.6095  0.8218
 4832SOL     OW26131   0.092   4.289   6.503 -0.4363  0.2486  0.1066
 4832SOL    HW126132   0.050   4.361   6.456  0.6452  0.6816 -0.2092
 4832SOL    HW226133   0.168   4.339   6.534 -1.4182  1.3791  0.7156
 4833SOL     OW26134   1.709   3.258   5.602 -0.2518  0.0989  0.3554
 4833SOL    HW126135   1.644   3.292   5.664  0.9759 -0.5534  2.0162
 4833SOL    HW226136   1.653   3.217   5.536  0.0527 -0.4562  0.4408
 4834SOL     OW26137   4.707   4.537   7.826  0.3300  0.4192  0.2283
 4834SOL    HW126138   4.729   4.443   7.828 -0.5941  0.1473 -2.2902
 4834SOL    HW226139   4.617   4.540   7.857  1.0028 -1.0196  2.3942
 4835SOL     OW26140   0.086   0.851   3.928  0.4118  0.4671 -0.3052
 4835SOL    HW126141   0.149   0.894   3.870 -0.5799 -0.5983 -2.1349
 4835SOL    HW226142   0.065   0.772   3.879 -0.2306 -0.5877  1.6655
 4836SOL     OW26143   4.001   2.828   5.109  0.0278  0.2749  0.0788
 4836SOL    HW126144   3.918   2.830   5.156  1.0062  1.9648  1.7502
 4836SOL    HW226145   3.996   2.885   5.033  1.0916  0.3385  0.0457
 4837SOL     OW26146   0.598   4.582   0.922  0.6766  0.1056 -0.0145
 4837SOL    HW126147   0.606   4.677   0.919  1.4052  0.0576  0.4662
 4837SOL    HW226148   0.691   4.562   0.931  0.6960  0.6516  0.9444
 4838SOL     OW26149   0.411   0.344   9.070  0.2304  0.0704  0.0624
 4838SOL    HW126150   0.463   0.369   9.147 -0.5423  0.7478  0.3644
 4838SOL    HW226151   0.340   0.291   9.107  1.8477 -0.5201  2.3238
 4839SOL     OW26152   2.953   3.922   5.527  0.0534 -0.2164 -0.6269
 4839SOL    HW126153   3.041   3.886   5.529  0.0443 -0.2366 -0.5890
 4839SOL    HW226154   2.941   3.923   5.622 -1.3596 -2.5613 -0.7903
 4840SOL     OW26155   1.869   0.924  10.008 -0.3436  0.0164  0.6598
 4840SOL    HW126156   1.923   0.899  10.083  0.6674 -0.5968 -0.2588
 4840SOL    HW226157   1.802   0.973  10.056  0.4718  0.0405  1.7776
 4841SOL     OW26158   4.715   0.755   5.375  0.0578 -0.4443 -0.2244
 4841SOL    HW126159   4.695   0.734   5.466  1.1472  2.0698  0.5845
 4841SOL    HW226160   4.647   0.820   5.359  1.6182  1.2459 -0.0029
 4842SOL     OW26161   2.577   2.968   1.851 -0.0595  0.3927 -0.0364
 4842SOL    HW126162   2.541   2.891   1.808 -2.1872  1.8972 -0.9578
 4842SOL    HW226163   2.666   2.966   1.815  0.1034  0.1308  0.3865
 4843SOL     OW26164   4.480   2.227   7.748 -0.2533  0.3803  0.3955
 4843SOL    HW126165   4.406   2.170   7.769 -0.0789  0.3007  0.7841
 4843SOL    HW226166   4.483   2.272   7.832 -1.3062 -0.5469  0.9292
 4844SOL     OW26167   3.551   3.061   2.181  0.4279  0.0592  0.0587
 4844SOL    HW126168   3.509   3.101   2.105  0.6201  0.8758  0.3824
 4844SOL    HW226169   3.610   3.129   2.213 -1.5234  2.2446 -1.0510
 4845SOL     OW26170   2.716   4.607  12.477 -0.0680 -0.1036  0.3164
 4845SOL    HW126171   2.724   4.565  12.392 -1.0905 -1.6360  0.9749
 4845SOL    HW226172   2.772   4.553  12.534 -1.4739  0.2723  2.0671
 4846SOL     OW26173   3.819   2.460   3.762  0.1225 -0.0156 -0.1247
 4846SOL    HW126174   3.769   2.521   3.707 -2.0140 -1.2615  0.4013
 4846SOL    HW226175   3.863   2.526   3.816  1.6280  1.0547 -2.6973
 4847SOL     OW26176   3.193   0.189   6.375  0.3579 -0.2556  0.3957
 4847SOL    HW126177   3.246   0.112   6.352 -0.1763 -0.0579 -1.4896
 4847SOL    HW226178   3.262   0.229   6.429 -0.2453  1.1745  0.0849
 4848SOL     OW26179   4.100   3.459   2.874 -0.2725  0.2482  0.2820
 4848SOL    HW126180   4.121   3.462   2.781  1.9116  0.9761  0.8131
 4848SOL    HW226181   4.068   3.369   2.888 -2.9075  1.0185 -0.6468
 4849SOL     OW26182   4.343   4.579  12.768 -0.0925  0.6165  0.2346
 4849SOL    HW126183   4.381   4.492  12.783  1.5595  1.3121  0.0062
 4849SOL    HW226184   4.302   4.561  12.683  0.6601 -0.2098  0.0526
 4850SOL     OW26185   3.802   4.079   0.679 -0.1573  1.0117 -1.0172
 4850SOL    HW126186   3.803   4.159   0.732 -0.6615  0.6142 -0.4101
 4850SOL    HW226187   3.854   4.099   0.602 -0.6073  4.2086 -0.5023
 4851SOL     OW26188   2.596   1.778   7.479  0.2170  0.2912 -0.0371
 4851SOL    HW126189   2.555   1.828   7.409  0.2457 -2.4385 -2.0153
 4851SOL    HW226190   2.610   1.690   7.445 -0.0992  0.4582 -0.6071
 4852SOL     OW26191   1.403   2.708  11.202  0.3723  0.3537 -0.7103
 4852SOL    HW126192   1.493   2.705  11.236 -0.4366 -1.8419  1.1927
 4852SOL    HW226193   1.368   2.639  11.257 -2.5821  2.1744 -0.3351
 4853SOL     OW26194   3.638   1.190  15.784 -0.0716 -0.2963  0.5977
 4853SOL    HW126195   3.586   1.112  15.802 -0.2038 -0.0843  1.1178
 4853SOL    HW226196   3.723   1.161  15.752 -0.8460  1.5743 -3.2379
 4854SOL     OW26197   4.132   0.521  13.560  0.8251 -0.5211  0.1178
 4854SOL    HW126198   4.216   0.567  13.549  0.0684  0.4524 -1.6586
 4854SOL    HW226199   4.074   0.562  13.496  1.2382  0.7668  0.5665
 4855SOL     OW26200   3.726   2.478   1.936  0.2349 -0.4783  0.5345
 4855SOL    HW126201   3.801   2.533   1.959  0.9885 -1.4285  0.3568
 4855SOL    HW226202   3.775   2.396   1.929  0.9250  0.1108 -1.6514
 4856SOL     OW26203   4.377   2.012   2.360 -0.2905  0.4665 -0.1729
 4856SOL    HW126204   4.294   2.032   2.316 -1.0569 -1.2521  0.4476
 4856SOL    HW226205   4.390   1.917   2.353  1.9828  0.8821 -1.3009
 4857SOL     OW26206   0.983   2.861   8.062  0.0287 -0.6084 -0.0457
 4857SOL    HW126207   0.894   2.847   8.094 -0.8117  0.8165 -1.7557
 4857SOL    HW226208   0.986   2.953   8.037  0.6734 -1.1116 -1.7864
 4858SOL     OW26209   0.622   4.439   9.513  0.2591  0.1876  0.1259
 4858SOL    HW126210   0.635   4.532   9.493 -1.4298  0.7642  1.7493
 4858SOL    HW226211   0.572   4.438   9.594 -0.5946  1.2503 -0.3814
 4859SOL     OW26212   4.382   1.484  16.449 -0.2532  0.5311  0.7919
 4859SOL    HW126213   4.376   1.432  16.369  0.9963  1.2368  0.2339
 4859SOL    HW226214   4.290   1.509  16.444 -1.0756 -2.0095  2.9553
 4860SOL     OW26215   3.090   4.646   6.282 -0.3892 -0.2114  0.1848
 4860SOL    HW126216   3.180   4.664   6.309 -0.3638 -0.3554  0.1965
 4860SOL    HW226217   3.055   4.581   6.343 -2.4360  0.3694 -0.3507
 4861SOL     OW26218   3.269   4.514  17.264 -0.0872  0.3775 -0.0859
 4861SOL    HW126219   3.174   4.507  17.260 -0.2550  1.7591  1.6231
 4861SOL    HW226220   3.271   4.577  17.335  1.0264 -0.8340  0.9482
 4862SOL     OW26221   2.929   0.226  17.707 -0.0017  0.1014 -0.1157
 4862SOL    HW126222   3.021   0.204   0.003 -0.1257 -0.1408  0.3495
 4862SOL    HW226223   2.901   0.142  17.671  0.7534  0.6564 -2.0029
 4863SOL     OW26224   2.711   4.580   1.554 -0.2302  0.1730  0.3007
 4863SOL    HW126225   2.723   4.655   1.613 -0.7250  1.9495 -1.8288
 4863SOL    HW226226   2.787   4.581   1.497  0.3258 -0.6902  1.0364
 4864SOL     OW26227   4.378   0.589   3.596  0.0740 -0.6021 -0.1145
 4864SOL    HW126228   4.428   0.507   3.584  2.4344  1.0124 -1.3581
 4864SOL    HW226229   4.427   0.634   3.528  0.1494 -0.3421  0.1137
 4865SOL     OW26230   0.310   3.758   7.291  0.2030  0.1632  0.0311
 4865SOL    HW126231   0.324   3.680   7.237 -0.2110  0.2825 -0.2563
 4865SOL    HW226232   0.293   3.821   7.221 -1.3552 -1.8617 -1.4394
 4866SOL     OW26233   2.757   2.948  10.035 -0.1784  0.4386 -0.2116
 4866SOL    HW126234   2.747   2.906  10.120 -1.5335  0.7941 -0.1937
 4866SOL    HW226235   2.787   3.035  10.061  1.6486  0.1285 -1.2274
 4867SOL     OW26236   4.586   1.032   6.006 -0.4631 -0.2507 -0.0976
 4867SOL    HW126237   4.519   0.967   6.024  0.5744 -1.5383 -0.8344
 4867SOL    HW226238   4.587   1.020   5.911 -2.6423  0.5104 -0.2139
 4868SOL     OW26239   1.363   0.150  13.219 -0.4586 -0.0071 -0.3978
 4868SOL    HW126240   1.389   0.158  13.311  2.1103  0.6065 -1.1838
 4868SOL    HW226241   1.442   0.106  13.188 -1.2600 -0.8858 -1.1903
 4869SOL     OW26242   1.878   3.048   2.445 -0.0205 -0.5558 -0.1615
 4869SOL    HW126243   1.873   2.987   2.518  0.4979 -1.8816 -1.2270
 4869SOL    HW226244   1.953   3.017   2.395 -0.3154  0.0761 -1.0114
 4870SOL     OW26245   0.512   4.672   8.077 -0.2524 -0.0110 -0.3558
 4870SOL    HW126246   0.497   4.605   8.144 -0.8266  1.4771  1.0065
 4870SOL    HW226247   0.570   4.728   8.128 -0.4523 -0.4476  0.3478
 4871SOL     OW26248   4.328   1.425   3.800  0.1593 -0.0406  0.3964
 4871SOL    HW126249   4.412   1.412   3.844  0.9564  1.4341 -0.7086
 4871SOL    HW226250   4.298   1.512   3.825 -2.8213 -1.3668  1.4610
 4872SOL     OW26251   4.368   1.931   4.107  0.2581  0.7945  0.6225
 4872SOL    HW126252   4.459   1.944   4.080 -0.3359  0.0450 -1.7570
 4872SOL    HW226253   4.330   1.892   4.028 -0.6524  0.9347  0.9908
 4873SOL     OW26254   4.693   2.037   3.455 -0.2320 -0.0374  0.4161
 4873SOL    HW126255   0.049   2.011   3.489 -0.7745  1.0962  2.6484
 4873SOL    HW226256   4.646   1.956   3.479  1.3588 -1.2338 -0.5291
 4874SOL     OW26257   1.944   3.695   5.503 -0.8556  0.2666 -0.3391
 4874SOL    HW126258   1.966   3.657   5.418  2.2571  0.8472  0.2141
 4874SOL    HW226259   1.880   3.763   5.482 -0.9658  0.0907 -0.5772
 4875SOL     OW26260   4.491   1.480   1.813  0.5239 -0.1268 -0.0653
 4875SOL    HW126261   4.466   1.572   1.805 -1.3109 -0.8457 -2.7093
 4875SOL    HW226262   4.563   1.481   1.750 -2.2872 -3.0252 -3.3926
 4876SOL     OW26263   4.648   1.844   0.127 -0.3833 -0.5140 -0.0097
 4876SOL    HW126264   4.571   1.898   0.109  0.3741 -0.1201 -2.0681
 4876SOL    HW226265   4.653   1.798   0.043  0.3343  0.6976 -0.6424
 4877SOL     OW26266   2.438   4.549  15.671  0.4073  0.1684  0.4000
 4877SOL    HW126267   2.414   4.501  15.750 -2.1852 -0.8437 -1.0073
 4877SOL    HW226268   2.502   4.617  15.692  0.1237  1.3681 -2.6862
 4878SOL     OW26269   3.518   2.467   4.254  0.5065 -0.5323  0.0802
 4878SOL    HW126270   3.601   2.430   4.223  0.3082  0.4565 -1.6613
 4878SOL    HW226271   3.476   2.485   4.169 -1.9588 -2.7336  0.8357
 4879SOL     OW26272   1.604   0.762   5.431  0.3707  0.8675  0.0813
 4879SOL    HW126273   1.533   0.706   5.402  0.7075  0.1912  0.5654
 4879SOL    HW226274   1.631   0.725   5.515  0.8653 -1.0400 -0.9228
 4880SOL     OW26275   0.343   4.695   5.176 -0.8233  0.6868 -0.3060
 4880SOL    HW126276   0.356   0.010   5.259 -0.6180  0.8737 -0.4360
 4880SOL    HW226277   0.401   4.619   5.183 -1.0636  0.4888 -0.4863
 4881SOL     OW26278   2.907   1.450   4.777 -0.4480 -0.1989 -0.0304
 4881SOL    HW126279   2.976   1.433   4.713  2.5727 -0.2436  3.2758
 4881SOL    HW226280   2.833   1.408   4.733  0.1390  0.1596 -1.3885
 4882SOL     OW26281   3.882   0.976   7.794  0.3990  0.0019  0.9191
 4882SOL    HW126282   3.967   0.973   7.837  0.6230  0.6129  0.5257
 4882SOL    HW226283   3.851   1.059   7.831 -0.1441  0.3464 -0.2949
 4883SOL     OW26284   3.321   2.279   7.704  0.1623  0.2853 -0.5715
 4883SOL    HW126285   3.365   2.364   7.709 -2.8072  1.7579  0.5003
 4883SOL    HW226286   3.264   2.280   7.627 -1.8782  0.9485  0.9313
 4884SOL     OW26287   4.227   1.026  16.086  0.1914  0.1588  0.9034
 4884SOL    HW126288   4.271   1.077  16.018  0.4748  1.6771  2.2386
 4884SOL    HW226289   4.145   1.074  16.102  0.2889  0.3725  0.7696
 4885SOL     OW26290   2.766   4.288  15.075 -0.3957 -0.4353 -0.5034
 4885SOL    HW126291   2.707   4.290  15.151 -0.1926  1.0943 -0.3822
 4885SOL    HW226292   2.728   4.339  15.003  1.1582  1.2834 -0.1074
 4886SOL     OW26293   3.967   3.252   6.906 -0.2682 -0.2104 -0.0328
 4886SOL    HW126294   4.054   3.271   6.940  0.7785 -0.2470 -2.6862
 4886SOL    HW226295   3.960   3.319   6.839  0.9141  0.5944  0.6565
 4887SOL     OW26296   1.038   3.927   5.914 -0.0660 -0.1849  0.1168
 4887SOL    HW126297   1.067   3.935   6.005  0.8250  0.5263 -0.2306
 4887SOL    HW226298   1.063   3.835   5.909  2.9550  0.4907  2.5903
 4888SOL     OW26299   2.793   0.033   7.082 -0.0876  0.2602 -0.1035
 4888SOL    HW126300   2.825   0.095   7.148  1.7267  0.3626 -1.0926
 4888SOL    HW226301   2.738   0.090   7.029 -0.6058  0.0481  0.2010
 4889SOL     OW26302   1.260   2.589   2.923 -0.2579 -0.4124  0.2848
 4889SOL    HW126303   1.298   2.521   2.978  1.3883 -0.0184 -0.3929
 4889SOL    HW226304   1.223   2.643   2.993 -0.8319  1.2477 -1.2966
 4890SOL     OW26305   0.682   3.941   7.431  0.0637  0.4713 -0.4053
 4890SOL    HW126306   0.610   3.888   7.467 -1.0866  2.5994  0.4184
 4890SOL    HW226307   0.723   3.867   7.386  0.4731 -1.2440  2.7945
 4891SOL     OW26308   0.049   0.722   4.756 -0.2339 -0.0685 -0.1545
 4891SOL    HW126309   0.019   0.740   4.845 -1.0713 -2.7121  0.1105
 4891SOL    HW226310   0.144   0.721   4.769 -0.0060  0.4645 -1.7944
 4892SOL     OW26311   0.864   3.137  13.278 -0.4802  0.3360 -0.5710
 4892SOL    HW126312   0.786   3.186  13.303 -0.6046  0.1554 -0.6038
 4892SOL    HW226313   0.878   3.100  13.365 -2.7359  0.6448 -0.0659
 4893SOL     OW26314   1.708   2.745   3.692 -0.1945 -0.2608  0.1763
 4893SOL    HW126315   1.690   2.656   3.661  1.3278 -0.7878  0.7841
 4893SOL    HW226316   1.707   2.799   3.613 -1.8837 -0.3883  0.1168
 4894SOL     OW26317   1.260   4.284  14.534  0.0722 -0.3260  0.2788
 4894SOL    HW126318   1.319   4.300  14.460  0.5818 -1.8872  0.3467
 4894SOL    HW226319   1.300   4.326  14.611  0.9243 -1.8404  0.6631
 4895SOL     OW26320   2.108   4.568   6.847 -0.5908 -0.1844  0.6102
 4895SOL    HW126321   2.043   4.639   6.840  0.0644  0.6689  3.3956
 4895SOL    HW226322   2.129   4.571   6.940 -1.3859 -1.3431  0.8288
 4896SOL     OW26323   2.000   0.953   3.216 -0.4217  0.0488  0.1129
 4896SOL    HW126324   1.989   1.043   3.245  2.7228  1.2617 -2.3610
 4896SOL    HW226325   1.998   0.904   3.298 -2.1689 -0.5474 -0.2859
 4897SOL     OW26326   0.099   4.446   5.179 -0.3576  0.5901  0.1145
 4897SOL    HW126327   0.131   4.368   5.134 -0.4700 -0.2061  1.4052
 4897SOL    HW226328   0.174   4.504   5.162 -0.2167 -0.6206 -3.3501
 4898SOL     OW26329   2.323   2.771   6.828 -0.4653 -0.1977 -0.1749
 4898SOL    HW126330   2.246   2.764   6.772  0.3643  1.1035 -1.4818
 4898SOL    HW226331   2.380   2.708   6.784 -0.8329 -0.2355 -0.5870
 4899SOL     OW26332   1.825   2.853   8.915  0.4019 -0.4730  0.1745
 4899SOL    HW126333   1.766   2.884   8.984  0.3106  0.5099 -0.3422
 4899SOL    HW226334   1.883   2.927   8.897  1.6762 -1.6903 -0.6727
 4900SOL     OW26335   2.836   3.556   8.328  0.7043 -0.5656 -0.4676
 4900SOL    HW126336   2.924   3.588   8.306 -0.2591  0.8719 -2.2086
 4900SOL    HW226337   2.855   3.542   8.421  1.8600 -2.9809 -1.0769
 4901SOL     OW26338   3.008   3.685  15.808 -0.2173 -0.5624  0.1041
 4901SOL    HW126339   3.063   3.641  15.872  1.8664  1.6748 -0.1415
 4901SOL    HW226340   3.066   3.732  15.748 -1.4509  0.0700 -0.5869
 4902SOL     OW26341   1.223   1.278   6.584 -0.2523 -0.5204 -0.2698
 4902SOL    HW126342   1.155   1.224   6.544 -0.4398  0.3538 -1.1331
 4902SOL    HW226343   1.205   1.283   6.678 -2.5801 -0.3407 -0.7237
 4903SOL     OW26344   2.593   3.872   3.112 -0.5725  0.0171  0.4800
 4903SOL    HW126345   2.615   3.789   3.070 -0.1836 -0.3829  1.4656
 4903SOL    HW226346   2.544   3.849   3.191 -3.1804  0.7872 -0.9059
 4904SOL     OW26347   2.420   1.742   9.826  0.0639  0.2805  0.0474
 4904SOL    HW126348   2.343   1.698   9.789 -0.4819  1.8754 -0.7293
 4904SOL    HW226349   2.481   1.708   9.760 -0.6715  3.0333 -2.0679
 4905SOL     OW26350   0.261   4.185   8.426 -0.1181  0.0328 -0.4688
 4905SOL    HW126351   0.351   4.218   8.427 -0.2162  0.2861  0.7292
 4905SOL    HW226352   0.242   4.173   8.333  1.1959 -0.0282 -0.7226
 4906SOL     OW26353   3.470   2.037   8.918  0.1882 -0.0813 -0.6739
 4906SOL    HW126354   3.396   1.977   8.921 -0.0044  0.0592 -2.3154
 4906SOL    HW226355   3.448   2.079   8.835  0.2467  0.0015 -0.6469
 4907SOL     OW26356   2.284   0.552   9.000 -0.3446  0.7610 -0.0535
 4907SOL    HW126357   2.362   0.607   9.009 -0.9488  2.0159 -2.5095
 4907SOL    HW226358   2.299   0.476   9.055  0.7602 -0.1943 -1.6756
 4908SOL     OW26359   0.709   0.472   5.997 -0.5266 -0.0827  0.1286
 4908SOL    HW126360   0.745   0.537   5.937 -0.6866 -0.3894 -0.2984
 4908SOL    HW226361   0.775   0.403   6.000 -0.9557 -0.5968 -2.2698
 4909SOL     OW26362   4.587   1.428   3.882  0.6044 -0.0452  0.0436
 4909SOL    HW126363   4.615   1.379   3.959 -2.7902 -0.3824  1.0748
 4909SOL    HW226364   4.596   1.357   3.819 -0.2790 -0.2718  0.1638
 4910SOL     OW26365   2.159   0.575   6.123 -0.7294 -0.0316  0.0953
 4910SOL    HW126366   2.072   0.592   6.088 -0.9000  0.0473  0.5644
 4910SOL    HW226367   2.177   0.665   6.149 -1.6946  0.0230  0.5782
 4911SOL     OW26368   3.590   3.159   1.130 -0.0521 -0.1934  0.7617
 4911SOL    HW126369   3.584   3.224   1.060  3.1250 -1.1316 -0.3810
 4911SOL    HW226370   3.621   3.087   1.075  0.5697  0.7319 -0.0936
 4912SOL     OW26371   4.312   1.861   5.626  0.1464 -0.0565 -0.0122
 4912SOL    HW126372   4.222   1.883   5.604 -0.7265 -0.4412  3.2341
 4912SOL    HW226373   4.337   1.909   5.705 -1.4379  0.5468  0.1186
 4913SOL     OW26374   2.467   4.278   6.301  0.2761  0.2180  0.2429
 4913SOL    HW126375   2.390   4.305   6.351 -0.3708 -0.3339 -0.4600
 4913SOL    HW226376   2.431   4.212   6.243  0.9412  0.8379 -0.8830
 4914SOL     OW26377   4.480   1.333   0.702  0.0842  0.2167 -0.3981
 4914SOL    HW126378   4.468   1.322   0.608  1.8783  1.8539 -0.8065
 4914SOL    HW226379   4.389   1.334   0.733  0.4692 -0.2513  0.7462
 4915SOL     OW26380   3.625   3.826   6.659  0.2342 -0.3997 -0.4459
 4915SOL    HW126381   3.593   3.753   6.712 -3.2886  3.1393  2.3452
 4915SOL    HW226382   3.671   3.770   6.598  1.8240  0.1335  0.2545
 4916SOL     OW26383   4.251   1.487  15.980  0.1155  0.4607  0.3434
 4916SOL    HW126384   4.156   1.489  15.970 -0.0422 -1.8180  1.4507
 4916SOL    HW226385   4.253   1.540  16.059  0.2277 -1.3175  1.5230
 4917SOL     OW26386   0.325   0.640   4.823  0.1627 -0.0724  0.2425
 4917SOL    HW126387   0.410   0.667   4.789 -0.7399  2.3826 -0.0761
 4917SOL    HW226388   0.302   0.578   4.754 -0.7156  2.4596 -1.7340
 4918SOL     OW26389   1.719   3.770   7.941  0.0536 -0.0121  0.2296
 4918SOL    HW126390   1.796   3.718   7.965 -2.2796 -2.6449  1.9810
 4918SOL    HW226391   1.661   3.746   8.013  1.9856 -0.4222  1.6349
 4919SOL     OW26392   0.740   4.340   3.573 -0.6964  0.0102 -0.1295
 4919SOL    HW126393   0.703   4.415   3.620 -1.1799 -1.7694  2.3394
 4919SOL    HW226394   0.831   4.359   3.595 -0.2775 -0.7336 -1.2282
 4920SOL     OW26395   1.567   1.935   2.653  0.2212 -0.0776  0.2912
 4920SOL    HW126396   1.622   2.011   2.632 -0.5067 -0.3155 -2.4544
 4920SOL    HW226397   1.604   1.914   2.739  0.5367  1.6175  0.5608
 4921SOL     OW26398   1.746   3.434   2.532  0.4360  0.2332 -0.1965
 4921SOL    HW126399   1.773   3.506   2.589  1.6357  0.2824 -0.8258
 4921SOL    HW226400   1.722   3.367   2.596  0.9055 -0.6115 -0.9094
 4922SOL     OW26401   4.178   1.037   7.189 -0.3310  0.4056 -0.5791
 4922SOL    HW126402   4.226   0.955   7.190 -0.2292  0.4645 -0.6337
 4922SOL    HW226403   4.243   1.102   7.219  1.9747 -1.7263 -0.9807
 4923SOL     OW26404   0.845   0.234   3.180  0.0935 -0.0539 -0.6317
 4923SOL    HW126405   0.806   0.182   3.110  1.0594 -1.2173 -0.3012
 4923SOL    HW226406   0.934   0.232   3.145  0.0319 -1.3983 -0.7242
 4924SOL     OW26407   0.543   3.740   8.341  0.2061  0.5513 -0.3043
 4924SOL    HW126408   0.550   3.815   8.282  1.7038  1.0365  0.4859
 4924SOL    HW226409   0.574   3.786   8.419 -0.7107 -1.6820  1.3851
 4925SOL     OW26410   0.864   3.115  16.954  0.1300 -0.7341  0.0849
 4925SOL    HW126411   0.852   3.021  16.949  0.4058 -0.7199 -0.9922
 4925SOL    HW226412   0.950   3.112  16.996  1.3495  1.6597 -2.1907
 4926SOL     OW26413   1.727   2.035   6.989 -0.1643 -0.1521  0.1948
 4926SOL    HW126414   1.814   2.014   6.956 -0.7619 -1.1022 -0.8086
 4926SOL    HW226415   1.761   2.047   7.077  0.3974 -0.7939  0.0651
 4927SOL     OW26416   3.745   1.887   7.108 -0.1857 -0.4202 -0.0281
 4927SOL    HW126417   3.666   1.887   7.163 -0.2956  0.5159 -0.1743
 4927SOL    HW226418   3.772   1.797   7.127  0.1181 -0.8328 -2.4053
 4928SOL     OW26419   2.497   2.496   9.320  0.0422 -0.5009  0.3648
 4928SOL    HW126420   2.512   2.467   9.229 -1.6213  1.5535 -0.5526
 4928SOL    HW226421   2.530   2.423   9.372 -1.8886 -1.1086  0.7379
 4929SOL     OW26422   0.490   4.142   4.943  0.0405  0.9539 -0.2650
 4929SOL    HW126423   0.449   4.148   5.029 -0.6017  2.8318 -0.6957
 4929SOL    HW226424   0.413   4.119   4.890 -0.1535  0.1578  0.3531
 4930SOL     OW26425   2.526   0.503   4.347 -0.4217  0.1350  0.3150
 4930SOL    HW126426   2.531   0.579   4.405  1.1173  1.4308 -1.4842
 4930SOL    HW226427   2.612   0.524   4.309  0.0220  0.2598  1.4080
 4931SOL     OW26428   3.600   0.497  16.919 -0.3053 -0.0398 -0.1200
 4931SOL    HW126429   3.584   0.452  16.836 -1.2213  0.2151 -0.0724
 4931SOL    HW226430   3.561   0.434  16.980  0.3231  0.0821  0.4139
 4932SOL     OW26431   4.133   2.805   7.973  0.5584 -0.1217 -0.3034
 4932SOL    HW126432   4.055   2.798   7.919  0.3534 -1.7653  0.2133
 4932SOL    HW226433   4.173   2.718   7.976  0.0169 -0.4311 -2.5682
 4933SOL     OW26434   2.114   1.674   8.225  0.2165  0.4226 -0.4815
 4933SOL    HW126435   2.102   1.763   8.193  0.2899  1.6925  3.0145
 4933SOL    HW226436   2.034   1.636   8.190  0.0656  0.5610 -0.2874
 4934SOL     OW26437   1.869   2.891  10.244  0.1837 -0.2483 -0.0863
 4934SOL    HW126438   1.937   2.841  10.289 -0.3225  0.4565  1.4470
 4934SOL    HW226439   1.833   2.938  10.319  0.3017  2.2167 -1.5904
 4935SOL     OW26440   0.119   1.810   6.720  0.3365  0.0296 -0.2595
 4935SOL    HW126441   0.029   1.807   6.688  0.2052  1.6611 -0.0359
 4935SOL    HW226442   0.122   1.897   6.758  0.6398  0.4523 -1.2380
 4936SOL     OW26443   1.810   1.784  13.818 -0.1284  0.5011 -0.0911
 4936SOL    HW126444   1.735   1.785  13.758 -1.5823 -1.5579  1.6357
 4936SOL    HW226445   1.850   1.703  13.787  2.4543  2.0294 -0.7199
 4937SOL     OW26446   3.936   2.374   1.556 -0.0924  0.3390  0.2488
 4937SOL    HW126447   3.859   2.360   1.500  0.8043  0.3840 -0.9830
 4937SOL    HW226448   3.916   2.456   1.602 -0.4524 -0.0332  0.7568
 4938SOL     OW26449   2.898   0.635  12.228 -0.6061  0.3542 -0.2490
 4938SOL    HW126450   2.890   0.655  12.321  0.1821 -1.6655  0.2465
 4938SOL    HW226451   2.808   0.637  12.196 -0.1195  0.9769 -1.5981
 4939SOL     OW26452   2.930   4.610   3.547  0.3225  0.9913  0.4215
 4939SOL    HW126453   2.982   4.620   3.626 -0.4784  0.7942  0.9697
 4939SOL    HW226454   2.969   4.535   3.501 -0.6424  1.2644 -0.8548
 4940SOL     OW26455   0.452   0.416   4.350  0.3580  0.1637  0.0665
 4940SOL    HW126456   0.434   0.328   4.317  0.3215 -0.0777  0.7343
 4940SOL    HW226457   0.489   0.389   4.434  1.5086  2.0126  0.1412
 4941SOL     OW26458   0.040   1.628   5.748 -0.5191  0.3786  0.3815
 4941SOL    HW126459   0.129   1.599   5.730 -1.3481 -1.3206 -0.9143
 4941SOL    HW226460   4.725   1.612   5.665 -0.3176  1.1706  0.1191
 4942SOL     OW26461   1.759   1.371   4.073  0.1039  0.3299 -0.6236
 4942SOL    HW126462   1.802   1.292   4.106  1.6160  0.7443 -1.5838
 4942SOL    HW226463   1.805   1.429   4.133  2.0065 -2.1196  0.2792
 4943SOL     OW26464   1.149   0.863   8.195 -0.1377  0.1729  0.6815
 4943SOL    HW126465   1.131   0.896   8.108  2.9081  0.1985  0.0434
 4943SOL    HW226466   1.225   0.915   8.223  0.5618 -0.7208  0.4671
 4944SOL     OW26467   2.735   3.318   5.404  0.2837  0.1042 -0.2103
 4944SOL    HW126468   2.804   3.358   5.351 -0.3800  0.8340 -0.4995
 4944SOL    HW226469   2.714   3.247   5.344 -0.2182 -0.2484  0.3840
 4945SOL     OW26470   3.227   2.294   6.412  0.5533 -0.4469  0.2394
 4945SOL    HW126471   3.139   2.299   6.374  0.1090 -0.0081  1.3297
 4945SOL    HW226472   3.220   2.212   6.461  1.1797  0.7500  2.3347
 4946SOL     OW26473   0.147   0.326   7.324 -0.0507 -0.6918  0.1912
 4946SOL    HW126474   0.058   0.331   7.356 -0.0287  1.2124 -0.0594
 4946SOL    HW226475   0.186   0.388   7.385  2.4627  0.1172 -2.2091
 4947SOL     OW26476   1.949   4.439  12.908  0.1422  0.5869  0.2298
 4947SOL    HW126477   1.902   4.518  12.883 -2.7109 -0.3903  2.4356
 4947SOL    HW226478   1.871   4.401  12.950 -0.5490  2.5348  0.7058
 4948SOL     OW26479   0.519   0.342   1.890 -0.3133  0.3301  0.3598
 4948SOL    HW126480   0.476   0.256   1.880 -2.3066  1.2731  0.8349
 4948SOL    HW226481   0.481   0.397   1.821 -0.0875  0.8760  0.6786
 4949SOL     OW26482   0.871   4.621   6.355  0.2894 -0.0107 -0.1109
 4949SOL    HW126483   0.799   4.684   6.347  1.1667  1.2132  1.8373
 4949SOL    HW226484   0.839   4.571   6.430  0.5801  0.6639  0.4499
 4950SOL     OW26485   3.489   0.637   6.945  0.1492  0.1687  0.1717
 4950SOL    HW126486   3.570   0.675   6.911 -1.0331 -0.5249 -3.4329
 4950SOL    HW226487   3.484   0.651   7.039 -0.6315  0.4515  0.0891
 4951SOL     OW26488   3.532   4.073  17.285  0.2262  0.5197  0.1749
 4951SOL    HW126489   3.458   4.069  17.225  0.4834  1.1052 -0.1836
 4951SOL    HW226490   3.542   4.167  17.273 -1.1854  0.7361  0.6250
 4952SOL     OW26491   4.030   0.160   7.508 -0.2431  0.5069  0.2783
 4952SOL    HW126492   4.067   0.130   7.425  2.3304  3.2830  0.4239
 4952SOL    HW226493   3.998   0.245   7.479  1.1410  0.3013 -1.8861
 4953SOL     OW26494   3.218   2.285   0.885 -0.4397  0.3951 -0.0194
 4953SOL    HW126495   3.246   2.331   0.806  1.1451 -0.9412 -0.2430
 4953SOL    HW226496   3.300   2.242   0.912 -0.5855 -0.0982 -0.3843
 4954SOL     OW26497   1.400   2.796   9.316 -0.2665 -0.2151 -0.2929
 4954SOL    HW126498   1.389   2.861   9.386 -1.2745  1.1594 -1.7208
 4954SOL    HW226499   1.414   2.859   9.245  1.6726  0.1382  0.3948
 4955SOL     OW26500   2.945   0.496   0.264  0.5053  0.8073  0.0521
 4955SOL    HW126501   2.904   0.506   0.179 -1.0892 -0.0486  0.6995
 4955SOL    HW226502   2.926   0.407   0.294  0.8800  0.7729  0.1929
 4956SOL     OW26503   4.726   4.085  17.303  0.7535 -0.2931 -0.0024
 4956SOL    HW126504   4.651   4.041  17.262  1.3817 -0.0463 -1.4196
 4956SOL    HW226505   0.042   4.009  17.340 -0.0311 -1.8280 -2.1856
 4957SOL     OW26506   0.427   0.673   5.596  0.1054 -0.1412  0.3013
 4957SOL    HW126507   0.370   0.722   5.537  0.9987  2.2471  1.4327
 4957SOL    HW226508   0.512   0.683   5.553  0.7878 -0.5077  1.5757
 4958SOL     OW26509   2.992   1.864   8.253 -0.7359 -0.6441 -0.1786
 4958SOL    HW126510   3.071   1.896   8.209  0.3637 -2.5105  0.4197
 4958SOL    HW226511   2.932   1.875   8.179 -0.0508 -0.5711 -0.7208
 4959SOL     OW26512   2.117   0.486   3.498  0.0694 -0.1147  0.3299
 4959SOL    HW126513   2.140   0.427   3.427  0.7014  0.4641  0.0576
 4959SOL    HW226514   2.155   0.443   3.574  0.2052  1.1459  0.9743
 4960SOL     OW26515   0.949   4.108   8.427  0.9430 -0.0510  0.1579
 4960SOL    HW126516   0.861   4.130   8.458  1.1386  0.1547  0.5577
 4960SOL    HW226517   0.935   4.017   8.400  1.7866 -0.0787 -0.1837
 4961SOL     OW26518   4.210   1.508  13.739  0.0379  0.2735  0.4031
 4961SOL    HW126519   4.252   1.530  13.655  0.6692 -1.1979  0.3349
 4961SOL    HW226520   4.133   1.564  13.735 -0.2131 -0.2563 -2.2141
 4962SOL     OW26521   3.283   2.794   4.915 -0.2449  0.1434 -0.5549
 4962SOL    HW126522   3.295   2.756   5.002  0.6740 -1.1741 -1.2579
 4962SOL    HW226523   3.273   2.716   4.861 -1.4324 -0.2027  0.1682
 4963SOL     OW26524   2.467   2.637   5.060 -0.0788 -0.1463  0.1286
 4963SOL    HW126525   2.435   2.599   5.142 -0.1247  0.2755  0.3038
 4963SOL    HW226526   2.402   2.606   4.997 -2.7184  0.5925  2.4829
 4964SOL     OW26527   3.208   4.401   4.260  0.6153 -0.2133  0.3277
 4964SOL    HW126528   3.156   4.324   4.241  1.1282 -0.3268 -0.5970
 4964SOL    HW226529   3.263   4.373   4.333 -1.0901 -1.5264  1.1017
 4965SOL     OW26530   0.272   3.362   5.688  0.2059 -0.2488 -0.2420
 4965SOL    HW126531   0.324   3.371   5.768  1.4902  0.2162 -1.1207
 4965SOL    HW226532   0.227   3.285   5.723  2.6211 -0.0073  3.3891
 4966SOL     OW26533   0.368   3.344  10.874 -0.3732  0.0715 -0.2420
 4966SOL    HW126534   0.321   3.376  10.951  0.0193  0.8504 -0.3273
 4966SOL    HW226535   0.333   3.413  10.817  1.9418 -0.1213 -1.8841
 4967SOL     OW26536   3.424   2.252   6.129  0.2390  0.3014 -0.2770
 4967SOL    HW126537   3.380   2.333   6.104  0.4802  1.7361  3.8266
 4967SOL    HW226538   3.387   2.233   6.216 -0.1294 -0.3687 -0.5824
 4968SOL     OW26539   3.354   1.082   5.658 -0.0600  0.9029 -0.8004
 4968SOL    HW126540   3.379   1.025   5.731 -0.0764  2.5242  0.4732
 4968SOL    HW226541   3.385   1.168   5.687 -1.2100  0.7403  0.9488
 4969SOL     OW26542   2.366   3.867   2.949  0.2740 -0.2496 -0.2333
 4969SOL    HW126543   2.450   3.878   2.993  0.7020 -1.1700 -0.8407
 4969SOL    HW226544   2.394   3.855   2.858  0.0416  0.5350 -0.4061
 4970SOL     OW26545   0.614   1.315  14.160 -0.2841  0.2278 -0.3847
 4970SOL    HW126546   0.565   1.352  14.088  0.5122  2.6820  0.3450
 4970SOL    HW226547   0.693   1.295  14.109 -1.1158 -1.6832 -0.9133
 4971SOL     OW26548   0.527   4.046   1.012 -0.3218 -0.9259  0.2854
 4971SOL    HW126549   0.496   3.957   1.028  2.1391 -1.7370  0.5431
 4971SOL    HW226550   0.600   4.052   1.074 -0.7903  3.0542  0.4272
 4972SOL     OW26551   1.898   4.154   2.705 -0.0805 -0.3773 -0.0670
 4972SOL    HW126552   1.873   4.244   2.684  0.6201 -0.2622 -0.4251
 4972SOL    HW226553   1.988   4.158   2.739  0.7670 -2.2737 -2.0808
 4973SOL     OW26554   2.629   2.197   2.834 -0.1130  0.1610  0.1735
 4973SOL    HW126555   2.641   2.222   2.743  0.7524  4.1461  1.4050
 4973SOL    HW226556   2.543   2.158   2.818  0.1580  0.6745 -2.4825
 4974SOL     OW26557   2.790   3.414   3.182 -0.2382  0.0740  0.4645
 4974SOL    HW126558   2.821   3.355   3.113 -0.3283  0.3567  0.1860
 4974SOL    HW226559   2.702   3.381   3.200 -1.1330  2.5418  0.5442
 4975SOL     OW26560   3.578   2.511   7.198  0.2789 -0.2009 -0.0091
 4975SOL    HW126561   3.485   2.492   7.211 -0.7804  3.5149 -1.9304
 4975SOL    HW226562   3.587   2.591   7.249  0.6011 -0.1465 -0.1478
 4976SOL     OW26563   2.338   3.317   9.700 -0.5738  0.0106  0.0196
 4976SOL    HW126564   2.333   3.352   9.789  0.9171 -1.5918  0.7330
 4976SOL    HW226565   2.279   3.383   9.663  0.3058  1.9062  2.0272
 4977SOL     OW26566   2.987   2.809   2.050 -0.5483  0.2997  0.5947
 4977SOL    HW126567   2.942   2.858   1.981  1.3673 -1.8391 -2.1533
 4977SOL    HW226568   3.076   2.811   2.016 -0.5068  0.4185  0.7112
 4978SOL     OW26569   0.786   4.365   5.784 -0.6342  0.4035  0.3596
 4978SOL    HW126570   0.801   4.298   5.718 -1.9163 -0.8995  1.3646
 4978SOL    HW226571   0.877   4.377   5.811 -0.2350 -1.1001 -0.3521
 4979SOL     OW26572   2.009   2.921   5.796  0.4327  0.6917  0.1665
 4979SOL    HW126573   2.087   2.945   5.846 -1.4154  3.6617  1.6323
 4979SOL    HW226574   1.950   2.988   5.830 -0.9096  0.9734 -2.7358
 4980SOL     OW26575   4.520   1.754  13.045  0.2687 -0.4181 -0.4241
 4980SOL    HW126576   4.581   1.811  12.998 -0.1301 -0.0058 -0.4425
 4980SOL    HW226577   4.563   1.724  13.125  1.3992 -2.4137 -1.7573
 4981SOL     OW26578   3.622   1.351   8.693 -0.0230  0.6321  0.2023
 4981SOL    HW126579   3.677   1.273   8.686  0.2477  0.7020  1.5585
 4981SOL    HW226580   3.645   1.403   8.616  0.2177  0.6769  0.3052
 4982SOL     OW26581   0.408   4.350   9.040  0.0312  0.0452  0.1915
 4982SOL    HW126582   0.453   4.377   9.121  1.7624 -0.3566 -0.6400
 4982SOL    HW226583   0.358   4.429   9.019 -1.3178 -0.2109  2.3897
 4983SOL     OW26584   0.800   2.189  12.528  0.1895 -0.0203 -0.2833
 4983SOL    HW126585   0.722   2.138  12.549  0.2814  0.2517  0.7219
 4983SOL    HW226586   0.809   2.245  12.605 -1.0253 -2.2534  1.4729
 4984SOL     OW26587   2.989   4.046  10.524  0.6305  0.5571 -0.4011
 4984SOL    HW126588   3.075   4.008  10.506  0.6862  0.2509  0.5082
 4984SOL    HW226589   2.998   4.042  10.619 -2.4217 -2.9554 -0.2464
 4985SOL     OW26590   0.049   2.661   7.188  0.0605 -0.1413  0.0050
 4985SOL    HW126591   4.689   2.631   7.168 -0.6726  0.6610  2.0065
 4985SOL    HW226592   0.064   2.619   7.273 -0.4295 -0.1562  0.0827
 4986SOL     OW26593   0.085   3.553   5.615  0.6331  0.1121 -0.2370
 4986SOL    HW126594   0.154   3.493   5.643  1.4049  0.9477 -0.3389
 4986SOL    HW226595   0.102   3.625   5.675 -1.0209  0.6108 -0.3775
 4987SOL     OW26596   4.127   4.474   8.947  0.1001  0.4369 -0.2404
 4987SOL    HW126597   4.111   4.404   9.010  0.0123  0.9968  0.3621
 4987SOL    HW226598   4.208   4.457   8.899  0.8786  0.8456  0.9310
 4988SOL     OW26599   0.748   1.452   1.839  0.1132  0.2598 -0.5760
 4988SOL    HW126600   0.707   1.514   1.900  0.3421 -1.1115  0.9590
 4988SOL    HW226601   0.685   1.445   1.767 -0.1472 -2.8553 -0.0666
 4989SOL     OW26602   1.233   1.065   6.980 -0.1533 -0.4709 -0.2193
 4989SOL    HW126603   1.207   1.057   6.888 -2.0828 -2.6900  0.5113
 4989SOL    HW226604   1.244   0.979   7.020  1.0989  0.9588  2.5161
 4990SOL     OW26605   1.392   2.563   4.860 -0.0266  0.1099  0.1342
 4990SOL    HW126606   1.374   2.589   4.950  0.7603 -1.0101  0.6100
 4990SOL    HW226607   1.444   2.483   4.860 -0.0001  0.1306 -4.4188
 4991SOL     OW26608   2.930   0.743  15.720 -0.5585  0.1543  0.0404
 4991SOL    HW126609   2.896   0.707  15.638 -0.5211 -0.8426  0.4582
 4991SOL    HW226610   2.976   0.819  15.684  0.2813 -0.6075 -0.4821
 4992SOL     OW26611   0.568   0.969  12.145  0.0765 -0.1973 -0.2875
 4992SOL    HW126612   0.585   1.054  12.105  1.2778 -0.4112 -0.2161
 4992SOL    HW226613   0.510   0.999  12.215 -1.5702  0.0689 -1.7371
 4993SOL     OW26614   1.067   1.963   2.212 -0.1664  0.3044 -0.4307
 4993SOL    HW126615   1.055   1.869   2.226  1.4304  0.1155 -0.3294
 4993SOL    HW226616   1.061   2.005   2.298  3.2879 -2.0690  0.9788
 4994SOL     OW26617   4.500   1.570   7.448 -0.3186  0.9722 -0.2454
 4994SOL    HW126618   4.507   1.557   7.543  2.1250 -0.4179 -0.6076
 4994SOL    HW226619   4.569   1.507   7.425 -1.1315  0.2499 -0.6994
 4995SOL     OW26620   0.187   2.748   3.726 -0.4270  0.1088 -0.3633
 4995SOL    HW126621   0.269   2.704   3.701 -0.5696  0.0054 -0.6522
 4995SOL    HW226622   0.154   2.677   3.781  0.4355  1.1826  1.5325
 4996SOL     OW26623   4.241   2.931   7.553 -0.3474  0.1755 -0.4717
 4996SOL    HW126624   4.254   2.942   7.647 -2.7384 -0.8723 -0.0108
 4996SOL    HW226625   4.145   2.930   7.555 -0.3671  1.7530 -0.9021
 4997SOL     OW26626   2.730   1.506   1.971  0.2122  0.3192 -0.0960
 4997SOL    HW126627   2.640   1.494   1.940  0.0735 -3.0298  1.5470
 4997SOL    HW226628   2.776   1.518   1.888  0.0250  0.3817 -0.1928
 4998SOL     OW26629   1.660   4.054  10.951  0.0914 -0.3372  0.0748
 4998SOL    HW126630   1.605   4.131  10.960 -0.2113 -0.5904  0.3989
 4998SOL    HW226631   1.741   4.090  10.989 -1.5499  0.4793  2.8089
 4999SOL     OW26632   3.761   3.380   3.415  0.1817 -0.0280 -0.0549
 4999SOL    HW126633   3.738   3.307   3.358 -0.3445  0.8126 -0.9167
 4999SOL    HW226634   3.760   3.336   3.500 -0.7302 -0.6665 -0.3873
 5000SOL     OW26635   2.883   2.006   5.025 -0.2193 -0.1659  0.9954
 5000SOL    HW126636   2.894   2.101   5.027 -2.6186  0.1455 -2.3991
 5000SOL    HW226637   2.872   1.992   5.120 -1.1951 -1.9762  0.6196
 5001SOL     OW26638   4.671   0.398   6.149 -0.2581 -0.6853  0.2077
 5001SOL    HW126639   0.015   0.450   6.184  0.6809 -1.6186 -0.3991
 5001SOL    HW226640   4.652   0.434   6.063 -0.2509  0.2611  0.5986
 5002SOL     OW26641   2.279   3.675  10.908 -0.5166 -0.2144 -0.6374
 5002SOL    HW126642   2.218   3.692  10.837  1.2106  0.0629 -2.0702
 5002SOL    HW226643   2.211   3.641  10.966  0.3125  1.0892  1.1109
 5003SOL     OW26644   0.338   0.854   0.336  0.0961 -0.1543  0.0838
 5003SOL    HW126645   0.308   0.911   0.407 -0.4248  0.5396 -0.6933
 5003SOL    HW226646   0.280   0.778   0.337 -0.1070 -0.0065 -0.9501
 5004SOL     OW26647   2.987   3.251   2.006  0.4984  0.4016  0.0077
 5004SOL    HW126648   3.061   3.195   2.032 -0.6629 -0.2748  1.8200
 5004SOL    HW226649   3.029   3.335   1.989  2.0071 -0.3268  0.1126
 5005SOL     OW26650   0.378   4.155   9.616  0.0736 -0.3204 -0.1092
 5005SOL    HW126651   0.387   4.225   9.681 -2.3625 -1.7882  1.8154
 5005SOL    HW226652   0.468   4.123   9.611  0.6692  1.3932 -0.3481
 5006SOL     OW26653   0.874   4.571  16.146 -0.1850  0.4708 -0.9296
 5006SOL    HW126654   0.798   4.622  16.120 -0.9755 -0.1290  0.2118
 5006SOL    HW226655   0.950   4.622  16.114  0.1311  0.9147  0.5421
 5007SOL     OW26656   1.605   2.247   7.915 -0.7580 -0.1528  0.2505
 5007SOL    HW126657   1.573   2.327   7.873  2.8254  1.1795  0.0697
 5007SOL    HW226658   1.620   2.274   8.005  4.3470 -0.4790 -0.4605
 5008SOL     OW26659   4.210   2.598  13.507 -0.1657 -0.4595  1.1163
 5008SOL    HW126660   4.181   2.598  13.416 -0.6681  0.4660  1.2804
 5008SOL    HW226661   4.123   2.590  13.546  0.3990 -0.7902  2.2902
 5009SOL     OW26662   1.669   2.430   8.456 -0.3843 -0.4424 -0.3070
 5009SOL    HW126663   1.683   2.435   8.550  1.4314 -0.5370 -0.5705
 5009SOL    HW226664   1.701   2.341   8.439 -0.5274 -0.3290 -1.1676
 5010SOL     OW26665   0.714   0.750  11.010 -0.3846  0.5971  0.1688
 5010SOL    HW126666   0.643   0.813  11.002 -1.6155 -0.5491  1.9827
 5010SOL    HW226667   0.711   0.713  10.922  0.4128 -0.3157  0.5199
 5011SOL     OW26668   4.226   1.048   8.133  0.3542  0.2189  0.0663
 5011SOL    HW126669   4.280   1.113   8.178  1.4786 -0.0401 -0.9041
 5011SOL    HW226670   4.142   1.052   8.179  0.4338 -1.0252  0.3347
 5012SOL     OW26671   2.633   1.465  15.535  0.1747  0.1300  0.4222
 5012SOL    HW126672   2.720   1.434  15.558  0.3304  0.4293  0.2346
 5012SOL    HW226673   2.649   1.486  15.443 -0.9873 -0.8000  0.0077
 5013SOL     OW26674   1.920   2.404   2.504  0.4777  0.7305  0.3840
 5013SOL    HW126675   1.940   2.380   2.413  1.3085  1.9856  0.2425
 5013SOL    HW226676   1.889   2.490   2.475  0.0558  0.4422 -0.0201
 5014SOL     OW26677   0.426   2.806   1.180 -0.1136 -0.4154  0.9205
 5014SOL    HW126678   0.352   2.766   1.136 -0.3973  0.9974  0.1120
 5014SOL    HW226679   0.408   2.899   1.165  2.2913 -0.1766 -0.5005
 5015SOL     OW26680   4.387   1.455   7.226  0.0975 -0.1737 -0.1402
 5015SOL    HW126681   4.403   1.489   7.138 -0.3950 -0.1515 -0.2218
 5015SOL    HW226682   4.432   1.519   7.281 -1.6306  1.0120 -0.1023
 5016SOL     OW26683   1.977   2.285   1.948 -0.4425 -0.1832 -0.0024
 5016SOL    HW126684   1.890   2.320   1.967 -0.7793  0.2000 -2.2423
 5016SOL    HW226685   1.944   2.227   1.878  1.0237 -1.4232  0.3297
 5017SOL     OW26686   2.047   3.166   9.657 -0.2515 -0.6930 -0.2580
 5017SOL    HW126687   2.127   3.154   9.606 -0.1262  0.5802 -0.3594
 5017SOL    HW226688   2.068   3.179   9.749 -1.5256 -0.4759  0.0099
 5018SOL     OW26689   4.162   3.565  17.114 -0.2037 -0.3360  0.1037
 5018SOL    HW126690   4.206   3.487  17.148  4.1034  2.0883  0.1752
 5018SOL    HW226691   4.147   3.557  17.020  0.2491 -0.4313  0.0392
 5019SOL     OW26692   0.918   4.076  12.396  0.2983 -0.3310  0.3976
 5019SOL    HW126693   0.839   4.050  12.443 -0.8424  2.1928 -0.1554
 5019SOL    HW226694   0.992   4.047  12.449  0.1472 -0.7127  0.4058
 5020SOL     OW26695   4.558   2.150   6.778  0.1474  0.1153  0.8163
 5020SOL    HW126696   4.560   2.196   6.862 -0.9932 -0.9191  1.4064
 5020SOL    HW226697   4.467   2.122   6.769  0.3256 -0.7524  1.7618
 5021SOL     OW26698   3.578   1.415   4.220  0.6223  0.3920 -0.2369
 5021SOL    HW126699   3.482   1.412   4.227  0.6198  0.0145 -0.4635
 5021SOL    HW226700   3.587   1.476   4.147 -0.3985  1.6281  0.6530
 5022SOL     OW26701   0.546   1.948  15.416  0.2751  0.2778 -0.4119
 5022SOL    HW126702   0.493   1.985  15.488 -0.3077  0.3948 -0.9004
 5022SOL    HW226703   0.486   1.882  15.381 -0.9710 -0.1623  2.5134
 5023SOL     OW26704   4.653   1.459   6.009  0.0655 -0.1453 -0.1835
 5023SOL    HW126705   0.009   1.501   6.009  0.2843 -0.5862  0.2387
 5023SOL    HW226706   4.599   1.538   6.004 -1.5204 -1.3896 -2.5685
 5024SOL     OW26707   1.455   3.047  11.746 -0.0952  0.0650  0.3394
 5024SOL    HW126708   1.490   3.133  11.769  1.8407 -0.4525 -0.6761
 5024SOL    HW226709   1.374   3.045  11.797 -0.7082  1.4942 -0.5867
 5025SOL     OW26710   0.492   4.399  10.284 -0.3959  0.6262 -0.8471
 5025SOL    HW126711   0.421   4.440  10.234 -1.3103  0.0609 -0.0125
 5025SOL    HW226712   0.490   4.330  10.217 -2.7679 -0.0944 -0.0442
 5026SOL     OW26713   2.937   2.455   8.292  0.4858 -0.7363 -0.0608
 5026SOL    HW126714   2.987   2.486   8.368 -0.3029 -2.6049  1.2271
 5026SOL    HW226715   2.883   2.389   8.335 -2.0910  0.4831 -1.4192
 5027SOL     OW26716   1.294   2.177   3.175  0.1651  0.0701 -0.4170
 5027SOL    HW126717   1.308   2.089   3.139 -1.7228 -0.1004 -0.7759
 5027SOL    HW226718   1.347   2.177   3.254 -1.1537  2.3529  0.4615
 5028SOL     OW26719   0.643   1.404   8.597  0.3540  0.2077 -0.0591
 5028SOL    HW126720   0.652   1.325   8.543 -1.5174 -0.7010  0.9792
 5028SOL    HW226721   0.616   1.461   8.525  0.1918 -0.6955 -0.7136
 5029SOL     OW26722   3.146   2.816   0.014  0.3126  0.2903  0.6100
 5029SOL    HW126723   3.055   2.843   0.028 -0.7813 -3.0775 -0.0961
 5029SOL    HW226724   3.148   2.852  17.643  0.7943  2.6268  1.5712
 5030SOL     OW26725   0.995   1.242   8.020  0.3857 -0.6619  0.3660
 5030SOL    HW126726   0.976   1.279   7.934  0.5100  0.5909  0.8716
 5030SOL    HW226727   1.090   1.255   8.029  0.5170 -1.7698  0.6062
 5031SOL     OW26728   3.234   3.315   1.155  0.2144  0.1802  0.2701
 5031SOL    HW126729   3.261   3.407   1.152  3.2186 -0.7402 -1.0392
 5031SOL    HW226730   3.252   3.297   1.063  1.5612 -1.1789  0.8015
 5032SOL     OW26731   1.418   0.439   1.824 -0.3329  0.9892 -0.1225
 5032SOL    HW126732   1.399   0.346   1.836  0.7938  1.0639  2.2171
 5032SOL    HW226733   1.512   0.448   1.841 -0.7898  0.9188  2.4150
 5033SOL     OW26734   0.761   2.502   3.161  0.3267 -0.1392 -0.0036
 5033SOL    HW126735   0.735   2.410   3.157 -3.5458  0.9726 -0.8776
 5033SOL    HW226736   0.768   2.507   3.257  0.7699  0.3141 -0.0619
 5034SOL     OW26737   2.473   4.044   3.969 -0.6011  0.0094 -0.2134
 5034SOL    HW126738   2.378   4.029   3.963 -1.0133  2.6337 -0.1041
 5034SOL    HW226739   2.503   4.032   3.878  0.7533 -1.0866  0.3787
 5035SOL     OW26740   0.437   0.482   8.425 -0.2241  0.6301  0.6277
 5035SOL    HW126741   0.441   0.387   8.438 -2.2671  0.3528 -0.7793
 5035SOL    HW226742   0.433   0.485   8.330  0.6176 -0.8604  0.5402
 5036SOL     OW26743   1.498   2.573   5.111 -0.1542  0.4921 -0.3404
 5036SOL    HW126744   1.469   2.590   5.201  0.6850  0.5883 -0.0870
 5036SOL    HW226745   1.564   2.506   5.128 -2.0009 -1.6985 -1.8293
 5037SOL     OW26746   1.061   0.177   5.127 -0.5668  0.2024 -0.0793
 5037SOL    HW126747   1.009   0.220   5.060 -1.3562  1.1254  1.1323
 5037SOL    HW226748   1.004   0.189   5.203 -1.1265 -1.5373 -0.2162
 5038SOL     OW26749   3.108   1.956   9.247 -0.6072  0.5000 -0.0561
 5038SOL    HW126750   3.107   1.878   9.190 -2.3998 -0.7386  1.6646
 5038SOL    HW226751   3.026   1.941   9.295 -0.3402 -0.8395 -0.0250
 5039SOL     OW26752   4.247   0.513  13.932 -0.1953  0.1674  0.1139
 5039SOL    HW126753   4.269   0.603  13.908  1.2596 -0.3870 -0.6404
 5039SOL    HW226754   4.323   0.460  13.910  0.4031  0.0072  2.4946
 5040SOL     OW26755   1.802   2.572   1.272  0.1775  0.6466  0.1336
 5040SOL    HW126756   1.741   2.592   1.344  0.1783 -0.9107  0.5812
 5040SOL    HW226757   1.881   2.542   1.317  0.4953  0.9298 -0.2481
 5041SOL     OW26758   2.782   2.374  11.124  0.2278  0.2654  0.5926
 5041SOL    HW126759   2.837   2.303  11.091 -0.4413 -0.6052  1.3357
 5041SOL    HW226760   2.843   2.446  11.106  0.4776 -0.2062 -0.4992
 5042SOL     OW26761   0.834   1.234   5.564  0.1793 -0.3883 -0.1883
 5042SOL    HW126762   0.774   1.215   5.492  1.8601 -2.3249 -1.0775
 5042SOL    HW226763   0.855   1.145   5.593  0.8827 -0.4551 -0.8873
 5043SOL     OW26764   3.564   2.707   2.830 -0.0097  0.0918  0.5102
 5043SOL    HW126765   3.550   2.636   2.768  1.4750  1.1856 -1.0933
 5043SOL    HW226766   3.601   2.765   2.762 -1.4041  0.4784  0.0719
 5044SOL     OW26767   3.679   0.357   5.185  0.6465  0.0076 -0.3383
 5044SOL    HW126768   3.592   0.393   5.167  0.0977 -0.7953  0.7362
 5044SOL    HW226769   3.733   0.400   5.119  3.3914  1.7791  3.0771
 5045SOL     OW26770   4.411   2.165   9.011  0.0299  0.2546 -0.0660
 5045SOL    HW126771   4.411   2.073   8.983  4.7193  0.3878 -0.5233
 5045SOL    HW226772   4.318   2.182   8.999  0.4979  1.4771 -1.9232
 5046SOL     OW26773   2.080   1.720   4.933  0.6073 -0.5591 -0.2470
 5046SOL    HW126774   2.047   1.697   4.846 -1.1860  0.2653  0.2042
 5046SOL    HW226775   2.091   1.815   4.932  0.4150 -0.5474 -1.5718
 5047SOL     OW26776   1.316   1.973   8.409 -0.1974  0.0096 -0.0950
 5047SOL    HW126777   1.240   1.943   8.459  0.7275 -0.3733  1.0899
 5047SOL    HW226778   1.368   2.000   8.485  0.7638  0.4761 -0.9372
 5048SOL     OW26779   3.457   1.513  11.366 -0.1463 -0.5306 -0.2183
 5048SOL    HW126780   3.365   1.532  11.384 -0.0581 -0.7165  0.4073
 5048SOL    HW226781   3.498   1.553  11.442  3.9575 -2.5459 -1.3590
 5049SOL     OW26782   1.012   2.296   2.779  0.0216 -0.0666  0.0400
 5049SOL    HW126783   1.043   2.384   2.758  0.0897  0.3724  1.9955
 5049SOL    HW226784   0.925   2.292   2.741 -0.4600  1.0303  1.0393
 5050SOL     OW26785   0.019   0.546  13.148 -0.4000  0.3508  0.0041
 5050SOL    HW126786   0.075   0.575  13.076 -0.9992 -1.8337 -1.3273
 5050SOL    HW226787   0.048   0.455  13.163 -0.1756  0.3339 -0.5364
 5051SOL     OW26788   3.226   3.118   2.041 -0.0883 -0.5059 -0.1144
 5051SOL    HW126789   3.277   3.166   2.106 -1.4639  0.8181 -0.0297
 5051SOL    HW226790   3.275   3.110   1.959 -0.5963  1.0923 -0.5581
 5052SOL     OW26791   2.777   0.689   5.079 -0.4995  0.8486 -0.5016
 5052SOL    HW126792   2.802   0.772   5.037  0.8582  0.8920  0.4231
 5052SOL    HW226793   2.688   0.706   5.112 -0.8529 -1.1492 -0.4674
 5053SOL     OW26794   1.917   3.479   6.530  0.3953 -0.0330 -0.1004
 5053SOL    HW126795   1.981   3.430   6.477 -0.0453 -0.8619  0.1308
 5053SOL    HW226796   1.849   3.415   6.508  0.3130  0.8524 -2.4722
 5054SOL     OW26797   2.563   3.348  10.654 -0.0500 -0.2946 -0.1089
 5054SOL    HW126798   2.541   3.394  10.735  1.4704 -1.1951  0.8216
 5054SOL    HW226799   2.576   3.256  10.678 -0.7173 -0.4477 -0.3436
 5055SOL     OW26800   4.271   0.967  15.627 -0.1759  0.0033  0.0552
 5055SOL    HW126801   4.357   1.007  15.617  0.8077 -2.5070 -1.5307
 5055SOL    HW226802   4.262   0.924  15.542 -1.8496  0.7808 -0.1545
 5056SOL     OW26803   0.762   3.230   5.657  0.1417  0.0577  0.5168
 5056SOL    HW126804   0.684   3.204   5.609 -0.5519  3.0292  0.0273
 5056SOL    HW226805   0.734   3.223   5.748  0.4819  0.7924  0.6758
 5057SOL     OW26806   2.247   4.726  16.159 -0.1334 -0.1280  0.7211
 5057SOL    HW126807   2.327   0.004  16.107 -1.7415  1.3038 -1.5941
 5057SOL    HW226808   2.267   4.643  16.202  1.1818 -1.2508 -2.0178
 5058SOL     OW26809   4.577   1.687   3.810  0.3672  0.2144 -0.1171
 5058SOL    HW126810   4.598   1.595   3.828  3.5663  1.0653  0.4613
 5058SOL    HW226811   4.528   1.718   3.885  0.8087  0.7826 -0.0614
 5059SOL     OW26812   2.795   4.001   3.340  0.2353 -0.2485  0.2405
 5059SOL    HW126813   2.792   4.028   3.248 -2.4129  1.1684  0.7514
 5059SOL    HW226814   2.811   3.907   3.333 -1.4796 -0.5542  0.4868
 5060SOL     OW26815   3.481   0.033  12.177 -0.4495 -0.1815  0.0604
 5060SOL    HW126816   3.470   0.078  12.261  4.5586  2.3304 -0.5613
 5060SOL    HW226817   3.392   0.010  12.150  0.2894 -2.3480 -0.5169
 5061SOL     OW26818   4.258   0.418   3.869  0.1491  0.3658 -0.1800
 5061SOL    HW126819   4.249   0.493   3.810  0.4277  2.5151  2.5064
 5061SOL    HW226820   4.175   0.431   3.917 -0.5086  1.7484 -1.7048
 5062SOL     OW26821   2.728   3.245   1.822  0.0623  0.7460  0.4525
 5062SOL    HW126822   2.741   3.251   1.917  4.3334  0.0132 -0.0704
 5062SOL    HW226823   2.655   3.305   1.808  1.4231  1.9805 -1.4207
 5063SOL     OW26824   1.924   1.706  15.611  0.2983 -0.0752 -0.1231
 5063SOL    HW126825   2.018   1.718  15.620 -0.0566  1.4041  1.5460
 5063SOL    HW226826   1.898   1.777  15.552 -0.1772  0.1124  0.3125
 5064SOL     OW26827   0.455   3.050   3.710 -0.5960  1.0187  0.1745
 5064SOL    HW126828   0.479   2.957   3.704 -0.4790  0.9516  1.7118
 5064SOL    HW226829   0.538   3.092   3.732 -1.5156  1.8411  2.0907
 5065SOL     OW26830   3.053   3.178   5.305 -0.1058  0.1958 -0.0211
 5065SOL    HW126831   3.061   3.274   5.307  0.1784  0.1687  0.2688
 5065SOL    HW226832   3.139   3.135   5.311  0.9203  2.3568  1.0314
 5066SOL     OW26833   0.141   1.160   9.307 -0.0713  0.0148  0.4018
 5066SOL    HW126834   0.134   1.242   9.259 -1.4144  1.3830  2.9580
 5066SOL    HW226835   0.230   1.160   9.343 -0.5214  1.0088  1.5112
 5067SOL     OW26836   3.872   0.790  17.210  0.0887  0.4680 -0.8648
 5067SOL    HW126837   3.895   0.711  17.162 -1.5163 -0.2559 -0.4219
 5067SOL    HW226838   3.957   0.824  17.239 -1.5310  2.5601  1.5073
 5068SOL     OW26839   1.272   0.115   7.732  0.1477 -0.7543  0.0630
 5068SOL    HW126840   1.206   0.079   7.792  0.6759 -1.0138  0.4838
 5068SOL    HW226841   1.257   0.208   7.749  2.3823 -0.7212  1.8641
 5069SOL     OW26842   1.473   0.638   9.446 -0.1331 -0.0104 -0.1260
 5069SOL    HW126843   1.509   0.725   9.427  1.2355 -0.7102 -0.6700
 5069SOL    HW226844   1.427   0.613   9.365  1.6263 -1.6662 -0.6011
 5070SOL     OW26845   2.636   0.857   1.480  0.5185 -0.1431 -0.1697
 5070SOL    HW126846   2.609   0.793   1.546 -1.3150  2.2826  1.4183
 5070SOL    HW226847   2.711   0.901   1.520  1.2873 -0.9634 -0.6942
 5071SOL     OW26848   1.125   2.506   4.841  0.3969 -0.2387  0.7681
 5071SOL    HW126849   1.218   2.521   4.856  0.4770  0.8471 -0.7087
 5071SOL    HW226850   1.078   2.480   4.920  0.7903  0.5397  1.2579
 5072SOL     OW26851   0.494   2.407   7.507  0.2458 -0.4442  0.0764
 5072SOL    HW126852   0.588   2.390   7.518  0.2668  0.0639  0.6427
 5072SOL    HW226853   0.485   2.487   7.558  0.0242 -1.3169  1.4112
 5073SOL     OW26854   1.394   4.431   4.569 -0.7093  0.2462  0.5203
 5073SOL    HW126855   1.342   4.509   4.590 -2.4735 -0.5253 -0.8812
 5073SOL    HW226856   1.399   4.432   4.473 -3.7004  1.7224  0.3670
 5074SOL     OW26857   1.115   4.676   5.643  0.6184 -0.0165  0.0593
 5074SOL    HW126858   1.049   4.729   5.689 -0.9827 -2.1332  0.1904
 5074SOL    HW226859   1.197   4.704   5.683 -0.6552  1.4779  1.6865
 5075SOL     OW26860   3.972   2.399   6.942  0.2012  0.4950  0.2043
 5075SOL    HW126861   3.923   2.418   7.023  2.3022  0.1612  1.5552
 5075SOL    HW226862   3.904   2.379   6.877 -2.1763  0.6609  2.6185
 5076SOL     OW26863   1.218   4.691   6.009  0.3874  0.3493  0.7612
 5076SOL    HW126864   1.257   4.605   6.020  0.5698  0.5051  1.3201
 5076SOL    HW226865   1.172   4.711   6.091  0.4074  1.1802  0.5716
 5077SOL     OW26866   3.017   1.758   4.624 -0.3996 -0.3694  0.0958
 5077SOL    HW126867   3.051   1.840   4.661  0.9410 -1.3857  1.0909
 5077SOL    HW226868   2.931   1.782   4.589 -0.3007  1.1386  0.8767
 5078SOL     OW26869   2.959   1.167   2.041  0.0987 -0.8990  0.1335
 5078SOL    HW126870   3.048   1.167   2.005  0.8541 -1.5802  2.0284
 5078SOL    HW226871   2.921   1.141   1.957 -1.9471  0.4623  0.6573
 5079SOL     OW26872   4.391   1.314   1.994 -0.0838  0.2501  0.3046
 5079SOL    HW126873   4.298   1.323   1.976 -0.0938 -1.4964 -0.5574
 5079SOL    HW226874   4.435   1.370   1.930  0.2265 -0.7275 -0.3335
 5080SOL     OW26875   4.671   3.367  14.190 -0.0433  0.0605 -0.2246
 5080SOL    HW126876   0.021   3.369  14.136 -1.5370 -2.4767 -2.5596
 5080SOL    HW226877   4.614   3.405  14.122 -1.7092 -1.2280  0.4488
 5081SOL     OW26878   0.967   3.576   9.467 -0.2643  0.7875  0.2432
 5081SOL    HW126879   1.036   3.510   9.460  0.4607  1.4298  1.3686
 5081SOL    HW226880   0.928   3.554   9.551  0.5000 -1.5196 -0.0184
 5082SOL     OW26881   1.291   3.364   5.531  0.3611 -0.3233  0.0490
 5082SOL    HW126882   1.214   3.391   5.581  0.0944 -0.9761 -0.0071
 5082SOL    HW226883   1.292   3.436   5.468 -2.8778  0.1666  0.5497
 5083SOL     OW26884   2.670   0.444   8.985 -0.4458 -0.4805 -0.1946
 5083SOL    HW126885   2.587   0.478   9.019  1.2491  1.2678  2.1553
 5083SOL    HW226886   2.638   0.441   8.895 -0.3033  0.8719 -0.2907
 5084SOL     OW26887   0.644   2.149  11.632  0.8213 -0.2642  0.0266
 5084SOL    HW126888   0.698   2.169  11.708 -2.2009  1.2331  1.7851
 5084SOL    HW226889   0.601   2.232  11.612  1.0852 -0.3479 -0.8873
 5085SOL     OW26890   3.363   2.738   1.036  0.1424 -0.1152 -0.2974
 5085SOL    HW126891   3.368   2.745   0.941  0.6707  1.2648 -0.1691
 5085SOL    HW226892   3.286   2.686   1.056 -0.2746  0.2939 -0.8382
 5086SOL     OW26893   1.430   2.700   4.072  0.4423  0.6984  0.3661
 5086SOL    HW126894   1.342   2.665   4.085  0.5265  0.8169  1.2436
 5086SOL    HW226895   1.426   2.785   4.115 -0.7704  0.2631  1.1109
 5087SOL     OW26896   2.613   4.541   2.455 -0.0698  0.1425  0.3296
 5087SOL    HW126897   2.640   4.463   2.405 -0.5823  0.9617 -1.2297
 5087SOL    HW226898   2.543   4.496   2.502 -0.1729 -1.2941 -1.1861
 5088SOL     OW26899   2.502   0.892   7.853  0.2324  0.1127  0.4875
 5088SOL    HW126900   2.450   0.818   7.823 -0.9780  1.7828 -1.5330
 5088SOL    HW226901   2.556   0.919   7.780  0.4067 -0.1988  0.5031
 5089SOL     OW26902   3.109   3.322   2.999 -0.5187  0.1580 -0.1863
 5089SOL    HW126903   3.175   3.354   2.937 -0.4724  2.0824  0.8702
 5089SOL    HW226904   3.101   3.228   2.984 -1.7170  0.1700  0.3901
 5090SOL     OW26905   3.832   2.589  17.171 -0.1988 -0.3732 -0.2944
 5090SOL    HW126906   3.858   2.635  17.251  0.1697  1.1885 -1.3235
 5090SOL    HW226907   3.737   2.597  17.174 -0.1367  0.3234 -0.1534
 5091SOL     OW26908   1.478   2.861   8.161 -0.1519 -0.2270  0.4953
 5091SOL    HW126909   1.467   2.792   8.227 -0.3887 -0.2985  0.3810
 5091SOL    HW226910   1.456   2.813   8.080  1.6479  0.9335 -0.6876
 5092SOL     OW26911   4.144   1.787   8.609  0.8957 -0.0158 -0.1686
 5092SOL    HW126912   4.180   1.789   8.521  0.0883 -0.9437 -0.5148
 5092SOL    HW226913   4.058   1.749   8.591 -0.5030  2.2267  1.7948
 5093SOL     OW26914   4.510   1.304   6.514 -0.1501 -0.0651 -0.0451
 5093SOL    HW126915   4.548   1.260   6.437 -1.2060 -0.6131 -0.2459
 5093SOL    HW226916   4.524   1.395   6.485  2.5568 -1.0708 -1.8753
 5094SOL     OW26917   3.741   1.201   1.762  0.0314 -0.4570  0.0780
 5094SOL    HW126918   3.697   1.279   1.794 -2.8758 -1.9446 -0.2997
 5094SOL    HW226919   3.799   1.241   1.697  0.3129  1.6943  1.6460
 5095SOL     OW26920   3.965   1.169   7.038 -0.0002  0.4771  0.0532
 5095SOL    HW126921   4.034   1.235   7.028  0.4368  0.1591  0.9571
 5095SOL    HW226922   4.021   1.101   7.076 -0.3900  0.5837  0.8187
 5096SOL     OW26923   3.131   3.530   5.533 -0.1775 -0.0971 -0.3787
 5096SOL    HW126924   3.223   3.510   5.516  0.2074 -0.1279  1.7078
 5096SOL    HW226925   3.116   3.510   5.626 -1.4432 -0.7837 -0.7405
 5097SOL     OW26926   1.645   2.593  16.816 -0.5757  0.3274 -0.6372
 5097SOL    HW126927   1.667   2.654  16.886 -3.1782 -0.3288  0.7598
 5097SOL    HW226928   1.613   2.520  16.869  0.1986 -1.8752 -3.2085
 5098SOL     OW26929   2.052   3.345  10.332 -0.9726 -0.3594  0.5369
 5098SOL    HW126930   1.965   3.382  10.345 -0.0326  2.1262 -0.2870
 5098SOL    HW226931   2.077   3.342  10.424 -1.6499 -2.2014  0.6641
 5099SOL     OW26932   1.514   1.297   2.558 -0.5607  0.0567  0.0025
 5099SOL    HW126933   1.538   1.389   2.548  1.2801 -0.4319 -0.0981
 5099SOL    HW226934   1.594   1.249   2.536 -2.0132 -1.3816 -1.9715
 5100SOL     OW26935   0.624   1.188   4.949 -0.5481  0.0940  0.0314
 5100SOL    HW126936   0.606   1.281   4.963 -0.3055 -0.0873  1.5336
 5100SOL    HW226937   0.719   1.182   4.953 -0.4391  0.8398 -1.3066
 5101SOL     OW26938   2.972   3.794   3.249 -0.2142  0.0215 -0.2097
 5101SOL    HW126939   3.066   3.782   3.262 -0.0469  0.7170 -0.7623
 5101SOL    HW226940   2.972   3.858   3.178  1.9183 -0.6829 -0.8524
 5102SOL     OW26941   4.550   1.618   0.649  0.1190  0.2767  0.4282
 5102SOL    HW126942   4.531   1.583   0.562 -0.4471  1.7291 -0.0204
 5102SOL    HW226943   4.549   1.535   0.698 -0.9568  0.1675  0.2160
 5103SOL     OW26944   3.734   0.522  12.008  0.2065 -0.2020  0.0367
 5103SOL    HW126945   3.784   0.541  12.087  0.1156 -0.8566  0.2460
 5103SOL    HW226946   3.742   0.609  11.968  0.0743  0.5470  1.6168
 5104SOL     OW26947   0.658   4.387   7.146  0.3051  0.0559 -0.3834
 5104SOL    HW126948   0.746   4.350   7.155  0.1956 -0.1780 -0.2925
 5104SOL    HW226949   0.614   4.322   7.200  0.8422  0.4601  0.5406
 5105SOL     OW26950   4.209   4.585  16.057  0.3516  0.6534  0.5656
 5105SOL    HW126951   4.134   4.634  16.091  0.4502  0.4964  1.0131
 5105SOL    HW226952   4.212   4.626  15.971  0.3820 -1.1588 -0.3063
 5106SOL     OW26953   3.501   3.162   5.618  0.1811 -0.8225 -0.2380
 5106SOL    HW126954   3.480   3.070   5.635 -3.0645 -0.5147 -2.3840
 5106SOL    HW226955   3.580   3.162   5.563  1.1002  1.7864  1.0863
 5107SOL     OW26956   3.278   1.946  16.000 -0.1818  0.5518 -0.0594
 5107SOL    HW126957   3.272   2.039  15.979  1.1894  0.7759  0.5489
 5107SOL    HW226958   3.320   1.904  15.925  0.9636  0.2748  0.7378
 5108SOL     OW26959   3.684   4.658   4.490 -0.5800 -0.2282 -0.2495
 5108SOL    HW126960   3.664   0.011   4.536  0.6447  0.5865 -1.1744
 5108SOL    HW226961   3.627   4.604   4.545  1.1299  0.6353  2.4273
 5109SOL     OW26962   3.459   2.953   7.973 -0.0922 -0.8402 -0.0580
 5109SOL    HW126963   3.385   3.003   7.939  0.4838  0.2463  0.2853
 5109SOL    HW226964   3.428   2.935   8.062  0.3843  1.5689  0.5957
 5110SOL     OW26965   3.701   0.245   7.311 -0.8243 -0.4519 -0.7314
 5110SOL    HW126966   3.612   0.239   7.276 -1.1560  0.8113 -0.1158
 5110SOL    HW226967   3.692   0.329   7.357  0.7422 -0.5391 -0.2667
 5111SOL     OW26968   2.752   0.622   4.250 -0.3503  0.2182  0.3023
 5111SOL    HW126969   2.821   0.561   4.229 -1.2274 -1.5392  2.5361
 5111SOL    HW226970   2.754   0.679   4.173  2.5631  1.5170  1.3536
 5112SOL     OW26971   0.968   1.980   5.258  0.0423 -0.0010 -0.0087
 5112SOL    HW126972   1.027   2.029   5.201  1.7148 -1.5224  0.4042
 5112SOL    HW226973   0.913   1.940   5.190 -0.2056  1.0224 -0.4112
 5113SOL     OW26974   2.680   4.389   3.469 -0.0980  0.2072 -0.2122
 5113SOL    HW126975   2.604   4.332   3.467 -0.1944  0.3409 -0.4045
 5113SOL    HW226976   2.749   4.324   3.457 -1.5637 -1.1204 -1.4063
 5114SOL     OW26977   4.482   3.007   2.160  0.1108 -0.3495  0.2298
 5114SOL    HW126978   4.531   3.025   2.079 -1.3472 -1.1648 -0.8343
 5114SOL    HW226979   4.454   3.098   2.172  1.5171  0.0221  0.6752
 5115SOL     OW26980   4.313   3.259  10.269  0.2409 -0.0824 -0.3957
 5115SOL    HW126981   4.321   3.253  10.173 -0.4601  0.8585 -0.5095
 5115SOL    HW226982   4.343   3.346  10.296  1.0928 -1.1930  2.1774
 5116SOL     OW26983   0.155   1.915   0.234  0.2583  0.0390 -0.0668
 5116SOL    HW126984   0.089   1.863   0.189 -0.6776 -1.5768  3.2161
 5116SOL    HW226985   0.106   1.996   0.250  0.1241 -1.0168  4.6124
 5117SOL     OW26986   4.304   3.906   3.159  0.2474 -0.3237 -0.5275
 5117SOL    HW126987   4.268   3.834   3.107  0.9356  0.7914 -2.5654
 5117SOL    HW226988   4.331   3.870   3.243 -1.6884 -0.8148 -0.1062
 5118SOL     OW26989   3.472   1.411  11.130  0.0239 -0.5877  0.3243
 5118SOL    HW126990   3.477   1.466  11.208 -2.9730  1.3601 -0.8430
 5118SOL    HW226991   3.560   1.419  11.093  1.0832 -1.1786  2.7455
 5119SOL     OW26992   1.612   4.696   7.807  0.5960 -0.3690 -0.0448
 5119SOL    HW126993   1.595   4.726   7.897 -0.4906 -0.8200 -0.0977
 5119SOL    HW226994   1.609   0.050   7.760  3.9177 -0.4130 -0.3150
 5120SOL     OW26995   3.850   3.709   7.461 -0.1116  0.7712 -0.4581
 5120SOL    HW126996   3.914   3.779   7.470 -0.8827  1.5926 -1.2616
 5120SOL    HW226997   3.904   3.631   7.446 -3.2868 -1.1559 -1.9678
 5121SOL     OW26998   0.395   2.109   3.616 -0.3883 -0.5814 -0.5655
 5121SOL    HW126999   0.464   2.110   3.550 -1.0444 -1.9605 -1.2625
 5121SOL    HW227000   0.369   2.200   3.604  0.0740 -0.5844 -1.6039
 5122SOL     OW27001   3.931   4.633  16.145 -0.5614 -0.3637 -0.0720
 5122SOL    HW127002   3.849   4.629  16.195  0.2921  1.1902  1.4779
 5122SOL    HW227003   3.920   4.713  16.093  0.8665 -0.2873 -0.2566
 5123SOL     OW27004   2.552   0.518   1.707 -0.4716 -0.1752  0.1626
 5123SOL    HW127005   2.530   0.605   1.740 -0.1315  0.6067 -1.7125
 5123SOL    HW227006   2.494   0.515   1.632  0.5777  0.1126 -0.6632
 5124SOL     OW27007   0.905   4.016   0.881 -0.8335  0.0604 -0.1785
 5124SOL    HW127008   0.904   3.976   0.968 -2.5300  1.0873  0.2775
 5124SOL    HW227009   0.836   4.080   0.899  0.6445  1.9883 -1.4486
 5125SOL     OW27010   2.682   1.947  13.036 -0.0459  0.5661 -0.1074
 5125SOL    HW127011   2.654   1.961  13.127 -0.5171  1.1771 -0.3460
 5125SOL    HW227012   2.713   2.035  13.015  1.4224 -0.1597 -0.9389
 5126SOL     OW27013   3.945   0.616   2.215  0.0184 -0.5806  0.0908
 5126SOL    HW127014   3.949   0.561   2.137 -0.3339  2.3673 -2.0268
 5126SOL    HW227015   3.856   0.647   2.200  0.0138  0.8977  3.1518
 5127SOL     OW27016   0.505   4.403  15.940 -0.5249  0.1859 -0.0851
 5127SOL    HW127017   0.428   4.436  15.894  0.5847  1.2873 -1.1351
 5127SOL    HW227018   0.562   4.471  15.904 -0.5013  0.0915 -0.2260
 5128SOL     OW27019   1.109   2.943  15.170  0.6537  0.4161 -0.1638
 5128SOL    HW127020   1.152   2.858  15.160 -2.7697 -1.0380 -2.5067
 5128SOL    HW227021   1.184   2.998  15.193  2.5683 -1.8341 -1.0379
 5129SOL     OW27022   4.094   0.257  14.612  0.2710  0.4082 -0.1470
 5129SOL    HW127023   4.016   0.309  14.594  0.4343  0.9730  0.8071
 5129SOL    HW227024   4.081   0.212  14.695  4.1040  1.2287  0.8789
 5130SOL     OW27025   3.625   1.533   5.834  0.0264  0.8030  0.3759
 5130SOL    HW127026   3.542   1.559   5.794  0.8703  0.5921 -1.5245
 5130SOL    HW227027   3.639   1.449   5.790  1.4239  1.9884 -1.5005
 5131SOL     OW27028   1.770   4.681   3.426  0.0932 -0.1840 -0.0267
 5131SOL    HW127029   1.697   4.620   3.435 -1.0372  1.0609 -0.6516
 5131SOL    HW227030   1.753   0.023   3.489 -1.0018 -1.3034  0.9336
 5132SOL     OW27031   1.882   0.210   7.824 -0.1244 -1.0271 -0.1505
 5132SOL    HW127032   1.885   0.129   7.875 -0.7551  0.0507  1.5716
 5132SOL    HW227033   1.826   0.251   7.890 -0.5464 -1.8561  0.0081
 5133SOL     OW27034   3.251   0.991  14.761  0.1748  0.1106  0.5490
 5133SOL    HW127035   3.284   0.931  14.828  2.0244 -0.2693 -0.7156
 5133SOL    HW227036   3.334   1.021  14.726 -0.3209  0.5734 -0.2268
 5134SOL     OW27037   4.228   2.624   1.443  0.1457 -0.4559 -0.1670
 5134SOL    HW127038   4.134   2.612   1.428 -0.1559 -0.2286  1.5349
 5134SOL    HW227039   4.259   2.583   1.363 -2.0083 -2.7392  0.1753
 5135SOL     OW27040   0.496   0.071   6.085 -0.2527 -0.6477  0.8436
 5135SOL    HW127041   0.541   4.716   6.079 -2.3767 -1.8006  0.9399
 5135SOL    HW227042   0.560   0.129   6.126 -0.7899  0.2676  0.4124
 5136SOL     OW27043   2.560   2.900   2.627  0.1495 -0.4807  0.5551
 5136SOL    HW127044   2.576   2.934   2.539 -0.8630  0.6744  0.8209
 5136SOL    HW227045   2.649   2.892   2.661 -0.4815  1.7305  2.7096
 5137SOL     OW27046   3.371   0.847  13.600  0.1122 -0.2532  0.2548
 5137SOL    HW127047   3.404   0.759  13.618 -1.6890 -0.6272  1.8224
 5137SOL    HW227048   3.452   0.898  13.595  1.1984 -1.8758  1.3529
 5138SOL     OW27049   2.455   3.192  10.958  0.4980  0.0277 -0.0701
 5138SOL    HW127050   2.462   3.288  10.966  1.4671 -0.0960  0.6042
 5138SOL    HW227051   2.522   3.179  10.890  0.9624  0.5740  0.2730
 5139SOL     OW27052   2.823   3.934  11.639  0.6808  0.0738  0.4341
 5139SOL    HW127053   2.835   3.840  11.649 -1.1488 -0.3994 -1.7147
 5139SOL    HW227054   2.844   3.960  11.729  0.4401 -2.7690  1.2979
 5140SOL     OW27055   1.330   0.288   0.458  0.8653 -0.3984 -0.7512
 5140SOL    HW127056   1.300   0.339   0.383  0.7805  1.9884  0.9173
 5140SOL    HW227057   1.283   0.338   0.524 -0.8451 -1.9964 -0.7700
 5141SOL     OW27058   2.588   4.244  16.457 -0.0749 -0.1540 -0.1820
 5141SOL    HW127059   2.492   4.250  16.454 -0.0541  0.3047 -0.0102
 5141SOL    HW227060   2.608   4.310  16.390 -0.9419  1.0498  0.7406
 5142SOL     OW27061   3.410   1.803   8.200 -0.0439  0.4829 -0.1799
 5142SOL    HW127062   3.457   1.792   8.283 -1.4846  0.3185  0.6193
 5142SOL    HW227063   3.484   1.824   8.143  2.3643 -1.2821  2.2777
 5143SOL     OW27064   2.245   2.842   4.990 -0.2288 -0.1595 -0.4903
 5143SOL    HW127065   2.271   2.755   4.959  1.2459 -0.0087  0.2820
 5143SOL    HW227066   2.219   2.890   4.912  1.8166  0.3070 -0.9075
 5144SOL     OW27067   3.026   0.626   2.099 -0.0414  0.0378  0.1453
 5144SOL    HW127068   3.059   0.698   2.152  1.2425 -1.3997  1.3378
 5144SOL    HW227069   3.106   0.606   2.051 -0.1449  0.1907 -0.0889
 5145SOL     OW27070   3.846   2.764   9.550 -0.2139  0.1628 -0.5707
 5145SOL    HW127071   3.821   2.688   9.498 -0.1247 -0.9017  0.9627
 5145SOL    HW227072   3.941   2.752   9.562 -0.5288 -2.7932 -1.0671
 5146SOL     OW27073   0.582   0.286  12.953  0.3808 -0.2587 -0.0221
 5146SOL    HW127074   0.671   0.256  12.935  1.3001  2.5515 -0.1523
 5146SOL    HW227075   0.537   0.283  12.868  0.8735  1.5172 -0.3558
 5147SOL     OW27076   4.700   2.941   8.916 -0.1026  0.6476 -0.0145
 5147SOL    HW127077   4.673   2.982   8.997 -0.1015  0.2375  0.1941
 5147SOL    HW227078   4.706   3.013   8.853  1.6404 -2.9895 -4.0231
 5148SOL     OW27079   4.308   3.160   5.932  0.2050  0.2051  0.2627
 5148SOL    HW127080   4.327   3.233   5.872  3.6895 -0.8092  0.1482
 5148SOL    HW227081   4.359   3.087   5.896  0.4289  0.3152  0.3578
 5149SOL     OW27082   3.330   3.739   4.951  0.2363  0.4761 -0.2486
 5149SOL    HW127083   3.395   3.675   4.923  0.2991  0.7989 -0.8458
 5149SOL    HW227084   3.350   3.809   4.889  0.7668  2.7636  2.5083
 5150SOL     OW27085   3.678   2.289   3.230 -0.2147 -0.0370 -0.2363
 5150SOL    HW127086   3.637   2.364   3.273 -2.2022 -0.6674 -1.0377
 5150SOL    HW227087   3.635   2.290   3.144 -0.2141  0.7476 -0.2340
 5151SOL     OW27088   1.428   3.621   5.874 -0.0906 -0.0389  0.5238
 5151SOL    HW127089   1.398   3.555   5.937 -1.2223  1.7509  1.8556
 5151SOL    HW227090   1.472   3.676   5.937 -1.7904  0.3010  1.4155
 5152SOL     OW27091   0.463   0.643  11.919  0.7164 -0.0276  0.1502
 5152SOL    HW127092   0.557   0.655  11.927  0.5608  1.3983 -0.1880
 5152SOL    HW227093   0.447   0.648  11.824 -2.1211  1.1654  0.6994
 5153SOL     OW27094   2.454   0.586   1.194 -0.4051 -0.3822 -0.1936
 5153SOL    HW127095   2.476   0.574   1.101 -0.1074 -2.8008  0.1808
 5153SOL    HW227096   2.388   0.654   1.183 -0.3248  0.1046  2.3598
 5154SOL     OW27097   0.706   1.032  13.883 -0.3945 -0.0491 -0.0753
 5154SOL    HW127098   0.677   0.993  13.966 -1.2970 -2.1336 -1.3707
 5154SOL    HW227099   0.790   1.067  13.914  0.0839 -1.1778 -0.0803
 5155SOL     OW27100   3.306   4.452   4.006 -0.0966  0.1826  0.2238
 5155SOL    HW127101   3.397   4.424   4.021 -0.5827 -1.9605 -0.9006
 5155SOL    HW227102   3.267   4.433   4.092 -0.3825  0.5036  0.1663
 5156SOL     OW27103   1.336   1.550   4.639  0.5796 -0.2203  0.1975
 5156SOL    HW127104   1.303   1.634   4.673  0.5833 -0.8947  1.8439
 5156SOL    HW227105   1.257   1.503   4.612  1.7495 -1.0749 -1.6854
 5157SOL     OW27106   1.214   1.928   6.497  0.2096 -0.2581 -0.1176
 5157SOL    HW127107   1.281   1.892   6.555  1.0895  2.4154  0.5354
 5157SOL    HW227108   1.209   1.854   6.437 -2.2201  1.8339 -2.4595
 5158SOL     OW27109   3.584   2.646  10.931 -0.6577  0.1245 -0.4147
 5158SOL    HW127110   3.610   2.556  10.949  1.5746  0.6883 -0.8241
 5158SOL    HW227111   3.619   2.666  10.844 -1.0700 -0.5330 -0.7362
 5159SOL     OW27112   3.162   3.367   8.444 -0.0994  0.0633  0.4676
 5159SOL    HW127113   3.252   3.354   8.476  0.3488  2.6294  0.2573
 5159SOL    HW227114   3.124   3.423   8.512 -0.5583 -1.4208  1.4351
 5160SOL     OW27115   0.698   3.796   9.103  0.7764  0.3767 -0.5892
 5160SOL    HW127116   0.757   3.851   9.051  1.8601 -0.1027  0.1242
 5160SOL    HW227117   0.758   3.762   9.169 -0.7621  0.5143  0.8473
 5161SOL     OW27118   4.411   0.834   2.551  0.5622 -0.2135 -0.5368
 5161SOL    HW127119   4.489   0.784   2.573  1.0517  0.2564 -1.1833
 5161SOL    HW227120   4.459   0.908   2.514  0.4978  0.0125 -0.1677
 5162SOL     OW27121   1.269   4.281   5.317  0.0835 -0.3716  0.1532
 5162SOL    HW127122   1.200   4.300   5.380  1.0382 -5.1193  2.6021
 5162SOL    HW227123   1.241   4.333   5.241  3.0659 -0.4283 -1.0111
 5163SOL     OW27124   3.245   2.282   7.422  0.3475  1.0828 -0.1555
 5163SOL    HW127125   3.291   2.349   7.372  0.0462  2.0486  0.8415
 5163SOL    HW227126   3.155   2.301   7.395  0.2185  1.1396  0.3012
 5164SOL     OW27127   0.442   2.058   8.844  0.2935 -0.1381 -0.6167
 5164SOL    HW127128   0.467   2.145   8.813  0.8501 -0.3199 -0.6826
 5164SOL    HW227129   0.386   2.031   8.771 -0.7909 -2.9367  1.2809
 5165SOL     OW27130   2.477   3.907   0.658 -0.2455 -0.3713  0.2826
 5165SOL    HW127131   2.448   3.984   0.707  0.6559  0.0403  0.1644
 5165SOL    HW227132   2.401   3.871   0.612  0.2938  1.3160 -1.8838
 5166SOL     OW27133   0.361   2.688   4.759 -0.5291  0.0176 -0.5513
 5166SOL    HW127134   0.446   2.703   4.801  0.2770 -1.0589 -1.7717
 5166SOL    HW227135   0.358   2.596   4.785  0.1084  0.2854  0.4541
 5167SOL     OW27136   0.264   2.501   4.348 -0.6484 -0.0850 -0.0907
 5167SOL    HW127137   0.246   2.548   4.266 -1.8598  1.4431  1.0483
 5167SOL    HW227138   0.242   2.413   4.319  3.2028 -1.0942 -0.0074
 5168SOL     OW27139   3.609   1.741  16.685 -0.1051 -0.9003 -0.2862
 5168SOL    HW127140   3.585   1.833  16.697  0.1194 -0.9576  0.5993
 5168SOL    HW227141   3.537   1.697  16.729 -1.3401  0.4311 -0.9804
 5169SOL     OW27142   1.400   4.106   5.694 -0.2942  0.4350  0.8970
 5169SOL    HW127143   1.395   4.196   5.661  1.4993 -0.1539 -0.9946
 5169SOL    HW227144   1.356   4.060   5.623  2.6092 -0.3476 -0.4078
 5170SOL     OW27145   3.055   1.147   7.298  0.1546  0.2643  0.0859
 5170SOL    HW127146   3.063   1.072   7.358 -1.5985  2.0119  2.4868
 5170SOL    HW227147   3.074   1.105   7.214  0.2364  2.0357 -0.7691
 5171SOL     OW27148   3.150   0.322   1.875 -0.6739  0.3098 -0.0570
 5171SOL    HW127149   3.106   0.258   1.931  1.7657 -1.9984 -0.7867
 5171SOL    HW227150   3.090   0.325   1.800  0.5560  0.0362 -1.0494
 5172SOL     OW27151   4.331   1.152  15.864 -0.0692  0.6878  0.2205
 5172SOL    HW127152   4.368   1.095  15.797 -0.4721 -0.3440  0.8609
 5172SOL    HW227153   4.403   1.214  15.876 -0.0201  0.8559 -1.0170
 5173SOL     OW27154   0.970   1.356  16.205  0.0248  0.1309  0.2203
 5173SOL    HW127155   0.988   1.411  16.282 -0.8695  0.3327  0.2862
 5173SOL    HW227156   1.031   1.393  16.141 -0.0767 -0.1789 -0.0529
 5174SOL     OW27157   3.302   1.867   6.068  0.3314 -0.4305 -0.1206
 5174SOL    HW127158   3.229   1.891   6.125 -0.1254  0.3063 -1.0038
 5174SOL    HW227159   3.377   1.914   6.104  1.9083 -0.5425 -3.2177
 5175SOL     OW27160   2.397   3.592   9.791 -0.0076  0.1860 -0.0411
 5175SOL    HW127161   2.325   3.574   9.731  1.3287 -1.2274 -1.2065
 5175SOL    HW227162   2.352   3.609   9.874 -0.7239 -0.1586 -0.3543
 5176SOL     OW27163   4.158   2.498   8.478 -0.0024 -0.3126 -0.0704
 5176SOL    HW127164   4.192   2.504   8.388  0.5325 -0.2306  0.1383
 5176SOL    HW227165   4.134   2.590   8.487 -0.0014 -0.3149 -0.0464
 5177SOL     OW27166   4.375   3.373   8.647 -0.2750 -0.0237 -0.2652
 5177SOL    HW127167   4.319   3.296   8.660 -0.9214  0.1772 -1.9106
 5177SOL    HW227168   4.434   3.355   8.721  0.9359 -1.0129 -1.4692
 5178SOL     OW27169   3.025   3.762   4.864 -0.4832  0.6542  0.1757
 5178SOL    HW127170   3.065   3.739   4.780  2.1436 -2.2089  2.1847
 5178SOL    HW227171   3.076   3.708   4.925 -0.4322  1.1923  0.6080
 5179SOL     OW27172   0.067   3.420  14.913 -0.6725 -0.3535  0.1601
 5179SOL    HW127173   0.020   3.461  14.840 -0.0721  0.0192 -0.0187
 5179SOL    HW227174   4.720   3.380  14.955  0.2964 -2.3050  0.0660
 5180SOL     OW27175   0.122   3.324  15.187 -0.0672 -0.0774  0.3051
 5180SOL    HW127176   0.139   3.374  15.108 -1.8513  1.3752  0.8381
 5180SOL    HW227177   0.060   3.378  15.236 -0.5731 -0.5410  0.1890
 5181SOL     OW27178   4.719   0.762   8.911 -0.9257  0.1480 -0.2850
 5181SOL    HW127179   4.647   0.790   8.967 -0.9696  0.1757 -0.3555
 5181SOL    HW227180   0.009   0.674   8.944 -2.6544 -0.0326  0.2054
 5182SOL     OW27181   0.857   1.211   2.415 -0.3088 -0.1261  0.3722
 5182SOL    HW127182   0.862   1.189   2.322 -0.6769 -2.2047  0.8491
 5182SOL    HW227183   0.947   1.201   2.443 -0.6457  1.1493  1.9238
 5183SOL     OW27184   4.450   2.826   7.076 -0.1967 -0.1049  0.0341
 5183SOL    HW127185   4.502   2.828   7.156  0.7979  1.1643 -0.6433
 5183SOL    HW227186   4.454   2.734   7.051  1.0887  0.4239 -1.7179
 5184SOL     OW27187   3.786   0.120   2.247 -0.3040 -0.2510  0.1537
 5184SOL    HW127188   3.814   0.149   2.160  0.4043 -1.2376  0.0544
 5184SOL    HW227189   3.766   0.027   2.237 -1.2265  0.0221 -0.5327
 5185SOL     OW27190   3.116   1.202   5.164  0.0664 -0.4786 -0.2282
 5185SOL    HW127191   3.128   1.203   5.259 -0.3359  3.9397 -0.2211
 5185SOL    HW227192   3.020   1.198   5.155  0.2923 -0.0901 -2.8522
 5186SOL     OW27193   4.190   2.248  16.145  0.5421  0.3198  0.2652
 5186SOL    HW127194   4.244   2.286  16.215  0.2207  1.0332  0.1200
 5186SOL    HW227195   4.207   2.319  16.083  1.2914  0.7301  0.9347
 5187SOL     OW27196   3.476   4.443   6.222 -0.2047 -0.3379  0.7098
 5187SOL    HW127197   3.445   4.453   6.312  0.0700  1.5751  0.5927
 5187SOL    HW227198   3.497   4.349   6.219  1.4991  0.0586  0.0108
 5188SOL     OW27199   0.950   3.493   3.169 -0.4502 -0.0995  0.3343
 5188SOL    HW127200   0.894   3.529   3.100  0.4363  2.6149  1.0032
 5188SOL    HW227201   0.978   3.572   3.216  0.0432 -0.4689  0.6630
 5189SOL     OW27202   1.393   1.107   7.272  0.3694  0.2395  0.3464
 5189SOL    HW127203   1.372   1.047   7.344  1.1853  0.8221  1.0754
 5189SOL    HW227204   1.423   1.053   7.199 -0.7091  0.7992 -0.5058
 5190SOL     OW27205   2.367   2.822  12.723 -0.4066 -0.5527 -0.7327
 5190SOL    HW127206   2.374   2.870  12.641  0.5876  2.2561  1.0087
 5190SOL    HW227207   2.306   2.883  12.766  0.4905  0.5469 -1.0333
 5191SOL     OW27208   2.439   3.775  10.695 -0.2733  0.3870 -0.3424
 5191SOL    HW127209   2.385   3.751  10.770 -0.9068  3.8830  0.3146
 5191SOL    HW227210   2.509   3.831  10.730 -0.6403  0.9838 -0.5710
 5192SOL     OW27211   3.899   1.124   9.602 -0.3593 -0.1221  0.0015
 5192SOL    HW127212   3.909   1.212   9.638  0.9047 -0.7945  1.2696
 5192SOL    HW227213   3.905   1.151   9.510 -1.3116 -1.0861 -0.3431
 5193SOL     OW27214   1.243   4.707   4.960 -1.1444  0.0845 -1.1652
 5193SOL    HW127215   1.155   4.675   4.941 -1.0541 -1.6269  1.3033
 5193SOL    HW227216   1.216   0.062   4.996  0.9302  0.0275  0.5319
 5194SOL     OW27217   3.770   2.619   4.941 -0.3642  0.2163 -0.0219
 5194SOL    HW127218   3.714   2.663   5.005  0.0020  1.4938 -0.5793
 5194SOL    HW227219   3.705   2.604   4.873  0.3898  1.3958 -0.9882
 5195SOL     OW27220   0.309   2.805   5.939 -0.4040 -0.1011 -0.7692
 5195SOL    HW127221   0.241   2.758   5.986 -0.4240 -0.0995 -0.7965
 5195SOL    HW227222   0.333   2.736   5.877  0.9561  1.0102 -1.4923
 5196SOL     OW27223   1.534   1.471  11.647  0.1251 -0.9829 -0.5792
 5196SOL    HW127224   1.565   1.554  11.610 -2.0079  0.0947  0.0591
 5196SOL    HW227225   1.478   1.453  11.571 -0.6928 -1.7080  0.1998
 5197SOL     OW27226   0.594   4.381   4.360 -0.0278 -0.3324 -0.3047
 5197SOL    HW127227   0.550   4.461   4.332  0.1069 -0.4864 -0.9574
 5197SOL    HW227228   0.569   4.325   4.286 -0.7727 -0.2094 -0.1371
 5198SOL     OW27229   4.663   0.035   6.292  0.2364  0.2494 -0.1997
 5198SOL    HW127230   4.694   4.679   6.260 -1.5085 -0.4004 -0.1646
 5198SOL    HW227231   4.706   0.088   6.224  0.8859 -1.0906 -0.8405
 5199SOL     OW27232   1.201   4.498  17.625  0.0728 -0.2339 -0.1716
 5199SOL    HW127233   1.231   4.516  17.536  1.5470 -1.3541  0.1019
 5199SOL    HW227234   1.276   4.455  17.665 -2.0908 -3.2835  0.6358
 5200SOL     OW27235   0.897   1.792   6.333  0.3095  0.8072 -0.2965
 5200SOL    HW127236   0.804   1.801   6.352 -0.1747 -2.3163 -1.2729
 5200SOL    HW227237   0.921   1.760   6.419 -1.2243  1.2786  0.3020
 5201SOL     OW27238   1.016   0.948   1.762 -0.4132  0.1246  0.4836
 5201SOL    HW127239   1.068   0.968   1.685 -0.5984  1.0854  0.6175
 5201SOL    HW227240   0.947   1.012   1.742 -0.8395 -0.8799 -1.3257
 5202SOL     OW27241   4.713   1.666  10.788  0.4182  0.3178  0.7875
 5202SOL    HW127242   4.644   1.619  10.740  0.0860  0.8828  0.7190
 5202SOL    HW227243   0.034   1.588  10.811 -0.7563 -1.0426 -1.1413
 5203SOL     OW27244   2.268   4.133  15.788 -0.5511  0.4259  0.3493
 5203SOL    HW127245   2.278   4.066  15.855  1.1759 -1.2509 -1.6054
 5203SOL    HW227246   2.283   4.084  15.707 -0.9071 -0.3277  0.7503
 5204SOL     OW27247   3.054   4.436   1.240 -0.0191  0.3710 -0.0109
 5204SOL    HW127248   3.001   4.357   1.252 -2.5312  1.8872 -1.1532
 5204SOL    HW227249   2.997   4.505   1.274 -1.2212 -0.0312 -1.2125
 5205SOL     OW27250   3.871   2.147  12.055 -0.2542  0.6855 -0.5080
 5205SOL    HW127251   3.928   2.100  12.116  2.9367  1.4921 -2.8302
 5205SOL    HW227252   3.783   2.129  12.088 -0.4449  0.3022 -1.2393
 5206SOL     OW27253   4.097   4.110   8.221 -0.1225 -0.2069  0.1232
 5206SOL    HW127254   4.176   4.068   8.255  0.5957  0.5310 -0.6740
 5206SOL    HW227255   4.120   4.202   8.227  2.1600 -0.6949 -1.3290
 5207SOL     OW27256   4.297   4.377   7.371  0.1377  0.1919  0.2560
 5207SOL    HW127257   4.268   4.290   7.399  0.7465  0.5017  1.8646
 5207SOL    HW227258   4.312   4.416   7.457 -0.4197  1.5568 -0.2605
 5208SOL     OW27259   2.325   4.421   6.826 -0.7908  0.1726 -0.4999
 5208SOL    HW127260   2.354   4.439   6.915 -1.3896  1.8049 -0.6342
 5208SOL    HW227261   2.236   4.457   6.827 -0.1460  1.7845  0.3525
 5209SOL     OW27262   2.757   0.667   2.746  0.3935  0.5610  0.0417
 5209SOL    HW127263   2.686   0.720   2.709  0.4173  0.8133  0.3572
 5209SOL    HW227264   2.776   0.714   2.828 -0.7638  1.3515 -0.1322
 5210SOL     OW27265   4.518   0.308   9.691 -0.3769  0.6921 -0.7774
 5210SOL    HW127266   4.599   0.305   9.640 -0.2818 -0.6194 -0.5467
 5210SOL    HW227267   4.455   0.349   9.632  0.9689  3.1912 -0.4754
 5211SOL     OW27268   2.034   3.895   4.881 -0.2703 -0.0167 -0.0175
 5211SOL    HW127269   1.977   3.835   4.928  0.5567 -0.2816  0.6338
 5211SOL    HW227270   2.111   3.839   4.890 -0.0972  0.0532 -1.0723
 5212SOL     OW27271   2.074   4.309   0.937 -0.4813  0.0170 -0.3689
 5212SOL    HW127272   2.052   4.296   1.029 -0.4722  0.5719 -0.2911
 5212SOL    HW227273   2.082   4.218   0.908 -0.7297 -0.3413  0.7172
 5213SOL     OW27274   4.095   3.194   7.851  0.3554 -0.0119  0.1876
 5213SOL    HW127275   4.162   3.226   7.791  0.1943 -0.7344 -0.3858
 5213SOL    HW227276   4.019   3.193   7.793  1.1288  1.8719 -0.8557
 5214SOL     OW27277   1.151   3.059   9.258  0.1209 -0.0485 -0.7862
 5214SOL    HW127278   1.113   3.013   9.333  1.7484  0.2376  0.2215
 5214SOL    HW227279   1.216   3.111   9.306  0.9329 -3.3858  1.7517
 5215SOL     OW27280   3.865   1.332   2.575 -0.7935 -0.0341  0.5058
 5215SOL    HW127281   3.932   1.346   2.641  0.8942 -0.7679 -1.0235
 5215SOL    HW227282   3.819   1.261   2.620  1.3839 -2.2635 -0.7221
 5216SOL     OW27283   2.658   0.805   4.074 -0.6170  0.0300 -0.1677
 5216SOL    HW127284   2.568   0.805   4.106  0.0762  0.5116  1.8071
 5216SOL    HW227285   2.643   0.779   3.984 -1.5626  0.8170 -0.2283
 5217SOL     OW27286   1.960   3.635   7.554  0.4983  0.7683 -0.4705
 5217SOL    HW127287   2.048   3.660   7.580  1.2764 -0.1881 -2.1812
 5217SOL    HW227288   1.952   3.547   7.592 -0.8805  2.0565  2.1521
 5218SOL     OW27289   2.188   1.618   5.410  0.6650  0.2521 -0.4811
 5218SOL    HW127290   2.189   1.610   5.315  1.0885  3.1040 -0.7323
 5218SOL    HW227291   2.175   1.528   5.440 -2.4717  0.9125  0.1337
 5219SOL     OW27292   3.438   3.219  17.222  0.5010  0.0936  0.1812
 5219SOL    HW127293   3.445   3.311  17.198  1.3162 -0.1640 -0.5618
 5219SOL    HW227294   3.526   3.207  17.259  0.8743  0.9910 -0.4226
 5220SOL     OW27295   1.657   1.123   3.807  0.4926 -0.1146  0.4436
 5220SOL    HW127296   1.605   1.192   3.847  0.9498 -0.3851  1.4850
 5220SOL    HW227297   1.612   1.040   3.821  1.1168 -0.2764  1.4842
 5221SOL     OW27298   3.184   2.044  10.872  0.0583  0.5640  0.1373
 5221SOL    HW127299   3.095   2.053  10.840  0.2342  0.2978 -0.4162
 5221SOL    HW227300   3.205   2.137  10.881 -1.2022  0.7727  0.8623
 5222SOL     OW27301   2.501   1.025  11.123  0.3076  0.2768 -0.3893
 5222SOL    HW127302   2.480   1.082  11.198 -3.2215 -0.5791 -0.7348
 5222SOL    HW227303   2.595   1.011  11.139  0.0895 -0.5894  0.1321
 5223SOL     OW27304   0.484   4.326   4.108 -0.2622 -0.0968 -0.5600
 5223SOL    HW127305   0.436   4.244   4.114  2.0110 -1.3626  0.0605
 5223SOL    HW227306   0.431   4.366   4.039  3.4983  1.9765 -2.2489
 5224SOL     OW27307   2.380   2.936   7.571 -0.0300  0.1607 -0.3364
 5224SOL    HW127308   2.403   3.027   7.590  1.5836 -0.1710 -0.6599
 5224SOL    HW227309   2.303   2.959   7.520  1.0794  0.5394 -1.8543
 5225SOL     OW27310   3.580   2.827   4.238  0.4101 -0.6043 -0.2074
 5225SOL    HW127311   3.485   2.821   4.233  0.3140 -0.2481  1.1352
 5225SOL    HW227312   3.604   2.759   4.175 -0.7224 -0.1765 -1.1117
 5226SOL     OW27313   1.631   0.922  12.807  0.0061 -0.0325 -0.0278
 5226SOL    HW127314   1.700   0.979  12.840  0.9574 -1.1397 -0.1030
 5226SOL    HW227315   1.574   0.915  12.883 -1.4330 -2.4120 -1.3310
 5227SOL     OW27316   0.393   0.572   7.163 -0.1877  0.0214  0.0572
 5227SOL    HW127317   0.462   0.638   7.171 -0.2728  0.3764 -2.0484
 5227SOL    HW227318   0.315   0.622   7.188 -0.5116 -0.3654 -0.1848
 5228SOL     OW27319   3.925   4.046   9.877 -0.5622 -0.0636  0.5729
 5228SOL    HW127320   3.998   3.984   9.874 -1.1529 -0.8032  1.3344
 5228SOL    HW227321   3.864   3.982   9.839 -1.0610  1.1743 -0.6842
 5229SOL     OW27322   2.971   3.335   7.836 -0.1320  0.1519 -0.3377
 5229SOL    HW127323   2.933   3.280   7.905 -0.7262  0.2066 -0.6227
 5229SOL    HW227324   2.913   3.411   7.844  0.6877  0.6231  1.0564
 5230SOL     OW27325   2.361   1.909   2.913  0.4482  0.0565  0.7756
 5230SOL    HW127326   2.427   1.851   2.875  1.8232  1.5338  0.8971
 5230SOL    HW227327   2.362   1.977   2.846  3.7838 -0.2418  0.5131
 5231SOL     OW27328   3.268   1.372  11.680 -0.3549  0.0939  0.2489
 5231SOL    HW127329   3.216   1.346  11.756  1.1943 -0.8342  1.0002
 5231SOL    HW227330   3.327   1.439  11.717  2.5076 -2.4815  0.3019
 5232SOL     OW27331   1.896   3.332  11.515  0.4366  0.3616 -0.9368
 5232SOL    HW127332   1.976   3.281  11.526  0.8994  1.2485 -0.1325
 5232SOL    HW227333   1.831   3.262  11.518 -1.1099  1.8542  0.9932
 5233SOL     OW27334   0.840   3.203   8.428  0.3467  0.1065  0.5045
 5233SOL    HW127335   0.798   3.189   8.344  0.4872  1.8776  0.1317
 5233SOL    HW227336   0.825   3.116   8.464 -1.5952  0.3399  0.2722
 5234SOL     OW27337   4.660   1.400   8.758  0.4926  0.1875  0.4679
 5234SOL    HW127338   4.677   1.325   8.816 -0.8506 -0.5889 -0.1607
 5234SOL    HW227339   0.009   1.408   8.703  1.3311 -1.0241  1.4588
 5235SOL     OW27340   3.984   3.513   1.621 -0.3046 -0.2797 -0.1173
 5235SOL    HW127341   3.904   3.463   1.639  1.3829 -2.7841  0.3581
 5235SOL    HW227342   3.949   3.598   1.648 -1.5070 -0.5113 -0.9365
 5236SOL     OW27343   2.727   3.187  14.902  0.3554  0.2758 -0.0595
 5236SOL    HW127344   2.731   3.092  14.892 -1.4231  0.1507  0.4127
 5236SOL    HW227345   2.633   3.208  14.897  0.1465 -0.0829  2.3401
 5237SOL     OW27346   4.335   4.387   2.875  0.0577  0.0200 -0.5576
 5237SOL    HW127347   4.259   4.344   2.914 -0.4762 -1.3037 -3.0451
 5237SOL    HW227348   4.386   4.395   2.955 -1.3887 -0.9951  0.4606
 5238SOL     OW27349   0.912   0.609   1.232  0.1479 -0.2458  0.4560
 5238SOL    HW127350   0.817   0.597   1.245  0.0529  2.4420  2.1843
 5238SOL    HW227351   0.933   0.619   1.139  0.8571 -2.7599  0.3309
 5239SOL     OW27352   2.030   3.047  13.450 -0.4588 -0.5112 -0.0389
 5239SOL    HW127353   1.991   2.991  13.516  0.2043  0.2205  0.9694
 5239SOL    HW227354   2.116   3.045  13.492 -0.9069  0.4520  0.9127
 5240SOL     OW27355   2.889   1.070   1.466  0.4519 -0.2776  0.1952
 5240SOL    HW127356   2.959   1.134   1.477  1.6099 -1.5239  0.0964
 5240SOL    HW227357   2.821   1.129   1.435  0.4159  0.2803  1.3411
 5241SOL     OW27358   1.256   0.903   2.966 -0.2135  0.6805 -0.1947
 5241SOL    HW127359   1.279   0.866   3.051  0.0198  4.0958  1.2009
 5241SOL    HW227360   1.203   0.974   3.000  0.8393  1.3656  0.0059
 5242SOL     OW27361   3.437   2.439   6.498  0.4305  0.2269 -0.9391
 5242SOL    HW127362   3.362   2.397   6.456 -0.1021  0.9674 -0.7249
 5242SOL    HW227363   3.407   2.455   6.587  2.9472 -1.1031  0.1373
 5243SOL     OW27364   0.260   2.529  16.409  0.0559  0.1168  0.9399
 5243SOL    HW127365   0.211   2.535  16.327  1.6062 -2.0450 -0.1628
 5243SOL    HW227366   0.248   2.606  16.465  1.6555  1.2375 -0.2871
 5244SOL     OW27367   1.011   3.348   4.516  0.4037  0.0759  0.1494
 5244SOL    HW127368   1.011   3.362   4.421 -1.1072  1.3939  0.3488
 5244SOL    HW227369   1.094   3.386   4.544  1.4762 -3.7150  2.2074
 5245SOL     OW27370   1.784   4.320   0.815 -0.3925  0.0794 -0.0224
 5245SOL    HW127371   1.717   4.269   0.862 -0.4681 -0.1915 -0.4239
 5245SOL    HW227372   1.863   4.277   0.847  0.4143 -1.8913 -4.7357
 5246SOL     OW27373   4.721   1.569   3.464 -0.3442 -0.0924 -0.3734
 5246SOL    HW127374   0.031   1.502   3.520 -0.8174 -1.2222 -1.3912
 5246SOL    HW227375   4.669   1.529   3.394  0.3103 -2.6689  0.5953
 5247SOL     OW27376   3.120   1.743   2.510  0.1819 -0.8300  0.0281
 5247SOL    HW127377   3.168   1.776   2.586 -0.3342  0.3082 -0.1320
 5247SOL    HW227378   3.086   1.666   2.556 -2.1240  0.2522  0.1335
 5248SOL     OW27379   0.538   2.314  15.637  0.1333 -0.0186 -0.4935
 5248SOL    HW127380   0.538   2.241  15.699  0.9558  0.9112  0.6165
 5248SOL    HW227381   0.590   2.378  15.684  0.6417 -0.3343 -0.6218
 5249SOL     OW27382   0.686   2.859   9.919 -0.0032 -0.1560  0.2252
 5249SOL    HW127383   0.616   2.798   9.896  1.3320 -2.4911  2.4287
 5249SOL    HW227384   0.745   2.838   9.846  0.7727 -2.1703  1.4491
 5250SOL     OW27385   1.418   3.651   2.589  0.3216 -0.2816 -0.3736
 5250SOL    HW127386   1.350   3.713   2.614  0.3408 -1.0476  1.6313
 5250SOL    HW227387   1.478   3.648   2.664  0.6031 -0.0193 -0.5901
 5251SOL     OW27388   0.361   1.708   4.199 -0.0977  0.6281  0.7643
 5251SOL    HW127389   0.371   1.719   4.104  2.3106 -2.0215  0.7053
 5251SOL    HW227390   0.390   1.618   4.211  0.1216  0.1876 -3.0278
 5252SOL     OW27391   0.171   1.162  15.225 -0.1331  0.1270 -0.1236
 5252SOL    HW127392   0.195   1.238  15.173  0.0462  0.3186  0.2431
 5252SOL    HW227393   0.112   1.118  15.163 -0.3588  1.7175 -1.0274
 5253SOL     OW27394   2.942   0.431   4.270 -0.3670  0.6283  0.0568
 5253SOL    HW127395   2.929   0.337   4.258 -0.0336  0.9154 -2.4354
 5253SOL    HW227396   2.968   0.424   4.362  1.1770  0.8415 -0.3689
 5254SOL     OW27397   4.283   2.232   0.119  0.3195  0.2870 -0.0214
 5254SOL    HW127398   4.209   2.218   0.178  0.9022  1.1111  0.9061
 5254SOL    HW227399   4.239   2.285   0.052  0.3941 -0.3515 -0.5754
 5255SOL     OW27400   2.809   2.712   6.410 -0.1886 -0.0192 -0.1789
 5255SOL    HW127401   2.828   2.801   6.439  0.6054 -0.5795  1.0595
 5255SOL    HW227402   2.876   2.665   6.461  1.7549  0.4255 -2.3116
 5256SOL     OW27403   2.417   0.639  14.452 -0.6209 -0.4309 -0.2761
 5256SOL    HW127404   2.336   0.628  14.502 -0.3913  2.8456  0.7863
 5256SOL    HW227405   2.397   0.717  14.400  0.7515 -0.6105 -1.0700
 5257SOL     OW27406   0.941   3.786   5.186  0.2846 -0.2563 -0.1944
 5257SOL    HW127407   0.917   3.863   5.135  1.2322 -0.9291 -1.6607
 5257SOL    HW227408   0.855   3.761   5.221  0.0413  2.6612  1.2980
 5258SOL     OW27409   4.646   0.211   4.377  0.5838  0.3815  0.3099
 5258SOL    HW127410   4.591   0.287   4.398 -1.3228 -0.4566 -1.5790
 5258SOL    HW227411   4.722   0.254   4.337 -1.6073  1.7977 -2.3735
 5259SOL     OW27412   2.438   3.240  14.843  0.1237 -0.2223 -0.4483
 5259SOL    HW127413   2.405   3.178  14.779  1.5577 -0.0161 -1.3917
 5259SOL    HW227414   2.376   3.233  14.916  2.0083  0.9730  1.2575
 5260SOL     OW27415   3.985   0.887   5.530  0.3379  0.1710 -0.1220
 5260SOL    HW127416   4.065   0.864   5.578  0.0501  1.1973  0.8375
 5260SOL    HW227417   3.916   0.856   5.589  1.5637 -2.3669 -0.0046
 5261SOL     OW27418   4.652   2.137   0.253  0.7583 -0.1431 -0.9632
 5261SOL    HW127419   4.673   2.143   0.160  2.7589 -2.2644 -0.6342
 5261SOL    HW227420   4.719   2.190   0.296 -1.4146  0.9198  1.1430
 5262SOL     OW27421   0.239   2.684   8.648  0.0216  0.5283  0.2855
 5262SOL    HW127422   0.335   2.685   8.651  0.0379  0.4924 -0.2727
 5262SOL    HW227423   0.213   2.729   8.728 -0.2421 -0.9273  1.0248
 5263SOL     OW27424   0.881   2.870   2.713  0.9402  0.0848  0.3451
 5263SOL    HW127425   0.946   2.893   2.779  0.5545  1.5801  0.1860
 5263SOL    HW227426   0.807   2.918   2.750  0.4427 -1.7623  1.7497
 5264SOL     OW27427   3.117   1.337   6.473  0.1813 -0.2023  0.0353
 5264SOL    HW127428   3.090   1.305   6.387 -0.6594 -0.3847  0.3690
 5264SOL    HW227429   3.037   1.313   6.520 -0.3036 -0.6680 -1.0221
 5265SOL     OW27430   4.638   2.158   2.854  0.2696 -0.1145  0.2170
 5265SOL    HW127431   4.600   2.094   2.914 -0.4796 -0.9472 -1.1408
 5265SOL    HW227432   4.558   2.185   2.809  0.5374  1.4962  0.6823
 5266SOL     OW27433   3.106   1.211  17.117 -0.4442 -0.2286  0.8393
 5266SOL    HW127434   3.028   1.264  17.135 -0.6127 -0.3467  0.4386
 5266SOL    HW227435   3.158   1.262  17.055 -0.2935 -0.1409  1.0368
 5267SOL     OW27436   3.646   2.249   6.460  0.2810  0.1100  0.1043
 5267SOL    HW127437   3.586   2.179   6.485  2.2305 -1.5523  0.1274
 5267SOL    HW227438   3.583   2.322   6.464  0.0896 -0.0124 -0.5832
 5268SOL     OW27439   3.352   2.098   2.199  0.4957 -0.1374 -0.0707
 5268SOL    HW127440   3.370   2.174   2.254  0.1011  0.9904 -1.4945
 5268SOL    HW227441   3.257   2.092   2.197  0.5849 -1.2562 -0.9656
 5269SOL     OW27442   3.072   0.147   7.491 -0.5131  0.0215 -0.1392
 5269SOL    HW127443   2.985   0.123   7.525 -0.9434  1.0307 -0.5206
 5269SOL    HW227444   3.137   0.127   7.558 -0.0811 -2.9423 -1.4459
 5270SOL     OW27445   0.984   4.527   2.482 -0.1559 -0.0505  0.7880
 5270SOL    HW127446   0.955   4.615   2.459 -2.6843 -1.4979 -1.5778
 5270SOL    HW227447   0.898   4.487   2.490  0.2241 -0.5968  2.1812
 5271SOL     OW27448   2.731   0.229   2.954  0.3601  0.0049 -0.2557
 5271SOL    HW127449   2.713   0.267   2.868  1.8249 -2.8155 -1.8101
 5271SOL    HW227450   2.752   0.136   2.940  1.4246  0.3444 -0.8612
 5272SOL     OW27451   0.687   4.635   3.814 -0.1358  0.1100 -0.0471
 5272SOL    HW127452   0.684   4.699   3.743  2.0700  1.4661  1.0757
 5272SOL    HW227453   0.775   4.602   3.795 -1.1020 -1.8814 -1.0396
 5273SOL     OW27454   0.353   0.561   3.365 -0.4664  0.2864  0.2162
 5273SOL    HW127455   0.420   0.580   3.430  1.4859 -1.0457 -1.4065
 5273SOL    HW227456   0.407   0.503   3.311  0.2775  0.5056  0.7358
 5274SOL     OW27457   0.327   2.605   5.762  0.0013  0.0386 -0.2684
 5274SOL    HW127458   0.301   2.514   5.751  1.2454 -0.4418  0.7203
 5274SOL    HW227459   0.412   2.598   5.719 -0.5867  1.6858 -1.6779
 5275SOL     OW27460   1.826   3.844  16.766  0.6836  0.2985  0.7678
 5275SOL    HW127461   1.872   3.805  16.840 -2.3875 -1.4928  1.7590
 5275SOL    HW227462   1.757   3.896  16.809  1.5428  1.6225  0.5584
 5276SOL     OW27463   3.540   4.312  15.918  0.4067  0.1538  0.0742
 5276SOL    HW127464   3.520   4.340  15.829  3.7340  1.1857 -0.3370
 5276SOL    HW227465   3.606   4.378  15.937  0.0009  0.8939 -1.0811
 5277SOL     OW27466   0.095   2.297   3.700  0.0674  0.1510  0.1429
 5277SOL    HW127467   0.030   2.338   3.643  2.7744  2.7701 -1.0422
 5277SOL    HW227468   0.167   2.301   3.638 -0.7800  1.2729 -0.7673
 5278SOL     OW27469   1.074   1.396   2.251 -0.0794 -0.3936 -0.3122
 5278SOL    HW127470   1.139   1.378   2.184  1.2316  3.0308  0.0468
 5278SOL    HW227471   1.001   1.337   2.231 -0.8683 -0.0117  1.4881
 5279SOL     OW27472   0.844   4.486   4.456 -0.1897  0.0921 -0.3787
 5279SOL    HW127473   0.759   4.446   4.442 -0.4961 -0.1311  2.2140
 5279SOL    HW227474   0.888   4.446   4.381  1.5387  2.0351 -0.4203
 5280SOL     OW27475   1.976   3.129   5.426 -0.2817 -0.0756  0.3962
 5280SOL    HW127476   1.974   3.154   5.518 -1.6542 -0.4613  0.4702
 5280SOL    HW227477   2.005   3.038   5.425 -2.5200 -0.7813  0.5975
 5281SOL     OW27478   0.588   0.150   5.799 -0.5558 -0.7484 -0.0656
 5281SOL    HW127479   0.530   0.103   5.860 -1.5316 -1.9935 -1.9652
 5281SOL    HW227480   0.540   0.233   5.794  0.4328 -0.0540  1.9934
 5282SOL     OW27481   0.518   0.894   6.869 -0.5836  0.1424 -0.3859
 5282SOL    HW127482   0.503   0.868   6.960  1.5960 -0.7170 -0.2723
 5282SOL    HW227483   0.538   0.988   6.867  0.1367  0.0130  0.4881
 5283SOL     OW27484   4.176   1.338   8.677  0.1553 -0.0059 -0.5198
 5283SOL    HW127485   4.153   1.358   8.586 -0.2927 -2.4859 -0.9240
 5283SOL    HW227486   4.151   1.246   8.679 -0.7253  0.2907  1.6687
 5284SOL     OW27487   1.742   0.895   8.117 -0.0573  0.2217  0.7239
 5284SOL    HW127488   1.827   0.852   8.106 -0.7691 -1.0102  0.0616
 5284SOL    HW227489   1.681   0.821   8.115 -0.6186  0.7116 -0.1176
 5285SOL     OW27490   1.691   2.822   5.483  0.1600  0.3694 -0.4993
 5285SOL    HW127491   1.686   2.880   5.407  0.7661  2.7424  1.3111
 5285SOL    HW227492   1.754   2.765   5.438 -0.1078  0.4553 -0.9836
 5286SOL     OW27493   4.275   4.269  12.375  0.6959  0.0803  0.0695
 5286SOL    HW127494   4.295   4.271  12.282 -1.8766 -1.0140 -0.5162
 5286SOL    HW227495   4.286   4.175  12.390 -1.4755 -0.3903 -1.1836
 5287SOL     OW27496   0.631   3.742   9.986  0.1064  0.2433  0.0493
 5287SOL    HW127497   0.693   3.774   9.921  0.9640  2.1000  1.7864
 5287SOL    HW227498   0.684   3.675  10.029  1.4070 -0.1705 -2.2299
 5288SOL     OW27499   3.209   0.857   6.988  0.2522 -0.3623  0.3614
 5288SOL    HW127500   3.147   0.798   7.032  0.1313  0.4697  1.3225
 5288SOL    HW227501   3.248   0.806   6.917  1.3400 -0.4130  0.9970
 5289SOL     OW27502   1.530   1.562   1.986 -0.8486  0.4148  0.7277
 5289SOL    HW127503   1.609   1.572   2.039 -1.0324 -0.0600  1.0979
 5289SOL    HW227504   1.514   1.655   1.971 -0.9264  0.2527 -0.2161
 5290SOL     OW27505   4.640   1.410   2.604  0.3110  0.0460  0.2164
 5290SOL    HW127506   4.723   1.414   2.651  0.1593 -1.1065  0.5895
 5290SOL    HW227507   4.667   1.355   2.531 -1.5890 -0.1693 -0.3231
 5291SOL     OW27508   2.454   2.313   4.211 -0.8119  0.2458  0.0182
 5291SOL    HW127509   2.448   2.365   4.131  0.6115  1.1215  0.4843
 5291SOL    HW227510   2.481   2.228   4.175  2.2407  0.2293  2.3786
 5292SOL     OW27511   0.851   2.089   2.126  0.3606 -0.1097 -0.5804
 5292SOL    HW127512   0.813   2.080   2.213  0.1817  0.9399 -0.5518
 5292SOL    HW227513   0.942   2.063   2.140  0.4909  0.2993 -0.6549
 5293SOL     OW27514   0.187   2.287   5.045 -0.2400  0.1236  0.5069
 5293SOL    HW127515   0.100   2.328   5.045 -1.5558 -2.6080  0.2728
 5293SOL    HW227516   0.247   2.354   5.078 -1.4280  1.9248 -0.9842
 5294SOL     OW27517   3.869   1.669   8.552  0.1245  0.1717  0.0089
 5294SOL    HW127518   3.820   1.720   8.616  0.7697 -1.8125  2.0822
 5294SOL    HW227519   3.820   1.671   8.470 -0.3916  1.9766  0.3599
 5295SOL     OW27520   1.868   1.150   1.819 -0.6664  0.0677  0.5064
 5295SOL    HW127521   1.878   1.210   1.893 -2.6511 -0.1704  0.9602
 5295SOL    HW227522   1.781   1.166   1.784 -1.0773  0.5811  1.7561
 5296SOL     OW27523   0.120   0.194  10.854 -0.1751  0.0155  0.0376
 5296SOL    HW127524   0.196   0.252  10.846 -1.0483  1.1901  0.3508
 5296SOL    HW227525   0.038   0.243  10.852 -0.0022  0.3912  1.7597
 5297SOL     OW27526   2.459   1.065   1.981  0.4215 -0.4460  0.1424
 5297SOL    HW127527   2.382   1.019   1.947  1.5756 -0.7942 -2.0342
 5297SOL    HW227528   2.503   0.982   2.004 -1.6400 -1.3397  0.8517
 5298SOL     OW27529   2.314   2.388   1.583 -0.2488 -0.2343 -0.3015
 5298SOL    HW127530   2.304   2.296   1.606 -0.1824  0.0897  1.0377
 5298SOL    HW227531   2.224   2.417   1.599  0.5405  1.5701  0.8895
 5299SOL     OW27532   1.878   0.475   3.815  0.0257  0.6348 -0.0298
 5299SOL    HW127533   1.863   0.464   3.721 -0.5809  2.0554 -0.1131
 5299SOL    HW227534   1.958   0.528   3.821  0.4112  0.1613 -1.0513
 5300SOL     OW27535   2.339   0.335   8.601 -0.3013  0.0033  0.3367
 5300SOL    HW127536   2.272   0.395   8.567 -0.2396 -0.7952 -1.1773
 5300SOL    HW227537   2.304   0.247   8.589  0.1921 -0.1396 -0.0315
 5301SOL     OW27538   4.152   2.410   2.908  0.4199  0.4956 -0.2559
 5301SOL    HW127539   4.076   2.462   2.886  0.5848  0.2240 -1.5134
 5301SOL    HW227540   4.219   2.479   2.902  1.3925 -0.4420 -0.2935
 5302SOL     OW27541   2.914   1.987   2.810 -0.4532 -0.2831 -0.2117
 5302SOL    HW127542   2.869   2.019   2.889 -0.6736 -0.2518 -0.3513
 5302SOL    HW227543   3.003   1.996   2.845 -1.8097 -0.9775  3.4485
 5303SOL     OW27544   0.840   0.696  11.720  0.1476  0.3147 -0.0115
 5303SOL    HW127545   0.751   0.715  11.691  0.7607  2.1760 -0.6446
 5303SOL    HW227546   0.876   0.784  11.711 -0.2720  0.3247 -1.6193
 5304SOL     OW27547   3.896   2.787   7.821 -0.6757 -0.4739 -0.1579
 5304SOL    HW127548   3.859   2.725   7.758 -0.7515  0.6207 -1.1876
 5304SOL    HW227549   3.821   2.814   7.874 -1.0853 -0.4493 -0.7557
 5305SOL     OW27550   3.582   2.660   6.442 -0.0903 -0.2498  0.3390
 5305SOL    HW127551   3.505   2.603   6.446 -0.5653  0.4068  0.4163
 5305SOL    HW227552   3.629   2.650   6.524 -1.2895 -1.9891  0.8097
 5306SOL     OW27553   0.268   3.976  13.083  0.0553 -0.3458  0.3007
 5306SOL    HW127554   0.312   4.062  13.084  1.7336 -1.1807 -0.7967
 5306SOL    HW227555   0.188   4.002  13.037  0.9337  0.3028 -0.8556
 5307SOL     OW27556   1.473   1.601   7.084 -0.3151  0.5780  0.0663
 5307SOL    HW127557   1.555   1.553   7.095  0.4544  1.4924 -1.7276
 5307SOL    HW227558   1.419   1.534   7.041 -1.3282  0.4392  1.5272
 5308SOL     OW27559   4.294   0.852   7.417 -0.1377 -0.3403 -0.9612
 5308SOL    HW127560   4.225   0.793   7.444  0.2391 -0.4547 -0.2673
 5308SOL    HW227561   4.328   0.894   7.496 -1.1116 -2.5013  0.5791
 5309SOL     OW27562   1.885   2.310   5.482  0.0156  0.0990  0.2982
 5309SOL    HW127563   1.953   2.252   5.517 -0.8765 -0.2930  1.3976
 5309SOL    HW227564   1.810   2.253   5.495  1.6131 -1.6997  1.7353
 5310SOL     OW27565   2.843   0.844   3.300 -0.2646 -0.6017 -0.1729
 5310SOL    HW127566   2.850   0.894   3.381 -2.9227 -1.0037  0.2965
 5310SOL    HW227567   2.756   0.873   3.273  0.9569  2.2447 -1.0377
 5311SOL     OW27568   0.781   2.866  17.359  0.0145 -0.1327 -0.4970
 5311SOL    HW127569   0.858   2.904  17.316  1.3905 -0.7798  1.4208
 5311SOL    HW227570   0.720   2.868  17.285  0.5054  1.9271 -0.8496
 5312SOL     OW27571   4.372   4.489   1.611  0.0786  0.3094 -0.4297
 5312SOL    HW127572   4.451   4.437   1.595 -0.7401 -0.2920 -2.4827
 5312SOL    HW227573   4.393   4.560   1.551  1.5654 -0.3515 -0.6809
 5313SOL     OW27574   2.596   3.838  15.653  0.1648 -0.0803  0.9066
 5313SOL    HW127575   2.649   3.776  15.703  2.5412  2.2223  1.2994
 5313SOL    HW227576   2.650   3.861  15.578 -0.9018 -0.2014  0.1140
 5314SOL     OW27577   1.401   1.348  11.869  0.6083  0.3807  0.5820
 5314SOL    HW127578   1.463   1.372  11.800 -0.9044 -0.1934 -0.9897
 5314SOL    HW227579   1.331   1.313  11.813  0.3096 -1.1669  1.9290
 5315SOL     OW27580   1.442   1.940  12.329  0.0274 -0.3852 -0.4236
 5315SOL    HW127581   1.509   1.872  12.329  1.2929  0.8477  1.5371
 5315SOL    HW227582   1.504   2.011  12.347 -0.5326 -0.0433  0.1699
 5316SOL     OW27583   2.220   2.895   4.055 -0.0657  0.1912 -0.2240
 5316SOL    HW127584   2.136   2.924   4.092 -1.0581  1.7355 -3.6466
 5316SOL    HW227585   2.265   2.850   4.126 -2.5308  0.0551  1.2341
 5317SOL     OW27586   2.389   3.194  16.450 -0.0252  0.1421  0.7000
 5317SOL    HW127587   2.419   3.206  16.359 -1.8722 -0.2707  0.0322
 5317SOL    HW227588   2.304   3.151  16.443  0.4162 -0.7037  0.4730
 5318SOL     OW27589   1.359   0.493   2.370  0.4153 -0.1702 -0.2192
 5318SOL    HW127590   1.369   0.549   2.448 -0.5797  0.1434 -0.3144
 5318SOL    HW227591   1.264   0.495   2.371  0.3953 -1.8432  1.2222
 5319SOL     OW27592   0.109   4.215   5.029 -0.1291  0.2688  0.6277
 5319SOL    HW127593   0.100   4.259   4.944 -2.0440  0.1159  0.7564
 5319SOL    HW227594   0.040   4.152   5.012  1.2483 -0.9805 -0.3260
 5320SOL     OW27595   4.679   0.578   6.438  0.1432 -0.4194 -0.0661
 5320SOL    HW127596   0.022   0.522   6.408  0.1402 -0.5702  0.2088
 5320SOL    HW227597   4.705   0.581   6.530  1.8960  0.0946 -0.5907
 5321SOL     OW27598   1.508   4.340   1.039 -0.2621 -0.6032 -0.4425
 5321SOL    HW127599   1.428   4.387   1.059 -1.2967 -1.8982 -1.5452
 5321SOL    HW227600   1.545   4.383   0.963  0.1689  0.8403  0.5861
 5322SOL     OW27601   3.132   2.731   5.278  0.1021  0.2538 -0.3484
 5322SOL    HW127602   3.064   2.706   5.341  1.0116  1.4711  1.1169
 5322SOL    HW227603   3.092   2.807   5.237 -1.5381 -0.2959  0.2237
 5323SOL     OW27604   2.677   2.470   4.667  0.4169 -0.0260 -0.2075
 5323SOL    HW127605   2.672   2.423   4.584 -0.6771  0.4684 -0.4225
 5323SOL    HW227606   2.597   2.434   4.705 -0.6209  2.6705  0.1452
 5324SOL     OW27607   1.464   1.788   4.491  0.5545 -0.0669  0.4725
 5324SOL    HW127608   1.503   1.707   4.459 -2.7044 -1.7067  0.6537
 5324SOL    HW227609   1.405   1.750   4.556  1.6408 -0.2760  1.3323
 5325SOL     OW27610   4.591   0.756   6.181  0.0213 -0.4872  0.3846
 5325SOL    HW127611   4.656   0.728   6.246 -0.2806 -3.4598 -0.6257
 5325SOL    HW227612   4.531   0.810   6.234 -0.3471 -0.3551 -0.1687
 5326SOL     OW27613   3.424   3.261   7.626  0.7723 -0.2114 -0.2409
 5326SOL    HW127614   3.338   3.292   7.599 -0.0515 -2.2974  0.0075
 5326SOL    HW227615   3.427   3.301   7.712 -0.0363  1.9032 -1.2130
 5327SOL     OW27616   3.947   0.879   9.393  0.2671 -0.2212 -0.2112
 5327SOL    HW127617   3.960   0.785   9.401 -1.7549 -0.5876 -1.5172
 5327SOL    HW227618   3.905   0.909   9.474  0.7288  1.8580 -0.7326
 5328SOL     OW27619   2.268   1.145   4.938  0.3272  0.3641  0.2599
 5328SOL    HW127620   2.351   1.192   4.947  1.1747 -1.1001  0.0187
 5328SOL    HW227621   2.295   1.065   4.983  0.1301 -0.9616 -1.9693
 5329SOL     OW27622   2.909   3.595  10.195  0.3849 -0.1532  0.3453
 5329SOL    HW127623   2.822   3.556  10.188  1.1022 -2.2319  3.2546
 5329SOL    HW227624   2.889   3.681  10.233 -2.7531 -0.7604  0.0378
 5330SOL     OW27625   4.697   4.002   3.253  0.4395 -0.1423 -0.2854
 5330SOL    HW127626   4.715   3.957   3.335  1.2429  0.7822  0.0372
 5330SOL    HW227627   0.053   4.004   3.209  0.1021  0.6104 -0.9098
 5331SOL     OW27628   1.519   1.282   6.592  1.2621 -0.5773 -0.1329
 5331SOL    HW127629   1.545   1.257   6.503  1.2784 -0.9668 -0.0210
 5331SOL    HW227630   1.425   1.265   6.584  1.1776 -0.2263  0.1363
 5332SOL     OW27631   1.402   0.435  10.179 -0.4133 -0.3860  0.7429
 5332SOL    HW127632   1.370   0.391  10.101 -0.1176  0.2447  0.2682
 5332SOL    HW227633   1.456   0.368  10.221 -1.3199 -0.2458  2.1420
 5333SOL     OW27634   2.813   0.827   4.402  0.2460 -0.3257  0.4061
 5333SOL    HW127635   2.794   0.753   4.345  0.9120  0.1903 -0.4749
 5333SOL    HW227636   2.803   0.783   4.487  0.4647  0.9695  1.1138
 5334SOL     OW27637   1.120   3.521   2.334 -0.3012 -0.0277 -0.2081
 5334SOL    HW127638   1.089   3.572   2.260 -2.4314 -0.4408  0.4037
 5334SOL    HW227639   1.154   3.587   2.396  1.6043 -0.4478 -0.8074
 5335SOL     OW27640   0.067   1.773   0.728 -0.1543  0.2066 -0.0086
 5335SOL    HW127641   4.701   1.768   0.731 -0.2999  1.3915 -2.4881
 5335SOL    HW227642   0.081   1.741   0.639  1.2410  1.0805 -0.1108
 5336SOL     OW27643   1.729   0.939   4.198  0.4458 -0.1032  0.7333
 5336SOL    HW127644   1.766   1.024   4.175  0.2821 -0.3023 -0.2514
 5336SOL    HW227645   1.811   0.891   4.197  0.6805  0.3134  0.3784
 5337SOL     OW27646   1.073   4.720  15.316  0.3027 -0.3185 -0.7842
 5337SOL    HW127647   1.068   0.029  15.403 -2.2152 -1.1661 -0.5746
 5337SOL    HW227648   0.987   4.682  15.300  0.3476 -1.1238  0.9356
 5338SOL     OW27649   4.709   4.515   8.276  0.1952  0.3169 -0.0598
 5338SOL    HW127650   4.654   4.570   8.332 -0.2935  0.2047 -0.4224
 5338SOL    HW227651   4.717   4.577   8.204  1.6591  0.7375  0.4758
 5339SOL     OW27652   4.414   2.058  17.133 -0.1613 -0.1692  0.4107
 5339SOL    HW127653   4.501   2.021  17.120  0.6892  2.3794 -1.1216
 5339SOL    HW227654   4.362   1.979  17.145  0.1026 -0.0890  2.2206
 5340SOL     OW27655   2.746   2.099   4.713 -0.0045 -0.9585  0.0961
 5340SOL    HW127656   2.782   2.091   4.801  1.4844 -1.4109 -0.5521
 5340SOL    HW227657   2.668   2.146   4.743  0.0854 -0.9057  0.2420
 5341SOL     OW27658   1.185   0.687   2.717 -0.6737  0.2119  0.2110
 5341SOL    HW127659   1.202   0.761   2.775 -1.5047  0.8554 -0.3533
 5341SOL    HW227660   1.130   0.632   2.773 -0.0598  1.4885  2.0669
 5342SOL     OW27661   0.113   4.274   8.204 -0.1410  0.2160 -0.2986
 5342SOL    HW127662   0.041   4.214   8.226  0.0485  0.4943  1.0390
 5342SOL    HW227663   0.070   4.357   8.223 -0.9319 -0.5844  1.4423
 5343SOL     OW27664   4.256   3.112  17.516 -0.6164 -0.1624  0.8093
 5343SOL    HW127665   4.313   3.189  17.522 -2.1223  1.0667 -0.5203
 5343SOL    HW227666   4.168   3.141  17.539 -1.1517 -0.7790 -0.4125
 5344SOL     OW27667   2.660   1.362  10.186 -0.2314  0.4346  0.0893
 5344SOL    HW127668   2.674   1.398  10.273 -0.9891 -0.2348  0.4834
 5344SOL    HW227669   2.640   1.269  10.199 -1.0442  0.4762 -0.8855
 5345SOL     OW27670   2.389   2.279   3.622 -0.2507  0.2338  0.2362
 5345SOL    HW127671   2.464   2.294   3.565  0.2307 -0.5110  0.6701
 5345SOL    HW227672   2.400   2.340   3.694 -0.9887 -0.5146  0.9874
 5346SOL     OW27673   4.551   3.466   9.509 -0.1191  0.0725 -0.2060
 5346SOL    HW127674   4.516   3.505   9.429 -0.0290  2.1978  0.7919
 5346SOL    HW227675   4.645   3.458   9.495  0.2253 -0.2903  2.2908
 5347SOL     OW27676   0.442   2.696   5.443  0.9821  0.1091  0.6851
 5347SOL    HW127677   0.508   2.717   5.509  2.5939  1.9577 -1.5301
 5347SOL    HW227678   0.475   2.623   5.392  0.5005  0.2261  0.2023
 5348SOL     OW27679   1.543   1.350  15.069  0.6235 -0.2486 -0.0889
 5348SOL    HW127680   1.519   1.441  15.049  0.4002 -0.0679  1.0044
 5348SOL    HW227681   1.570   1.320  14.983  0.2172  1.2487 -0.7455
 5349SOL     OW27682   4.598   1.038   9.244 -0.5283 -0.2757 -0.1028
 5349SOL    HW127683   4.552   1.121   9.231  2.4048  0.9812 -2.3562
 5349SOL    HW227684   4.687   1.060   9.271 -0.9861 -0.5929  1.6800
 5350SOL     OW27685   3.618   1.825   6.873  0.3110  0.0305  0.0077
 5350SOL    HW127686   3.687   1.782   6.823  2.2160  1.9367  1.0054
 5350SOL    HW227687   3.668   1.842   6.953 -1.8629  0.2517  1.3386
 5351SOL     OW27688   2.723   3.936  13.822  0.1514  0.3122 -0.5562
 5351SOL    HW127689   2.633   3.911  13.842  0.0907  1.7053  0.9604
 5351SOL    HW227690   2.705   4.019  13.779  2.4942  1.2475  0.2794
 5352SOL     OW27691   4.098   3.241   5.377  0.0204  0.2501  0.5209
 5352SOL    HW127692   4.056   3.323   5.404 -1.5050  0.4179 -2.3738
 5352SOL    HW227693   4.095   3.226   5.283  0.4028  2.3176  0.1782
 5353SOL     OW27694   1.679   3.083   8.051  0.2725 -0.2334 -0.2879
 5353SOL    HW127695   1.628   3.149   8.004  0.0556  0.3952  0.8278
 5353SOL    HW227696   1.611   3.023   8.083 -1.2906  1.5984 -0.2141
 5354SOL     OW27697   3.703   3.599  17.374 -0.0541  0.0128 -0.0363
 5354SOL    HW127698   3.705   3.543  17.451 -0.8016  0.6166  0.4267
 5354SOL    HW227699   3.699   3.689  17.408  0.7620  0.8118 -2.0591
 5355SOL     OW27700   3.621   3.622   5.047 -0.4115  0.4844 -0.3352
 5355SOL    HW127701   3.591   3.559   5.112 -0.1581 -0.0407 -0.7210
 5355SOL    HW227702   3.584   3.702   5.086  0.2888  1.5890 -1.9459
 5356SOL     OW27703   2.062   2.665   9.934  0.5115  0.4452 -0.1971
 5356SOL    HW127704   2.091   2.629   9.850  1.4662 -0.0341  0.3465
 5356SOL    HW227705   2.095   2.615  10.008  0.2890 -0.1186 -0.4795
 5357SOL     OW27706   2.465   0.666   3.449 -0.5432  0.1138 -0.6667
 5357SOL    HW127707   2.414   0.736   3.489 -0.8806 -0.8433  0.5898
 5357SOL    HW227708   2.493   0.714   3.371  1.8773  0.6605  0.5746
 5358SOL     OW27709   0.667   3.815   3.059 -0.1622  0.4557 -0.4032
 5358SOL    HW127710   0.737   3.879   3.065 -1.4912  1.8157  0.6362
 5358SOL    HW227711   0.682   3.749   2.991 -2.2930  0.8621 -1.2907
 5359SOL     OW27712   2.398   3.799  10.205 -0.5590 -0.0627 -0.8063
 5359SOL    HW127713   2.368   3.887  10.180 -0.0897  0.1957 -0.4592
 5359SOL    HW227714   2.446   3.826  10.283 -1.9830  1.6014 -0.5064
 5360SOL     OW27715   3.454   2.307   8.357 -0.4340  0.0593  0.3348
 5360SOL    HW127716   3.370   2.352   8.366  0.0891  1.2266 -0.5129
 5360SOL    HW227717   3.512   2.351   8.419  0.7119  0.7494 -1.2107
 5361SOL     OW27718   1.803   1.671   5.993  0.4748 -0.1556  0.2041
 5361SOL    HW127719   1.744   1.747   5.991  0.2256 -0.3383  0.5450
 5361SOL    HW227720   1.830   1.675   6.084  0.0155  0.8228  0.2951
 5362SOL     OW27721   1.303   0.207   1.303 -0.2984  0.0135 -0.1755
 5362SOL    HW127722   1.322   0.214   1.397 -0.1201  1.1696 -0.2956
 5362SOL    HW227723   1.378   0.252   1.264  0.0584  0.4119  0.9806
 5363SOL     OW27724   0.836   2.205   3.653  0.0566  0.1698  0.0995
 5363SOL    HW127725   0.885   2.190   3.572  0.4428 -3.3380  0.9637
 5363SOL    HW227726   0.868   2.133   3.707 -3.0081 -0.8186  0.5538
 5364SOL     OW27727   2.670   1.472   3.005  0.3343  0.0462  0.1199
 5364SOL    HW127728   2.649   1.381   2.982  0.0605 -0.4048  2.1678
 5364SOL    HW227729   2.758   1.458   3.041  0.2990 -0.5003 -0.0116
 5365SOL     OW27730   2.002   1.633   9.524 -0.9093  0.2307 -0.7755
 5365SOL    HW127731   2.071   1.653   9.461  1.0004 -1.9388  0.6372
 5365SOL    HW227732   1.942   1.572   9.480  1.8073 -2.3439 -0.8762
 5366SOL     OW27733   3.207   2.406   9.515  0.0627 -0.0536  0.1932
 5366SOL    HW127734   3.138   2.471   9.526  0.0815  0.0750 -0.4493
 5366SOL    HW227735   3.195   2.374   9.425 -1.4804 -0.6809  0.6376
 5367SOL     OW27736   0.420   1.518   9.434 -0.1857  0.5402  0.0271
 5367SOL    HW127737   0.394   1.430   9.409 -1.7189  1.0075 -0.0155
 5367SOL    HW227738   0.509   1.516   9.399 -0.3018  0.2012 -0.2486
 5368SOL     OW27739   0.723   4.379   2.813  0.5764  0.3592  0.0657
 5368SOL    HW127740   0.681   4.421   2.888 -0.2554  0.1216 -0.2682
 5368SOL    HW227741   0.646   4.344   2.768 -0.1359  2.1168 -0.0858
 5369SOL     OW27742   4.391   1.574  17.038 -0.1755 -0.8142 -0.3969
 5369SOL    HW127743   4.464   1.579  17.100  1.4221 -0.2556 -2.3593
 5369SOL    HW227744   4.317   1.556  17.097 -0.2476 -0.3460 -0.3382
 5370SOL     OW27745   3.724   3.238   1.941 -0.5616  0.5243 -0.3373
 5370SOL    HW127746   3.797   3.185   1.974  0.0604  1.2334 -0.5928
 5370SOL    HW227747   3.727   3.319   1.991 -1.0579  2.2537 -3.1231
 5371SOL     OW27748   2.308   4.140   8.716 -0.1425  0.2293  0.0722
 5371SOL    HW127749   2.389   4.177   8.680  0.1316  1.3062  1.7953
 5371SOL    HW227750   2.254   4.105   8.646 -0.2761 -0.8401  0.7097
 5372SOL     OW27751   3.190   1.406   9.188  0.2196 -0.6120 -0.3755
 5372SOL    HW127752   3.257   1.403   9.120 -1.2572  1.4044 -1.9031
 5372SOL    HW227753   3.249   1.401   9.263  0.5862 -1.1230 -0.6954
 5373SOL     OW27754   1.004   3.433   4.233  0.3018  0.2159 -0.3052
 5373SOL    HW127755   0.975   3.366   4.170 -0.5540  0.5845 -0.2975
 5373SOL    HW227756   1.056   3.492   4.178 -0.4405  0.2675 -0.9585
 5374SOL     OW27757   2.371   3.818  12.225 -0.2197  0.1982 -0.3575
 5374SOL    HW127758   2.446   3.876  12.211 -0.0130  0.1620  0.6184
 5374SOL    HW227759   2.292   3.868  12.203 -0.4430 -1.6548 -3.8133
 5375SOL     OW27760   1.899   1.112   7.966 -0.6840 -0.1326  0.0772
 5375SOL    HW127761   1.958   1.187   7.967 -0.3513 -0.4399  2.9712
 5375SOL    HW227762   1.878   1.108   8.059 -0.4733 -1.3902  0.0701
 5376SOL     OW27763   0.482   3.109   2.394 -0.5765  0.0369 -0.3212
 5376SOL    HW127764   0.396   3.149   2.403 -0.9070 -0.8096  0.2460
 5376SOL    HW227765   0.467   3.016   2.376 -1.6247  0.2913 -0.7159
 5377SOL     OW27766   3.510   3.811  16.532 -0.8852 -0.1454 -0.4288
 5377SOL    HW127767   3.491   3.860  16.612  1.1682 -0.0727  0.0134
 5377SOL    HW227768   3.507   3.883  16.469  1.3569 -0.3791 -0.8073
 5378SOL     OW27769   4.589   2.929   4.743  0.1993 -0.2410 -0.3040
 5378SOL    HW127770   4.551   2.896   4.662  2.4428 -0.1349 -1.3783
 5378SOL    HW227771   4.626   3.016   4.728 -2.8127  1.4893  2.2725
 5379SOL     OW27772   4.701   2.577  15.955 -0.1913 -0.1652  0.2590
 5379SOL    HW127773   4.697   2.672  15.963  0.3409 -0.1895  0.7936
 5379SOL    HW227774   0.043   2.568  15.891  0.3327 -1.1054  0.9842
 5380SOL     OW27775   1.064   0.467   4.399 -0.5284 -0.5369 -0.7084
 5380SOL    HW127776   1.095   0.409   4.469  0.0748 -0.4436 -0.8958
 5380SOL    HW227777   1.067   0.555   4.437  1.5654 -0.5042 -0.9255
 5381SOL     OW27778   2.202   4.469   5.413 -0.1046 -0.2114 -0.1897
 5381SOL    HW127779   2.220   4.388   5.366 -1.3684 -0.4044 -0.3382
 5381SOL    HW227780   2.286   4.509   5.390 -0.4837  0.7975  0.1793
 5382SOL     OW27781   1.857   0.182   9.160 -0.1102 -0.4879  0.4004
 5382SOL    HW127782   1.763   0.170   9.176 -1.0652  3.2977 -2.3771
 5382SOL    HW227783   1.864   0.277   9.160  0.1634 -0.5074  0.3344
 5383SOL     OW27784   2.577   0.193  13.477 -0.0450  0.4132 -0.5940
 5383SOL    HW127785   2.602   0.285  13.480  0.7461  0.1610  0.2441
 5383SOL    HW227786   2.651   0.138  13.452  0.8858  2.0481 -1.4587
 5384SOL     OW27787   2.148   1.877   7.131  0.6538 -0.2608  0.1616
 5384SOL    HW127788   2.215   1.879   7.199  1.6781  0.8718 -0.8855
 5384SOL    HW227789   2.068   1.851   7.178  0.8015  2.4872  1.9701
 5385SOL     OW27790   1.855   2.190   4.822  0.4864  0.2389 -0.3890
 5385SOL    HW127791   1.797   2.218   4.752  0.1349 -0.5046 -0.3890
 5385SOL    HW227792   1.946   2.200   4.794 -0.4455 -0.0301 -3.5072
 5386SOL     OW27793   2.586   2.305   2.526  0.2703 -0.0558 -0.2224
 5386SOL    HW127794   2.618   2.247   2.457  0.4516  0.0528 -0.2309
 5386SOL    HW227795   2.638   2.383   2.507  0.6958 -0.1849  0.4046
 5387SOL     OW27796   0.073   3.137   5.045 -0.4133 -0.5825 -0.1634
 5387SOL    HW127797   0.065   3.130   4.950  0.8014 -3.0387 -0.0715
 5387SOL    HW227798   0.116   3.222   5.054  0.9434 -1.2617 -0.2421
 5388SOL     OW27799   3.298   4.692   2.990 -0.4484 -0.4811 -0.4268
 5388SOL    HW127800   3.270   4.716   2.901 -1.0147  3.8945  0.8853
 5388SOL    HW227801   3.370   0.024   3.005 -0.1602 -0.6027 -1.3265
 5389SOL     OW27802   2.149   2.438   6.557  0.7051  0.4585 -0.1255
 5389SOL    HW127803   2.213   2.508   6.570 -0.9039  1.2602  3.3723
 5389SOL    HW227804   2.067   2.487   6.561  0.3824 -0.3221  2.5548
 5390SOL     OW27805   1.162   2.576   6.390 -0.9078  0.1993 -1.0182
 5390SOL    HW127806   1.202   2.598   6.306  1.1644  0.4648  0.0452
 5390SOL    HW227807   1.239   2.536   6.430 -0.1979 -1.4542 -4.0198
 5391SOL     OW27808   2.645   3.647   3.821  0.0443 -0.0941  0.1356
 5391SOL    HW127809   2.620   3.712   3.887 -4.0577 -1.4493 -0.0978
 5391SOL    HW227810   2.725   3.688   3.788 -0.2002  2.6689  2.9058
 5392SOL     OW27811   3.063   2.821  15.782 -0.3192  0.4081  0.1569
 5392SOL    HW127812   3.157   2.815  15.765  0.0207  2.2681  1.4445
 5392SOL    HW227813   3.036   2.904  15.741 -0.7528  0.8337  1.3171
 5393SOL     OW27814   1.386   2.876  10.965 -0.3721 -0.4997  0.1050
 5393SOL    HW127815   1.407   2.835  11.049  2.0661 -0.8735 -0.6879
 5393SOL    HW227816   1.379   2.966  10.996  2.3138  0.1584 -1.2320
 5394SOL     OW27817   2.282   3.029   9.010  0.4570  0.1266  0.2237
 5394SOL    HW127818   2.191   3.007   8.989  0.0043  0.3641  1.8896
 5394SOL    HW227819   2.309   3.111   8.967 -0.1692  0.2567  0.0774
 5395SOL     OW27820   3.347   1.189  11.513  0.2834 -0.2123 -0.0227
 5395SOL    HW127821   3.315   1.254  11.576  2.1195 -0.4068  1.1261
 5395SOL    HW227822   3.441   1.208  11.512  0.0339  0.9719 -0.4016
 5396SOL     OW27823   1.569   2.350   7.060 -0.1061 -0.6046  0.6892
 5396SOL    HW127824   1.615   2.304   7.131 -1.9162  0.1825  2.3903
 5396SOL    HW227825   1.503   2.402   7.107  0.5727 -1.4399  2.5847
 5397SOL     OW27826   0.403   3.415  11.307  0.4400  0.0022  0.3224
 5397SOL    HW127827   0.492   3.411  11.272 -0.4438 -2.2735 -1.6889
 5397SOL    HW227828   0.411   3.360  11.385 -1.1066 -0.5009  0.1288
 5398SOL     OW27829   2.571   3.952   8.838 -0.5560  0.0980 -0.3992
 5398SOL    HW127830   2.570   3.935   8.932  1.6453 -1.7699 -0.7072
 5398SOL    HW227831   2.490   3.906   8.817 -1.2066  0.3643  1.5836
 5399SOL     OW27832   4.621   2.508  10.369  0.6890  0.4695 -0.3315
 5399SOL    HW127833   4.618   2.511  10.465 -0.4580 -0.6175 -0.3281
 5399SOL    HW227834   4.583   2.422  10.349  1.1118  0.5689 -1.5537
 5400SOL     OW27835   2.706   1.623   5.229 -0.0832  0.0141  0.0640
 5400SOL    HW127836   2.667   1.710   5.216 -3.3982 -1.7223 -1.6439
 5400SOL    HW227837   2.716   1.601   5.136 -0.7391  1.8158 -0.4315
 5401SOL     OW27838   2.111   2.713   8.751 -0.3762 -0.1209 -0.3522
 5401SOL    HW127839   2.043   2.692   8.687  1.8026 -2.0016 -2.0128
 5401SOL    HW227840   2.066   2.735   8.833  1.6999 -0.7514  0.9578
 5402SOL     OW27841   0.187   0.439   7.030  0.0018  0.2911 -0.0555
 5402SOL    HW127842   0.147   0.401   7.108 -0.3511  0.6876 -0.0397
 5402SOL    HW227843   0.248   0.503   7.066 -1.8906  0.6173  2.5435
 5403SOL     OW27844   2.251   3.740   4.880 -0.6856 -0.4264  0.1349
 5403SOL    HW127845   2.345   3.735   4.863 -0.5307  1.0620  0.5493
 5403SOL    HW227846   2.253   3.753   4.975  1.0583 -0.9482  0.1681
 5404SOL     OW27847   4.631   4.207   3.569  1.0075 -0.0001 -0.2438
 5404SOL    HW127848   4.653   4.288   3.616 -1.5945 -0.2960  1.4648
 5404SOL    HW227849   4.545   4.226   3.531  0.9909 -1.7007 -1.0428
 5405SOL     OW27850   3.035   4.292   2.694 -0.1835 -0.4168 -0.2899
 5405SOL    HW127851   3.032   4.387   2.704  2.4350 -0.2180 -1.3179
 5405SOL    HW227852   2.983   4.265   2.770  0.0133  1.0662  0.3681
 5406SOL     OW27853   1.852   0.329   1.348 -0.0341  0.4580  0.1332
 5406SOL    HW127854   1.858   0.423   1.330  2.3347  0.7295  2.4451
 5406SOL    HW227855   1.878   0.331   1.440  0.0872  0.5096  0.0974
 5407SOL     OW27856   4.504   1.289   5.272  0.3856  0.0795  0.1551
 5407SOL    HW127857   4.588   1.325   5.244  0.4635  0.0865  0.4013
 5407SOL    HW227858   4.463   1.259   5.191  1.1890  2.0290 -0.9696
 5408SOL     OW27859   4.122   0.747   7.606 -0.6285 -0.0778  0.0374
 5408SOL    HW127860   4.147   0.764   7.697  0.5306  1.0986 -0.5165
 5408SOL    HW227861   4.026   0.750   7.605 -0.6376  0.1209  1.2402
 5409SOL     OW27862   0.243   1.151   1.379  0.3515  0.1579 -0.1235
 5409SOL    HW127863   0.154   1.149   1.413  0.5534 -0.9275  0.3404
 5409SOL    HW227864   0.223   1.179   1.290  0.1122  1.5071  0.3592
 5410SOL     OW27865   1.278   1.654   4.027 -0.4756 -1.5070  0.1680
 5410SOL    HW127866   1.313   1.720   4.087 -1.9091 -0.1572 -0.4691
 5410SOL    HW227867   1.192   1.695   4.017  0.5809  0.6578 -0.0308
 5411SOL     OW27868   1.650   1.762   3.873  0.2886  0.1743  0.4144
 5411SOL    HW127869   1.593   1.719   3.936  1.2789  0.8599  1.7782
 5411SOL    HW227870   1.736   1.761   3.917  1.2965 -0.1898 -1.5710
 5412SOL     OW27871   1.104   1.982  14.530  0.3148 -0.3582 -0.3104
 5412SOL    HW127872   1.053   2.032  14.593 -1.3720 -1.3978 -0.8380
 5412SOL    HW227873   1.136   1.908  14.581  5.2256  2.0107  0.0466
 5413SOL     OW27874   2.729   1.370   4.431  0.4789  0.7557 -0.1368
 5413SOL    HW127875   2.740   1.276   4.449  1.1166  1.0115  0.8526
 5413SOL    HW227876   2.820   1.386   4.407 -0.0719  2.0838 -1.3103
 5414SOL     OW27877   0.874   3.143  16.264 -0.1785 -0.3912 -0.6433
 5414SOL    HW127878   0.791   3.185  16.243 -0.4124 -1.4752 -1.8948
 5414SOL    HW227879   0.849   3.051  16.260 -0.6485 -0.3156  0.4744
 5415SOL     OW27880   3.966   3.491   5.401  0.0810  0.1643  0.3884
 5415SOL    HW127881   3.898   3.475   5.466  1.1683 -0.4646  1.3888
 5415SOL    HW227882   3.918   3.546   5.340  0.7148 -1.0649 -1.2203
 5416SOL     OW27883   1.828   2.740   0.566  0.0030  0.4770 -0.0761
 5416SOL    HW127884   1.827   2.825   0.522 -3.7067  0.0594 -0.7236
 5416SOL    HW227885   1.766   2.755   0.637 -1.0371 -0.7177 -0.7349
 5417SOL     OW27886   4.700   4.223  16.817  0.2782 -0.1696 -1.0648
 5417SOL    HW127887   0.065   4.213  16.804  0.2403  0.1353 -1.5755
 5417SOL    HW227888   4.662   4.136  16.803  2.8983 -1.3580 -0.8503
 5418SOL     OW27889   0.277   1.177   3.547  0.9996  0.0265  0.6641
 5418SOL    HW127890   0.311   1.210   3.464 -0.4575 -1.1491 -0.4024
 5418SOL    HW227891   0.248   1.262   3.580 -4.0741 -1.2941 -0.3228
 5419SOL     OW27892   3.081   0.990  16.438  0.4659 -0.6902  0.2606
 5419SOL    HW127893   3.155   0.956  16.389  1.9797  0.1323  1.9798
 5419SOL    HW227894   3.086   1.083  16.416 -3.0999 -0.7340 -0.7893
 5420SOL     OW27895   4.465   2.083   9.366 -0.2180  0.8240  0.0129
 5420SOL    HW127896   4.377   2.120   9.362  0.2246  1.8796  0.0915
 5420SOL    HW227897   4.496   2.102   9.454  2.3718  0.1555 -0.7298
 5421SOL     OW27898   3.274   0.014   2.461  0.5815  0.2021  0.7936
 5421SOL    HW127899   3.295   4.678   2.395  0.4758  0.0446  0.9180
 5421SOL    HW227900   3.358   0.061   2.454  2.0478 -2.4753  0.3727
 5422SOL     OW27901   3.701   1.948   8.682 -0.0778  0.2875 -0.0278
 5422SOL    HW127902   3.652   2.029   8.694  0.5048  0.9353 -1.9571
 5422SOL    HW227903   3.783   1.975   8.641 -0.2296 -0.2368 -0.6875
 5423SOL     OW27904   1.020   2.107   4.341  0.2138 -0.3381  0.2311
 5423SOL    HW127905   1.080   2.045   4.383 -0.6473 -1.2009  0.1932
 5423SOL    HW227906   0.942   2.052   4.333 -0.6422  0.9839 -0.4717
 5424SOL     OW27907   4.123   0.775  10.568 -0.1350  0.1019  0.1047
 5424SOL    HW127908   4.050   0.836  10.564  0.8764  1.3781  0.9048
 5424SOL    HW227909   4.144   0.769  10.475  2.3429 -0.8538  0.7173
 5425SOL     OW27910   2.709   4.695   4.478  0.1521 -0.2412 -0.0242
 5425SOL    HW127911   2.756   4.612   4.477  0.4418 -0.0825  0.5596
 5425SOL    HW227912   2.670   4.700   4.390 -0.8568 -0.0614  0.4253
 5426SOL     OW27913   3.819   4.533   6.920  0.3570  0.3511 -0.0268
 5426SOL    HW127914   3.775   4.590   6.983  0.7803  1.5139 -0.7964
 5426SOL    HW227915   3.819   4.586   6.840 -1.3531 -0.2469 -0.4246
 5427SOL     OW27916   3.035   3.589   1.586 -0.3928 -0.3588 -0.1126
 5427SOL    HW127917   3.095   3.592   1.660 -0.5460  0.8504 -0.0350
 5427SOL    HW227918   3.006   3.498   1.579 -0.7224 -0.1814 -1.0784
 5428SOL     OW27919   0.522   0.892   2.964  0.2461  0.1912  0.2875
 5428SOL    HW127920   0.597   0.853   2.920  1.1323  1.0058  1.0586
 5428SOL    HW227921   0.527   0.852   3.051  1.1012 -2.9490 -1.2026
 5429SOL     OW27922   4.596   2.878  16.213  0.2315 -0.0829 -0.1929
 5429SOL    HW127923   4.604   2.831  16.130 -1.9524 -0.5782 -0.1345
 5429SOL    HW227924   4.515   2.928  16.203 -0.0866 -0.6943 -0.7097
 5430SOL     OW27925   0.342   0.104   1.375 -0.1964  0.5953  0.3625
 5430SOL    HW127926   0.406   0.080   1.443  0.0837  0.1753 -0.0522
 5430SOL    HW227927   0.369   0.031   1.319 -1.9722 -0.0301  0.3514
 5431SOL     OW27928   0.640   2.190   1.132  0.1998 -0.3013  0.2927
 5431SOL    HW127929   0.655   2.128   1.204 -0.4866  0.7779  1.3654
 5431SOL    HW227930   0.545   2.207   1.131  0.5990  1.9492  0.7333
 5432SOL     OW27931   2.089   2.077  11.867  0.3082  0.0554 -0.0107
 5432SOL    HW127932   2.053   1.990  11.886  0.9160 -0.3904 -0.8840
 5432SOL    HW227933   2.054   2.126  11.941 -1.1090 -2.2014  0.8147
 5433SOL     OW27934   4.667   1.087   7.411 -0.3358 -0.1042  0.8943
 5433SOL    HW127935   4.591   1.131   7.449  0.7600 -1.1115  4.1685
 5433SOL    HW227936   4.633   1.064   7.324  0.3838  0.2286  0.5248
 5434SOL     OW27937   0.127   0.713   9.622  0.3853  0.0492  0.2501
 5434SOL    HW127938   0.083   0.744   9.542  1.9284 -0.4042 -0.7667
 5434SOL    HW227939   0.177   0.792   9.639 -0.0934  0.4632 -0.2506
 5435SOL     OW27940   3.093   0.335   7.053  0.4402  0.4852 -0.5825
 5435SOL    HW127941   3.145   0.385   6.990  2.8613 -1.5527 -0.2046
 5435SOL    HW227942   3.059   0.272   6.990  2.3299 -0.5832 -0.5456
 5436SOL     OW27943   3.850   0.304   4.376  0.5781  0.1668 -0.4816
 5436SOL    HW127944   3.827   0.246   4.448 -1.4451 -0.2472 -1.4399
 5436SOL    HW227945   3.933   0.340   4.406  0.1126  0.7792  0.0776
 5437SOL     OW27946   0.571   2.436   2.948  0.2200 -0.4642  1.0201
 5437SOL    HW127947   0.603   2.456   2.860 -1.6698  1.1173  0.7142
 5437SOL    HW227948   0.620   2.503   2.996  1.2876 -0.6712  0.2232
 5438SOL     OW27949   0.018   3.088  10.086 -0.1697  0.0290  0.6047
 5438SOL    HW127950   0.069   3.112  10.009  0.1638 -0.2361  0.7460
 5438SOL    HW227951   0.050   3.158  10.142 -1.4060  0.3232  0.9548
 5439SOL     OW27952   0.621   3.674   4.969  0.4736 -0.7517  0.5548
 5439SOL    HW127953   0.649   3.755   4.925 -0.6769 -0.9822 -0.6063
 5439SOL    HW227954   0.672   3.683   5.049  0.8609  1.0547  0.0985
 5440SOL     OW27955   4.002   4.531  10.828 -0.2376 -0.2262 -0.1115
 5440SOL    HW127956   4.015   4.608  10.884  1.6498 -0.5451 -0.0880
 5440SOL    HW227957   4.015   4.562  10.739  0.7818 -1.6840 -0.4897
 5441SOL     OW27958   4.035   4.718   6.310  0.3451 -0.1589  0.1250
 5441SOL    HW127959   4.058   0.011   6.220  1.4147  0.0330  0.4370
 5441SOL    HW227960   4.081   0.060   6.356  1.0754 -1.3058  1.1652
 5442SOL     OW27961   4.350   1.695   6.671  0.5692  0.1999 -0.3813
 5442SOL    HW127962   4.353   1.758   6.600 -0.1603  0.5504 -0.0945
 5442SOL    HW227963   4.294   1.628   6.632  1.8977 -1.3561  0.3474
 5443SOL     OW27964   2.670   4.521   0.229  0.1525  0.0486 -0.0128
 5443SOL    HW127965   2.633   4.433   0.230  0.1382  0.0594  0.3332
 5443SOL    HW227966   2.589   4.571   0.222 -0.7427 -1.1640  1.9054
 5444SOL     OW27967   3.676   2.407  10.455 -0.3631  1.0284 -0.7237
 5444SOL    HW127968   3.683   2.366  10.369  2.4402 -0.4539  0.1977
 5444SOL    HW227969   3.743   2.476  10.452 -0.8811  1.5935  0.6461
 5445SOL     OW27970   2.586   2.663   3.133 -0.3458 -0.1171 -0.2135
 5445SOL    HW127971   2.561   2.579   3.171 -1.0470  0.3417  0.3352
 5445SOL    HW227972   2.630   2.625   3.056 -2.9683  0.8537 -2.2119
 5446SOL     OW27973   1.555   0.947   7.118  0.2178  0.5267 -0.1180
 5446SOL    HW127974   1.547   0.853   7.102  0.4825  0.6447 -0.9426
 5446SOL    HW227975   1.570   0.984   7.031  1.0199 -0.1644 -0.2676
 5447SOL     OW27976   0.125   3.170   9.192 -0.2815  0.2469 -0.5802
 5447SOL    HW127977   0.186   3.139   9.125 -1.0961  0.3309 -1.3590
 5447SOL    HW227978   0.164   3.256   9.207 -1.9386  1.1509 -1.4749
 5448SOL     OW27979   2.997   0.890  11.331  0.0109  0.1082 -0.0287
 5448SOL    HW127980   3.072   0.873  11.387 -1.8756  0.6610  2.6392
 5448SOL    HW227981   2.922   0.839  11.363  0.9736  0.1548  2.3035
 5449SOL     OW27982   3.660   3.859   7.658 -0.3662 -0.4261  0.0948
 5449SOL    HW127983   3.690   3.939   7.615 -1.5671 -0.7050 -1.2436
 5449SOL    HW227984   3.740   3.806   7.648 -0.5487 -0.9643  1.4999
 5450SOL     OW27985   2.543   0.600   3.891  0.7667 -0.2928  0.0178
 5450SOL    HW127986   2.526   0.561   3.977 -0.6567  1.4044  0.5005
 5450SOL    HW227987   2.504   0.527   3.842 -0.0724  0.6777 -0.7421
 5451SOL     OW27988   1.931   3.751   2.013  0.1331  0.6446  0.4808
 5451SOL    HW127989   1.854   3.703   1.983 -2.5944  3.7983  2.4357
 5451SOL    HW227990   1.956   3.795   1.932 -0.7984 -1.3615 -0.8913
 5452SOL     OW27991   4.017   1.276   4.562  0.5773  0.1279 -0.0187
 5452SOL    HW127992   3.972   1.335   4.623  0.7741  0.4229 -0.1568
 5452SOL    HW227993   3.973   1.300   4.480 -2.3719  0.5538  1.6833
 5453SOL     OW27994   0.081   3.964   9.249  0.3470 -0.0580  0.7354
 5453SOL    HW127995   0.123   3.965   9.334  0.6784  0.0997  0.5695
 5453SOL    HW227996   0.101   4.052   9.217 -2.2814  0.7665  1.3369
 5454SOL     OW27997   1.894   4.446   2.645 -0.1575 -0.6502 -0.4577
 5454SOL    HW127998   1.880   4.540   2.659  2.0050 -0.5142  0.7672
 5454SOL    HW227999   1.964   4.454   2.580 -0.2504 -1.8967 -0.7040
 5455SOL     OW28000   1.679   2.528  12.140  0.1699  0.1125  1.1117
 5455SOL    HW128001   1.648   2.619  12.137  2.0762  0.8108  2.3086
 5455SOL    HW228002   1.606   2.481  12.101  2.7075 -1.6339 -1.4797
 5456SOL     OW28003   1.661   3.269   9.439  0.4000 -0.2062  0.0116
 5456SOL    HW128004   1.707   3.190   9.467  1.2039  0.1166 -0.3937
 5456SOL    HW228005   1.706   3.325   9.501  1.7246  0.6468 -1.7156
 5457SOL     OW28006   0.448   3.839   7.523 -0.2805 -0.2486 -0.2378
 5457SOL    HW128007   0.397   3.827   7.443 -0.5335 -0.7447  0.0005
 5457SOL    HW228008   0.430   3.756   7.566  3.0968 -0.1956  1.2598
 5458SOL     OW28009   4.332   4.593   3.702  0.1370 -0.0911 -0.1013
 5458SOL    HW128010   4.268   4.588   3.773  0.3675  1.4789  0.2277
 5458SOL    HW228011   4.395   4.528   3.732  0.9489  1.5218  1.6666
 5459SOL     OW28012   1.883   1.963  10.154 -0.9142  0.0694 -0.1179
 5459SOL    HW128013   1.950   1.909  10.196 -0.1392  1.0308 -0.1056
 5459SOL    HW228014   1.885   1.929  10.065 -1.6656 -0.8558  0.2237
 5460SOL     OW28015   3.446   4.078   7.727 -0.1196 -0.1159  0.1769
 5460SOL    HW128016   3.515   4.029   7.771  0.9603 -0.0117 -1.3871
 5460SOL    HW228017   3.474   4.072   7.635 -0.4388 -0.0236  0.0713
 5461SOL     OW28018   4.063   1.112   6.214  0.3607 -0.1156 -0.1135
 5461SOL    HW128019   3.999   1.157   6.159 -0.5836 -2.0430 -0.5862
 5461SOL    HW228020   4.047   1.163   6.294 -2.5373 -2.6777  0.9224
 5462SOL     OW28021   2.546   0.867   3.235  0.1932  0.5721 -0.3728
 5462SOL    HW128022   2.457   0.885   3.206  0.4415  1.2753 -0.6800
 5462SOL    HW228023   2.582   0.822   3.159  0.6009 -0.8389  0.6450
 5463SOL     OW28024   1.393   4.005  15.703 -0.2383  0.2359 -0.0874
 5463SOL    HW128025   1.476   3.960  15.719 -0.3324 -0.3891 -1.2943
 5463SOL    HW228026   1.346   3.933  15.661  1.2261 -0.4224 -0.5997
 5464SOL     OW28027   1.078   1.144  15.425 -0.0683 -0.0648 -0.3101
 5464SOL    HW128028   0.985   1.160  15.442  0.4228  1.6790  0.8457
 5464SOL    HW228029   1.084   1.164  15.332 -2.6491  0.3658 -0.3789
 5465SOL     OW28030   2.073   3.793   7.957  0.2034  0.4285 -0.0840
 5465SOL    HW128031   2.168   3.806   7.957  0.3013 -0.2142 -2.9499
 5465SOL    HW228032   2.055   3.712   8.004 -0.2314  0.0513 -0.8847
 5466SOL     OW28033   3.294   2.103   6.962 -0.7253  0.4309 -1.1249
 5466SOL    HW128034   3.302   2.032   6.898 -2.1303  0.5500 -1.4382
 5466SOL    HW228035   3.257   2.056   7.037  0.2442  2.7660  0.8282
 5467SOL     OW28036   1.439   1.804   4.187 -0.2922  0.0172 -0.5457
 5467SOL    HW128037   1.507   1.754   4.231 -2.4711 -3.4880 -1.2024
 5467SOL    HW228038   1.394   1.845   4.262 -0.1311 -0.8092 -0.0019
 5468SOL     OW28039   1.668   0.600   4.516  0.1910 -0.0851  0.1961
 5468SOL    HW128040   1.586   0.645   4.497  1.6134  2.6368  0.4386
 5468SOL    HW228041   1.631   0.515   4.536 -1.7132  1.1230  1.8614
 5469SOL     OW28042   2.452   4.075   1.622 -0.5478  0.7684  0.2046
 5469SOL    HW128043   2.429   3.995   1.668  1.6980  0.4033  0.6916
 5469SOL    HW228044   2.417   4.134   1.689 -0.6904  0.8280  0.0786
 5470SOL     OW28045   2.972   0.234   8.313  0.0171  0.1894 -0.0038
 5470SOL    HW128046   3.007   0.323   8.317  1.3714 -0.2935 -1.1482
 5470SOL    HW228047   3.050   0.182   8.331 -0.1216 -0.7287 -1.9878
 5471SOL     OW28048   4.726   4.643   9.405 -0.5782  0.1908 -0.0439
 5471SOL    HW128049   4.702   4.709   9.340 -0.9347  0.6986  0.6104
 5471SOL    HW228050   0.093   4.647   9.397 -0.4563 -2.2810  0.1444
 5472SOL     OW28051   3.645   3.078  17.713  0.3168 -0.3923 -0.3505
 5472SOL    HW128052   3.563   3.117   0.025 -1.1315 -2.6055 -1.4373
 5472SOL    HW228053   3.678   3.054   0.083  0.5214  0.8219 -0.0934
 5473SOL     OW28054   0.673   0.214   7.130  0.2125 -0.6566 -0.4157
 5473SOL    HW128055   0.635   0.209   7.042  1.1950 -0.2374 -0.8683
 5473SOL    HW228056   0.594   0.246   7.173  1.1268  0.6200  0.3006
 5474SOL     OW28057   3.830   1.707  15.074 -0.4098  0.0474  0.3745
 5474SOL    HW128058   3.926   1.714  15.067 -0.0973 -4.1854  0.2772
 5474SOL    HW228059   3.808   1.669  14.989 -1.9052  1.2074  0.2330
 5475SOL     OW28060   1.247   3.673   9.293 -0.0821  0.1556 -0.1407
 5475SOL    HW128061   1.315   3.607   9.280  0.7473  1.4324 -2.2425
 5475SOL    HW228062   1.245   3.708   9.382 -0.4996 -2.7414  0.9849
 5476SOL     OW28063   2.553   4.225   4.645 -0.7299 -0.5685  0.1104
 5476SOL    HW128064   2.474   4.276   4.657  0.5746  1.4966 -0.1215
 5476SOL    HW228065   2.545   4.154   4.708  2.8541 -0.4903  0.6907
 5477SOL     OW28066   2.980   4.502   6.501 -0.1029  0.0821  0.1158
 5477SOL    HW128067   2.949   4.536   6.585  1.5168  3.5122 -0.6625
 5477SOL    HW228068   3.029   4.423   6.523 -3.3635 -1.9612  0.1094
 5478SOL     OW28069   3.583   1.586   3.273  0.2425 -0.2457 -0.0347
 5478SOL    HW128070   3.590   1.551   3.362 -2.2134 -0.4096  0.0994
 5478SOL    HW228071   3.499   1.628   3.290 -0.0167  0.4526 -3.0424
 5479SOL     OW28072   0.617   4.159  11.595 -0.4977  0.1782  0.2632
 5479SOL    HW128073   0.532   4.146  11.637 -1.1716  0.5445 -1.0192
 5479SOL    HW228074   0.639   4.248  11.622 -2.1722  0.3775  0.9720
 5480SOL     OW28075   2.092   2.279   7.264  0.1565 -0.0335 -0.1969
 5480SOL    HW128076   2.038   2.228   7.325  0.6406 -0.6281 -0.2661
 5480SOL    HW228077   2.051   2.365   7.270 -0.0395 -0.0716 -0.9668
 5481SOL     OW28078   1.567   0.992  13.258  0.3593 -0.6170 -0.0689
 5481SOL    HW128079   1.595   0.977  13.348  0.3609 -1.1631 -0.1619
 5481SOL    HW228080   1.493   1.046  13.286  0.5905 -0.9838  1.2350
 5482SOL     OW28081   1.917   0.665   2.925  0.4837 -0.0358 -0.1867
 5482SOL    HW128082   1.904   0.584   2.876 -0.8479 -0.0017  0.1075
 5482SOL    HW228083   1.855   0.646   2.996 -0.4797  1.2380 -0.6860
 5483SOL     OW28084   4.151   2.899  12.936  0.0998  0.1536 -0.0510
 5483SOL    HW128085   4.142   2.809  12.904  1.8853  0.4493 -1.3659
 5483SOL    HW228086   4.062   2.932  12.923 -0.3535 -0.2219  2.0346
 5484SOL     OW28087   1.060   3.971   8.144 -0.1951  0.1699 -0.8037
 5484SOL    HW128088   0.990   3.974   8.210  0.7059  1.2142  0.1087
 5484SOL    HW228089   1.028   3.905   8.083  1.0702 -1.6547  0.5046
 5485SOL     OW28090   1.323   0.504   8.234 -0.2795 -0.2290  0.2837
 5485SOL    HW128091   1.254   0.567   8.249 -1.1861 -0.9358 -0.9274
 5485SOL    HW228092   1.293   0.436   8.295 -2.8870 -1.5110 -2.4738
 5486SOL     OW28093   3.321   2.535   1.723 -0.5962  0.6003 -0.1286
 5486SOL    HW128094   3.394   2.517   1.664  0.0709  0.2201  0.7930
 5486SOL    HW228095   3.341   2.480   1.800  0.8486 -0.0881 -0.9923
 5487SOL     OW28096   1.631   3.868   2.019  0.0097  0.4259  0.0506
 5487SOL    HW128097   1.604   3.847   1.929 -0.2554 -2.8632  0.9239
 5487SOL    HW228098   1.597   3.788   2.058  1.1860 -0.4877 -0.7710
 5488SOL     OW28099   1.505   2.644   8.375 -0.1252  0.4790 -0.3543
 5488SOL    HW128100   1.449   2.688   8.438 -1.4945 -1.2077 -0.3862
 5488SOL    HW228101   1.542   2.568   8.420 -0.0254  0.3346 -0.6747
 5489SOL     OW28102   1.300   3.697   1.466 -0.2546  0.1904  0.2075
 5489SOL    HW128103   1.322   3.664   1.553  1.2597 -0.0223 -0.2547
 5489SOL    HW228104   1.350   3.642   1.405 -1.1793 -1.1630  0.6815
 5490SOL     OW28105   1.404   0.917  11.451 -0.2983  0.1232 -0.0937
 5490SOL    HW128106   1.495   0.889  11.458 -0.1491  0.9819  1.3375
 5490SOL    HW228107   1.369   0.843  11.500  0.0330 -1.4807 -2.2483
 5491SOL     OW28108   0.419   1.313   4.677  0.1664  0.3095 -0.1418
 5491SOL    HW128109   0.374   1.290   4.758  0.6491 -0.1866 -0.0147
 5491SOL    HW228110   0.341   1.348   4.634 -0.2997  1.0604  1.3536
 5492SOL     OW28111   1.586   3.256  11.827 -0.6806  0.2483  0.6068
 5492SOL    HW128112   1.661   3.204  11.859 -0.4220  0.5342  0.4604
 5492SOL    HW228113   1.577   3.322  11.896  0.8455  0.7753  0.2993
 5493SOL     OW28114   1.358   2.357   4.079  0.3086  0.2400 -0.5445
 5493SOL    HW128115   1.297   2.284   4.065 -0.0322  0.4110  0.0283
 5493SOL    HW228116   1.306   2.436   4.091  2.1303  1.1447  1.3447
 5494SOL     OW28117   1.435   1.964   2.330  0.6214 -0.4999 -0.1000
 5494SOL    HW128118   1.427   1.982   2.424 -0.7738  1.0252 -0.5018
 5494SOL    HW228119   1.511   2.016   2.304  1.1852 -0.1396  2.2742
 5495SOL     OW28120   0.418   2.825   2.415 -0.0952 -0.3523  0.1425
 5495SOL    HW128121   0.493   2.773   2.389  1.6053  1.3901  1.5716
 5495SOL    HW228122   0.348   2.775   2.374  0.4375 -1.5935  0.7545
 5496SOL     OW28123   3.401   1.419   0.076 -0.5796 -0.0811  0.6208
 5496SOL    HW128124   3.375   1.511   0.073 -0.2222 -0.0336 -0.9606
 5496SOL    HW228125   3.353   1.387   0.153 -0.1255 -1.3025  0.3893
 5497SOL     OW28126   3.630   2.995   8.970 -0.1582  0.0797  0.2329
 5497SOL    HW128127   3.653   3.082   8.937 -0.6361 -0.3167 -1.1435
 5497SOL    HW228128   3.626   3.004   9.065 -0.4392  0.4313  0.1883
 5498SOL     OW28129   4.175   0.054   2.940 -0.2373 -0.5691  0.1205
 5498SOL    HW128130   4.120   4.720   2.987  0.7684 -0.2171  1.7909
 5498SOL    HW228131   4.229   0.085   3.012 -0.9387 -1.9049  1.2262
 5499SOL     OW28132   3.866   2.794   6.541 -0.4380 -0.9150 -0.1145
 5499SOL    HW128133   3.949   2.828   6.572 -0.5847  0.6138 -1.4007
 5499SOL    HW228134   3.858   2.723   6.605 -2.0174 -0.8961 -0.2840
 5500SOL     OW28135   4.675   0.697   3.753 -0.0638 -0.3237  0.2109
 5500SOL    HW128136   4.720   0.631   3.701  1.4363 -0.5251  1.7848
 5500SOL    HW228137   4.595   0.652   3.780 -0.2016 -0.1053  0.1730
 5501SOL     OW28138   0.872   1.564   8.778  0.5927 -0.2924  0.9141
 5501SOL    HW128139   0.799   1.568   8.716 -0.2104  2.8236  2.0603
 5501SOL    HW228140   0.893   1.657   8.786  3.3477 -0.7164 -1.3147
 5502SOL     OW28141   0.742   2.289   0.207 -0.0420 -0.4581  0.1200
 5502SOL    HW128142   0.766   2.293   0.114  0.4763  2.2053  0.3740
 5502SOL    HW228143   0.736   2.383   0.222  0.3941 -0.3528 -0.3610
 5503SOL     OW28144   0.774   0.159   4.921 -0.2078 -0.1002  0.3781
 5503SOL    HW128145   0.739   0.081   4.964  1.1890 -0.7419  0.3501
 5503SOL    HW228146   0.702   0.222   4.913 -1.6999 -1.8996 -0.5553
 5504SOL     OW28147   1.691   3.059   7.231  0.9013  0.4355  0.1672
 5504SOL    HW128148   1.657   3.085   7.317  2.2944  1.8909  0.2776
 5504SOL    HW228149   1.753   2.989   7.255 -1.1381 -1.6725 -0.7503
 5505SOL     OW28150   1.355   0.704   8.696 -0.6156 -0.1481  0.5010
 5505SOL    HW128151   1.390   0.623   8.733 -0.3234 -0.3364 -0.2025
 5505SOL    HW228152   1.388   0.770   8.758 -0.8840 -0.1034  0.5990
 5506SOL     OW28153   4.206   1.800  17.672 -0.1092 -0.5305  0.3360
 5506SOL    HW128154   4.194   1.864  17.601 -2.6225  0.7987  1.9423
 5506SOL    HW228155   4.183   1.855   0.030  1.5849 -1.9913  1.9125
 5507SOL     OW28156   3.393   4.319   0.518  0.0572 -0.0716 -0.6429
 5507SOL    HW128157   3.453   4.250   0.549 -0.0995 -0.5855 -1.4866
 5507SOL    HW228158   3.342   4.321   0.599  0.6257  0.8394 -0.3022
 5508SOL     OW28159   2.463   3.081  17.012 -0.1505  0.0478  0.2215
 5508SOL    HW128160   2.401   3.137  16.965 -1.8107 -0.3123  1.9813
 5508SOL    HW228161   2.530   3.067  16.945 -0.2871  0.4945 -0.0066
 5509SOL     OW28162   1.164   2.340   4.386  0.0202  0.3592 -0.3752
 5509SOL    HW128163   1.110   2.265   4.359  0.7551 -0.3436  0.1287
 5509SOL    HW228164   1.152   2.339   4.481 -2.2106  0.7121 -0.6435
 5510SOL     OW28165   1.871   3.358  14.438  0.6883 -0.0706 -0.2122
 5510SOL    HW128166   1.909   3.309  14.511  0.4088  0.2697  0.1610
 5510SOL    HW228167   1.951   3.410  14.430  0.8906 -0.1620  1.1213
 5511SOL     OW28168   3.297   3.621   8.071 -0.2823  0.6480  0.3348
 5511SOL    HW128169   3.375   3.642   8.122 -1.0967  0.0522  1.8292
 5511SOL    HW228170   3.325   3.550   8.014 -0.5452  0.4636  0.4321
 5512SOL     OW28171   0.239   1.433   8.269  0.1391  0.2604 -0.6538
 5512SOL    HW128172   0.281   1.365   8.321  0.1901 -0.7709 -2.0263
 5512SOL    HW228173   0.317   1.484   8.249  1.0777 -1.0637 -0.3763
 5513SOL     OW28174   2.448   4.640   6.261 -0.1396  0.3553 -0.3426
 5513SOL    HW128175   2.430   4.618   6.170 -0.8446 -0.1633 -0.0719
 5513SOL    HW228176   2.415   4.560   6.301  0.9235  0.4784  0.7662
 5514SOL     OW28177   2.690   3.285   7.626 -0.3705  0.1787 -0.3050
 5514SOL    HW128178   2.602   3.248   7.623  0.3743 -1.5280 -0.5890
 5514SOL    HW228179   2.731   3.220   7.683 -0.1983  2.0803  1.7392
 5515SOL     OW28180   2.127   1.552  14.985  0.1954 -0.3603  0.0327
 5515SOL    HW128181   2.078   1.545  15.066 -0.7247 -0.5537 -0.5402
 5515SOL    HW228182   2.196   1.494  15.017  0.8723  0.7469  0.5935
 5516SOL     OW28183   0.321   1.583   8.483  0.2611 -0.0287  0.2300
 5516SOL    HW128184   0.413   1.606   8.502  0.5636 -1.4987  0.5098
 5516SOL    HW228185   0.299   1.660   8.430 -0.2111  0.1459  0.6857
 5517SOL     OW28186   3.673   3.366  17.564  0.8040 -0.0905  0.0969
 5517SOL    HW128187   3.660   3.282  17.607 -2.0628 -0.1634 -0.9103
 5517SOL    HW228188   3.619   3.420  17.622  0.9561  0.1314  0.0349
 5518SOL     OW28189   3.117   2.502   4.306 -0.3551  0.8173 -0.2747
 5518SOL    HW128190   3.165   2.431   4.350 -1.3926  1.1208  1.3345
 5518SOL    HW228191   3.069   2.452   4.240 -1.1068 -0.3286  1.1300
 5519SOL     OW28192   4.061   2.665  16.943  0.2850 -0.6759 -0.4852
 5519SOL    HW128193   3.965   2.658  16.939  0.1364  1.5827 -0.9441
 5519SOL    HW228194   4.077   2.758  16.928  0.2320 -0.7231 -0.8265
 5520SOL     OW28195   1.032   1.802  15.983  0.0297  0.2434 -0.1541
 5520SOL    HW128196   1.034   1.840  15.896  0.5721 -4.3715 -2.1782
 5520SOL    HW228197   1.107   1.743  15.978 -1.3311 -1.5592  0.4783
 5521SOL     OW28198   3.393   2.624   7.873 -0.3484 -0.2601 -0.0390
 5521SOL    HW128199   3.465   2.683   7.850 -0.1791 -1.3998 -2.3849
 5521SOL    HW228200   3.405   2.613   7.968  3.7034  0.0348 -0.5078
 5522SOL     OW28201   1.467   3.181   4.868 -0.1760 -0.1229  0.1648
 5522SOL    HW128202   1.474   3.089   4.843 -0.7255  0.0266 -0.5657
 5522SOL    HW228203   1.511   3.218   4.791  1.6774 -1.5441  0.5606
 5523SOL     OW28204   3.161   1.925   7.129 -0.1670  1.1941  0.7472
 5523SOL    HW128205   3.194   1.971   7.206  2.0511  1.0846 -0.1421
 5523SOL    HW228206   3.124   1.843   7.163 -0.0087  0.5420 -0.6378
 5524SOL     OW28207   3.486   3.630   8.416 -0.2306 -0.2511  0.3169
 5524SOL    HW128208   3.465   3.537   8.425  3.9262 -1.2444 -0.4741
 5524SOL    HW228209   3.540   3.637   8.338 -1.4244 -1.1074 -0.5955
 5525SOL     OW28210   1.808   1.559   1.479 -0.3010  0.5066  0.0580
 5525SOL    HW128211   1.770   1.644   1.503  1.7148  0.8758  1.9466
 5525SOL    HW228212   1.738   1.517   1.430 -1.2527 -0.4133  2.1898
 5526SOL     OW28213   0.001   2.866   4.972  0.8021 -0.1239  0.3930
 5526SOL    HW128214   0.037   2.941   5.019  1.9879  0.3156 -1.2179
 5526SOL    HW228215   4.685   2.912   4.902  1.5256 -0.2399 -0.1563
 5527SOL     OW28216   3.060   4.652   4.089  0.0013  0.5612  0.0178
 5527SOL    HW128217   3.140   4.676   4.137 -0.5231  0.5353  0.8978
 5527SOL    HW228218   3.015   4.598   4.154  0.3063  0.9525  0.5482
 5528SOL     OW28219   0.759   4.220   9.440  0.1826  0.1163  0.6159
 5528SOL    HW128220   0.721   4.304   9.465  0.1558  0.0298  0.8613
 5528SOL    HW228221   0.707   4.157   9.490  0.4652 -0.5757  0.0410
 5529SOL     OW28222   3.365   2.743   3.852  0.3311  0.1769 -0.4057
 5529SOL    HW128223   3.328   2.715   3.936  0.2901  1.6816  0.0695
 5529SOL    HW228224   3.306   2.714   3.783 -2.1835  1.5770  1.1793
 5530SOL     OW28225   4.579   4.194   5.792 -0.1858  0.2524 -0.1750
 5530SOL    HW128226   4.569   4.270   5.849 -0.9308  1.9947 -2.6376
 5530SOL    HW228227   4.585   4.122   5.855 -2.0899 -0.9829 -1.4099
 5531SOL     OW28228   2.391   4.543   8.647  0.0570 -0.4138 -0.3245
 5531SOL    HW128229   2.318   4.601   8.666  1.3553  1.4490 -1.0442
 5531SOL    HW228230   2.470   4.597   8.644 -0.7439  0.8350  2.0624
 5532SOL     OW28231   2.874   4.679   7.758  0.2382 -0.4121 -0.3679
 5532SOL    HW128232   2.844   0.026   7.806  1.9814  0.0273  0.0166
 5532SOL    HW228233   2.959   4.663   7.800  0.8983 -1.5704 -2.1577
 5533SOL     OW28234   4.565   3.116   4.492  0.4488  1.0510 -0.1016
 5533SOL    HW128235   4.510   3.059   4.545 -0.5003  1.3997 -0.7190
 5533SOL    HW228236   4.547   3.083   4.404 -1.1717  0.5061  0.4354
 5534SOL     OW28237   1.940   4.473  11.950 -0.9081 -0.0190  0.3253
 5534SOL    HW128238   1.980   4.388  11.971 -1.5972 -0.4119  0.0593
 5534SOL    HW228239   1.849   4.453  11.931 -1.1229 -0.4216  1.7393
 5535SOL     OW28240   3.372   3.124  12.687  0.2798  0.4984  0.5454
 5535SOL    HW128241   3.401   3.038  12.657  1.4530  1.0746  0.0556
 5535SOL    HW228242   3.452   3.177  12.679 -0.5753  1.4507 -1.6119
 5536SOL     OW28243   2.717   1.782   4.886 -0.0872 -0.7362  0.3367
 5536SOL    HW128244   2.790   1.826   4.930  0.2833 -0.6916 -0.3333
 5536SOL    HW228245   2.648   1.845   4.906 -0.5478 -2.1526  3.1925
 5537SOL     OW28246   1.644   1.033   3.185  0.2395  0.2541 -0.0916
 5537SOL    HW128247   1.629   1.011   3.277  0.1477  1.6036  0.2115
 5537SOL    HW228248   1.644   0.943   3.151 -1.7273  0.6287 -1.0723
 5538SOL     OW28249   1.346   3.546  10.554  0.3492  0.0447 -0.4540
 5538SOL    HW128250   1.298   3.629  10.564 -1.5435 -1.2653  1.2343
 5538SOL    HW228251   1.291   3.479  10.593 -0.6047  1.7489  1.1485
 5539SOL     OW28252   2.987   1.495   1.839 -0.2715  0.1405 -0.0195
 5539SOL    HW128253   3.060   1.557   1.843  0.0391 -0.1234 -1.4032
 5539SOL    HW228254   2.942   1.495   1.923 -0.0431 -0.0087  0.1026
 5540SOL     OW28255   4.226   4.114   4.093 -0.4358 -0.4403  0.1288
 5540SOL    HW128256   4.134   4.089   4.102 -0.6565  0.2440 -0.2081
 5540SOL    HW228257   4.273   4.035   4.118  1.3766  0.4902 -0.3049
 5541SOL     OW28258   4.014   0.825  11.965 -0.7006  0.1027 -0.2920
 5541SOL    HW128259   3.924   0.816  11.935 -1.4264  1.5939  1.4848
 5541SOL    HW228260   4.047   0.737  11.947 -2.1021 -0.2915 -0.8998
 5542SOL     OW28261   4.344   0.949   5.785  1.0127 -0.2304 -0.7218
 5542SOL    HW128262   4.359   0.872   5.839 -1.1494  0.2505  0.5611
 5542SOL    HW228263   4.428   0.961   5.741  0.7758  2.2508 -0.5127
 5543SOL     OW28264   3.580   2.308  16.963  0.0404  0.1617  0.1645
 5543SOL    HW128265   3.657   2.260  16.992  0.1326 -0.1007 -0.5128
 5543SOL    HW228266   3.615   2.360  16.891 -1.2186 -2.0594 -2.0545
 5544SOL     OW28267   2.137   4.478   0.643  0.1817  0.0676 -0.3147
 5544SOL    HW128268   2.197   4.505   0.573  1.6300 -1.1501  0.4602
 5544SOL    HW228269   2.115   4.558   0.691  0.7194 -0.7261  1.2517
 5545SOL     OW28270   0.350   0.915   3.461 -0.0938 -0.4713  0.0109
 5545SOL    HW128271   0.257   0.923   3.440 -0.0883 -0.0064  0.1620
 5545SOL    HW228272   0.370   1.008   3.453 -0.4818 -0.0948  3.1858
 5546SOL     OW28273   0.642   4.170  13.606  0.2057 -0.2413  0.0318
 5546SOL    HW128274   0.556   4.134  13.586 -0.5411  3.4622 -3.3981
 5546SOL    HW228275   0.628   4.264  13.601  0.2974 -0.1427  1.6960
 5547SOL     OW28276   3.539   0.117   2.398 -0.3498  0.2634  0.0846
 5547SOL    HW128277   3.603   0.099   2.467  0.1531 -2.2466 -1.0198
 5547SOL    HW228278   3.608   0.119   2.331  0.7976  2.6115  1.3515
 5548SOL     OW28279   1.679   0.129   6.909 -0.2768  0.4353  0.0214
 5548SOL    HW128280   1.725   0.133   6.993  0.0283  0.2646 -0.1411
 5548SOL    HW228281   1.676   0.035   6.894 -1.2963  0.6180 -0.9277
 5549SOL     OW28282   2.773   2.493   5.270  0.0634  0.1907 -0.1499
 5549SOL    HW128283   2.728   2.446   5.341  3.7647  0.0498  2.0854
 5549SOL    HW228284   2.863   2.490   5.302  0.5349  4.7662 -1.0988
 5550SOL     OW28285   4.219   3.633   4.535  0.0025  0.4458  0.0762
 5550SOL    HW128286   4.187   3.563   4.592 -0.1560 -0.3682 -1.0146
 5550SOL    HW228287   4.309   3.607   4.515  0.0631 -0.2972  1.3372
 5551SOL     OW28288   2.598   0.822  15.412 -0.4966  0.1245  0.0767
 5551SOL    HW128289   2.607   0.903  15.361  0.1934  0.9106  1.4522
 5551SOL    HW228290   2.535   0.854  15.476 -1.7079 -0.7470 -0.6792
 5552SOL     OW28291   3.059   2.492   0.356  0.5873 -0.1903  0.6880
 5552SOL    HW128292   3.066   2.512   0.263  1.7234 -1.1941  0.5631
 5552SOL    HW228293   3.111   2.412   0.368  0.5398 -0.3950 -0.5218
 5553SOL     OW28294   3.444   4.136   3.724  0.3392  0.1534 -0.2744
 5553SOL    HW128295   3.392   4.216   3.720 -1.1200 -0.8418 -1.2080
 5553SOL    HW228296   3.429   4.105   3.813 -1.3701  0.6995 -0.3655
 5554SOL     OW28297   1.097   0.406  13.176  0.3346 -0.1147 -0.4788
 5554SOL    HW128298   1.086   0.381  13.084 -0.5509 -1.7967  0.0959
 5554SOL    HW228299   1.168   0.470  13.169 -1.5659  2.2363  2.0312
 5555SOL     OW28300   4.506   4.443   3.883  0.2206 -0.4042  0.1822
 5555SOL    HW128301   4.518   4.478   3.971 -0.4391 -0.8654  0.4608
 5555SOL    HW228302   4.461   4.358   3.889 -0.3975 -0.1165 -0.3217
 5556SOL     OW28303   2.038   1.381   1.459  0.3949 -0.0404 -0.1461
 5556SOL    HW128304   2.104   1.407   1.395 -0.5086  0.9110 -0.7022
 5556SOL    HW228305   1.996   1.467   1.466  1.0997 -0.0070  3.8244
 5557SOL     OW28306   4.665   3.285   3.301 -0.1801  0.3516 -0.2969
 5557SOL    HW128307   4.658   3.194   3.330  0.7217  1.2080  2.6542
 5557SOL    HW228308   4.631   3.279   3.212 -1.2331 -0.1715  0.1323
 5558SOL     OW28309   3.284   2.157   9.572  0.4491  0.4350  0.4306
 5558SOL    HW128310   3.201   2.110   9.564  2.4118 -3.3160  1.9486
 5558SOL    HW228311   3.248   2.244   9.554 -0.6768  0.1611  1.3627
 5559SOL     OW28312   3.951   2.665   1.154 -0.3217 -0.1586  0.7143
 5559SOL    HW128313   3.874   2.618   1.123  1.9515 -3.1068 -0.4946
 5559SOL    HW228314   3.929   2.658   1.247  2.9836 -2.6574  1.3002
 5560SOL     OW28315   3.511   2.424  11.534  0.4785  0.8939 -0.3898
 5560SOL    HW128316   3.576   2.366  11.573  0.9962  1.1038 -0.9386
 5560SOL    HW228317   3.541   2.429  11.444 -0.4085  1.0770 -0.6796
 5561SOL     OW28318   2.942   4.222  10.328 -0.6172  0.0933 -0.3187
 5561SOL    HW128319   2.965   4.173  10.407  2.1251  1.2341 -0.4082
 5561SOL    HW228320   2.896   4.162  10.271  2.5074 -1.8478 -0.8352
 5562SOL     OW28321   0.077   1.853   4.169  0.1866  0.0257 -0.2829
 5562SOL    HW128322   0.137   1.807   4.110  0.0480  0.0857 -0.4713
 5562SOL    HW228323   0.045   1.784   4.226 -0.2346  0.6742  0.2677
 5563SOL     OW28324   1.254   0.055  12.502 -0.3732 -0.7761  0.1024
 5563SOL    HW128325   1.334   0.091  12.541  0.1368 -0.7391 -0.9772
 5563SOL    HW228326   1.204   0.028  12.579 -0.0409  0.8128  0.8668
 5564SOL     OW28327   3.687   2.926   3.518  0.4296  0.4638 -0.1253
 5564SOL    HW128328   3.724   2.971   3.442  1.3528 -0.4492 -0.2053
 5564SOL    HW228329   3.611   2.888   3.473 -0.6590  1.5752  0.7709
 5565SOL     OW28330   1.576   0.671   1.503 -0.2966  0.7770 -0.0836
 5565SOL    HW128331   1.562   0.667   1.409 -0.6049 -0.1448  0.0065
 5565SOL    HW228332   1.608   0.760   1.518  0.3579 -0.0513  3.4561
 5566SOL     OW28333   2.334   1.041  10.244  0.0774  0.1301 -0.1515
 5566SOL    HW128334   2.244   1.016  10.263  0.9983 -2.3251  0.9977
 5566SOL    HW228335   2.375   1.002  10.322  0.0883  1.1661  0.3681
 5567SOL     OW28336   0.055   3.478   2.771  0.4445 -0.4028 -0.1388
 5567SOL    HW128337   0.059   3.390   2.733  2.4693 -0.0897 -0.6419
 5567SOL    HW228338   4.720   3.528   2.721 -0.3937  0.1086  1.4553
 5568SOL     OW28339   3.847   4.691   5.459 -0.0946 -0.2610  0.2449
 5568SOL    HW128340   3.855   0.019   5.382  0.7996  0.5012  0.8977
 5568SOL    HW228341   3.814   4.608   5.425 -1.3614  0.5804 -0.5688
 5569SOL     OW28342   1.133   4.295   6.918 -0.4403  0.2965  0.5023
 5569SOL    HW128343   1.106   4.320   6.830 -2.4805  0.4322  1.1824
 5569SOL    HW228344   1.223   4.329   6.917 -0.3486 -0.0546 -2.0967
 5570SOL     OW28345   0.835   2.844   3.839 -0.4116  0.1679 -0.1719
 5570SOL    HW128346   0.883   2.839   3.922 -1.8114 -1.7054  0.5368
 5570SOL    HW228347   0.767   2.904   3.869 -0.7476  1.2357 -3.0416
 5571SOL     OW28348   3.955   0.586   7.963  0.6109 -0.3122 -0.0751
 5571SOL    HW128349   3.916   0.631   8.037  0.1700  0.5309 -0.8211
 5571SOL    HW228350   3.881   0.535   7.931 -0.1374  0.0159  1.1671
 5572SOL     OW28351   3.812   3.046  12.586  0.2193 -0.2240  0.2395
 5572SOL    HW128352   3.717   3.037  12.595  0.2596 -0.4098  0.4862
 5572SOL    HW228353   3.835   3.069  12.676  0.3664 -1.0563  0.4178
 5573SOL     OW28354   0.144   3.864   0.070 -0.2227  0.6732  0.7940
 5573SOL    HW128355   0.206   3.887   0.139 -0.0606 -0.4475  1.0205
 5573SOL    HW228356   0.203   3.853  17.713 -2.0390 -0.8336 -0.4307
 5574SOL     OW28357   0.719   1.754   1.425 -0.1747  0.2285 -0.7546
 5574SOL    HW128358   0.712   1.691   1.353  1.9835  1.3689 -1.9796
 5574SOL    HW228359   0.691   1.703   1.501  1.4748  2.4034  1.3089
 5575SOL     OW28360   4.477   3.335   3.792  0.0779  0.5011 -0.4352
 5575SOL    HW128361   4.525   3.270   3.740  0.5069 -0.1936  0.8237
 5575SOL    HW228362   4.537   3.341   3.866 -0.8201  0.1265  0.3189
 5576SOL     OW28363   0.930   4.664   8.035  0.1128  0.1253 -0.3141
 5576SOL    HW128364   0.867   4.709   8.091  1.3193 -0.2054  1.3184
 5576SOL    HW228365   0.882   4.632   7.958 -0.2266  1.6272 -0.7296
 5577SOL     OW28366   0.423   3.482  14.571 -0.6258 -0.3315  0.2967
 5577SOL    HW128367   0.383   3.425  14.505 -1.6981 -0.8829  1.4166
 5577SOL    HW228368   0.365   3.556  14.586  0.1244  0.5860 -1.2944
 5578SOL     OW28369   1.747   2.071   4.137 -0.0290  0.8064 -0.2351
 5578SOL    HW128370   1.738   1.987   4.183  0.8983 -0.2199 -1.9469
 5578SOL    HW228371   1.667   2.067   4.084 -0.5354 -0.3721  0.6202
 5579SOL     OW28372   2.328   4.311  10.141  0.2030  0.3479 -0.2576
 5579SOL    HW128373   2.329   4.220  10.171  1.3712  0.7310  0.8860
 5579SOL    HW228374   2.280   4.304  10.059  1.9447  1.2906 -1.3780
 5580SOL     OW28375   3.461   0.680   1.914 -0.5257  0.0130 -0.4621
 5580SOL    HW128376   3.449   0.724   1.998 -1.0511 -1.1765  0.0821
 5580SOL    HW228377   3.387   0.619   1.913  0.8134 -1.6144  0.2209
 5581SOL     OW28378   0.437   1.883   2.511 -0.1405  0.2593 -0.0427
 5581SOL    HW128379   0.510   1.821   2.514 -0.1194  0.2462 -0.7702
 5581SOL    HW228380   0.431   1.906   2.418  1.4046 -0.7148 -0.3873
 5582SOL     OW28381   4.294   0.804   2.148  0.1393 -0.2186 -0.0340
 5582SOL    HW128382   4.300   0.895   2.119 -1.0832  0.0525  0.5693
 5582SOL    HW228383   4.254   0.761   2.072  1.7183  1.8892 -2.0622
 5583SOL     OW28384   4.227   1.171   2.688  0.4598  0.4264 -0.3966
 5583SOL    HW128385   4.207   1.125   2.607 -0.0949 -0.5068  0.2674
 5583SOL    HW228386   4.291   1.110   2.724  0.6868 -0.2095 -1.8882
 5584SOL     OW28387   3.650   2.867   0.810  0.1661  0.3261  0.0867
 5584SOL    HW128388   3.728   2.918   0.790  1.5420 -1.3925  1.1614
 5584SOL    HW228389   3.662   2.862   0.905  0.3544  2.3103  0.1607
 5585SOL     OW28390   0.917   1.529   6.163 -0.4844  0.7285  0.0833
 5585SOL    HW128391   0.885   1.439   6.164  0.5055  0.3932  1.1603
 5585SOL    HW228392   0.975   1.533   6.239 -1.9085  0.4209  1.1779
 5586SOL     OW28393   2.373   3.114   3.980  0.2788  0.6680 -0.6658
 5586SOL    HW128394   2.278   3.115   3.979  0.2717  0.1901 -0.4989
 5586SOL    HW228395   2.405   3.025   3.995  0.7248  0.6120 -1.8901
 5587SOL     OW28396   4.360   1.822   9.299 -0.9577  0.3129  0.3381
 5587SOL    HW128397   4.275   1.864   9.316 -1.1516 -0.5356  1.3833
 5587SOL    HW228398   4.412   1.902   9.304 -0.9194  0.3463 -0.5604
 5588SOL     OW28399   1.103   2.601   4.331  0.0933 -0.0606  0.1329
 5588SOL    HW128400   1.114   2.515   4.370 -0.5561 -0.1219  0.1884
 5588SOL    HW228401   1.154   2.658   4.388 -3.6336  0.5721  2.8666
 5589SOL     OW28402   1.371   0.345   9.908  0.2892  0.4541 -0.5335
 5589SOL    HW128403   1.340   0.255   9.905  2.4534 -0.3313  0.3782
 5589SOL    HW228404   1.466   0.336   9.918  0.2948  0.3482 -0.6829
 5590SOL     OW28405   0.701   4.644   7.273  0.0593  0.3040  0.5556
 5590SOL    HW128406   0.697   4.567   7.216  2.0103  1.1076 -0.7088
 5590SOL    HW228407   0.683   4.713   7.209  1.2973  0.4654  0.3786
 5591SOL     OW28408   1.035   3.740   7.996 -0.2226  0.4246  0.3952
 5591SOL    HW128409   0.955   3.701   7.962 -1.0262  1.2383  1.3359
 5591SOL    HW228410   1.088   3.665   8.020 -0.5830  0.8089  2.4331
 5592SOL     OW28411   1.378   1.793  13.669 -0.4300 -0.0888  0.1850
 5592SOL    HW128412   1.294   1.769  13.628 -0.3792 -2.0025  1.2073
 5592SOL    HW228413   1.354   1.859  13.734 -1.4840  0.3043 -0.5996
 5593SOL     OW28414   3.481   3.092  14.186  0.5696  0.5542  0.4856
 5593SOL    HW128415   3.436   3.113  14.268 -1.1950 -0.0085 -0.3418
 5593SOL    HW228416   3.566   3.065  14.221 -0.0533  0.4786  1.9734
 5594SOL     OW28417   1.483   3.625  11.856 -0.0532 -0.0669 -0.2377
 5594SOL    HW128418   1.444   3.642  11.942  0.5160  1.4979 -0.2928
 5594SOL    HW228419   1.577   3.629  11.875  0.2641  1.4096 -2.0966
 5595SOL     OW28420   2.134   0.083  11.339  0.0075  0.1832  0.2598
 5595SOL    HW128421   2.145   0.106  11.246  2.2644 -1.3420  0.1561
 5595SOL    HW228422   2.208   0.130  11.377 -1.3117  2.2278  0.2800
 5596SOL     OW28423   3.074   0.870   8.491 -0.0424  0.3013  0.0815
 5596SOL    HW128424   3.112   0.875   8.578 -1.5630 -2.6093  0.9138
 5596SOL    HW228425   3.111   0.950   8.454  1.5134 -0.9710 -1.1220
 5597SOL     OW28426   3.121   0.992  14.508 -0.0396  0.1002 -0.2506
 5597SOL    HW128427   3.072   0.910  14.518  0.7545 -0.3030  0.3614
 5597SOL    HW228428   3.161   1.003  14.595  1.2937 -2.2176 -0.5659
 5598SOL     OW28429   0.171   0.461   7.953 -0.0666  0.4169  0.1562
 5598SOL    HW128430   0.209   0.519   7.887 -0.0799 -0.0312 -0.2378
 5598SOL    HW228431   0.161   0.379   7.905  0.4868  0.6745 -0.3963
 5599SOL     OW28432   3.574   2.036  16.703  0.3284  0.1196  0.1284
 5599SOL    HW128433   3.584   2.084  16.621 -2.7602  0.2828 -0.1399
 5599SOL    HW228434   3.508   2.085  16.752  1.1016 -0.0707  1.3725
 5600SOL     OW28435   3.448   0.789   5.834  0.1166  0.4404 -0.5084
 5600SOL    HW128436   3.429   0.863   5.892  0.1266 -0.5703  0.7612
 5600SOL    HW228437   3.542   0.781   5.850  0.2355 -1.2568 -2.0825
 5601SOL     OW28438   3.952   2.410   7.993  0.1297 -0.1977 -0.8114
 5601SOL    HW128439   3.859   2.433   7.988  0.0452 -0.3136  0.1201
 5601SOL    HW228440   3.929   2.317   7.985 -0.3006 -0.2148  0.5556
 5602SOL     OW28441   4.219   1.799   8.312 -0.4707 -0.3720 -0.4561
 5602SOL    HW128442   4.197   1.887   8.283  1.3520  0.7551  1.5830
 5602SOL    HW228443   4.307   1.775   8.285 -0.2233 -0.9685  0.8999
 5603SOL     OW28444   4.234   4.526   5.958 -0.2306 -0.1087 -0.9749
 5603SOL    HW128445   4.211   4.446   5.911  0.6213 -0.9167  0.0082
 5603SOL    HW228446   4.279   4.568   5.885  1.4897  1.0926  0.7951
 5604SOL     OW28447   4.511   0.433   0.884  0.2080  0.5139  0.5000
 5604SOL    HW128448   4.574   0.472   0.823  0.6837 -1.2004 -0.0929
 5604SOL    HW228449   4.429   0.478   0.861 -0.2972 -0.1412  1.0480
 5605SOL     OW28450   1.766   2.264   6.629  0.0593  0.4241  1.1743
 5605SOL    HW128451   1.708   2.226   6.695 -0.1204 -0.1532  0.6806
 5605SOL    HW228452   1.720   2.340   6.594 -0.1327 -0.4634 -0.4719
 5606SOL     OW28453   1.954   3.788  15.857 -0.3565  0.1839 -0.1523
 5606SOL    HW128454   1.955   3.764  15.765 -0.3885  0.5105 -0.2376
 5606SOL    HW228455   1.896   3.863  15.843 -1.0309 -0.7009 -2.0963
 5607SOL     OW28456   1.730   2.401  14.479  0.1832 -0.1511 -0.1450
 5607SOL    HW128457   1.740   2.328  14.418 -0.9139 -0.1539 -0.3197
 5607SOL    HW228458   1.798   2.378  14.543  1.9625  0.6864 -1.7280
 5608SOL     OW28459   2.400   3.090  14.098  0.0339 -0.3396 -0.5091
 5608SOL    HW128460   2.331   3.156  14.092  1.2953  0.9944 -0.2208
 5608SOL    HW228461   2.468   3.125  14.155 -0.2567 -1.1425  0.3280
 5609SOL     OW28462   3.179   2.966  11.310 -0.6557 -0.0970  0.6242
 5609SOL    HW128463   3.137   3.051  11.321 -0.4295  0.3027 -1.5874
 5609SOL    HW228464   3.143   2.944  11.224  1.5201  1.3670 -0.6498
 5610SOL     OW28465   4.117   1.408   9.061  0.1299 -0.2179  0.0796
 5610SOL    HW128466   4.130   1.409   9.156  1.7000 -0.9511 -0.1289
 5610SOL    HW228467   4.178   1.481   9.051  1.0860 -0.9323  0.6920
 5611SOL     OW28468   1.913   3.852  10.575 -0.6631 -0.6420 -0.1984
 5611SOL    HW128469   1.880   3.809  10.653 -0.7270  1.3056  0.8563
 5611SOL    HW228470   1.988   3.797  10.552  1.0897  0.5544  2.6633
 5612SOL     OW28471   3.870   3.753  13.221  0.0727 -0.0874 -0.0034
 5612SOL    HW128472   3.947   3.780  13.172 -0.5421  0.2701 -0.7739
 5612SOL    HW228473   3.808   3.791  13.159 -3.3163 -0.8096  2.8880
 5613SOL     OW28474   3.374   1.804  16.989  0.3750 -0.1438  0.2870
 5613SOL    HW128475   3.368   1.726  16.934 -1.1937 -0.5540  1.0420
 5613SOL    HW228476   3.298   1.793  17.047  0.6760  1.6043  1.0348
 5614SOL     OW28477   2.222   3.205  16.915 -0.0101 -0.4833  0.3428
 5614SOL    HW128478   2.144   3.180  16.964  0.0414  0.4083  0.8829
 5614SOL    HW228479   2.196   3.161  16.834 -0.7628  0.7594 -0.0795
 5615SOL     OW28480   2.972   1.536   2.108  0.6349  0.6881  0.2359
 5615SOL    HW128481   3.067   1.530   2.119  0.3163  0.3552  2.8480
 5615SOL    HW228482   2.943   1.482   2.182 -0.3119  0.2509 -0.4556
 5616SOL     OW28483   1.259   0.112   1.821  0.4755 -0.0354 -0.1533
 5616SOL    HW128484   1.311   0.104   1.901 -0.8744 -0.1707  0.7054
 5616SOL    HW228485   1.174   0.134   1.860  0.1147 -0.8341 -0.4880
 5617SOL     OW28486   2.505   3.880   5.653  0.0702  0.2291 -0.2162
 5617SOL    HW128487   2.492   3.839   5.738 -2.2770 -0.0739 -0.7053
 5617SOL    HW228488   2.418   3.880   5.612 -0.6717  0.9061  1.3540
 5618SOL     OW28489   1.604   3.285   4.659  0.1152 -0.2261 -0.1170
 5618SOL    HW128490   1.674   3.349   4.647 -0.3851  0.7021  1.9064
 5618SOL    HW228491   1.530   3.342   4.678 -1.7528 -2.5257 -0.4459
 5619SOL     OW28492   2.047   1.918   0.486 -1.0417  0.4461 -0.3801
 5619SOL    HW128493   1.964   1.963   0.476 -1.6599 -0.9474 -1.5196
 5619SOL    HW228494   2.066   1.924   0.392 -1.2642 -2.6667 -0.6262
 5620SOL     OW28495   2.932   1.413   3.080  0.1430  0.2635 -0.4593
 5620SOL    HW128496   2.919   1.335   3.134  2.1069 -1.0047 -1.8436
 5620SOL    HW228497   2.991   1.468   3.131  0.8678 -0.2430 -0.7477
 5621SOL     OW28498   4.352   2.539   7.542  0.0464 -0.2149  0.8110
 5621SOL    HW128499   4.279   2.502   7.493 -1.1847  2.4731  0.6138
 5621SOL    HW228500   4.371   2.620   7.495 -1.0199 -1.4272 -1.6752
 5622SOL     OW28501   3.780   3.380   3.865 -0.4192 -0.4417  0.4316
 5622SOL    HW128502   3.701   3.429   3.889 -1.6720 -1.9004 -0.6722
 5622SOL    HW228503   3.753   3.319   3.796  0.1202 -0.7642  0.5024
 5623SOL     OW28504   4.536   0.858   3.202 -0.6304  0.5562 -0.2913
 5623SOL    HW128505   4.504   0.932   3.150  1.0180  0.7215 -1.0639
 5623SOL    HW228506   4.590   0.813   3.137  2.1339  2.6557  0.5890
 5624SOL     OW28507   4.492   0.033  15.130  0.0928  0.0779  0.5288
 5624SOL    HW128508   4.549   0.003  15.059  1.9545  2.8125  0.8462
 5624SOL    HW228509   4.454   0.108  15.083 -0.3117  0.7252  1.8944
 5625SOL     OW28510   2.818   0.676   7.869  0.0909 -0.1608 -0.2696
 5625SOL    HW128511   2.835   0.737   7.797  1.2930  1.1671  1.1341
 5625SOL    HW228512   2.858   0.599   7.829 -0.1391 -0.4035 -0.0338
 5626SOL     OW28513   1.448   0.243   6.264 -0.2233 -0.6374 -0.0916
 5626SOL    HW128514   1.462   0.153   6.236  0.0655 -0.4387 -0.5780
 5626SOL    HW228515   1.501   0.249   6.343 -1.3295 -3.2333  0.8411
 5627SOL     OW28516   1.909   4.528   0.957  0.5401  0.2946 -0.0848
 5627SOL    HW128517   1.976   4.460   0.958 -0.8027 -1.0163  2.0860
 5627SOL    HW228518   1.851   4.484   0.895  1.4658 -0.5611 -0.3539
 5628SOL     OW28519   0.818   1.882   8.502  0.6492 -0.0029 -0.1933
 5628SOL    HW128520   0.828   1.969   8.462 -0.6848 -0.3613 -1.2948
 5628SOL    HW228521   0.905   1.845   8.486  0.3412 -0.8083 -0.0069
 5629SOL     OW28522   2.606   0.584   5.993  0.3491 -0.5204  0.2549
 5629SOL    HW128523   2.556   0.504   5.976 -0.7873  0.1136  0.5925
 5629SOL    HW228524   2.660   0.592   5.915 -0.3507 -1.2356 -0.3018
 5630SOL     OW28525   4.169   0.392  14.176 -0.3930  0.4326 -0.0950
 5630SOL    HW128526   4.128   0.466  14.220  0.3396  0.3919  0.6521
 5630SOL    HW228527   4.181   0.422  14.086 -0.8901  0.6709 -0.0808
 5631SOL     OW28528   3.628   2.702   5.151  0.0461 -0.2245 -0.3052
 5631SOL    HW128529   3.541   2.664   5.142 -0.0189  0.1943 -1.3537
 5631SOL    HW228530   3.614   2.778   5.207 -0.8365 -2.3357  2.3543
 5632SOL     OW28531   3.251   0.281  10.914 -0.2491  0.1760 -0.4278
 5632SOL    HW128532   3.289   0.368  10.899  2.1979 -0.4526  2.0963
 5632SOL    HW228533   3.305   0.256  10.989  0.1577  0.0907 -0.7535
 5633SOL     OW28534   0.401   1.457   2.902  0.3896  0.7738 -0.2082
 5633SOL    HW128535   0.430   1.370   2.875 -0.6317 -0.5756  3.0410
 5633SOL    HW228536   0.443   1.469   2.988  0.8303  1.0561 -0.4626
 5634SOL     OW28537   0.637   3.264  13.310 -0.4557  0.2407 -0.1960
 5634SOL    HW128538   0.609   3.291  13.397 -0.1864  1.1330 -0.3927
 5634SOL    HW228539   0.567   3.210  13.274 -0.1540  0.0959 -0.5624
 5635SOL     OW28540   0.454   0.376   7.763  0.3413 -0.1286 -0.2344
 5635SOL    HW128541   0.513   0.434   7.812  2.1372 -1.0131 -1.3395
 5635SOL    HW228542   0.505   0.378   7.682  1.3718 -0.2627  0.4040
 5636SOL     OW28543   0.418   1.187   6.818 -0.0183  0.0407 -0.3195
 5636SOL    HW128544   0.408   1.282   6.808  0.5882  0.2078  0.6934
 5636SOL    HW228545   0.343   1.168   6.874  0.0226 -0.5531 -0.4689
 5637SOL     OW28546   4.198   2.787  17.283 -0.2025  0.2190  0.0904
 5637SOL    HW128547   4.237   2.735  17.212  1.6281  0.0482  1.2256
 5637SOL    HW228548   4.170   2.721  17.346 -3.5702 -0.4344 -2.0785
 5638SOL     OW28549   1.795   1.195   4.424  0.2684 -0.3318 -0.4959
 5638SOL    HW128550   1.800   1.157   4.337 -0.0497 -0.9274 -0.2532
 5638SOL    HW228551   1.882   1.235   4.422 -0.1017  0.5496  0.8507
 5639SOL     OW28552   0.161   2.283   4.217 -0.0060  0.3737  0.5307
 5639SOL    HW128553   0.124   2.288   4.129  0.8458  0.2214  0.1624
 5639SOL    HW228554   0.225   2.213   4.207 -1.8155 -0.8160 -2.7802
 5640SOL     OW28555   2.893   1.693   6.851 -0.2604 -0.3302 -0.4516
 5640SOL    HW128556   2.842   1.616   6.827  0.0368 -0.5191 -0.4681
 5640SOL    HW228557   2.949   1.702   6.774 -0.8494  2.3538 -0.5871
 5641SOL     OW28558   2.734   4.487  12.247 -0.1585 -0.1494 -0.1264
 5641SOL    HW128559   2.709   4.533  12.167 -3.3530  0.6907  1.3444
 5641SOL    HW228560   2.820   4.450  12.230  1.2695  0.9395  4.7964
 5642SOL     OW28561   4.258   1.778   3.119 -0.5988 -0.1311  0.0233
 5642SOL    HW128562   4.199   1.705   3.099  1.6349 -2.0986  0.6189
 5642SOL    HW228563   4.311   1.750   3.194 -0.7041  2.7825  1.1936
 5643SOL     OW28564   1.970   3.457   2.146  0.4170  0.3913  0.1037
 5643SOL    HW128565   1.913   3.481   2.073 -0.0085 -0.3810  0.1846
 5643SOL    HW228566   1.941   3.520   2.212  0.7938  0.5091  0.1564
 5644SOL     OW28567   2.233   1.593   2.914 -0.5893 -0.1653 -0.5759
 5644SOL    HW128568   2.286   1.612   2.991 -0.8001 -1.5470 -0.0926
 5644SOL    HW228569   2.154   1.562   2.958 -0.9848 -1.3437 -2.0959
 5645SOL     OW28570   0.538   3.471   3.201  0.3466 -0.4805  0.1288
 5645SOL    HW128571   0.467   3.457   3.263 -0.8341  2.8147 -0.4670
 5645SOL    HW228572   0.570   3.556   3.233 -1.2937  0.2168 -0.0587
 5646SOL     OW28573   3.654   4.044   3.550 -0.1733  0.1088  0.2601
 5646SOL    HW128574   3.661   4.118   3.490  1.4620 -0.3495 -0.1027
 5646SOL    HW228575   3.587   4.071   3.613 -0.4015 -1.3193  0.6430
 5647SOL     OW28576   0.419   4.704   6.791 -0.6628 -0.2484 -0.5182
 5647SOL    HW128577   0.400   0.064   6.762 -2.2262 -0.5746 -0.4942
 5647SOL    HW228578   0.501   4.727   6.835 -0.9609 -0.5913  0.2132
 5648SOL     OW28579   3.464   2.111   4.792 -0.1971 -0.1056 -0.5030
 5648SOL    HW128580   3.514   2.030   4.796 -1.6600 -0.8985  1.3877
 5648SOL    HW228581   3.385   2.094   4.843 -1.3369 -1.6652 -2.7714
 5649SOL     OW28582   3.187   3.996  14.735  0.2164 -0.2777  0.3784
 5649SOL    HW128583   3.234   4.056  14.793 -0.0307 -1.0434  1.3653
 5649SOL    HW228584   3.213   3.919  14.786  0.4660  0.3211  1.1568
 5650SOL     OW28585   3.010   2.296   1.956  0.0517  0.2609  0.0154
 5650SOL    HW128586   3.101   2.326   1.959  0.0659  0.1944  0.3105
 5650SOL    HW228587   2.961   2.370   1.993  0.5891 -0.3208  1.9161
 5651SOL     OW28588   1.877   0.948   8.643 -1.1424 -0.5398 -0.0133
 5651SOL    HW128589   1.828   0.923   8.565 -1.3088  0.5289 -0.2517
 5651SOL    HW228590   1.807   0.972   8.704 -1.5633  0.4995 -0.9123
 5652SOL     OW28591   1.771   1.307   6.108 -0.2299 -0.2232 -0.1206
 5652SOL    HW128592   1.746   1.218   6.135 -0.7295  0.2708  1.0452
 5652SOL    HW228593   1.688   1.348   6.130 -0.4331 -0.4909 -0.3929
 5653SOL     OW28594   3.760   4.257  15.476 -0.1803  0.3363  0.1694
 5653SOL    HW128595   3.752   4.237  15.383  0.6964  1.6621 -0.1891
 5653SOL    HW228596   3.699   4.196  15.516 -0.0698 -0.9483 -1.6104
 5654SOL     OW28597   3.541   3.464  17.182 -0.7385 -0.5447 -0.0392
 5654SOL    HW128598   3.603   3.430  17.118  1.9816  1.4936  1.5178
 5654SOL    HW228599   3.591   3.534  17.224 -0.2807 -0.2931 -0.9956
 5655SOL     OW28600   1.398   2.671   1.360  0.3370 -0.4855 -0.0065
 5655SOL    HW128601   1.312   2.630   1.371  0.6378 -1.0045  0.3986
 5655SOL    HW228602   1.415   2.668   1.266  0.2892  0.6394 -0.0478
 5656SOL     OW28603   3.917   2.618  14.414 -0.0281  0.5295  0.8313
 5656SOL    HW128604   3.827   2.633  14.440 -1.1626 -0.9707 -2.1667
 5656SOL    HW228605   3.941   2.577  14.497  2.1525  0.0741 -0.0156
 5657SOL     OW28606   1.213   2.727   4.548 -0.1049  0.2407  0.5024
 5657SOL    HW128607   1.254   2.812   4.562  2.4756 -0.9367  0.1603
 5657SOL    HW228608   1.138   2.727   4.608 -1.6092 -1.3118 -1.3536
 5658SOL     OW28609   1.814   3.492   9.329  0.4338  0.0908  0.3982
 5658SOL    HW128610   1.875   3.431   9.286  1.0343  0.0531  1.2992
 5658SOL    HW228611   1.733   3.450   9.299 -0.3409  1.3130  0.8020
 5659SOL     OW28612   0.206   4.284  12.203 -0.1231 -0.4263  0.3771
 5659SOL    HW128613   0.176   4.363  12.157  0.0968  0.2769  1.4461
 5659SOL    HW228614   0.142   4.268  12.272 -0.7824  2.0621  0.3702
 5660SOL     OW28615   0.219   4.690   7.750 -0.0283 -0.1080 -0.3895
 5660SOL    HW128616   0.135   4.644   7.744 -0.2441  0.3751 -1.1090
 5660SOL    HW228617   0.263   4.630   7.689 -1.4765  1.0650 -2.5890
 5661SOL     OW28618   2.338   1.783   6.892  0.4200 -0.1782 -1.2627
 5661SOL    HW128619   2.409   1.831   6.935  1.5549 -4.1700  1.2480
 5661SOL    HW228620   2.266   1.800   6.953  1.4970 -0.9012  0.2164
 5662SOL     OW28621   4.432   2.458   6.807  0.0260 -0.1233  0.2381
 5662SOL    HW128622   4.420   2.480   6.899  1.8788  0.5445  0.3178
 5662SOL    HW228623   4.346   2.486   6.776 -0.4517 -1.1607  0.6505
 5663SOL     OW28624   1.425   0.094   2.815  0.3167 -0.6024  0.6261
 5663SOL    HW128625   1.374   0.032   2.866  1.4160 -2.1213 -0.1199
 5663SOL    HW228626   1.468   0.031   2.756 -2.3303 -1.5364 -0.2868
 5664SOL     OW28627   3.069   1.032   5.609  0.3396 -0.3649 -0.2291
 5664SOL    HW128628   3.160   1.060   5.614 -0.2050  1.2383  0.9351
 5664SOL    HW228629   3.050   0.994   5.695  1.7382  0.8291  0.6106
 5665SOL     OW28630   3.902   0.182   6.928 -0.3263  0.2015 -0.4358
 5665SOL    HW128631   3.909   0.179   6.833  0.1887  1.4430 -0.4430
 5665SOL    HW228632   3.986   0.143   6.951 -0.8553  0.9241  2.8043
 5666SOL     OW28633   0.389   1.438   8.989 -0.6441  0.1432 -0.3040
 5666SOL    HW128634   0.356   1.350   8.972 -0.1346 -0.4035  1.4955
 5666SOL    HW228635   0.471   1.439   8.939 -0.5920  2.0540 -0.1751
 5667SOL     OW28636   4.167   3.830   5.355 -0.2106  0.2998 -0.2499
 5667SOL    HW128637   4.128   3.918   5.358 -2.7211 -0.8570  0.5192
 5667SOL    HW228638   4.202   3.818   5.444  0.1349 -1.8373 -0.6803
 5668SOL     OW28639   2.897   2.422  12.766  0.1728  0.0169 -0.0174
 5668SOL    HW128640   2.848   2.483  12.821 -0.8206  0.7722 -1.7433
 5668SOL    HW228641   2.986   2.439  12.796  0.2548  0.0222 -0.2689
 5669SOL     OW28642   1.154   0.550  14.710  0.3935 -0.0650  0.3746
 5669SOL    HW128643   1.077   0.576  14.760 -0.6864 -1.8907 -0.3281
 5669SOL    HW228644   1.217   0.558  14.782 -1.4628  3.5802  1.5656
 5670SOL     OW28645   1.186   4.526   8.561  0.3306  0.7130 -0.1722
 5670SOL    HW128646   1.101   4.539   8.604  0.7282  0.9843  0.5248
 5670SOL    HW228647   1.227   4.610   8.579  2.9958 -0.4171 -0.9226
 5671SOL     OW28648   3.646   2.097   6.775  0.2858 -0.2709  0.4476
 5671SOL    HW128649   3.584   2.075   6.844  0.3318  0.5669  0.7555
 5671SOL    HW228650   3.589   2.076   6.701  0.7899 -1.8709  0.5113
 5672SOL     OW28651   0.273   1.711   2.673 -0.0415 -0.0296 -0.0902
 5672SOL    HW128652   0.343   1.721   2.737  1.1703  1.6758 -1.6940
 5672SOL    HW228653   0.287   1.791   2.622 -0.4022 -0.7516 -1.3349
 5673SOL     OW28654   0.368   0.585  13.068  0.3207 -0.1324  1.2099
 5673SOL    HW128655   0.382   0.665  13.017  0.8842 -0.2389  1.1976
 5673SOL    HW228656   0.303   0.540  13.015  1.1005  0.6648 -0.4268
 5674SOL     OW28657   4.635   1.022   4.065  0.0375  0.3030  0.1051
 5674SOL    HW128658   4.636   0.985   4.154  0.7556  1.1151  0.4371
 5674SOL    HW228659   4.703   0.971   4.021 -0.6486 -1.3423  0.9228
 5675SOL     OW28660   2.049   3.060   6.225 -0.6748 -0.0316  0.1352
 5675SOL    HW128661   2.113   3.096   6.163  0.7476 -1.1350  0.9446
 5675SOL    HW228662   1.979   3.039   6.164  1.2624  0.5708 -2.3110
 5676SOL     OW28663   4.707   1.261  12.115  0.2446  0.4447  0.2959
 5676SOL    HW128664   4.656   1.326  12.067  1.0056 -0.5466 -1.8533
 5676SOL    HW228665   0.059   1.309  12.132  0.3394 -0.1572  1.5408
 5677SOL     OW28666   1.273   0.834   1.804  0.4104 -0.0956 -0.0390
 5677SOL    HW128667   1.295   0.842   1.712 -1.1970 -0.0609 -0.4320
 5677SOL    HW228668   1.189   0.879   1.808 -0.5316 -1.7395 -1.1380
 5678SOL     OW28669   4.174   2.127   4.175 -0.5498  0.1757  0.0915
 5678SOL    HW128670   4.223   2.188   4.119 -0.1030  0.0394  0.3384
 5678SOL    HW228671   4.214   2.042   4.154 -0.0172  1.2583 -3.3513
 5679SOL     OW28672   1.989   2.120   1.709  0.1246 -0.5832 -0.3541
 5679SOL    HW128673   1.979   2.031   1.743  1.9505 -0.7723 -0.2812
 5679SOL    HW228674   2.079   2.118   1.675  1.1726 -0.2557  2.4160
 5680SOL     OW28675   1.847   2.247   0.332 -0.2935 -0.1497 -0.1748
 5680SOL    HW128676   1.811   2.280   0.249 -1.2492 -1.9292 -0.4668
 5680SOL    HW228677   1.815   2.306   0.400 -0.0050  0.1619 -0.3084
 5681SOL     OW28678   4.197   2.187  15.825 -0.6844  0.1453 -0.3107
 5681SOL    HW128679   4.278   2.138  15.841 -0.7686  0.0416 -0.2077
 5681SOL    HW228680   4.196   2.255  15.893  0.2058  0.2304 -0.3783
 5682SOL     OW28681   4.061   3.896   3.953 -0.1074 -0.0930 -0.1302
 5682SOL    HW128682   4.065   3.801   3.968  3.5094  0.0663 -0.0490
 5682SOL    HW228683   4.016   3.937   4.028 -1.2940  0.0779 -0.9366
 5683SOL     OW28684   4.103   0.589   3.518 -0.0887 -0.0131  0.4597
 5683SOL    HW128685   4.131   0.616   3.431  2.0672 -0.7299  0.9225
 5683SOL    HW228686   4.186   0.560   3.556 -0.2474 -0.6282  0.3306
 5684SOL     OW28687   0.175   2.294   6.294 -0.0305  0.5617 -0.3252
 5684SOL    HW128688   0.086   2.327   6.310 -0.5504 -1.8753  1.9833
 5684SOL    HW228689   0.202   2.261   6.380  2.6246 -0.2455 -1.4774
 5685SOL     OW28690   4.551   2.058   4.344 -0.0996  0.3659 -0.3233
 5685SOL    HW128691   4.601   2.129   4.384 -0.1220 -0.3729  1.0478
 5685SOL    HW228692   4.614   2.028   4.279 -0.3359 -0.6368 -0.0969
 5686SOL     OW28693   3.178   4.134   4.140 -0.3986  0.4197 -0.7412
 5686SOL    HW128694   3.095   4.174   4.166  0.1266  0.5198  0.7769
 5686SOL    HW228695   3.187   4.061   4.201  1.2615  0.7755 -0.5540
 5687SOL     OW28696   1.496   2.273   8.950  0.2328 -0.4308 -0.3838
 5687SOL    HW128697   1.452   2.195   8.983 -0.6229  0.3572  0.3590
 5687SOL    HW228698   1.499   2.330   9.027  0.6295  0.0491 -0.7579
 5688SOL     OW28699   4.679   0.490   4.647 -0.7361 -0.1138  0.3478
 5688SOL    HW128700   0.010   0.549   4.693  0.3470 -2.3063  1.7043
 5688SOL    HW228701   4.616   0.550   4.607  0.7260  1.4273  0.3795
 5689SOL     OW28702   1.377   2.131   6.660 -0.3017  1.1018  0.1654
 5689SOL    HW128703   1.415   2.089   6.582  1.3838 -0.5724  1.8716
 5689SOL    HW228704   1.452   2.152   6.715 -2.2087 -0.8338  3.4801
 5690SOL     OW28705   1.705   4.528   1.791 -0.0455 -0.4770  0.3890
 5690SOL    HW128706   1.728   4.486   1.873  0.6724  1.2166  1.0695
 5690SOL    HW228707   1.785   4.512   1.741 -0.7336  0.8721 -1.1392
 5691SOL     OW28708   3.408   0.186   7.176  0.1147 -0.1559  0.0882
 5691SOL    HW128709   3.343   0.252   7.201  0.8172  0.4469  0.3488
 5691SOL    HW228710   3.354   0.113   7.148 -0.9159  1.3341 -1.8755
 5692SOL     OW28711   1.234   0.924   9.302 -0.2346  0.1924 -0.2353
 5692SOL    HW128712   1.181   0.926   9.222 -1.5319  0.7943  0.6490
 5692SOL    HW228713   1.171   0.940   9.372 -2.4450 -0.1898 -2.1437
 5693SOL     OW28714   1.497   0.914   3.877  0.2458  0.2181  0.5088
 5693SOL    HW128715   1.483   0.889   3.968 -0.5560 -0.7557  0.1289
 5693SOL    HW228716   1.507   0.825   3.843  0.1065 -0.3357  1.9492
 5694SOL     OW28717   1.965   0.922   4.015 -0.7151  0.0621 -0.5473
 5694SOL    HW128718   2.057   0.940   4.035 -0.8631  1.3285 -1.0086
 5694SOL    HW228719   1.969   0.827   4.006 -0.1547  0.1124 -0.8694
 5695SOL     OW28720   4.045   0.793   6.941 -0.0798 -0.1140 -0.5537
 5695SOL    HW128721   4.124   0.820   6.988 -0.4281 -1.6092  0.8892
 5695SOL    HW228722   4.024   0.714   6.990  1.7446 -1.3869 -1.8390
 5696SOL     OW28723   0.943   4.712   5.969 -0.2315 -0.1428 -0.5425
 5696SOL    HW128724   1.034   0.004   5.948 -0.2935  1.6837  0.9262
 5696SOL    HW228725   0.958   4.657   6.046 -0.9263 -0.8686 -0.9347
 5697SOL     OW28726   3.463   3.407   3.028  0.8472 -0.0044 -0.0973
 5697SOL    HW128727   3.461   3.427   3.122  1.1833 -0.7992  0.0774
 5697SOL    HW228728   3.511   3.324   3.027  1.9771  0.5876  3.3179
 5698SOL     OW28729   0.039   1.112   5.156 -0.6875 -0.2156 -0.2513
 5698SOL    HW128730   0.130   1.101   5.184 -0.4349  0.4023 -0.8357
 5698SOL    HW228731   0.024   1.036   5.100  2.9891 -0.9280 -0.2513
 5699SOL     OW28732   4.393   4.568  14.435 -0.7511  0.1939 -0.0618
 5699SOL    HW128733   4.482   4.537  14.420  0.3991  2.7951  1.3923
 5699SOL    HW228734   4.414   4.661  14.445  2.0271 -0.5984  1.4225
 5700SOL     OW28735   4.277   0.630   3.283 -0.0558 -0.1265  0.0222
 5700SOL    HW128736   4.338   0.557   3.271 -1.5023 -1.3099 -0.0956
 5700SOL    HW228737   4.268   0.662   3.193 -1.2435 -2.1403 -0.5791
 5701SOL     OW28738   3.580   4.640   8.548 -0.4601 -0.0016  0.1506
 5701SOL    HW128739   3.661   4.624   8.597 -1.3827 -1.0496  1.3277
 5701SOL    HW228740   3.532   4.559   8.567 -0.2617 -0.3777 -0.8973
 5702SOL     OW28741   2.542   1.139  10.619  0.3054 -0.2243  1.0511
 5702SOL    HW128742   2.505   1.123  10.706 -0.6417  0.3613  0.7520
 5702SOL    HW228743   2.607   1.201  10.653  1.0125 -0.7724  0.7204
 5703SOL     OW28744   2.439   2.841   6.456  0.5449 -0.4149  0.3622
 5703SOL    HW128745   2.487   2.910   6.502  0.5796 -0.3411  0.2164
 5703SOL    HW228746   2.490   2.763   6.475 -1.5284 -2.1954 -1.2888
 5704SOL     OW28747   3.837   3.005   8.264 -0.4680  0.0506 -0.1001
 5704SOL    HW128748   3.824   3.051   8.347  0.5874 -0.5055  0.3810
 5704SOL    HW228749   3.912   3.057   8.234  0.2281 -1.0276 -0.2290
 5705SOL     OW28750   3.139   4.333   8.062 -0.9017 -0.4325  0.0755
 5705SOL    HW128751   3.191   4.313   8.141 -0.5934 -0.0877 -0.0414
 5705SOL    HW228752   3.158   4.257   8.007 -1.1841 -0.0155 -0.5907
 5706SOL     OW28753   2.710   4.192   6.185 -0.6653 -0.3580 -0.8453
 5706SOL    HW128754   2.760   4.273   6.186 -2.7360  0.9018  0.2795
 5706SOL    HW228755   2.639   4.210   6.246 -0.3864 -2.7749  0.1899
 5707SOL     OW28756   2.936   3.189   4.612 -1.1497  0.0299  0.4197
 5707SOL    HW128757   2.847   3.215   4.634  0.0377  3.9978  0.5764
 5707SOL    HW228758   2.920   3.122   4.545 -2.2712 -0.8328  1.5672
 5708SOL     OW28759   4.336   0.714   8.547  0.1273 -0.5439 -0.1910
 5708SOL    HW128760   4.335   0.681   8.637  1.2891  0.4225  0.1840
 5708SOL    HW228761   4.330   0.631   8.501  0.0383  0.0029 -1.1681
 5709SOL     OW28762   0.780   1.828   7.500 -0.0611  0.3062 -0.1389
 5709SOL    HW128763   0.860   1.852   7.548 -0.9935  1.3521  0.8929
 5709SOL    HW228764   0.814   1.842   7.412  0.6396 -0.0296  0.0753
 5710SOL     OW28765   4.555   1.594   0.311  0.9063 -0.1944 -0.1400
 5710SOL    HW128766   4.637   1.571   0.268  0.7677  2.5151 -1.8893
 5710SOL    HW228767   4.529   1.676   0.269  1.3291  2.0781  4.0817
 5711SOL     OW28768   3.262   0.935   8.125 -0.0760  0.0506  0.6136
 5711SOL    HW128769   3.187   0.886   8.159 -0.5615  0.8936  0.7367
 5711SOL    HW228770   3.214   1.018   8.121  0.7968  0.4535 -1.2445
 5712SOL     OW28771   0.990   4.036   3.117 -0.1156  0.1320  0.0772
 5712SOL    HW128772   1.068   3.985   3.094  1.8415  2.9366  0.3702
 5712SOL    HW228773   0.942   4.058   3.037 -1.1702  0.5620  0.8382
 5713SOL     OW28774   1.782   3.233   4.350  0.2743 -0.3079  0.0412
 5713SOL    HW128775   1.825   3.198   4.272 -1.2362 -0.6444 -0.6362
 5713SOL    HW228776   1.837   3.189   4.415  2.7365  1.3962 -0.8499
 5714SOL     OW28777   4.276   3.651  16.384 -0.5572  0.0330  0.2404
 5714SOL    HW128778   4.357   3.658  16.334  0.3806 -1.5298  1.5263
 5714SOL    HW228779   4.248   3.563  16.361  1.7419 -0.3920 -0.9165
 5715SOL     OW28780   3.026   3.460   6.668 -0.0130 -0.1203 -0.0049
 5715SOL    HW128781   3.025   3.543   6.717 -2.4883 -0.7919  1.0832
 5715SOL    HW228782   2.988   3.401   6.733 -2.4485 -0.1722 -1.4721
 5716SOL     OW28783   4.252   3.039   1.261  0.0223 -0.5736  0.1821
 5716SOL    HW128784   4.211   3.100   1.200 -1.6618 -0.4241  1.4872
 5716SOL    HW228785   4.241   2.958   1.210 -0.1478 -1.6374  1.9222
 5717SOL     OW28786   3.068   0.025  16.241 -0.0964  0.6563  0.1068
 5717SOL    HW128787   3.146   4.705  16.269 -1.3485 -1.1058  0.5416
 5717SOL    HW228788   3.033   4.692  16.177 -0.9609 -1.1393  2.2934
 5718SOL     OW28789   2.004   3.318   6.328 -0.6448  0.7126  0.9452
 5718SOL    HW128790   1.937   3.327   6.260  1.0898  0.6257 -0.7546
 5718SOL    HW228791   2.035   3.230   6.307  0.2561  0.9515  1.3004
 5719SOL     OW28792   4.626   3.067   7.765  0.3680 -0.0034  0.3098
 5719SOL    HW128793   4.719   3.045   7.767 -0.0949 -1.9095  0.6244
 5719SOL    HW228794   4.595   3.014   7.839  0.9290  0.5588  0.9482
 5720SOL     OW28795   0.683   0.735   7.931 -0.0994  0.2354  0.4179
 5720SOL    HW128796   0.605   0.762   7.882  1.4781  0.6604 -1.8570
 5720SOL    HW228797   0.662   0.767   8.019  0.8095  0.4147  0.5690
 5721SOL     OW28798   0.210   1.107   3.079  0.4455 -0.0357 -0.3057
 5721SOL    HW128799   0.203   1.202   3.086  0.2248  0.0854 -2.2433
 5721SOL    HW228800   0.238   1.091   2.989 -0.5538  0.0876 -0.6481
 5722SOL     OW28801   0.884   0.727   3.031  0.4278  0.0358 -0.0734
 5722SOL    HW128802   0.883   0.727   3.127 -0.8669  0.5832 -0.1005
 5722SOL    HW228803   0.797   0.693   3.010  0.2967  0.6973 -0.5855
 5723SOL     OW28804   2.587   3.499  15.809 -0.0718 -0.0454 -0.1035
 5723SOL    HW128805   2.535   3.432  15.764  0.2815 -0.4294  0.0485
 5723SOL    HW228806   2.602   3.559  15.736 -0.6569  2.5972  1.9554
 5724SOL     OW28807   0.194   4.061   3.113 -0.6789  0.1038  0.5899
 5724SOL    HW128808   0.226   4.122   3.047  2.3136 -2.1645 -0.0605
 5724SOL    HW228809   0.184   3.984   3.058  1.2773  0.3693 -0.1498
 5725SOL     OW28810   0.930   3.980   1.909 -0.5232 -0.5907 -0.1835
 5725SOL    HW128811   0.868   4.010   1.975 -0.4254 -0.5305 -0.1175
 5725SOL    HW228812   0.993   4.052   1.915  0.0415 -1.1475  0.6410
 5726SOL     OW28813   1.775   1.014   7.741  0.2029 -0.3785 -0.0180
 5726SOL    HW128814   1.690   1.058   7.734  0.5542  0.7734  3.0705
 5726SOL    HW228815   1.803   1.050   7.825 -2.0482  0.5975  0.3281
 5727SOL     OW28816   3.707   4.347   4.575  0.3404 -0.9599  0.1246
 5727SOL    HW128817   3.685   4.259   4.544 -2.2331  0.0923 -1.0928
 5727SOL    HW228818   3.622   4.380   4.604 -0.4186 -1.3802 -1.5993
 5728SOL     OW28819   4.529   3.574   9.772  0.0097 -0.2145  0.1296
 5728SOL    HW128820   4.586   3.512   9.817 -0.8070  1.6357  3.7012
 5728SOL    HW228821   4.501   3.525   9.694  0.6655  1.0863 -0.9190
 5729SOL     OW28822   0.021   0.061   7.469  0.1194  0.0316  0.1402
 5729SOL    HW128823   0.021   0.096   7.380 -0.3258  0.5081  0.3301
 5729SOL    HW228824   4.687   0.120   7.509 -4.1648 -2.9765 -2.0747
 5730SOL     OW28825   1.176   2.720   7.015 -0.5555  0.5303 -0.1114
 5730SOL    HW128826   1.115   2.734   7.088 -0.5381  0.7969 -0.1483
 5730SOL    HW228827   1.220   2.639   7.041 -1.1107  0.2125 -0.1579
 5731SOL     OW28828   3.659   1.734  16.389  0.4824  0.1484 -0.3709
 5731SOL    HW128829   3.638   1.741  16.482  0.6538  0.8541 -0.3865
 5731SOL    HW228830   3.583   1.778  16.350  2.5158  2.6254 -1.5468
 5732SOL     OW28831   2.704   1.530   4.957  0.1362 -0.1600  0.1476
 5732SOL    HW128832   2.696   1.620   4.925  0.8743 -0.7400 -1.6852
 5732SOL    HW228833   2.788   1.507   4.918 -0.0059  1.1194 -0.9281
 5733SOL     OW28834   2.978   2.748   4.943 -0.1981  0.0252  0.3374
 5733SOL    HW128835   2.985   2.829   4.993 -0.6643  0.8297 -0.8955
 5733SOL    HW228836   2.899   2.706   4.976  0.0833 -0.9660 -0.2400
 5734SOL     OW28837   4.106   0.112   5.681  0.3699 -0.0070  0.3360
 5734SOL    HW128838   4.035   0.125   5.744  0.0610 -1.6749  0.3300
 5734SOL    HW228839   4.174   0.167   5.721  1.5682 -2.4814  1.7112
 5735SOL     OW28840   4.245   2.587  17.589 -0.2429 -0.1794 -0.1847
 5735SOL    HW128841   4.265   2.568  17.498  2.1638 -1.2532  0.5576
 5735SOL    HW228842   4.184   2.515  17.600 -2.0867  1.3577 -0.2542
 5736SOL     OW28843   0.278   1.904  15.308  0.6903 -0.0827  0.4135
 5736SOL    HW128844   0.275   1.943  15.395  2.9632 -1.4358  1.1081
 5736SOL    HW228845   0.235   1.970  15.254 -0.0960 -0.8852  0.0652
 5737SOL     OW28846   2.144   4.302   7.313 -0.2105 -0.5305  0.2711
 5737SOL    HW128847   2.230   4.340   7.330 -0.2020 -1.1593  1.6763
 5737SOL    HW228848   2.110   4.315   7.401 -1.0742  1.5800 -0.3859
 5738SOL     OW28849   1.448   2.040   8.653  0.6831 -0.7620  0.6170
 5738SOL    HW128850   1.421   1.986   8.727  2.1646 -1.9040  0.3205
 5738SOL    HW228851   1.535   2.072   8.679  1.2185 -1.5431 -0.2130
 5739SOL     OW28852   3.662   0.099  16.541  0.4161  0.5489  0.1226
 5739SOL    HW128853   3.697   0.111  16.453 -3.3754  0.8915 -1.3459
 5739SOL    HW228854   3.625   0.011  16.542  2.7014 -0.4070  1.0747
 5740SOL     OW28855   2.452   2.750   9.624 -0.2752 -0.0691  0.0115
 5740SOL    HW128856   2.436   2.823   9.683  1.3373 -0.1626  0.5585
 5740SOL    HW228857   2.483   2.795   9.545 -0.3504 -3.2168 -1.8342
 5741SOL     OW28858   0.798   2.637   7.913 -0.3476 -0.3186 -0.2915
 5741SOL    HW128859   0.797   2.674   7.825  1.7552  1.5973  0.4591
 5741SOL    HW228860   0.874   2.684   7.949 -1.8678  0.6559  1.6609
 5742SOL     OW28861   0.081   2.551   1.549 -0.2593  0.1200 -0.0855
 5742SOL    HW128862   0.085   2.645   1.565  0.5962  0.3140 -1.4199
 5742SOL    HW228863   4.716   2.542   1.562 -0.0161 -1.1192  0.8451
 5743SOL     OW28864   1.606   4.519  15.030 -0.0353 -0.3922 -0.2555
 5743SOL    HW128865   1.649   4.503  14.946 -0.3945 -0.8110 -0.3654
 5743SOL    HW228866   1.573   4.607  15.012 -0.6591 -0.6821 -0.5362
 5744SOL     OW28867   2.163   4.563   7.103 -0.0886  0.5532 -0.0725
 5744SOL    HW128868   2.142   4.591   7.192 -0.6732  0.6470 -0.2427
 5744SOL    HW228869   2.250   4.523   7.111 -0.0528  0.3351 -1.5517
 5745SOL     OW28870   0.608   3.897   5.602  0.3096  0.0396 -0.1228
 5745SOL    HW128871   0.611   3.990   5.581  0.5892  0.5512  2.1397
 5745SOL    HW228872   0.694   3.867   5.575  0.1138 -0.9106  0.2980
 5746SOL     OW28873   2.358   1.324   1.412  0.7321 -0.4445 -0.0174
 5746SOL    HW128874   2.407   1.325   1.329  2.1273  0.6979  0.8158
 5746SOL    HW228875   2.293   1.391   1.394 -1.0575 -2.0793  0.3839
 5747SOL     OW28876   3.329   0.561   5.727 -0.4669 -0.5178  0.1501
 5747SOL    HW128877   3.377   0.479   5.736  0.2709 -0.5011 -3.6131
 5747SOL    HW228878   3.394   0.630   5.739 -0.6910 -0.3273  0.2730
 5748SOL     OW28879   4.410   1.019   3.920  0.1870  0.0556  0.1601
 5748SOL    HW128880   4.481   1.036   3.981  0.0170 -0.7562  0.5846
 5748SOL    HW228881   4.463   0.977   3.852  1.0801  1.4934 -0.0277
 5749SOL     OW28882   4.567   0.752  16.232  0.1573  0.1373  0.5979
 5749SOL    HW128883   4.503   0.819  16.254  0.0646  0.4012 -0.4716
 5749SOL    HW228884   4.648   0.802  16.237  0.6148 -0.6808  1.4717
 5750SOL     OW28885   0.043   1.936   1.131 -0.5149  0.3928 -0.2449
 5750SOL    HW128886   0.055   1.861   1.189 -0.5809  2.2746  2.2128
 5750SOL    HW228887   0.064   2.007   1.191  0.3110  0.7294 -0.9325
 5751SOL     OW28888   4.245   2.598  16.691  0.1676 -0.2527 -0.5398
 5751SOL    HW128889   4.288   2.655  16.627 -0.8150  3.1690  1.8592
 5751SOL    HW228890   4.226   2.651  16.768  2.2424  0.5776 -0.6036
 5752SOL     OW28891   3.879   3.762   2.886 -0.3712  0.0001 -0.1831
 5752SOL    HW128892   3.869   3.749   2.980 -2.2560  0.0177 -0.3862
 5752SOL    HW228893   3.856   3.676   2.852 -0.1795 -1.0064  2.2271
 5753SOL     OW28894   1.972   3.224   4.148 -0.0491 -0.0744  0.2609
 5753SOL    HW128895   1.958   3.131   4.165 -0.0797 -0.0024  0.6235
 5753SOL    HW228896   1.992   3.212   4.055  0.2601  0.1157  0.3017
 5754SOL     OW28897   3.407   0.762   7.276  0.2874 -0.4703  0.7113
 5754SOL    HW128898   3.383   0.754   7.369  0.2547  0.7765  0.8024
 5754SOL    HW228899   3.356   0.837   7.248  0.7353 -0.2998  0.3534
 5755SOL     OW28900   2.741   1.605   5.505 -0.1594  0.3934  0.7714
 5755SOL    HW128901   2.759   1.587   5.412  1.8414 -0.6808  1.3698
 5755SOL    HW228902   2.741   1.519   5.547  2.0629 -0.2724 -0.5349
 5756SOL     OW28903   3.917   4.041   4.820  0.6491  0.0478  0.1370
 5756SOL    HW128904   3.963   4.056   4.902 -2.3166  0.5104  1.7263
 5756SOL    HW228905   3.838   3.999   4.854  0.2810  0.3989 -0.2718
 5757SOL     OW28906   3.422   2.956  11.188  0.1146  0.2105 -0.1726
 5757SOL    HW128907   3.330   2.980  11.178 -0.0447 -0.1018  0.4880
 5757SOL    HW228908   3.418   2.861  11.182  0.1491  0.0882  1.6842
 5758SOL     OW28909   3.731   3.700   5.801  0.3271  0.5589 -0.6554
 5758SOL    HW128910   3.750   3.775   5.746 -0.9619  1.7271  0.4824
 5758SOL    HW228911   3.794   3.708   5.873  0.8244 -0.9657 -0.9219
 5759SOL     OW28912   3.002   2.568   9.580 -0.1429  0.2430  0.1308
 5759SOL    HW128913   3.054   2.608   9.650  1.1509 -0.5043 -0.4042
 5759SOL    HW228914   2.935   2.627   9.548 -0.6240 -0.4318 -0.1041
 5760SOL     OW28915   3.339   2.590   5.120 -0.7706  0.1285  0.0076
 5760SOL    HW128916   3.308   2.500   5.129  1.1467 -0.2071  3.1509
 5760SOL    HW228917   3.287   2.640   5.182 -0.7086 -0.8296  0.8344
 5761SOL     OW28918   4.158   2.604  12.220  0.4578 -0.1887 -0.4756
 5761SOL    HW128919   4.235   2.619  12.274  0.2614 -0.4028 -0.1337
 5761SOL    HW228920   4.186   2.522  12.178  0.7949  0.2755 -1.1468
 5762SOL     OW28921   3.200   3.794   5.494  0.4539  0.4181 -0.3962
 5762SOL    HW128922   3.187   3.700   5.506 -1.4697  0.6019 -1.0556
 5762SOL    HW228923   3.266   3.804   5.562  0.6750 -1.6255 -0.3140
 5763SOL     OW28924   1.992   1.643   6.992  0.7288  0.0141 -0.1070
 5763SOL    HW128925   1.903   1.620   7.018  1.0169 -0.1348  0.7585
 5763SOL    HW228926   2.032   1.657   7.078 -1.5904  0.9236  0.8139
 5764SOL     OW28927   3.733   1.045   5.899 -0.9547  0.0864  0.4573
 5764SOL    HW128928   3.639   1.050   5.917 -1.0018 -0.9313  0.4790
 5764SOL    HW228929   3.735   0.981   5.828  1.4665 -0.1528  0.7572
 5765SOL     OW28930   3.638   1.576   4.881 -0.0595  0.1805  0.9217
 5765SOL    HW128931   3.712   1.597   4.823 -1.2964  0.0721 -0.6890
 5765SOL    HW228932   3.563   1.591   4.823 -0.8419 -0.6811  1.7239
 5766SOL     OW28933   2.991   1.441   0.822  0.0966  0.0362  0.4721
 5766SOL    HW128934   2.922   1.505   0.804  0.9742  0.9160  0.2377
 5766SOL    HW228935   2.944   1.394   0.891  1.6387 -3.1278 -0.6284
 5767SOL     OW28936   0.984   4.286   4.038 -0.3348  0.0119  0.1121
 5767SOL    HW128937   0.946   4.207   3.998 -2.0605 -0.3930  2.5163
 5767SOL    HW228938   0.903   4.337   4.044  1.3349  2.7018 -0.3025
 5768SOL     OW28939   1.036   4.293   4.333  0.1989 -0.0127  0.3271
 5768SOL    HW128940   1.060   4.269   4.244  0.0294 -0.6026  0.4400
 5768SOL    HW228941   1.085   4.374   4.348  1.9017 -1.0904  0.6368
 5769SOL     OW28942   0.836   2.349  12.738 -0.1937  0.7343  0.2089
 5769SOL    HW128943   0.819   2.358  12.832  0.8486 -0.3499  0.4970
 5769SOL    HW228944   0.889   2.429  12.730 -1.1504  1.3556  0.1755
 5770SOL     OW28945   1.115   4.217   3.303 -0.8686 -0.8968  0.7327
 5770SOL    HW128946   1.185   4.170   3.348  1.8624  0.0468 -2.4994
 5770SOL    HW228947   1.078   4.139   3.263 -2.7001  0.9866 -1.2301
 5771SOL     OW28948   1.590   2.358  16.961 -0.1678  0.1686 -0.1495
 5771SOL    HW128949   1.563   2.306  16.886  0.7625 -0.9244  0.2914
 5771SOL    HW228950   1.504   2.376  17.000 -0.0114 -0.6907  0.5972
 5772SOL     OW28951   2.606   2.473  10.168  0.1657  0.3444  0.4859
 5772SOL    HW128952   2.675   2.493  10.231  0.8473 -2.5360  0.6486
 5772SOL    HW228953   2.539   2.425  10.216  1.7985 -1.5984  0.8221
 5773SOL     OW28954   1.776   4.048   0.470  0.0241  0.3632 -0.1318
 5773SOL    HW128955   1.741   4.065   0.558 -0.1598 -0.6255 -0.0093
 5773SOL    HW228956   1.780   3.952   0.477 -1.2548  0.2714 -0.6253
 5774SOL     OW28957   1.531   2.611   1.117 -0.1457  0.9885 -0.0700
 5774SOL    HW128958   1.598   2.622   1.184  0.0178 -1.5531  0.1615
 5774SOL    HW228959   1.573   2.539   1.071 -1.3442  0.3151 -0.1242
 5775SOL     OW28960   0.326   3.446   3.405  0.0352  0.3456  0.1909
 5775SOL    HW128961   0.230   3.446   3.398  0.2811  0.9235 -3.0779
 5775SOL    HW228962   0.344   3.357   3.434 -1.1506  0.2976  0.8129
 5776SOL     OW28963   1.336   2.188  15.835 -0.6026  0.0883  0.4882
 5776SOL    HW128964   1.275   2.175  15.907 -0.3098 -0.0637  0.7065
 5776SOL    HW228965   1.342   2.283  15.824  0.0519  0.0078  0.0987
 5777SOL     OW28966   1.818   1.840   9.548 -0.2801  0.4232  0.0035
 5777SOL    HW128967   1.906   1.804   9.533 -0.2087  1.2101 -1.4903
 5777SOL    HW228968   1.812   1.834   9.643 -2.0948  0.4029 -0.1132
 5778SOL     OW28969   0.813   1.187  15.384 -0.2153  0.4256  0.0656
 5778SOL    HW128970   0.756   1.134  15.328  1.7292 -0.7468 -0.7782
 5778SOL    HW228971   0.815   1.266  15.330  1.4279 -0.0061 -0.4984
 5779SOL     OW28972   3.295   3.010   8.879  0.2910  0.2364 -0.2312
 5779SOL    HW128973   3.331   3.095   8.906  0.5325 -0.3342  1.2250
 5779SOL    HW228974   3.278   3.028   8.787 -0.5454  0.6950  0.0036
 5780SOL     OW28975   3.547   0.395   0.683  0.3906 -0.1817 -0.4085
 5780SOL    HW128976   3.602   0.471   0.704 -2.1001  1.4695  0.1432
 5780SOL    HW228977   3.618   0.350   0.637 -0.9827 -0.9550 -1.7672
 5781SOL     OW28978   1.870   3.632   7.301 -0.4716  0.8305  0.1531
 5781SOL    HW128979   1.786   3.674   7.323  0.6250  1.5044  3.1107
 5781SOL    HW228980   1.917   3.665   7.378  0.2002 -0.5790  0.3370
 5782SOL     OW28981   4.348   4.306   8.796  0.4192  0.3881  0.3208
 5782SOL    HW128982   4.431   4.335   8.757  0.7673 -1.2038 -0.0969
 5782SOL    HW228983   4.369   4.248   8.869 -1.9424 -0.6155  0.1985
 5783SOL     OW28984   3.190   0.052   2.764 -0.1708  0.0045  0.5872
 5783SOL    HW128985   3.116   0.056   2.702  0.8216  0.8812 -0.5495
 5783SOL    HW228986   3.226   0.137   2.738 -1.5435  0.3903 -0.0807
 5784SOL     OW28987   1.430   2.925   3.516  0.3589  0.2067 -0.0883
 5784SOL    HW128988   1.458   2.904   3.427 -1.3972  1.1793 -0.8647
 5784SOL    HW228989   1.359   2.985   3.491  1.1748  1.1751 -0.0906
 5785SOL     OW28990   1.510   2.992   7.049 -0.2045  0.4788  0.0777
 5785SOL    HW128991   1.522   2.910   7.001  0.7047 -1.0170  2.8621
 5785SOL    HW228992   1.597   2.996   7.089 -0.1006 -0.5911 -0.0415
 5786SOL     OW28993   0.547   2.200   4.972 -0.3021 -0.3355 -0.1143
 5786SOL    HW128994   0.526   2.200   5.066 -1.5185  0.1942 -0.3790
 5786SOL    HW228995   0.642   2.201   4.976 -0.2688  1.0625 -1.4348
 5787SOL     OW28996   4.145   3.604   7.610 -0.0147 -0.4159 -0.0927
 5787SOL    HW128997   4.131   3.630   7.518  2.6225 -0.8646 -0.5997
 5787SOL    HW228998   4.229   3.648   7.625  0.4848 -0.3722 -2.9975
 5788SOL     OW28999   1.715   0.425   8.167  0.3852 -0.3293 -0.6942
 5788SOL    HW129000   1.690   0.366   8.096 -0.1547 -1.5918  0.5377
 5788SOL    HW229001   1.810   0.423   8.169  0.3845  0.8002  0.3706
 5789SOL     OW29002   3.471   0.805   3.087 -0.0189  0.2105 -0.0846
 5789SOL    HW129003   3.424   0.753   3.152 -0.5393  1.0171  0.1838
 5789SOL    HW229004   3.426   0.772   3.009 -1.4636 -0.7079  1.1416
 5790SOL     OW29005   3.797   0.870  16.672 -0.3273 -0.0010  0.1245
 5790SOL    HW129006   3.806   0.849  16.765  0.1191 -0.8514 -0.1118
 5790SOL    HW229007   3.872   0.928  16.658  0.7554 -1.0926  1.4909
 5791SOL     OW29008   2.167   2.513   9.707  0.7513 -0.3618  0.5424
 5791SOL    HW129009   2.256   2.535   9.734  1.1995 -0.9229 -0.4661
 5791SOL    HW229010   2.157   2.418   9.718 -1.2013  0.1976  3.5008
 5792SOL     OW29011   2.241   4.683   4.963 -0.1849  0.3425 -0.1568
 5792SOL    HW129012   2.330   4.662   4.938  0.7363  2.9858  0.8556
 5792SOL    HW229013   2.209   0.018   4.899 -0.5909 -0.2711 -0.5622
 5793SOL     OW29014   1.815   0.252   1.106  0.6495  0.1647  0.5180
 5793SOL    HW129015   1.892   0.203   1.079 -1.0620 -2.5475  0.5907
 5793SOL    HW229016   1.827   0.257   1.201  0.9595  0.6051  0.4583
 5794SOL     OW29017   1.820   4.450   4.573  0.0486 -0.3140  0.6600
 5794SOL    HW129018   1.786   4.361   4.576  0.2940 -0.4387 -0.2630
 5794SOL    HW229019   1.828   4.461   4.478 -0.3708 -4.5978  0.1496
 5795SOL     OW29020   4.144   1.746   4.644 -0.3677  0.0913  0.2994
 5795SOL    HW129021   4.205   1.694   4.592 -1.5819  1.8672 -2.9142
 5795SOL    HW229022   4.125   1.815   4.581  0.1443  0.6981  0.8145
 5796SOL     OW29023   3.984   0.593   1.515 -0.1855 -0.0467  0.1849
 5796SOL    HW129024   3.893   0.621   1.516  0.7943  3.1617 -0.3473
 5796SOL    HW229025   4.013   0.621   1.602 -0.6574 -0.4944  0.4824
 5797SOL     OW29026   3.604   2.258   3.599  0.8923  0.1686  0.2767
 5797SOL    HW129027   3.520   2.252   3.553  0.7226 -1.2302  0.7779
 5797SOL    HW229028   3.644   2.338   3.567 -0.6005  0.5272 -0.7092
 5798SOL     OW29029   1.052   1.892   8.338  0.0045  0.1810 -0.2273
 5798SOL    HW129030   1.111   1.894   8.262 -1.9620  1.4577 -1.7332
 5798SOL    HW229031   1.017   1.981   8.330 -0.3603 -0.0055 -0.7391
 5799SOL     OW29032   0.122   0.750   5.058  0.0048  0.5120 -0.3886
 5799SOL    HW129033   0.201   0.701   5.079  0.3501  1.4643  0.5568
 5799SOL    HW229034   0.063   0.739   5.133 -0.4151  0.5804 -0.7065
 5800SOL     OW29035   2.182   1.639  10.874 -0.9695  0.0658  0.1148
 5800SOL    HW129036   2.264   1.596  10.849 -1.4845 -0.6600 -0.3355
 5800SOL    HW229037   2.150   1.582  10.943 -1.9868  2.0905  1.2837
 5801SOL     OW29038   4.605   0.605   4.129  0.0032  0.4008 -0.2983
 5801SOL    HW129039   4.559   0.522   4.119  1.5294 -0.2846 -1.5792
 5801SOL    HW229040   4.552   0.662   4.073  1.1331  1.9676  0.2136
 5802SOL     OW29041   4.531   1.247  17.252  0.1443  0.5166  0.3201
 5802SOL    HW129042   4.544   1.175  17.190  1.2599  1.2398 -0.2692
 5802SOL    HW229043   4.535   1.199  17.335 -4.0812 -0.8368 -0.2198
 5803SOL     OW29044   3.233   2.730   9.297  0.3874  0.0299  0.0268
 5803SOL    HW129045   3.309   2.737   9.356  0.4353  0.0840 -0.0407
 5803SOL    HW229046   3.262   2.673   9.226  0.8480 -1.1579  1.1708
 5804SOL     OW29047   4.009   3.191   3.143 -0.4860 -0.0694 -0.1220
 5804SOL    HW129048   4.042   3.209   3.231 -4.6574 -0.5807  1.5455
 5804SOL    HW229049   3.967   3.275   3.128 -2.7278 -0.9638  1.1330
 5805SOL     OW29050   0.182   1.702   3.327  0.1532 -0.5780 -0.0574
 5805SOL    HW129051   0.126   1.639   3.373  0.9993 -2.0002 -0.9821
 5805SOL    HW229052   0.122   1.772   3.304  0.8503 -0.3983 -1.3015
 5806SOL     OW29053   3.874   1.401   1.545 -0.5329 -0.1500  0.1555
 5806SOL    HW129054   3.963   1.387   1.511 -1.2052 -3.0055 -0.4071
 5806SOL    HW229055   3.860   1.490   1.512 -0.0437 -0.7340 -1.6616
 5807SOL     OW29056   2.715   4.088   7.555  0.1514 -0.3038  0.2354
 5807SOL    HW129057   2.794   4.078   7.608  0.3709  2.1675  0.3662
 5807SOL    HW229058   2.659   4.124   7.624 -0.3210 -1.5706  0.5155
 5808SOL     OW29059   3.920   3.209   6.270  0.0821  0.1219  0.3501
 5808SOL    HW129060   3.963   3.223   6.185  0.6128 -1.8257  0.2778
 5808SOL    HW229061   3.843   3.158   6.246 -0.0443  0.7701 -0.6241
 5809SOL     OW29062   3.969   1.327   5.731 -0.1031  0.2782  0.1202
 5809SOL    HW129063   3.915   1.339   5.652  2.5582  0.3760 -1.6819
 5809SOL    HW229064   4.028   1.259   5.698  0.3271  1.1789 -0.9530
 5810SOL     OW29065   1.587   3.395   1.790  0.4058 -0.0007 -0.0007
 5810SOL    HW129066   1.553   3.320   1.838  1.8519 -0.1503  0.7829
 5810SOL    HW229067   1.591   3.364   1.699 -1.1021  0.8536 -0.3670
 5811SOL     OW29068   0.317   2.897  14.761 -0.0429 -0.5846 -0.2962
 5811SOL    HW129069   0.285   2.976  14.717 -0.5448 -0.2901  0.6065
 5811SOL    HW229070   0.411   2.899  14.742 -0.4325  1.3779 -1.9844
 5812SOL     OW29071   0.457   4.235  10.863 -0.0476 -0.1912  0.4431
 5812SOL    HW129072   0.502   4.196  10.937 -1.0897 -1.2143  0.5412
 5812SOL    HW229073   0.376   4.267  10.901  0.6314  0.7910  1.0633
 5813SOL     OW29074   1.100   3.618   5.659 -0.2577  0.0139 -0.1057
 5813SOL    HW129075   1.129   3.626   5.750 -0.2878 -1.9853  0.0878
 5813SOL    HW229076   1.058   3.532   5.651  0.1886 -0.3099  1.0864
 5814SOL     OW29077   4.358   2.211   2.953 -0.0402  0.3116  0.4492
 5814SOL    HW129078   4.296   2.146   2.985 -0.6468  1.1435  0.9371
 5814SOL    HW229079   4.306   2.282   2.916 -1.8130 -1.1765  0.0729
 5815SOL     OW29080   4.503   2.487   8.683  0.3336 -0.3135  0.0339
 5815SOL    HW129081   4.415   2.455   8.704 -0.5337  2.2862  0.3643
 5815SOL    HW229082   4.559   2.420   8.722  0.0186  0.2112  1.3720
 5816SOL     OW29083   1.279   3.209  16.828 -0.6570  0.0852  0.1180
 5816SOL    HW129084   1.211   3.158  16.783 -1.3722 -0.8063  2.1821
 5816SOL    HW229085   1.226   3.283  16.858  0.2372  1.0901 -0.8341
 5817SOL     OW29086   1.207   4.337   5.031 -0.5302  0.2470  0.3114
 5817SOL    HW129087   1.141   4.308   4.968  0.5588  0.5331 -0.9664
 5817SOL    HW229088   1.277   4.290   4.986  0.8475  0.7505  1.9063
 5818SOL     OW29089   0.145   0.565  12.886  0.2372 -0.4319 -0.2521
 5818SOL    HW129090   0.134   0.487  12.833  1.2346 -0.4251 -0.4812
 5818SOL    HW229091   0.186   0.620  12.819 -0.7564  1.3815  0.6120
 5819SOL     OW29092   3.018   3.038   7.635  0.1720  0.3749  0.9349
 5819SOL    HW129093   2.936   2.997   7.609  0.0221  0.2280  1.6452
 5819SOL    HW229094   3.004   3.029   7.729 -0.2134  3.9145  1.2345
 5820SOL     OW29095   2.671   0.049   9.995 -0.3630 -0.1078 -0.3637
 5820SOL    HW129096   2.759   0.039  10.031  0.2117  1.5567 -1.2996
 5820SOL    HW229097   2.618   4.716  10.045  0.7992 -1.1139 -0.3776
 5821SOL     OW29098   2.088   2.116  11.195  0.1463 -0.0321 -0.0588
 5821SOL    HW129099   2.062   2.036  11.150  0.2151 -1.3758  2.2982
 5821SOL    HW229100   2.182   2.104  11.205  0.6018  1.3167 -2.5090
 5822SOL     OW29101   4.325   2.080   8.027  0.6712  0.5815 -0.4739
 5822SOL    HW129102   4.283   2.142   7.967  0.2777 -1.5606 -2.4010
 5822SOL    HW229103   4.276   2.000   8.011  0.1551  0.3877  2.0756
 5823SOL     OW29104   4.711   1.712  15.653 -0.1479 -0.2804 -0.2372
 5823SOL    HW129105   4.630   1.674  15.686  0.1742 -1.1812 -0.4909
 5823SOL    HW229106   4.703   1.801  15.688 -0.6565 -1.0936  1.7290
 5824SOL     OW29107   0.538   1.760   7.898 -0.5516  0.2701 -0.7858
 5824SOL    HW129108   0.622   1.779   7.940 -1.1601  0.7883  0.1995
 5824SOL    HW229109   0.547   1.820   7.824  0.0071  0.3875 -0.6243
 5825SOL     OW29110   1.652   0.907   6.400  0.1109  0.3497 -0.5781
 5825SOL    HW129111   1.570   0.858   6.395 -0.8934  2.2066 -2.0735
 5825SOL    HW229112   1.650   0.927   6.494  0.0753 -2.5528  0.0583
 5826SOL     OW29113   1.934   1.886  11.139 -0.4056  0.1795 -0.0828
 5826SOL    HW129114   1.902   1.796  11.145 -0.6650  0.2711 -0.1050
 5826SOL    HW229115   1.916   1.911  11.230  2.0350 -3.3530  1.3667
 5827SOL     OW29116   4.396   3.413  13.457  0.0924  0.2707  0.1850
 5827SOL    HW129117   4.334   3.343  13.477 -0.2687  0.7138  0.6244
 5827SOL    HW229118   4.342   3.486  13.426  1.0591  0.8805 -0.0609
 5828SOL     OW29119   0.829   2.286   4.639 -0.3656  0.2966 -0.1917
 5828SOL    HW129120   0.797   2.376   4.639 -1.0754  0.0689 -2.7421
 5828SOL    HW229121   0.756   2.234   4.606  1.1952 -1.4407 -0.9389
 5829SOL     OW29122   1.212   2.481  11.744  0.1218 -0.4317  0.1934
 5829SOL    HW129123   1.152   2.553  11.723 -1.0002 -1.5354 -0.4367
 5829SOL    HW229124   1.197   2.418  11.674 -0.2935  0.1827 -0.2776
 5830SOL     OW29125   2.234   2.903  10.933  0.1480 -0.0407  0.1475
 5830SOL    HW129126   2.296   2.930  11.000 -0.6705 -1.7609  1.6049
 5830SOL    HW229127   2.289   2.838  10.889  1.6430  0.1481  1.7711
 5831SOL     OW29128   4.009   2.741   4.836  0.2252  0.0005 -0.7052
 5831SOL    HW129129   4.052   2.752   4.921 -1.1649 -0.7051  0.0934
 5831SOL    HW229130   3.926   2.707   4.871  1.6342 -1.4558  1.2146
 5832SOL     OW29131   0.915   1.439   2.970 -0.3692 -0.4341 -0.0090
 5832SOL    HW129132   0.999   1.454   2.927 -0.3737 -1.9774 -0.5686
 5832SOL    HW229133   0.893   1.348   2.949  1.8147 -0.7275 -1.0713
 5833SOL     OW29134   1.818   0.995   9.721  0.3394  0.7317 -0.2045
 5833SOL    HW129135   1.807   0.902   9.703  0.5171  0.0957  3.0585
 5833SOL    HW229136   1.834   0.994   9.815  0.5833  1.2276 -0.2347
 5834SOL     OW29137   3.571   2.945  12.574  0.0035  0.3774 -0.3379
 5834SOL    HW129138   3.565   2.964  12.481 -1.8876  1.5317  0.0288
 5834SOL    HW229139   3.580   2.850  12.561 -3.3347  0.3747 -2.4460
 5835SOL     OW29140   2.206   0.309   6.909  0.0368 -0.1616  0.2200
 5835SOL    HW129141   2.255   0.375   6.957 -0.5751  0.5649 -0.1641
 5835SOL    HW229142   2.251   0.344   6.832  1.1177 -1.0305  0.4504
 5836SOL     OW29143   1.354   1.428  16.160  0.0442 -0.6477 -0.2961
 5836SOL    HW129144   1.411   1.427  16.083  0.5853 -1.0324  0.1118
 5836SOL    HW229145   1.418   1.463  16.222  1.4387 -1.9894 -0.9719
 5837SOL     OW29146   3.118   2.621   7.126  0.5566 -0.6547 -0.4214
 5837SOL    HW129147   3.043   2.633   7.185  2.1457  0.9225  1.2629
 5837SOL    HW229148   3.083   2.576   7.049  0.2725  1.0442 -1.2630
 5838SOL     OW29149   2.566   1.567   8.387  0.4141  0.6626  0.1011
 5838SOL    HW129150   2.594   1.503   8.453 -0.4427 -0.0655 -0.2377
 5838SOL    HW229151   2.525   1.497   8.336 -0.0311  1.3889 -0.5131
 5839SOL     OW29152   2.876   0.854   7.671 -0.0073  0.7367 -0.5165
 5839SOL    HW129153   2.869   0.826   7.580  0.0747  1.5234 -0.7615
 5839SOL    HW229154   2.971   0.842   7.668 -0.0251  1.0564 -2.2358
 5840SOL     OW29155   0.555   1.361  13.218 -0.1136 -0.0969 -0.2152
 5840SOL    HW129156   0.525   1.270  13.217 -0.8142  0.1297 -0.4839
 5840SOL    HW229157   0.512   1.393  13.138  0.7616  1.8218  0.0932
 5841SOL     OW29158   4.084   3.694  11.808  0.2976  0.4699  0.5257
 5841SOL    HW129159   4.116   3.725  11.723  1.6020 -1.4148  0.3534
 5841SOL    HW229160   4.102   3.602  11.789  0.0718  0.3477  0.8958
 5842SOL     OW29161   0.210   3.116   8.669 -0.2343  0.0457  0.0646
 5842SOL    HW129162   0.146   3.160   8.725 -0.4098  1.3697 -1.1706
 5842SOL    HW229163   0.149   3.059   8.623 -0.8815  0.9579 -0.2025
 5843SOL     OW29164   3.180   3.319   3.298 -0.1053 -0.2821  0.6443
 5843SOL    HW129165   3.167   3.334   3.204  0.5357 -0.0766  0.5911
 5843SOL    HW229166   3.096   3.275   3.312  0.5336 -0.8655  2.6006
 5844SOL     OW29167   4.631   0.388   7.411 -0.1648  0.1385  0.3061
 5844SOL    HW129168   4.624   0.425   7.499  2.5977  0.4542  0.4024
 5844SOL    HW229169   4.544   0.349   7.417  0.5887 -1.6355 -0.1091
 5845SOL     OW29170   0.844   4.167   7.043 -0.5988  0.1989  0.2484
 5845SOL    HW129171   0.889   4.116   6.976  1.0081  0.9239  0.7683
 5845SOL    HW229172   0.755   4.136   7.028 -0.0860 -0.3227 -1.7118
 5846SOL     OW29173   2.125   3.936   5.327  0.2235 -0.1941  0.1307
 5846SOL    HW129174   2.101   3.870   5.262 -1.6758 -0.1714  0.8154
 5846SOL    HW229175   2.214   3.906   5.346  0.0642 -1.0325 -0.4242
 5847SOL     OW29176   3.005   3.933   4.461  0.3802 -0.1971 -0.0938
 5847SOL    HW129177   2.942   3.916   4.391  0.0517 -2.1898  0.6798
 5847SOL    HW229178   3.025   3.842   4.483  0.2944  0.2777  1.9722
 5848SOL     OW29179   1.233   3.169   6.093  0.5747  0.3421 -0.4284
 5848SOL    HW129180   1.249   3.076   6.077  1.5143  0.2888  0.8664
 5848SOL    HW229181   1.220   3.176   6.187  1.3708 -2.9720 -0.0722
 5849SOL     OW29182   1.170   0.073   7.970  0.2585  0.1234  0.2329
 5849SOL    HW129183   1.090   0.025   7.990  1.0765 -0.6243  1.7336
 5849SOL    HW229184   1.231   0.036   8.034 -0.1261 -1.5796 -0.3940
 5850SOL     OW29185   4.431   1.540   4.545  0.1949  0.5422  0.0742
 5850SOL    HW129186   4.449   1.530   4.452  1.6865 -2.2387  0.6561
 5850SOL    HW229187   4.415   1.448   4.566 -1.0598  0.8815  0.5743
 5851SOL     OW29188   4.580   1.505   6.754 -0.5367  0.4608  0.1582
 5851SOL    HW129189   4.622   1.516   6.669  1.3249  1.7115  1.2395
 5851SOL    HW229190   4.493   1.537   6.729  0.0852  1.8563 -0.2085
 5852SOL     OW29191   0.319   4.687   2.201 -0.0486  0.2201 -0.2482
 5852SOL    HW129192   0.272   0.031   2.161  0.8693  0.9561  0.0068
 5852SOL    HW229193   0.387   4.728   2.255  1.3643 -1.5150 -0.7229
 5853SOL     OW29194   3.334   2.279  10.924  0.0562 -0.3693 -0.0432
 5853SOL    HW129195   3.415   2.229  10.916 -0.7264 -1.2851 -2.4069
 5853SOL    HW229196   3.351   2.325  11.006 -0.3022  1.4544 -0.9824
 5854SOL     OW29197   4.306   4.339  17.243 -0.0917  0.6655  0.0301
 5854SOL    HW129198   4.274   4.422  17.279 -0.4898  0.4622  0.1408
 5854SOL    HW229199   4.347   4.360  17.159 -1.9661 -0.7296 -1.2360
 5855SOL     OW29200   2.274   4.039  13.390  0.1871 -0.0299 -0.3197
 5855SOL    HW129201   2.359   4.054  13.351 -0.5056  0.7036 -1.5313
 5855SOL    HW229202   2.299   3.969  13.451 -0.9839  0.0504  0.2579
 5856SOL     OW29203   1.513   0.566   2.894 -0.5316  0.3637  0.4736
 5856SOL    HW129204   1.432   0.521   2.870  0.5172 -1.6724  0.7475
 5856SOL    HW229205   1.544   0.596   2.808  1.7898  1.0705  1.5773
 5857SOL     OW29206   2.786   2.938   3.837 -0.0348  0.0975  0.1390
 5857SOL    HW129207   2.764   2.850   3.864  0.2185 -0.0924 -0.2713
 5857SOL    HW229208   2.829   2.922   3.753  0.3445 -0.5431  0.4587
 5858SOL     OW29209   2.775   1.844   4.571 -0.4603 -0.2348  0.3052
 5858SOL    HW129210   2.724   1.786   4.626 -2.1999  0.8673 -0.1611
 5858SOL    HW229211   2.755   1.928   4.613 -2.1146  0.3862 -1.7191
 5859SOL     OW29212   3.936   3.393  17.316 -0.5695 -0.6558  0.3634
 5859SOL    HW129213   3.864   3.445  17.352  0.6307  1.7477 -0.7350
 5859SOL    HW229214   4.007   3.451  17.344 -2.3315  1.1689  1.1532
 5860SOL     OW29215   0.059   0.640   8.362 -0.4179  0.0122  0.0908
 5860SOL    HW129216   0.003   0.695   8.416  0.0328  1.7912 -1.2629
 5860SOL    HW229217   0.127   0.612   8.424  1.2796  1.3932 -1.1568
 5861SOL     OW29218   1.205   2.406   7.665  0.2171  0.2803 -0.1706
 5861SOL    HW129219   1.152   2.367   7.734  0.5798 -0.1911 -0.1617
 5861SOL    HW229220   1.284   2.352   7.670  0.3504  0.6482  1.7313
 5862SOL     OW29221   3.267   1.372   4.195  0.5744 -0.0354  0.1169
 5862SOL    HW129222   3.232   1.284   4.211 -1.8335  1.0577  0.7829
 5862SOL    HW229223   3.270   1.365   4.099  1.0629  0.1580  0.1163
 5863SOL     OW29224   2.978   3.051   8.557  0.5377 -0.1164 -0.0420
 5863SOL    HW129225   2.949   3.106   8.485 -0.9560 -0.5935  0.1952
 5863SOL    HW229226   2.918   3.077   8.627 -0.7630  0.7022 -1.4660
 5864SOL     OW29227   3.652   2.997  14.375  0.0619  0.8118  0.1496
 5864SOL    HW129228   3.602   3.013  14.455  0.0643 -0.5660  0.4280
 5864SOL    HW229229   3.731   3.048  14.391  1.5271 -0.7132 -2.1796
 5865SOL     OW29230   3.076   0.670   2.783  0.1042  0.2971 -0.1862
 5865SOL    HW129231   3.006   0.728   2.812 -0.4668  0.6558 -2.2497
 5865SOL    HW229232   3.081   0.705   2.694  0.7729 -1.5735 -0.8893
 5866SOL     OW29233   2.107   2.991   8.305  0.0546 -0.0052  0.2264
 5866SOL    HW129234   2.023   3.027   8.274  0.4446  1.5793  1.0464
 5866SOL    HW229235   2.083   2.902   8.278  1.2410 -0.0164 -0.8212
 5867SOL     OW29236   4.600   3.009   5.884  0.1781 -0.2701 -0.4843
 5867SOL    HW129237   4.620   3.093   5.925  0.8068 -0.4076 -0.5065
 5867SOL    HW229238   4.647   3.025   5.802  1.5320 -1.4658  0.0640
 5868SOL     OW29239   0.614   4.406   5.468 -0.0339  0.2152  0.0916
 5868SOL    HW129240   0.682   4.434   5.407  0.6502  0.4626  0.9710
 5868SOL    HW229241   0.610   4.480   5.528 -0.6150  0.5201 -0.3199
 5869SOL     OW29242   2.863   4.568   7.409  0.0309  0.0696  0.2415
 5869SOL    HW129243   2.868   4.473   7.407 -3.1030 -0.0398 -2.1640
 5869SOL    HW229244   2.942   4.591   7.458 -0.3364  0.1189  0.8192
 5870SOL     OW29245   1.131   2.702   8.450 -0.2030 -0.4314 -0.4435
 5870SOL    HW129246   1.119   2.780   8.505  1.2195 -0.9674  0.6199
 5870SOL    HW229247   1.124   2.632   8.515  0.1480 -0.4641 -0.4371
 5871SOL     OW29248   1.829   2.474   5.727 -0.2112 -0.1148 -0.0651
 5871SOL    HW129249   1.839   2.569   5.721  0.1812 -0.1143  0.5686
 5871SOL    HW229250   1.893   2.452   5.658 -1.1010  1.7073 -1.4845
 5872SOL     OW29251   1.862   4.644   1.192 -0.4372 -0.5621 -0.5694
 5872SOL    HW129252   1.903   4.599   1.118  1.4876  1.2455 -0.5965
 5872SOL    HW229253   1.803   4.701   1.144 -0.4063  0.6538  0.8502
 5873SOL     OW29254   3.738   2.356  14.507  0.3855  0.1577  0.7718
 5873SOL    HW129255   3.660   2.307  14.482  1.1249 -1.8270  2.3727
 5873SOL    HW229256   3.708   2.447  14.506 -1.8752 -0.6334 -1.5592
 5874SOL     OW29257   1.903   3.079   7.909  0.3424 -0.6244 -0.0302
 5874SOL    HW129258   1.827   3.071   7.967  1.0809 -0.1936  1.0025
 5874SOL    HW229259   1.877   3.035   7.829  0.9956 -1.2123  0.0860
 5875SOL     OW29260   3.593   1.220   3.679  0.2601 -0.3814  0.1450
 5875SOL    HW129261   3.625   1.161   3.611  0.0389 -0.8955  0.4879
 5875SOL    HW229262   3.585   1.164   3.756 -1.6316 -2.3509 -1.4699
 5876SOL     OW29263   2.188   0.176   5.936 -0.5353  0.2446 -1.1038
 5876SOL    HW129264   2.105   0.193   5.979  1.2222 -1.2131  2.8215
 5876SOL    HW229265   2.156   0.168   5.845 -2.6916  0.2298 -0.3502
 5877SOL     OW29266   2.989   3.293   2.456  0.3006 -0.1194  0.1424
 5877SOL    HW129267   2.934   3.281   2.378 -0.2720 -4.3161  1.2029
 5877SOL    HW229268   2.948   3.374   2.487  0.8306  0.4012 -0.5121
 5878SOL     OW29269   2.183   3.215  10.818  0.1461 -0.5798  0.8999
 5878SOL    HW129270   2.273   3.227  10.847 -0.0713  2.3343  0.3484
 5878SOL    HW229271   2.161   3.128  10.851  1.6302  0.2757  4.0945
 5879SOL     OW29272   0.311   4.684   2.912  0.0749 -0.4527 -0.1458
 5879SOL    HW129273   0.278   4.703   2.825  0.5789  3.3345  0.4786
 5879SOL    HW229274   0.365   0.032   2.933  0.2002 -0.0961 -1.8015
 5880SOL     OW29275   3.965   0.362   4.721 -0.1299  0.0683  0.0080
 5880SOL    HW129276   3.876   0.333   4.744 -0.8338  1.5864 -0.7540
 5880SOL    HW229277   4.011   0.366   4.805  1.6328  1.8245 -1.0556
 5881SOL     OW29278   3.111   2.790  13.659  0.4589 -0.4761  0.0762
 5881SOL    HW129279   3.171   2.852  13.700 -0.7958  0.9132 -0.2019
 5881SOL    HW229280   3.098   2.724  13.727 -1.7103  0.8565  0.9388
 5882SOL     OW29281   0.878   1.456  14.363 -0.5542  0.3225 -0.6884
 5882SOL    HW129282   0.965   1.470  14.325  0.0517 -0.6297  0.3408
 5882SOL    HW229283   0.884   1.495  14.450 -0.1238  2.7259 -1.7983
 5883SOL     OW29284   1.151   1.431   8.351 -0.5665  0.2037  0.5326
 5883SOL    HW129285   1.110   1.346   8.341  1.2784 -0.5269 -0.7960
 5883SOL    HW229286   1.241   1.407   8.329 -0.0328  1.4295  1.3330
 5884SOL     OW29287   2.144   0.584   3.088 -0.2447  0.5752  0.2488
 5884SOL    HW129288   2.060   0.590   3.042  0.0641  1.8658 -0.1437
 5884SOL    HW229289   2.137   0.497   3.128  1.9922  0.0455 -0.4876
 5885SOL     OW29290   4.007   2.809   3.705 -0.1592 -0.3659  0.3651
 5885SOL    HW129291   4.052   2.852   3.778  1.6881 -2.5582  0.5192
 5885SOL    HW229292   3.918   2.825   3.737 -0.1692 -1.6462  1.0002
 5886SOL     OW29293   0.954   4.412  16.349  0.3379  0.1160  0.1117
 5886SOL    HW129294   0.921   4.469  16.279 -0.3961  0.5504  0.8195
 5886SOL    HW229295   0.873   4.367  16.374  0.3154 -0.5602 -1.1631
 5887SOL     OW29296   1.560   3.264   5.861  0.0754 -0.0689 -0.0170
 5887SOL    HW129297   1.608   3.321   5.921 -1.8370  0.9188  0.5551
 5887SOL    HW229298   1.480   3.314   5.875  1.0371  1.2136  0.9530
 5888SOL     OW29299   0.460   3.271   5.878  0.4451 -0.0485  0.3435
 5888SOL    HW129300   0.548   3.235   5.891  0.5775  0.4123  0.7132
 5888SOL    HW229301   0.469   3.331   5.952  0.7778 -1.4102  1.4094
 5889SOL     OW29302   1.118   0.649   6.866 -0.1958 -0.2464 -0.2480
 5889SOL    HW129303   1.212   0.638   6.856 -0.0786  0.4732  0.0946
 5889SOL    HW229304   1.110   0.634   6.961 -0.2166  1.7366  0.0493
 5890SOL     OW29305   0.249   1.319   2.597 -0.2264 -0.6929 -0.2976
 5890SOL    HW129306   0.334   1.306   2.555  0.3958  0.3174  0.6461
 5890SOL    HW229307   0.246   1.403   2.643  1.4403 -0.3698 -0.7809
 5891SOL     OW29308   1.016   2.423   3.595 -0.1435  0.3513 -0.0231
 5891SOL    HW129309   0.922   2.406   3.591  0.2701 -2.1987  1.1959
 5891SOL    HW229310   1.019   2.466   3.680 -0.7174 -1.0259  0.6869
 5892SOL     OW29311   2.320   3.880   5.868 -0.7877  0.3722  0.2737
 5892SOL    HW129312   2.239   3.858   5.823  0.3321 -0.8491 -1.1531
 5892SOL    HW229313   2.291   3.895   5.958 -0.8904 -0.6690  0.4217
 5893SOL     OW29314   0.790   4.302  10.799  0.2318 -0.1703  0.4199
 5893SOL    HW129315   0.720   4.278  10.739  1.4067  0.8395 -1.3729
 5893SOL    HW229316   0.865   4.278  10.743 -0.1281  1.0705 -0.5924
 5894SOL     OW29317   3.295   2.518  11.655  0.1375 -0.0661  0.3690
 5894SOL    HW129318   3.281   2.433  11.698  0.5109  0.2414  1.1040
 5894SOL    HW229319   3.369   2.494  11.599 -0.0043  2.4027 -0.8474
 5895SOL     OW29320   3.594   0.894  13.766  0.1464 -0.0143 -0.1308
 5895SOL    HW129321   3.643   0.955  13.821  3.5278 -2.3417 -0.5659
 5895SOL    HW229322   3.664   0.845  13.723  0.4111 -0.0064  0.2986
 5896SOL     OW29323   1.675   3.868   1.714 -0.2926 -0.1794  0.7028
 5896SOL    HW129324   1.677   3.956   1.676 -1.1992  0.7265  2.7801
 5896SOL    HW229325   1.770   3.859   1.728  0.2256  1.3371 -1.8726
 5897SOL     OW29326   0.847   0.566  13.133  0.3005 -0.2814 -0.1948
 5897SOL    HW129327   0.867   0.547  13.224 -0.4289  3.5728  0.7542
 5897SOL    HW229328   0.756   0.536  13.133  0.2406 -0.0873 -2.2643
 5898SOL     OW29329   1.365   4.425   8.378  0.2632  0.4976 -0.3510
 5898SOL    HW129330   1.284   4.451   8.424 -0.3304 -2.3332  0.1820
 5898SOL    HW229331   1.420   4.410   8.455  0.7827 -2.4738 -1.2963
 5899SOL     OW29332   3.992   2.824   0.170 -0.3167  0.5197  0.3887
 5899SOL    HW129333   4.084   2.804   0.149 -0.7716  0.0019 -1.1061
 5899SOL    HW229334   3.998   2.918   0.155  2.0577  0.4838  1.0382
 5900SOL     OW29335   2.311   1.451  16.691  0.3753  0.3584 -0.6551
 5900SOL    HW129336   2.224   1.485  16.706  0.7999  0.3883  1.6968
 5900SOL    HW229337   2.321   1.407  16.775 -0.1100  0.7495 -0.3949
 5901SOL     OW29338   1.846   1.157  12.907  0.0868  0.1990 -0.2150
 5901SOL    HW129339   1.930   1.111  12.912 -0.7519 -1.1023  2.3062
 5901SOL    HW229340   1.821   1.162  12.999 -1.2576 -4.1228 -0.3341
 5902SOL     OW29341   2.448   1.585  10.246  0.4845  0.4247 -0.2088
 5902SOL    HW129342   2.468   1.505  10.198 -2.2232 -0.1910 -0.3284
 5902SOL    HW229343   2.390   1.622  10.180  0.2150 -0.7734 -0.6422
 5903SOL     OW29344   1.301   2.743   0.633  0.2032  0.4542 -0.5452
 5903SOL    HW129345   1.210   2.732   0.606  0.5513 -4.9795  0.5889
 5903SOL    HW229346   1.294   2.820   0.690 -1.8860  0.6856 -1.1134
 5904SOL     OW29347   2.835   1.250  13.011  0.1713 -0.0828 -0.6896
 5904SOL    HW129348   2.862   1.326  13.063 -3.2805  0.2067  0.7483
 5904SOL    HW229349   2.818   1.300  12.931  1.1402 -1.1406 -1.5375
 5905SOL     OW29350   1.228   1.464   1.041 -0.5867 -0.3424  0.3479
 5905SOL    HW129351   1.285   1.513   1.100 -1.3439 -1.6728  2.1539
 5905SOL    HW229352   1.242   1.508   0.957 -1.5270 -0.4126  0.1530
 5906SOL     OW29353   2.823   0.597   3.511 -0.2681 -0.2058 -0.7775
 5906SOL    HW129354   2.787   0.541   3.580  0.0437 -0.2770 -0.6704
 5906SOL    HW229355   2.822   0.540   3.434 -1.4085 -0.3899 -0.6299
 5907SOL     OW29356   3.236   0.198   8.692 -0.0743  0.3630  0.3863
 5907SOL    HW129357   3.285   0.142   8.632  0.6926  0.9467  0.4690
 5907SOL    HW229358   3.307   0.238   8.741  0.5024  0.7976 -0.7996
 5908SOL     OW29359   0.890   3.835   6.326 -0.1816  0.1862  0.5431
 5908SOL    HW129360   0.840   3.872   6.253  0.0870 -1.9663 -0.7358
 5908SOL    HW229361   0.842   3.882   6.395  0.3641  0.6220  0.6305
 5909SOL     OW29362   4.253   0.759   6.510  0.0700 -0.1471  0.3624
 5909SOL    HW129363   4.187   0.797   6.569  0.0650 -0.5503  0.6195
 5909SOL    HW229364   4.201   0.750   6.430  1.9051  1.0595 -0.9494
 5910SOL     OW29365   3.239   0.461  16.019  0.1126 -0.5316 -0.7202
 5910SOL    HW129366   3.174   0.518  15.979 -0.5780  0.4514  1.8066
 5910SOL    HW229367   3.184   0.386  16.038  0.4286 -0.3651  0.8984
 5911SOL     OW29368   2.832   2.779  13.191  0.8952  0.2263 -0.2364
 5911SOL    HW129369   2.802   2.691  13.170  1.6429 -0.4058  1.3633
 5911SOL    HW229370   2.798   2.790  13.279  0.3993  1.2814 -0.5558
 5912SOL     OW29371   4.147   4.108   7.304 -0.8420  0.2727 -0.8110
 5912SOL    HW129372   4.104   4.034   7.346 -1.5475  0.1055 -1.8226
 5912SOL    HW229373   4.139   4.090   7.211 -0.1112  0.6284 -0.9463
 5913SOL     OW29374   0.825   2.502   7.272  0.1211 -0.0491 -0.3117
 5913SOL    HW129375   0.747   2.466   7.229  1.2293 -2.0617 -0.6851
 5913SOL    HW229376   0.892   2.457   7.220 -0.2524 -1.0802  0.0946
 5914SOL     OW29377   4.437   2.571   8.383 -0.0155  0.4363  0.7412
 5914SOL    HW129378   4.445   2.550   8.476  0.2837  0.7658  0.7928
 5914SOL    HW229379   4.483   2.492   8.354 -0.6791  1.0277 -1.9084
 5915SOL     OW29380   3.457   1.495   2.674  0.0307 -0.3088  0.3585
 5915SOL    HW129381   3.485   1.403   2.679 -0.2038 -0.4041 -0.0564
 5915SOL    HW229382   3.472   1.518   2.765 -2.8130 -0.5682  0.8870
 5916SOL     OW29383   2.322   3.832  15.682  0.0105  0.5309  0.0499
 5916SOL    HW129384   2.310   3.767  15.751  1.5568 -0.6838 -0.8323
 5916SOL    HW229385   2.413   3.849  15.706  0.7932  0.1554 -2.6024
 5917SOL     OW29386   0.083   0.173   1.776 -0.0768 -0.1304  0.3290
 5917SOL    HW129387   0.012   0.110   1.788 -2.0758  2.0771  0.0537
 5917SOL    HW229388   0.107   0.157   1.685  3.2104  2.9881  0.6751
 5918SOL     OW29389   2.774   0.073   7.506 -0.0029 -0.2867 -0.2723
 5918SOL    HW129390   2.763   0.015   7.582  0.3958 -1.2021 -0.9087
 5918SOL    HW229391   2.801   0.010   7.440 -0.5839 -1.8760  1.0024
 5919SOL     OW29392   2.858   2.032  10.765 -0.8169 -0.5021 -0.0166
 5919SOL    HW129393   2.882   2.124  10.761  0.9111 -0.9303  0.6561
 5919SOL    HW229394   2.772   2.048  10.806 -0.7020 -1.6220  0.6697
 5920SOL     OW29395   4.426   3.198  12.716 -0.2923 -0.6012  0.3256
 5920SOL    HW129396   4.468   3.201  12.629  0.5711  1.8777  0.8374
 5920SOL    HW229397   4.335   3.182  12.690 -0.5790  2.0366 -0.2613
 5921SOL     OW29398   2.326   0.318   9.146 -0.0724 -0.5647  0.6719
 5921SOL    HW129399   2.262   0.306   9.216  2.0390  0.2482  2.7282
 5921SOL    HW229400   2.403   0.274   9.182  0.8444  1.2939  1.0105
 5922SOL     OW29401   1.874   0.951   2.005  0.2872 -0.0650 -0.4080
 5922SOL    HW129402   1.783   0.951   2.033  0.1656 -0.5214 -0.8186
 5922SOL    HW229403   1.872   1.030   1.952 -2.0837  1.4204  1.9057
 5923SOL     OW29404   2.139   3.941  12.121  0.4971 -0.0502  0.0881
 5923SOL    HW129405   2.103   3.887  12.051  0.3311  0.6934 -0.4001
 5923SOL    HW229406   2.056   3.965  12.162  0.6227  1.6263 -0.6046
 5924SOL     OW29407   4.532   2.476   4.427 -0.5597  0.1107 -0.5114
 5924SOL    HW129408   4.527   2.556   4.374  0.4569  0.7841  0.4216
 5924SOL    HW229409   4.440   2.457   4.445 -1.1693  1.6507 -1.9793
 5925SOL     OW29410   1.255   2.692   3.816 -0.3200 -0.2071  0.1877
 5925SOL    HW129411   1.302   2.645   3.747  2.6584  1.7037  0.9328
 5925SOL    HW229412   1.224   2.618   3.868  0.8610 -0.8555 -0.0251
 5926SOL     OW29413   0.996   2.071   3.389 -0.6040 -0.6003  0.2289
 5926SOL    HW129414   1.025   2.100   3.302  1.3083  0.4520  1.2267
 5926SOL    HW229415   1.067   2.107   3.441  0.1698 -0.5607 -0.8541
 5927SOL     OW29416   3.120   1.206   8.095  0.5501 -0.1051  0.1533
 5927SOL    HW129417   3.075   1.277   8.048  0.5073  0.0656  0.4499
 5927SOL    HW229418   3.209   1.218   8.062 -0.8015  1.7969 -2.8531
 5928SOL     OW29419   1.577   1.689   9.423  0.1499 -0.0102  0.7155
 5928SOL    HW129420   1.507   1.748   9.451 -0.4196  1.1624 -3.1973
 5928SOL    HW229421   1.625   1.691   9.506 -0.6528  0.5920  1.1786
 5929SOL     OW29422   0.405   2.143   1.969 -0.0563 -0.2456  0.3418
 5929SOL    HW129423   0.420   2.204   1.898  2.3182 -1.6256 -0.3565
 5929SOL    HW229424   0.469   2.188   2.024 -0.0538  0.7454 -0.4726
 5930SOL     OW29425   1.377   2.947   1.133  0.1281  0.2629 -0.1163
 5930SOL    HW129426   1.426   3.002   1.071 -0.1246 -0.8336 -1.3034
 5930SOL    HW229427   1.300   2.929   1.079  0.3519  1.0502 -0.6976
 5931SOL     OW29428   0.326   1.026   4.553  0.0332  0.2570 -0.6538
 5931SOL    HW129429   0.286   1.050   4.637  0.7642  0.4509 -0.3690
 5931SOL    HW229430   0.318   0.930   4.551 -0.4469  0.2924 -0.5958
 5932SOL     OW29431   0.446   2.116  13.640  0.4728 -0.1654  0.0103
 5932SOL    HW129432   0.376   2.176  13.668  2.1156  1.0488  1.4547
 5932SOL    HW229433   0.503   2.112  13.717  0.2391  0.6913  0.2318
 5933SOL     OW29434   3.609   3.896   3.102  0.1772  0.4273  0.6151
 5933SOL    HW129435   3.694   3.854   3.115 -1.1296 -3.1873 -2.4925
 5933SOL    HW229436   3.546   3.825   3.110 -0.4553  0.8274 -0.7998
 5934SOL     OW29437   0.937   0.695   6.521  0.2489  0.0830  0.2079
 5934SOL    HW129438   0.909   0.618   6.571 -0.3732  0.0897 -0.1247
 5934SOL    HW229439   0.903   0.764   6.578 -0.1130 -2.0687  2.6218
 5935SOL     OW29440   2.245   1.362   0.801 -0.1000  0.6725 -0.0646
 5935SOL    HW129441   2.315   1.327   0.746 -0.9244 -0.9502 -0.0723
 5935SOL    HW229442   2.279   1.444   0.836 -0.9921  1.5192 -1.1619
 5936SOL     OW29443   1.114   2.492   8.612  0.6736  0.0980 -0.6799
 5936SOL    HW129444   1.204   2.460   8.623  0.8886 -0.2144 -3.4234
 5936SOL    HW229445   1.091   2.530   8.697 -2.3215  0.3079 -1.5711
 5937SOL     OW29446   4.422   4.020   5.022  0.1558  0.0834  0.2491
 5937SOL    HW129447   4.452   4.109   5.042  0.3815  0.5073 -2.0539
 5937SOL    HW229448   4.470   3.969   5.087 -0.4040 -0.9473 -0.1386
 5938SOL     OW29449   1.427   3.082   8.648  0.5020  0.1654  0.2429
 5938SOL    HW129450   1.436   3.114   8.738 -0.4456 -2.0090  1.1351
 5938SOL    HW229451   1.454   2.990   8.656 -0.6643 -0.5011 -3.4504
 5939SOL     OW29452   0.899   0.322   7.989 -0.2089  0.1435 -0.0867
 5939SOL    HW129453   0.987   0.357   7.997 -0.3357  0.6022 -0.6976
 5939SOL    HW229454   0.894   0.253   8.055 -0.6334 -0.5933 -0.8730
 5940SOL     OW29455   3.058   0.710   4.095 -1.1962 -0.0328  0.3360
 5940SOL    HW129456   3.098   0.733   4.179 -0.4698 -0.8413  0.2104
 5940SOL    HW229457   3.091   0.780   4.039 -0.4334 -0.2327  0.5339
 5941SOL     OW29458   1.141   0.026  17.189  0.1398 -0.0484  0.3220
 5941SOL    HW129459   1.111   0.044  17.278 -0.7727 -0.6425  0.1344
 5941SOL    HW229460   1.090   0.099  17.152 -0.1721  1.0889  2.9398
 5942SOL     OW29461   2.729   1.468   6.824  0.5637 -0.3991 -0.3626
 5942SOL    HW129462   2.730   1.434   6.913  0.0095  1.6246  0.4275
 5942SOL    HW229463   2.637   1.493   6.816  0.4214 -0.3248  1.5543
 5943SOL     OW29464   4.195   2.637   6.709  0.4643 -0.3792 -0.4057
 5943SOL    HW129465   4.236   2.691   6.642 -1.1541 -0.0265 -1.1066
 5943SOL    HW229466   4.191   2.707   6.774  0.8925 -0.8235  0.1064
 5944SOL     OW29467   3.941   4.148   1.280 -0.8478 -0.1801  0.5116
 5944SOL    HW129468   3.885   4.177   1.209  1.2230 -0.0676 -1.0936
 5944SOL    HW229469   4.026   4.166   1.239 -0.3392 -3.0761  0.2585
 5945SOL     OW29470   2.562   2.606   6.482  0.3967  0.2000 -0.0397
 5945SOL    HW129471   2.655   2.629   6.474  1.3097 -2.5973  2.6008
 5945SOL    HW229472   2.562   2.520   6.441  1.1724  0.3480 -0.3521
 5946SOL     OW29473   4.561   2.430   4.713 -0.0486  0.2881  0.3966
 5946SOL    HW129474   4.533   2.460   4.627 -0.3779 -1.0704  0.0219
 5946SOL    HW229475   4.615   2.505   4.736 -1.1193  0.5577  2.0427
 5947SOL     OW29476   1.456   4.356  13.003 -0.3433  0.4177 -0.9323
 5947SOL    HW129477   1.538   4.407  13.007 -0.6264  0.9647 -2.0809
 5947SOL    HW229478   1.457   4.328  12.912  1.3505 -0.9561 -0.5051
 5948SOL     OW29479   3.613   2.168   0.354 -0.4072 -0.0534 -0.8370
 5948SOL    HW129480   3.560   2.244   0.378  0.0675  0.0610 -0.1655
 5948SOL    HW229481   3.582   2.105   0.419  2.3754 -0.2321  0.3054
 5949SOL     OW29482   1.707   2.048  12.046 -0.0160 -0.3745  0.7989
 5949SOL    HW129483   1.757   2.113  12.096  0.0611  0.4335 -0.3403
 5949SOL    HW229484   1.685   2.089  11.963 -2.0403 -2.2129  0.4302
 5950SOL     OW29485   3.488   0.410   0.349  0.0888 -0.7614  0.7437
 5950SOL    HW129486   3.491   0.430   0.255  0.3362 -4.0160  0.0267
 5950SOL    HW229487   3.538   0.481   0.388  0.3355 -0.9486  0.7722
 5951SOL     OW29488   1.356   1.699   1.203 -0.0158  0.5129 -0.2356
 5951SOL    HW129489   1.445   1.733   1.190 -0.2719  1.8754  1.5792
 5951SOL    HW229490   1.378   1.620   1.253 -0.4948  1.2292  1.1153
 5952SOL     OW29491   2.272   0.832   3.181 -0.4268  0.4348 -0.5812
 5952SOL    HW129492   2.266   0.755   3.125  2.1098 -0.1312 -0.0633
 5952SOL    HW229493   2.178   0.835   3.204 -0.2552  1.0003  0.0497
 5953SOL     OW29494   0.289   3.470   6.212  0.2212 -0.4474 -0.4216
 5953SOL    HW129495   0.297   3.375   6.209  2.7238 -0.2252 -0.6434
 5953SOL    HW229496   0.375   3.493   6.246  0.0893 -0.5713 -0.0073
 5954SOL     OW29497   2.955   4.195  12.462 -1.0063  0.4617 -0.5929
 5954SOL    HW129498   2.864   4.178  12.486 -0.8437 -2.2481 -1.9462
 5954SOL    HW229499   3.006   4.187  12.543 -2.4543 -0.4266  0.2209
 5955SOL     OW29500   0.169   2.203   0.345 -0.0241 -0.3027  0.2070
 5955SOL    HW129501   0.156   2.161   0.430 -2.0731  0.8876  0.4842
 5955SOL    HW229502   0.263   2.202   0.327  0.4216 -0.8016  2.6156
 5956SOL     OW29503   0.979   1.681   6.564 -0.1443 -0.3930  0.2850
 5956SOL    HW129504   0.983   1.723   6.650 -1.8706  1.3847 -0.4913
 5956SOL    HW229505   0.947   1.594   6.588 -2.4887  0.3101 -0.2282
 5957SOL     OW29506   4.168   0.765   7.873  0.2052 -0.2304  0.8626
 5957SOL    HW129507   4.093   0.735   7.925  1.0855 -0.6711  1.8953
 5957SOL    HW229508   4.218   0.683   7.866  2.9300  1.3969  1.2312
 5958SOL     OW29509   4.056   2.384  17.635  0.1862 -0.6334 -0.1713
 5958SOL    HW129510   3.972   2.341  17.652 -0.5897  0.8636 -0.2290
 5958SOL    HW229511   4.056   2.384  17.540  1.0977 -2.1831 -0.1625
 5959SOL     OW29512   4.313   3.235   4.273  0.4316 -0.7133 -0.5733
 5959SOL    HW129513   4.282   3.159   4.223 -0.6818 -1.5098  1.3218
 5959SOL    HW229514   4.274   3.224   4.360  2.3810  1.4398  0.5633
 5960SOL     OW29515   3.574   2.324   3.885 -0.1311 -0.4053  0.2890
 5960SOL    HW129516   3.600   2.262   3.818 -1.5097  0.2797 -0.8575
 5960SOL    HW229517   3.585   2.403   3.832  1.9457 -1.3744 -0.7357
 5961SOL     OW29518   1.221   2.837   9.020  0.2954 -0.0765  0.1962
 5961SOL    HW129519   1.217   2.839   9.116 -0.7916 -0.3004  0.1462
 5961SOL    HW229520   1.314   2.823   9.001  1.1950  2.2919  2.8155
 5962SOL     OW29521   2.737   3.933  10.563 -0.7011 -0.2479  0.3132
 5962SOL    HW129522   2.815   3.983  10.539 -0.5452 -1.1409 -1.0220
 5962SOL    HW229523   2.706   3.976  10.643 -0.1124  1.2386 -0.2509
 5963SOL     OW29524   1.025   2.673   8.803  0.1634 -0.3966  0.4500
 5963SOL    HW129525   0.968   2.744   8.833 -1.7215 -1.2530 -1.1145
 5963SOL    HW229526   1.110   2.710   8.827  0.3049 -1.5629  1.7418
 5964SOL     OW29527   1.631   3.394  14.597  0.0515  0.2257 -0.4116
 5964SOL    HW129528   1.713   3.345  14.608 -0.7194 -0.5747  1.6197
 5964SOL    HW229529   1.658   3.455  14.528  2.6617 -0.2320  0.1864
 5965SOL     OW29530   4.061   4.301   6.856  0.3201  0.4132 -0.0295
 5965SOL    HW129531   4.089   4.326   6.768 -1.0345 -3.3397 -1.5627
 5965SOL    HW229532   3.981   4.354   6.859 -0.0472 -0.1107 -0.5409
 5966SOL     OW29533   4.376   2.483  14.405  0.7706  0.3651  0.4602
 5966SOL    HW129534   4.343   2.424  14.473  0.9120  1.4868  1.5099
 5966SOL    HW229535   4.454   2.522  14.446  0.6543  0.5874  0.4711
 5967SOL     OW29536   2.625   0.609  15.247 -0.3050 -0.1472 -0.2219
 5967SOL    HW129537   2.590   0.677  15.305 -0.4037  1.3926 -2.0781
 5967SOL    HW229538   2.686   0.656  15.191 -0.7232  0.0911 -0.4789
 5968SOL     OW29539   4.410   4.510   5.257 -0.7598 -0.4130 -0.4523
 5968SOL    HW129540   4.414   4.495   5.163  2.3214  0.5345 -0.4474
 5968SOL    HW229541   4.321   4.545   5.268  0.2912  1.5859  1.5387
 5969SOL     OW29542   2.493   3.487  14.970 -0.0767 -0.2140 -0.1745
 5969SOL    HW129543   2.577   3.505  15.011  0.9230 -0.8188 -1.9469
 5969SOL    HW229544   2.506   3.399  14.934 -0.0672 -0.2745 -0.0238
 5970SOL     OW29545   2.583   2.128  10.568  0.2925 -0.0787 -0.1156
 5970SOL    HW129546   2.604   2.115  10.661  0.0162 -1.2942 -0.2280
 5970SOL    HW229547   2.513   2.065  10.547  1.2279 -1.0673 -0.2571
 5971SOL     OW29548   3.669   4.345  12.001 -0.1635 -0.7347  0.2233
 5971SOL    HW129549   3.694   4.310  12.086 -0.3043 -1.3051  0.0259
 5971SOL    HW229550   3.661   4.265  11.950  0.3639 -1.2102  0.8820
 5972SOL     OW29551   1.439   0.149   2.045  0.4451 -0.2643  0.1227
 5972SOL    HW129552   1.447   0.203   2.123  3.3534  0.4243 -0.6678
 5972SOL    HW229553   1.529   0.154   2.014 -0.3213  1.0364 -1.8641
 5973SOL     OW29554   3.611   1.616   2.035 -0.2379 -0.1145  0.3285
 5973SOL    HW129555   3.671   1.629   2.108 -1.7769 -0.9661  1.7156
 5973SOL    HW229556   3.554   1.693   2.042  1.2929  1.1610 -1.0345
 5974SOL     OW29557   1.333   4.083   7.272 -0.5894 -0.3754  0.5499
 5974SOL    HW129558   1.270   4.124   7.332 -1.8366 -0.3776 -0.7503
 5974SOL    HW229559   1.381   4.161   7.246  1.0495 -1.4999  0.2647
 5975SOL     OW29560   4.505   2.689   6.461  0.2678  0.0941  0.3506
 5975SOL    HW129561   4.580   2.701   6.402  1.0988 -2.2241  0.8984
 5975SOL    HW229562   4.551   2.644   6.533  0.8115  0.3619  0.1709
 5976SOL     OW29563   4.567   1.439   8.467  0.2131 -0.1857  0.0043
 5976SOL    HW129564   4.589   1.403   8.553 -0.0946  0.6464  0.4321
 5976SOL    HW229565   4.598   1.370   8.409 -0.2979 -0.1934 -0.2586
 5977SOL     OW29566   4.039   3.324  15.816 -0.5064 -0.0095  0.7749
 5977SOL    HW129567   3.980   3.344  15.888 -1.4024 -3.9941  1.0966
 5977SOL    HW229568   4.042   3.409  15.771 -0.5164 -0.6342 -0.4058
 5978SOL     OW29569   1.856   0.004   8.136  0.9174  0.2115  0.3190
 5978SOL    HW129570   1.932   4.696   8.092  2.0892  1.1833  1.5076
 5978SOL    HW229571   1.875   0.098   8.137 -2.4254  0.9175 -1.8386
 5979SOL     OW29572   2.454   3.569  16.647  0.0508 -0.4978 -0.3169
 5979SOL    HW129573   2.382   3.627  16.623  0.5908 -0.4024 -1.7322
 5979SOL    HW229574   2.420   3.535  16.730 -0.9673  1.2656 -0.0165
 5980SOL     OW29575   1.386   3.862  10.473  0.2841  0.9201 -0.1189
 5980SOL    HW129576   1.339   3.907  10.543  0.0666  0.7002 -0.1253
 5980SOL    HW229577   1.463   3.919  10.480  1.0011  0.1346 -1.7206
 5981SOL     OW29578   2.292   2.625   1.943  0.2273 -0.3745 -0.1938
 5981SOL    HW129579   2.261   2.704   1.987 -1.4496 -0.5688 -1.0026
 5981SOL    HW229580   2.245   2.557   1.991 -0.6952  1.5740  1.6401
 5982SOL     OW29581   2.501   2.520   9.008 -0.2461  0.4875  0.9347
 5982SOL    HW129582   2.488   2.433   8.970 -0.9372  0.2111  1.8107
 5982SOL    HW229583   2.409   2.539   9.026 -0.0768  1.3416  0.9174
 5983SOL     OW29584   3.880   1.102   1.229 -0.5143  0.0626  0.6520
 5983SOL    HW129585   3.864   1.008   1.226  1.3078 -0.2083 -0.1826
 5983SOL    HW229586   3.960   1.116   1.179 -2.1649  0.6486 -1.8217
 5984SOL     OW29587   1.065   0.444   5.764 -0.2333  0.0915  0.3900
 5984SOL    HW129588   1.088   0.528   5.803 -0.1589  1.2361 -2.0665
 5984SOL    HW229589   0.984   0.463   5.717  0.3866  1.0010 -0.3311
 5985SOL     OW29590   0.421   1.674   9.162  0.7397 -0.2676 -0.3458
 5985SOL    HW129591   0.421   1.609   9.092 -2.6819 -0.8396  0.1742
 5985SOL    HW229592   0.328   1.678   9.188  0.5870  1.3494 -1.1417
 5986SOL     OW29593   2.490   2.002   9.251 -0.2564 -0.4581  0.2451
 5986SOL    HW129594   2.537   1.974   9.330  0.5142  2.0539  0.6964
 5986SOL    HW229595   2.558   2.005   9.183 -2.3511 -2.4246 -1.9471
 5987SOL     OW29596   3.007   4.303   5.714 -0.1359 -0.1028  0.3831
 5987SOL    HW129597   2.934   4.328   5.657 -0.5281  0.0446  0.9519
 5987SOL    HW229598   2.949   4.267   5.780 -0.5242 -0.2069 -0.0142
 5988SOL     OW29599   4.638   0.484   7.127  0.1051  0.0606 -0.4016
 5988SOL    HW129600   4.648   0.476   7.222 -1.4443 -0.5256 -0.2873
 5988SOL    HW229601   4.553   0.442   7.112 -0.1040 -0.0572  1.1588
 5989SOL     OW29602   4.246   3.581  13.286 -0.5792  0.1861  0.1717
 5989SOL    HW129603   4.216   3.654  13.232  1.1684  2.0601  1.7549
 5989SOL    HW229604   4.308   3.541  13.224 -1.3961 -0.4381 -0.2450
 5990SOL     OW29605   3.609   4.723  11.909 -0.4231  0.0484 -0.2744
 5990SOL    HW129606   3.526   4.720  11.860  0.2056 -2.6098 -1.2186
 5990SOL    HW229607   3.573   0.035  11.987  0.7426  1.3902 -0.4499
 5991SOL     OW29608   3.094   1.210   1.613  0.0674  0.4574  0.4557
 5991SOL    HW129609   3.123   1.300   1.597  0.3564  0.0748 -1.2203
 5991SOL    HW229610   3.181   1.169   1.610  0.1587  0.6171  0.9922
 5992SOL     OW29611   3.507   2.062   7.141 -0.2158  0.3366  0.4373
 5992SOL    HW129612   3.555   2.142   7.122  2.6206 -1.6605 -0.8704
 5992SOL    HW229613   3.450   2.071   7.065 -1.1199 -0.0168  1.0689
 5993SOL     OW29614   0.593   2.706  13.115 -0.1360 -0.0421  0.0904
 5993SOL    HW129615   0.653   2.776  13.142  2.7563 -2.6676  0.4785
 5993SOL    HW229616   0.559   2.746  13.035 -2.6071 -1.1888  0.5608
 5994SOL     OW29617   2.786   4.594   8.479  0.2144 -0.0667  0.8700
 5994SOL    HW129618   2.768   4.595   8.573  0.6203  1.9869  0.9220
 5994SOL    HW229619   2.881   4.589   8.482  0.4282  2.7596 -1.0366
 5995SOL     OW29620   4.460   1.937  11.834 -0.7339  0.0575 -0.4219
 5995SOL    HW129621   4.554   1.950  11.848 -1.0394 -0.0989  1.7650
 5995SOL    HW229622   4.451   1.974  11.746  2.4367 -0.3079 -0.9014
 5996SOL     OW29623   2.407   4.367  15.874 -0.2538 -0.4456 -0.5637
 5996SOL    HW129624   2.365   4.288  15.841 -1.7155  0.1498 -0.0932
 5996SOL    HW229625   2.491   4.326  15.895 -0.8528 -0.3990  1.8940
 5997SOL     OW29626   4.338   3.010  14.174  0.0405 -0.1323 -0.3461
 5997SOL    HW129627   4.306   2.974  14.091  0.3902  0.5805 -0.7861
 5997SOL    HW229628   4.432   3.017  14.161  0.0020  0.3784 -0.3362
 5998SOL     OW29629   0.588   1.709   4.998  0.0260  0.7012 -0.4085
 5998SOL    HW129630   0.566   1.702   5.091  0.4136 -1.0001 -0.4460
 5998SOL    HW229631   0.502   1.700   4.958  0.2570 -0.5658 -0.6292
 5999SOL     OW29632   4.723   1.639  11.157  0.6116  0.4962  0.0100
 5999SOL    HW129633   0.035   1.634  11.244 -0.6835 -2.7783  0.4365
 5999SOL    HW229634   0.013   1.549  11.133  3.9131  0.9554  0.9183
 6000SOL     OW29635   2.265   4.023  10.188 -0.3218 -0.3295  0.1592
 6000SOL    HW129636   2.213   4.089  10.233 -0.0740  0.6116 -0.9396
 6000SOL    HW229637   2.211   4.021  10.109 -0.4583  1.2817  0.2186
 6001SOL     OW29638   4.065   3.807   9.867  0.4874  0.1500  1.1910
 6001SOL    HW129639   4.064   3.730   9.810 -2.2743  0.2962  1.0372
 6001SOL    HW229640   4.063   3.768   9.954  0.0792  0.0222  1.1213
 6002SOL     OW29641   4.391   0.355   6.483  0.4799 -0.0950  0.4859
 6002SOL    HW129642   4.393   0.423   6.551  0.4955  0.8149 -0.4159
 6002SOL    HW229643   4.476   0.314   6.496  0.3177 -0.1879  1.2254
 6003SOL     OW29644   0.482   2.427  13.721 -0.1991  0.3119 -0.0472
 6003SOL    HW129645   0.558   2.457  13.670 -0.2698  1.4683  0.5195
 6003SOL    HW229646   0.519   2.359  13.777  1.9083  1.6757  0.2325
 6004SOL     OW29647   4.077   1.064   1.773  0.1695 -0.1190  0.3505
 6004SOL    HW129648   4.024   1.104   1.841 -0.1389  0.6630 -0.3554
 6004SOL    HW229649   4.008   1.048   1.709  1.8157  1.7003 -1.9102
 6005SOL     OW29650   4.487   3.546   2.300 -0.1175  0.3707  0.2201
 6005SOL    HW129651   4.531   3.629   2.318 -1.2728  0.9049  0.5493
 6005SOL    HW229652   4.508   3.497   2.379 -2.6907 -2.2014 -0.6913
 6006SOL     OW29653   1.071   4.050   5.626 -0.2264  0.1664  0.2813
 6006SOL    HW129654   1.128   3.974   5.614 -0.6786  0.1195 -1.4671
 6006SOL    HW229655   1.056   4.035   5.720  0.6891 -1.7040  0.1241
 6007SOL     OW29656   2.337   0.362   6.665  0.3416  0.3186  0.3614
 6007SOL    HW129657   2.305   0.356   6.575 -3.0125  0.8049  1.5198
 6007SOL    HW229658   2.425   0.325   6.664  0.4760  0.6183  0.8982
 6008SOL     OW29659   4.121   0.319   4.944  0.3413  0.1481  0.7509
 6008SOL    HW129660   4.196   0.261   4.953 -2.8567 -4.0700  0.2212
 6008SOL    HW229661   4.104   0.315   5.038  1.6693 -1.4195  0.9112
 6009SOL     OW29662   4.707   2.736   4.353 -0.1478 -0.6348 -0.1720
 6009SOL    HW129663   0.008   2.722   4.442 -3.0939  1.0448  1.0940
 6009SOL    HW229664   0.040   2.686   4.299  1.9421  1.4010  0.3674
 6010SOL     OW29665   0.695   2.682   1.187 -0.2218  0.6874 -0.0394
 6010SOL    HW129666   0.715   2.631   1.108 -0.7509  0.1240  0.1885
 6010SOL    HW229667   0.608   2.707   1.157  0.0531  1.3303 -0.3049
 6011SOL     OW29668   2.216   2.581   4.131  0.0571 -0.4565 -0.8269
 6011SOL    HW129669   2.257   2.614   4.051 -0.1787  2.4692  0.2516
 6011SOL    HW229670   2.125   2.563   4.107  0.1802 -1.0012 -0.8904
 6012SOL     OW29671   3.712   0.169   3.746  0.0526 -0.2463  0.1166
 6012SOL    HW129672   3.675   0.112   3.814 -0.8959 -0.7687 -0.8240
 6012SOL    HW229673   3.802   0.169   3.776  0.3678 -1.3586 -0.8093
 6013SOL     OW29674   0.854   0.343   5.247 -0.7003  0.3382 -0.4087
 6013SOL    HW129675   0.895   0.411   5.301  1.9512 -0.9537 -0.7818
 6013SOL    HW229676   0.766   0.332   5.282 -0.2431  0.1448  0.6754
 6014SOL     OW29677   0.552   3.358   2.492 -0.6962 -0.0365  0.3058
 6014SOL    HW129678   0.503   3.322   2.566  1.7978 -2.8357  0.6096
 6014SOL    HW229679   0.585   3.274   2.460 -0.9845 -0.1097  0.1995
 6015SOL     OW29680   3.723   1.339   8.326 -0.3709  0.0981 -0.2135
 6015SOL    HW129681   3.704   1.251   8.359  1.2661 -0.0672  0.2931
 6015SOL    HW229682   3.648   1.350   8.267  0.0761  2.4230 -0.3472
 6016SOL     OW29683   4.645   1.213   2.832 -0.4024  0.0783 -0.1414
 6016SOL    HW129684   4.668   1.281   2.768  0.9694  0.7389  1.0560
 6016SOL    HW229685   4.673   1.253   2.914 -0.9846  0.3556 -0.0778
 6017SOL     OW29686   0.800   0.005   2.701  0.5338  0.3012 -0.3853
 6017SOL    HW129687   0.771   0.025   2.612  0.5139  2.3007  0.0873
 6017SOL    HW229688   0.869   4.669   2.683 -0.6578 -1.0498 -0.0742
 6018SOL     OW29689   1.972   3.717   6.614 -0.2858  0.1395  0.4873
 6018SOL    HW129690   1.949   3.634   6.573  0.8420 -0.3060  0.7654
 6018SOL    HW229691   2.030   3.685   6.683  1.1488  0.2215 -0.6684
 6019SOL     OW29692   2.302   3.761  17.351  0.0525  0.7580 -0.3593
 6019SOL    HW129693   2.358   3.805  17.415 -0.5587 -1.1906  1.5079
 6019SOL    HW229694   2.217   3.769  17.394 -0.3095  0.0429 -0.9217
 6020SOL     OW29695   1.812   4.693   4.017  0.1675  0.5161 -0.5228
 6020SOL    HW129696   1.818   0.059   4.008 -2.2233  0.8894  1.7040
 6020SOL    HW229697   1.782   4.672   3.929 -2.0035  3.2972 -0.4647
 6021SOL     OW29698   2.899   2.725   8.141  0.7015  0.8115 -0.1388
 6021SOL    HW129699   2.915   2.639   8.180 -2.6299  0.1843 -0.1305
 6021SOL    HW229700   2.895   2.698   8.049  1.7169  4.0753 -1.1231
 6022SOL     OW29701   0.447   4.235  16.146 -0.2068  0.2713 -0.2188
 6022SOL    HW129702   0.465   4.296  16.075  2.2070 -0.9353 -0.6517
 6022SOL    HW229703   0.353   4.227  16.160 -0.1264  1.0377  0.7779
 6023SOL     OW29704   0.205   1.718   0.962  0.4667  0.1809 -0.0719
 6023SOL    HW129705   0.189   1.789   1.024 -1.0720  0.6855 -1.0450
 6023SOL    HW229706   0.147   1.734   0.888 -0.9370  0.4333  1.0828
 6024SOL     OW29707   1.809   0.300   7.089 -0.2959 -0.0310 -0.1786
 6024SOL    HW129708   1.887   0.356   7.094  0.0597 -0.7832  2.7960
 6024SOL    HW229709   1.844   0.211   7.087 -1.1998 -0.3589 -1.3448
 6025SOL     OW29710   3.161   0.138   4.675 -0.5266 -0.2904 -0.1040
 6025SOL    HW129711   3.103   0.159   4.602 -3.8168 -0.1653  2.5469
 6025SOL    HW229712   3.115   0.063   4.714  2.2758 -1.5749  0.7480
 6026SOL     OW29713   1.595   2.207   6.828  0.4076 -0.0045 -0.6234
 6026SOL    HW129714   1.637   2.144   6.886  0.5468  1.6926  1.1194
 6026SOL    HW229715   1.578   2.276   6.893  1.2063 -0.3659 -0.0276
 6027SOL     OW29716   0.503   0.036   3.270  0.2509 -0.3495 -0.2397
 6027SOL    HW129717   0.470   4.726   3.351 -0.8369  0.3710 -0.3321
 6027SOL    HW229718   0.588   0.066   3.302  0.8835 -1.6954 -0.6574
 6028SOL     OW29719   0.362   4.011  10.259  0.1931 -0.3518 -0.0830
 6028SOL    HW129720   0.272   4.005  10.226  0.2408  0.1064 -0.2956
 6028SOL    HW229721   0.361   3.948  10.331 -0.8681  0.4892  0.6327
 6029SOL     OW29722   2.056   4.181  14.493  0.3573 -0.0932 -0.3193
 6029SOL    HW129723   2.054   4.261  14.545  2.4435 -0.1337 -0.2111
 6029SOL    HW229724   2.125   4.128  14.533  0.8501  0.1866 -0.7996
 6030SOL     OW29725   4.299   2.891   3.275  0.6874 -0.0592 -0.2675
 6030SOL    HW129726   4.321   2.833   3.349  1.3805  1.8625  1.0209
 6030SOL    HW229727   4.374   2.950   3.277  0.1803  0.5178  1.6729
 6031SOL     OW29728   2.177   3.659   2.570  0.6777  0.1430 -0.6425
 6031SOL    HW129729   2.188   3.600   2.645  2.4521 -0.5775 -1.4722
 6031SOL    HW229730   2.184   3.599   2.496 -2.2271 -0.7888 -0.1710
 6032SOL     OW29731   1.373   1.574  17.316 -0.1734 -0.2680 -0.0898
 6032SOL    HW129732   1.442   1.509  17.333 -0.2072  0.2128  1.9535
 6032SOL    HW229733   1.317   1.548  17.389 -0.9116 -0.7320 -0.8253
 6033SOL     OW29734   0.716   2.539   5.919  0.0014  0.1005  0.2625
 6033SOL    HW129735   0.653   2.557   5.989 -1.1077  0.6542 -0.8738
 6033SOL    HW229736   0.760   2.456   5.937  2.0236  1.3089  0.8998
 6034SOL     OW29737   1.849   0.635   4.725 -0.6350  0.6084 -0.6886
 6034SOL    HW129738   1.781   0.611   4.662 -1.4702  1.8014 -0.2277
 6034SOL    HW229739   1.829   0.722   4.757  1.5180  0.8103  0.1069
 6035SOL     OW29740   4.524   1.955   3.043  0.1161  0.6782  0.1933
 6035SOL    HW129741   4.480   2.029   3.085 -0.2915  1.8896 -2.3901
 6035SOL    HW229742   4.456   1.912   2.991  0.1276 -1.3654  1.8789
 6036SOL     OW29743   4.068   1.486  15.286  0.1602 -0.4935 -0.0343
 6036SOL    HW129744   4.064   1.567  15.234  0.2617  0.4129  1.3688
 6036SOL    HW229745   3.976   1.488  15.310 -0.3436 -0.4912 -1.9315
 6037SOL     OW29746   0.024   1.266   2.406  0.1086 -0.4199  0.3363
 6037SOL    HW129747   4.725   1.263   2.314  0.0152 -1.4283  0.3956
 6037SOL    HW229748   0.119   1.260   2.390 -0.0505  0.6718 -1.0357
 6038SOL     OW29749   3.664   2.400   4.474  0.4015  0.0122 -0.2885
 6038SOL    HW129750   3.617   2.321   4.500 -0.1230 -0.0106 -1.3184
 6038SOL    HW229751   3.608   2.443   4.410  2.4793  4.1492  0.6654
 6039SOL     OW29752   1.379   4.641   6.992 -0.6426  0.7185  0.2938
 6039SOL    HW129753   1.337   4.712   7.041 -0.7708  1.1937 -0.5074
 6039SOL    HW229754   1.350   4.674   6.907  0.6034 -1.2946 -0.9045
 6040SOL     OW29755   1.384   3.513   6.496 -0.2856  0.5831 -0.6140
 6040SOL    HW129756   1.380   3.480   6.585  0.5174 -1.3307 -1.3025
 6040SOL    HW229757   1.290   3.522   6.484 -0.1011  0.3785 -2.2546
 6041SOL     OW29758   4.015   1.479   6.095  0.5248  0.0053 -0.6663
 6041SOL    HW129759   3.950   1.422   6.053  1.8932 -1.4952 -0.7494
 6041SOL    HW229760   4.083   1.463   6.030  1.3020 -1.5466  0.5279
 6042SOL     OW29761   1.990   2.683  10.697 -0.1943 -0.0848 -0.2185
 6042SOL    HW129762   2.008   2.604  10.645 -0.8078  0.5973 -1.4617
 6042SOL    HW229763   2.076   2.688  10.739 -0.3779  2.8977 -0.2561
 6043SOL     OW29764   1.645   2.506   6.534 -0.1931  0.1358  0.4303
 6043SOL    HW129765   1.617   2.596   6.516  0.1339 -0.4764 -3.2315
 6043SOL    HW229766   1.614   2.455   6.459  1.8690  0.1844 -0.4480
 6044SOL     OW29767   3.855   3.930   7.914  0.0623  0.2990  0.9774
 6044SOL    HW129768   3.885   3.895   7.830  0.1300 -0.9120  1.5099
 6044SOL    HW229769   3.890   3.863   7.973  1.8463  0.9978  0.7252
 6045SOL     OW29770   2.671   4.218   4.085  0.0487  0.0864 -0.3832
 6045SOL    HW129771   2.605   4.151   4.065 -1.3957  0.6235  2.5289
 6045SOL    HW229772   2.614   4.289   4.116  1.6683  2.1674 -2.1852
 6046SOL     OW29773   3.424   3.848   1.585 -0.4661 -0.2621  0.5819
 6046SOL    HW129774   3.354   3.911   1.597 -1.0270 -1.0112  1.1766
 6046SOL    HW229775   3.445   3.837   1.678  0.8253 -0.7857  0.2329
 6047SOL     OW29776   3.246   3.266   0.776 -0.7396  0.0892  0.6230
 6047SOL    HW129777   3.325   3.221   0.745 -0.9379 -0.4841  0.9471
 6047SOL    HW229778   3.281   3.337   0.830 -0.2755 -1.9280  3.0155
 6048SOL     OW29779   2.086   2.646  12.749 -0.1540  0.1402 -0.4152
 6048SOL    HW129780   2.036   2.724  12.774  2.5520  1.7943 -0.1892
 6048SOL    HW229781   2.114   2.668  12.661 -0.4512 -1.6784 -0.9757
 6049SOL     OW29782   3.626   1.916   2.901 -0.2518  0.2521 -0.1275
 6049SOL    HW129783   3.603   1.845   2.961  0.0844 -0.6540 -1.0709
 6049SOL    HW229784   3.721   1.919   2.907 -0.3188  2.6754 -0.4760
 6050SOL     OW29785   2.935   4.230   9.352  0.4038 -0.7529  0.3597
 6050SOL    HW129786   2.965   4.240   9.442 -0.1408 -2.5700  0.7561
 6050SOL    HW229787   3.011   4.185   9.314  0.1300 -2.4268  1.7768
 6051SOL     OW29788   1.364   2.826   2.081 -0.5782 -0.0012  0.1058
 6051SOL    HW129789   1.375   2.854   2.172  0.2484  0.9652 -0.2908
 6051SOL    HW229790   1.288   2.878   2.051 -0.8704  0.4942  1.7235
 6052SOL     OW29791   4.541   4.406   1.904 -0.1908 -0.5896 -0.3981
 6052SOL    HW129792   4.476   4.452   1.955 -0.8867 -0.7524 -1.1365
 6052SOL    HW229793   4.620   4.424   1.955 -1.1528 -1.0308  1.2407
 6053SOL     OW29794   4.411   2.121   3.485  0.3787  0.4126 -0.1907
 6053SOL    HW129795   4.339   2.170   3.446 -1.0492 -0.7418  1.0347
 6053SOL    HW229796   4.489   2.137   3.431 -0.0858  2.7688 -0.1252
 6054SOL     OW29797   0.275   4.614   1.552 -0.0405 -0.2462  0.0281
 6054SOL    HW129798   0.307   4.609   1.462 -0.0752 -1.4000  0.0818
 6054SOL    HW229799   0.193   4.564   1.550 -0.1230 -0.1239  0.4452
 6055SOL     OW29800   3.960   1.183   5.961 -0.2282 -0.1065  0.2271
 6055SOL    HW129801   3.949   1.247   5.891 -1.7420 -0.1891  0.3778
 6055SOL    HW229802   3.887   1.126   5.936 -0.8762  0.2033  1.4156
 6056SOL     OW29803   0.440   2.473   1.288 -0.1896  0.4064 -0.3503
 6056SOL    HW129804   0.532   2.449   1.274 -0.6878  0.8599 -4.2708
 6056SOL    HW229805   0.445   2.558   1.332  2.5640  0.6719 -1.1407
 6057SOL     OW29806   1.765   1.854   2.439  0.0728  0.0029  0.4747
 6057SOL    HW129807   1.738   1.857   2.531 -1.8435  0.5241 -0.0953
 6057SOL    HW229808   1.695   1.897   2.390 -0.1646 -0.5617  0.3110
 6058SOL     OW29809   1.338   3.081  15.240 -0.1085  0.1074 -0.0384
 6058SOL    HW129810   1.390   3.073  15.160  1.0058 -1.8765  0.8697
 6058SOL    HW229811   1.292   3.163  15.223 -0.5405 -0.2699 -0.6882
 6059SOL     OW29812   2.328   4.451   0.862  0.2452  0.2999 -0.0375
 6059SOL    HW129813   2.250   4.416   0.904  1.4318  0.2630  2.1008
 6059SOL    HW229814   2.294   4.490   0.781 -0.3588  0.3677  0.2437
 6060SOL     OW29815   0.742   4.430   4.046  0.4640  0.0140 -0.6596
 6060SOL    HW129816   0.718   4.503   3.988 -0.2029  1.8831  1.9672
 6060SOL    HW229817   0.658   4.392   4.070  0.5954  0.7348  0.9319
 6061SOL     OW29818   2.607   4.698   5.984  0.0403  0.0811 -0.0522
 6061SOL    HW129819   2.629   4.720   6.075  2.0772  2.2053 -1.0545
 6061SOL    HW229820   2.512   4.698   5.986  0.0333  1.9442 -0.5271
 6062SOL     OW29821   2.069   3.745  15.172  0.1932  0.4450 -0.3239
 6062SOL    HW129822   2.017   3.815  15.132  0.4326  1.0341  0.3758
 6062SOL    HW229823   2.092   3.781  15.258  0.3335 -1.3447  0.3831
 6063SOL     OW29824   3.525   2.804   3.359 -0.4843 -0.7617  0.0791
 6063SOL    HW129825   3.519   2.809   3.263 -2.4208 -1.7488  0.1402
 6063SOL    HW229826   3.455   2.739   3.373 -0.9322 -0.3629 -0.3211
 6064SOL     OW29827   1.476   3.507   7.488  0.1350 -0.4027  0.2430
 6064SOL    HW129828   1.536   3.569   7.529 -0.7226  1.2412 -1.0071
 6064SOL    HW229829   1.502   3.510   7.396 -0.1369  1.0592  0.2181
 6065SOL     OW29830   4.414   0.102  12.530 -0.3333  0.0194  0.1323
 6065SOL    HW129831   4.433   0.193  12.557 -0.7563  0.3993 -0.8623
 6065SOL    HW229832   4.376   0.111  12.443  0.9807  0.7055 -0.3728
 6066SOL     OW29833   0.592   2.476   8.523  0.6666  0.1692  0.2455
 6066SOL    HW129834   0.684   2.452   8.519  0.3331 -1.2732  1.2335
 6066SOL    HW229835   0.554   2.434   8.446 -0.2662 -0.3304  0.9850
 6067SOL     OW29836   3.248   4.294   6.015  0.7258  0.1896  0.0567
 6067SOL    HW129837   3.182   4.339   6.068  0.3239 -0.9801  0.5489
 6067SOL    HW229838   3.188   4.250   5.956  0.7908  3.1776 -2.2221
 6068SOL     OW29839   0.359   3.255  13.332 -0.0889  0.4109  0.6537
 6068SOL    HW129840   0.271   3.252  13.295  1.0526 -1.3928 -1.8799
 6068SOL    HW229841   0.351   3.326  13.396 -1.2906 -0.5893  1.6056
 6069SOL     OW29842   0.699   2.125  16.935  0.3491 -0.0706  0.3445
 6069SOL    HW129843   0.675   2.210  16.897  1.1680  0.0248  0.0385
 6069SOL    HW229844   0.682   2.154  17.024  1.2463 -1.1615  0.8658
 6070SOL     OW29845   2.603   3.269   2.427 -0.2884  0.1315  0.1768
 6070SOL    HW129846   2.633   3.317   2.504 -1.0286  0.3048  0.3555
 6070SOL    HW229847   2.654   3.306   2.355 -0.8457  0.8195  0.1322
 6071SOL     OW29848   0.123   2.069   5.607 -0.1706 -0.5420 -0.3347
 6071SOL    HW129849   0.051   2.014   5.638 -0.8637  0.6427  0.1838
 6071SOL    HW229850   0.202   2.017   5.620  0.1633 -0.4215 -1.9913
 6072SOL     OW29851   0.754   1.536   3.928  0.3554  0.1924 -0.7372
 6072SOL    HW129852   0.797   1.451   3.932 -0.4979 -0.3124 -2.2858
 6072SOL    HW229853   0.668   1.520   3.888 -0.3738  0.4261  0.7269
 6073SOL     OW29854   0.543   2.940   6.301  0.0764  0.4273  0.2188
 6073SOL    HW129855   0.510   2.972   6.217 -0.2271 -0.9008 -0.1789
 6073SOL    HW229856   0.466   2.950   6.357  1.4591  2.3943  1.7474
 6074SOL     OW29857   2.376   3.855   1.751 -0.1783  0.4517 -0.1548
 6074SOL    HW129858   2.420   3.784   1.705 -1.0616 -1.2096  1.5319
 6074SOL    HW229859   2.334   3.813   1.826 -0.6232  1.0464 -0.0701
 6075SOL     OW29860   2.464   4.694   1.497  0.3022 -0.0187  0.4848
 6075SOL    HW129861   2.436   4.676   1.586  0.8012  1.1312  0.8744
 6075SOL    HW229862   2.556   4.670   1.506  0.1293 -0.7406  0.2921
 6076SOL     OW29863   2.191   1.485   3.469  0.1831 -0.0659  0.3471
 6076SOL    HW129864   2.227   1.429   3.399 -1.3031 -0.9283  0.2579
 6076SOL    HW229865   2.097   1.463   3.464  0.1007  0.3685  0.0319
 6077SOL     OW29866   2.511   3.853  10.439  0.2151  0.6102 -0.0059
 6077SOL    HW129867   2.598   3.855  10.479  0.5304 -1.5418 -0.5953
 6077SOL    HW229868   2.455   3.830  10.513 -0.9117  2.7809 -0.1901
 6078SOL     OW29869   2.471   1.417   7.374  0.7296  0.7753  0.0998
 6078SOL    HW129870   2.504   1.392   7.461  1.7823  1.0685 -0.2253
 6078SOL    HW229871   2.393   1.466   7.400  0.1004  0.3754 -1.0389
 6079SOL     OW29872   2.360   2.734   7.086 -0.3589 -0.0409  0.3018
 6079SOL    HW129873   2.338   2.769   7.000  0.3128  0.3308  0.2800
 6079SOL    HW229874   2.356   2.810   7.145  2.3529 -1.4621  2.3132
 6080SOL     OW29875   4.295   3.263   4.576  0.0746 -0.0411  0.0932
 6080SOL    HW129876   4.256   3.178   4.560  0.4250 -0.6680  2.6433
 6080SOL    HW229877   4.215   3.298   4.615  1.0115  3.1723 -0.8607
 6081SOL     OW29878   0.135   3.701  17.404 -0.4245 -0.6973  0.0145
 6081SOL    HW129879   0.196   3.733  17.471  0.5498  1.4912 -1.9177
 6081SOL    HW229880   0.097   3.627  17.450 -0.3893  0.2184  1.5244
 6082SOL     OW29881   4.696   2.534   0.489  0.4860 -0.4275 -0.1055
 6082SOL    HW129882   4.603   2.556   0.486  0.7739  0.7023 -1.1565
 6082SOL    HW229883   4.697   2.491   0.404  1.1255 -0.7796  0.0760
 6083SOL     OW29884   3.650   0.539   3.038 -0.4822  0.2362  0.5323
 6083SOL    HW129885   3.585   0.599   3.001  1.7297  0.1975 -3.3311
 6083SOL    HW229886   3.731   0.577   3.004  0.0609 -1.2787  0.1708
 6084SOL     OW29887   0.775   2.016   1.860  0.0428 -0.6027 -0.3505
 6084SOL    HW129888   0.781   2.033   1.954  1.6666  0.7917 -0.6937
 6084SOL    HW229889   0.688   1.977   1.858  0.3667 -1.2578 -1.7389
 6085SOL     OW29890   4.268   3.345   7.660 -0.0615 -0.1188  0.0327
 6085SOL    HW129891   4.309   3.331   7.575 -2.0738  0.1969 -0.9937
 6085SOL    HW229892   4.218   3.426   7.651  0.7136  0.2632 -0.7991
 6086SOL     OW29893   2.431   1.403   0.073 -0.0648 -0.2218  0.2424
 6086SOL    HW129894   2.360   1.343   0.096 -0.9702  0.5602 -0.5250
 6086SOL    HW229895   2.500   1.365   0.128  0.1722  0.2263  0.2491
 6087SOL     OW29896   3.141   4.688   5.255  0.2166 -0.1114  0.1270
 6087SOL    HW129897   3.073   0.012   5.212  0.2379 -0.3586 -0.2166
 6087SOL    HW229898   3.219   0.011   5.237 -1.6464  3.3186  1.9070
 6088SOL     OW29899   1.130   0.338   4.651  0.4923  0.5970 -0.0199
 6088SOL    HW129900   1.116   0.253   4.693 -0.9554  2.6089  3.5085
 6088SOL    HW229901   1.050   0.375   4.689  0.9372  1.0932  0.4219
 6089SOL     OW29902   3.456   0.875   9.030  0.4558  0.5460 -0.2819
 6089SOL    HW129903   3.529   0.937   9.035  1.8243 -0.9755 -1.4566
 6089SOL    HW229904   3.378   0.929   9.046 -0.8660 -1.4490 -0.0167
 6090SOL     OW29905   2.064   4.601   3.848  0.0599  0.0685 -0.6550
 6090SOL    HW129906   1.977   4.616   3.812 -0.2786  1.8931  0.8943
 6090SOL    HW229907   2.099   4.546   3.779 -0.1543 -0.7315 -0.1295
 6091SOL     OW29908   0.605   3.023   6.590  0.2289 -0.4134 -0.7302
 6091SOL    HW129909   0.696   3.050   6.589 -0.2155  1.0909 -0.0517
 6091SOL    HW229910   0.559   3.088   6.536 -0.6438 -2.0814 -2.0031
 6092SOL     OW29911   3.865   1.360   5.473 -0.1749  0.0222 -0.1255
 6092SOL    HW129912   3.909   1.409   5.404  0.6757  1.3202  1.3525
 6092SOL    HW229913   3.862   1.278   5.424  1.7200 -0.1584  0.0796
 6093SOL     OW29914   3.728   4.042   1.972 -0.1891  0.1186  0.7557
 6093SOL    HW129915   3.687   3.966   2.016 -1.3863  0.7588  0.7597
 6093SOL    HW229916   3.819   4.029   1.999 -0.5796  0.0566  2.0734
 6094SOL     OW29917   0.529   1.794  15.966  0.1093  0.5538  0.2392
 6094SOL    HW129918   0.615   1.825  15.995  0.6718  1.3598 -2.3006
 6094SOL    HW229919   0.559   1.706  15.947 -2.8247 -0.0837 -1.3966
 6095SOL     OW29920   2.750   2.755   9.291 -0.6481  0.1764 -0.0589
 6095SOL    HW129921   2.659   2.783   9.286 -0.5839  0.3622 -0.2015
 6095SOL    HW229922   2.796   2.835   9.265 -0.6719 -0.2147 -1.3162
 6096SOL     OW29923   3.967   4.292   9.843 -0.1298 -0.4807 -0.1012
 6096SOL    HW129924   3.973   4.197   9.849 -2.5629 -0.4588  2.5316
 6096SOL    HW229925   3.880   4.310   9.878 -0.6103  0.6334 -1.8551
 6097SOL     OW29926   0.284   2.351  13.556 -0.1457  0.0269  0.1050
 6097SOL    HW129927   0.200   2.383  13.589  0.2596  0.0585  1.0924
 6097SOL    HW229928   0.347   2.387  13.619  0.4895  0.0490 -0.5413
 6098SOL     OW29929   4.509   4.218   7.159  0.4563 -0.5391  0.1494
 6098SOL    HW129930   4.582   4.260   7.113 -0.9191  2.0255  0.2682
 6098SOL    HW229931   4.436   4.233   7.098 -0.6048 -0.1908  1.4849
 6099SOL     OW29932   3.967   4.355   4.888  0.3094 -0.4449 -0.0875
 6099SOL    HW129933   3.880   4.388   4.908  0.1883  0.6113 -2.4142
 6099SOL    HW229934   4.004   4.351   4.976  0.9654 -0.4473 -0.3569
 6100SOL     OW29935   0.725   1.014   5.290 -0.1968  1.0435  0.0471
 6100SOL    HW129936   0.670   1.091   5.276  1.6954  2.1865 -1.0735
 6100SOL    HW229937   0.776   1.015   5.209 -3.0544 -0.9104 -1.7811
 6101SOL     OW29938   4.002   2.955  16.909 -0.3795  0.5670  0.2189
 6101SOL    HW129939   4.030   3.044  16.887 -1.4941  1.0360  0.7129
 6101SOL    HW229940   3.942   2.965  16.982  0.1197 -0.4132  0.7624
 6102SOL     OW29941   1.689   1.616  15.710 -0.1404 -0.4740  0.3513
 6102SOL    HW129942   1.650   1.700  15.734 -0.9714 -0.1211 -2.1655
 6102SOL    HW229943   1.768   1.654  15.671 -0.4250 -0.1934  0.0416
 6103SOL     OW29944   1.135   2.359   1.755 -0.3935  0.0890  0.7892
 6103SOL    HW129945   1.055   2.308   1.753 -0.3906  0.0882  0.7066
 6103SOL    HW229946   1.153   2.344   1.848  1.6022 -0.8168  0.2542
 6104SOL     OW29947   1.033   1.925  12.105 -0.4596  0.0142  0.0980
 6104SOL    HW129948   1.016   1.978  12.183 -1.1087 -0.6245  0.3878
 6104SOL    HW229949   1.059   1.845  12.151 -0.1400 -0.0638 -0.2135
 6105SOL     OW29950   1.966   1.954   4.601  0.6092 -0.8387 -0.5157
 6105SOL    HW129951   2.038   1.947   4.538 -0.0637 -0.9616 -1.2685
 6105SOL    HW229952   2.014   1.961   4.683 -0.1407 -0.5430 -0.1064
 6106SOL     OW29953   2.303   1.810   9.193  0.2760  0.2944 -0.7344
 6106SOL    HW129954   2.329   1.727   9.234  0.9383  1.0051  0.2662
 6106SOL    HW229955   2.385   1.859   9.202  1.0892 -1.0189 -0.8760
 6107SOL     OW29956   3.300   0.172  15.641 -0.2529  0.4397 -0.0049
 6107SOL    HW129957   3.219   0.175  15.692  0.0521  0.9028  0.4511
 6107SOL    HW229958   3.368   0.187  15.707 -0.3239  2.0916 -0.3107
 6108SOL     OW29959   3.447   3.391   3.722  0.1091 -0.6449  0.6951
 6108SOL    HW129960   3.521   3.335   3.698 -1.0579 -2.6538  1.7877
 6108SOL    HW229961   3.486   3.455   3.783 -0.8032  0.9730 -0.4259
 6109SOL     OW29962   0.352   1.951   1.098 -0.1538  0.1261 -0.0461
 6109SOL    HW129963   0.390   2.028   1.140 -1.8004  0.3150  1.1088
 6109SOL    HW229964   0.316   1.897   1.168  1.8149  2.8948  3.1002
 6110SOL     OW29965   1.215   3.182   6.659 -0.0915  0.0588 -0.2114
 6110SOL    HW129966   1.276   3.185   6.732 -0.4338  0.9050  0.0486
 6110SOL    HW229967   1.142   3.128   6.690  1.3722  0.1796  3.4503
 6111SOL     OW29968   3.533   0.732  13.200  0.3034  0.3229  0.5331
 6111SOL    HW129969   3.531   0.643  13.164  0.8781 -0.4378  2.3512
 6111SOL    HW229970   3.584   0.722  13.280  0.1230  0.1100  0.6225
 6112SOL     OW29971   1.705   1.065   6.184  0.3096  0.1682  0.1702
 6112SOL    HW129972   1.758   1.006   6.130 -0.9894  0.5107 -1.4914
 6112SOL    HW229973   1.703   1.014   6.265  2.2682 -0.9166 -0.4637
 6113SOL     OW29974   1.093   3.111   2.599  0.1123  0.5274 -0.9428
 6113SOL    HW129975   1.003   3.080   2.601  0.7252 -1.2414 -0.9048
 6113SOL    HW229976   1.098   3.166   2.521 -0.7784 -0.0394 -1.3907
 6114SOL     OW29977   0.660   1.450   4.696  0.1345 -0.3637  0.0986
 6114SOL    HW129978   0.646   1.526   4.640 -0.2317 -0.9388 -0.5806
 6114SOL    HW229979   0.589   1.388   4.682  1.2341 -1.7544  0.7715
 6115SOL     OW29980   3.923   2.751  12.661  0.5347 -0.2535  0.3259
 6115SOL    HW129981   3.863   2.755  12.736 -1.6476  2.0501 -1.5681
 6115SOL    HW229982   3.912   2.841  12.633 -0.9986 -0.0821  1.4510
 6116SOL     OW29983   3.343   1.857   6.839 -0.6965  0.0840  0.1369
 6116SOL    HW129984   3.438   1.858   6.850 -0.7748 -0.5804  0.9056
 6116SOL    HW229985   3.322   1.776   6.886  0.1925  0.0678  0.5092
 6117SOL     OW29986   2.091   1.605  15.918 -0.3760  0.2842 -0.1335
 6117SOL    HW129987   2.005   1.567  15.904  0.1611 -1.4079  1.1343
 6117SOL    HW229988   2.102   1.582  16.011 -2.5836  0.2120  0.1034
 6118SOL     OW29989   3.729   1.475   3.753  0.3086 -0.8624  0.4818
 6118SOL    HW129990   3.807   1.425   3.726 -1.1012 -1.6331 -2.1721
 6118SOL    HW229991   3.668   1.402   3.748 -2.1606  1.2595 -0.5036
 6119SOL     OW29992   0.271   3.114   7.000  0.1988  0.7757 -0.4518
 6119SOL    HW129993   0.191   3.131   7.050 -2.3943  0.6205 -4.5907
 6119SOL    HW229994   0.325   3.189   7.026  1.5690 -0.4730  0.3014
 6120SOL     OW29995   2.517   0.301  16.720 -0.2773  0.2771 -0.5257
 6120SOL    HW129996   2.517   0.209  16.694 -0.2488 -0.2827  1.4777
 6120SOL    HW229997   2.454   0.342  16.660 -1.3105 -2.2974 -1.1779
 6121SOL     OW29998   2.815   0.786   7.416  0.6759 -0.4040 -0.4401
 6121SOL    HW129999   2.742   0.825   7.369 -0.1712  0.4820  1.6073
 6121SOL    HW230000   2.809   0.703   7.369 -1.7289 -0.1909 -0.4934
 6122SOL     OW30001   0.550   3.803   6.415  0.5070 -0.2670  0.2305
 6122SOL    HW130002   0.483   3.853   6.462  2.0443  2.6237 -0.6725
 6122SOL    HW230003   0.624   3.800   6.476 -0.0860  0.8471  1.0157
 6123SOL     OW30004   1.740   3.067   1.404 -0.1423  0.2368  0.6228
 6123SOL    HW130005   1.662   3.098   1.451 -1.5172 -1.3161 -0.6298
 6123SOL    HW230006   1.743   3.138   1.340  1.0054 -0.7148 -0.3610
 6124SOL     OW30007   4.697   0.990   2.636  0.1600 -0.0691 -0.6483
 6124SOL    HW130008   4.695   1.071   2.687  1.3001 -0.0264 -0.6791
 6124SOL    HW230009   4.636   1.009   2.565 -1.4660  0.4523  0.8867
 6125SOL     OW30010   0.578   0.875   9.754  0.0260  0.0500 -0.4954
 6125SOL    HW130011   0.515   0.929   9.802  0.1613 -0.9339  0.7758
 6125SOL    HW230012   0.522   0.798   9.739  0.1544  0.0783 -1.1427
 6126SOL     OW30013   2.121   1.420   2.087 -0.4778  0.3229  0.1077
 6126SOL    HW130014   2.140   1.330   2.062  1.3730  1.4901 -2.7767
 6126SOL    HW230015   2.176   1.427   2.164 -0.3212  0.1808  0.0076
 6127SOL     OW30016   4.073   2.429   5.224 -0.3579 -0.0383 -0.4436
 6127SOL    HW130017   3.994   2.474   5.254 -0.4224 -0.5949  0.2078
 6127SOL    HW230018   4.142   2.493   5.237 -0.8400  0.4344 -0.2241
 6128SOL     OW30019   1.001   3.748   7.476  0.5624 -0.1877  0.3348
 6128SOL    HW130020   1.031   3.794   7.554 -2.6805 -0.3938  1.7022
 6128SOL    HW230021   0.965   3.816   7.419  2.2847 -0.2017 -0.7623
 6129SOL     OW30022   3.018   2.377  10.159  0.4994  0.8007  0.0613
 6129SOL    HW130023   2.975   2.292  10.151  0.3832  0.8663 -0.0281
 6129SOL    HW230024   2.953   2.441  10.128 -0.9633 -0.4625  0.5295
 6130SOL     OW30025   0.822   4.684   4.639  0.4398  0.0837  0.6084
 6130SOL    HW130026   0.827   4.619   4.570  0.6360  2.0462 -1.2199
 6130SOL    HW230027   0.732   4.663   4.666 -0.4216  0.2800 -2.0724
 6131SOL     OW30028   1.731   4.347   2.845 -0.0131 -0.0359  0.4620
 6131SOL    HW130029   1.789   4.401   2.791  0.6733 -2.4525 -1.2243
 6131SOL    HW230030   1.663   4.410   2.868  1.0710  0.8025  1.3746
 6132SOL     OW30031   2.624   2.144   2.097 -0.3624  0.0729 -0.1403
 6132SOL    HW130032   2.637   2.053   2.070  0.8139  0.6131 -1.4048
 6132SOL    HW230033   2.531   2.154   2.078 -0.7579 -0.0804  1.6748
 6133SOL     OW30034   0.241   4.652   9.251 -0.1166 -0.3634  0.1267
 6133SOL    HW130035   0.312   4.716   9.241  0.7397 -1.4808 -0.9780
 6133SOL    HW230036   0.222   4.633   9.159  0.0173  2.4327 -0.4914
 6134SOL     OW30037   4.406   1.723  11.988  0.1469 -0.7517 -0.4486
 6134SOL    HW130038   4.316   1.740  12.016  0.3836 -0.3419  0.0690
 6134SOL    HW230039   4.428   1.789  11.922 -0.3034 -0.8811 -0.7257
 6135SOL     OW30040   0.081   1.006  15.008  0.0178  0.1993  0.4661
 6135SOL    HW130041   0.112   0.940  15.070  2.6251  0.6745 -0.3495
 6135SOL    HW230042   0.010   0.965  14.958  0.9374  0.0991 -0.7530
 6136SOL     OW30043   1.202   0.089   3.746 -0.6586 -0.2257  0.5866
 6136SOL    HW130044   1.214   0.013   3.803  3.0217 -1.9107 -2.4084
 6136SOL    HW230045   1.194   0.053   3.657  1.8253 -2.2250  1.1757
 6137SOL     OW30046   1.222   2.706   3.163  0.0495  0.5051 -0.0719
 6137SOL    HW130047   1.194   2.756   3.240  0.2464  0.9944 -0.3210
 6137SOL    HW230048   1.223   2.618   3.201  0.4111 -0.5519 -2.5539
 6138SOL     OW30049   4.707   1.298  15.449  0.2737  0.2441  0.0597
 6138SOL    HW130050   4.673   1.359  15.383  1.0281 -1.2116 -1.6757
 6138SOL    HW230051   0.021   1.237  15.390  1.8815  0.5921  0.8736
 6139SOL     OW30052   3.347   0.786   4.943 -0.0849 -0.2038  0.1801
 6139SOL    HW130053   3.430   0.831   4.963  0.4611 -1.2341  0.2179
 6139SOL    HW230054   3.316   0.777   5.033 -0.6602 -0.6908 -0.0735
 6140SOL     OW30055   0.694   0.034  12.408 -0.5743  0.5798 -0.3584
 6140SOL    HW130056   0.675   4.674  12.437 -0.5760  0.0616 -1.8965
 6140SOL    HW230057   0.615   0.060  12.361 -1.0441  1.6913  1.0779
 6141SOL     OW30058   3.404   0.251   6.800 -0.1410 -0.2862 -0.7164
 6141SOL    HW130059   3.457   0.235   6.878 -1.3632 -1.8622 -0.2007
 6141SOL    HW230060   3.354   0.325   6.834 -0.2466 -0.5786 -0.2310
 6142SOL     OW30061   0.430   2.214   0.234 -0.8441  0.6421  0.2289
 6142SOL    HW130062   0.420   2.259   0.150  1.2595  0.6655 -0.0233
 6142SOL    HW230063   0.503   2.157   0.209  0.1396  2.2185 -0.5467
 6143SOL     OW30064   1.718   0.907  15.756 -0.1065 -0.1010 -0.0544
 6143SOL    HW130065   1.650   0.869  15.700  0.0780 -0.2615 -0.1718
 6143SOL    HW230066   1.746   0.829  15.804  2.1172  0.7744  0.0894
 6144SOL     OW30067   2.190   1.626   9.784  0.0438 -0.5016 -0.4009
 6144SOL    HW130068   2.140   1.664   9.857 -1.3899  0.9427 -2.1235
 6144SOL    HW230069   2.128   1.637   9.711 -0.9235  2.3748  0.8321
 6145SOL     OW30070   0.296   3.184   6.142  0.0435  0.3927  0.7999
 6145SOL    HW130071   0.361   3.119   6.116  2.3143  3.2458 -0.6019
 6145SOL    HW230072   0.282   3.224   6.056 -0.3371 -0.8207  0.2909
 6146SOL     OW30073   1.071   3.695   3.829  0.2737  0.2925  0.0074
 6146SOL    HW130074   0.982   3.727   3.819  1.1042  2.2405 -1.1930
 6146SOL    HW230075   1.104   3.761   3.891 -0.7162  1.2506 -0.4911
 6147SOL     OW30076   0.229   1.073   7.476 -0.2094  0.1772 -0.0154
 6147SOL    HW130077   0.135   1.073   7.457 -0.1803  0.1779 -0.1628
 6147SOL    HW230078   0.230   1.146   7.538 -1.9356  0.7922 -0.7104
 6148SOL     OW30079   0.307   3.087   6.411 -0.1606  0.3587 -0.6044
 6148SOL    HW130080   0.342   3.171   6.383 -0.4946  1.7053  2.9967
 6148SOL    HW230081   0.243   3.066   6.344 -1.2119 -1.6781  1.0290
 6149SOL     OW30082   3.815   1.115   2.751  0.1560 -0.1395 -0.2865
 6149SOL    HW130083   3.880   1.083   2.689  0.4358  2.9841 -1.6067
 6149SOL    HW230084   3.823   1.048   2.819 -0.2852 -0.1664 -0.2596
 6150SOL     OW30085   3.692   0.786  12.988  0.4953  0.8952  0.5640
 6150SOL    HW130086   3.663   0.845  12.918  0.4413  0.0824 -0.0967
 6150SOL    HW230087   3.630   0.811  13.056 -1.8514  0.5121 -1.4145
 6151SOL     OW30088   3.799   0.207  13.729 -0.5698  0.9316  0.0286
 6151SOL    HW130089   3.735   0.141  13.756 -1.1437  1.5629  0.2212
 6151SOL    HW230090   3.796   0.208  13.633  0.7071  2.6258  0.0002
 6152SOL     OW30091   2.909   2.829   8.926  0.4098 -0.0607  0.3948
 6152SOL    HW130092   2.934   2.792   8.841 -2.1664 -0.2441 -0.2827
 6152SOL    HW230093   2.860   2.757   8.965  1.6076  0.1400  2.2662
 6153SOL     OW30094   2.641   3.751   5.442 -0.3534  0.5874 -0.1092
 6153SOL    HW130095   2.718   3.782   5.395  1.2840 -3.3224  0.0373
 6153SOL    HW230096   2.640   3.819   5.510 -0.7865  0.6598 -0.1849
 6154SOL     OW30097   0.633   2.799   4.658  0.4398  0.6957 -0.0749
 6154SOL    HW130098   0.653   2.891   4.671  0.3776  0.4470  1.7987
 6154SOL    HW230099   0.587   2.809   4.575  0.2963  2.7878  0.2679
 6155SOL     OW30100   2.446   4.098  12.328 -0.4542  0.2611  0.0808
 6155SOL    HW130101   2.470   4.179  12.281  2.6671 -1.6125 -1.5377
 6155SOL    HW230102   2.358   4.112  12.363 -0.7441 -0.5321 -0.3253
 6156SOL     OW30103   1.791   4.210   8.347  0.3483 -0.1038  0.1465
 6156SOL    HW130104   1.739   4.267   8.403 -0.1581 -2.1688  1.7870
 6156SOL    HW230105   1.737   4.200   8.268  0.8753 -0.4004 -0.1774
 6157SOL     OW30106   2.717   3.665  12.353  0.1079  0.4690 -0.1327
 6157SOL    HW130107   2.769   3.594  12.392  2.0683  0.4378 -2.7711
 6157SOL    HW230108   2.737   3.740  12.408  1.9550  0.2574 -0.5085
 6158SOL     OW30109   0.440   3.768   9.130  0.9927 -0.3424 -0.3867
 6158SOL    HW130110   0.420   3.781   9.037  1.9640 -1.3683 -0.7315
 6158SOL    HW230111   0.536   3.769   9.124  0.8633  0.0886 -2.3420
 6159SOL     OW30112   4.336   3.230   2.241  0.5325  0.0776  0.0775
 6159SOL    HW130113   4.386   3.307   2.269 -0.0699  0.2076  0.7903
 6159SOL    HW230114   4.307   3.202   2.328 -0.7184  1.4027  0.0890
 6160SOL     OW30115   1.255   0.451   9.539 -0.5382  0.3544 -0.0473
 6160SOL    HW130116   1.307   0.376   9.571 -0.2558  0.4026 -0.3939
 6160SOL    HW230117   1.320   0.511   9.503  2.2546 -1.7664  1.3731
 6161SOL     OW30118   4.308   1.935   9.877 -0.2049 -0.4179 -0.0374
 6161SOL    HW130119   4.292   2.028   9.892 -0.7224 -0.5269  0.0787
 6161SOL    HW230120   4.269   1.934   9.789  0.2563 -1.0322 -0.2340
 6162SOL     OW30121   1.737   1.117  10.149  0.3293 -0.1587  0.4438
 6162SOL    HW130122   1.714   1.189  10.091 -0.7486 -0.0881  0.9537
 6162SOL    HW230123   1.657   1.120  10.202 -1.4371  1.3718 -2.3014
 6163SOL     OW30124   3.271   0.198   5.305 -0.1533 -0.0684 -0.0018
 6163SOL    HW130125   3.228   0.165   5.384  1.8817  1.0178  1.5563
 6163SOL    HW230126   3.363   0.197   5.331 -0.5761  1.6428  1.5448
 6164SOL     OW30127   4.560   2.594  13.282 -0.7529 -0.0983  0.4862
 6164SOL    HW130128   4.504   2.585  13.204 -0.5695  0.8836  0.2326
 6164SOL    HW230129   4.510   2.567  13.358 -1.3393 -0.9420 -0.1962
 6165SOL     OW30130   3.035   0.369   8.562  0.0546 -0.3532  0.3364
 6165SOL    HW130131   3.062   0.288   8.606  0.6445 -0.4011 -0.1168
 6165SOL    HW230132   2.942   0.365   8.585  0.0201 -1.8035 -0.1002
 6166SOL     OW30133   3.339   2.887  17.188 -0.4434  0.2062 -0.7250
 6166SOL    HW130134   3.360   2.959  17.247  2.3128  0.0535 -1.5369
 6166SOL    HW230135   3.244   2.901  17.181 -0.9284 -2.3011  0.6574
 6167SOL     OW30136   3.428   3.284   8.826  0.2493 -0.5943 -0.0001
 6167SOL    HW130137   3.430   3.329   8.910 -0.7790  1.1914 -0.9382
 6167SOL    HW230138   3.521   3.267   8.810  0.2722  0.9446 -1.5548
 6168SOL     OW30139   2.232   1.491   7.819 -0.2654 -0.1124  0.5082
 6168SOL    HW130140   2.246   1.576   7.778 -0.6602  0.1218  0.8611
 6168SOL    HW230141   2.279   1.507   7.901 -0.8587 -1.5947  1.1360
 6169SOL     OW30142   2.475   1.973   4.940  0.3578  0.2909  0.0144
 6169SOL    HW130143   2.437   1.885   4.953 -1.2205  1.1285  1.0943
 6169SOL    HW230144   2.452   2.021   5.020 -1.3396 -2.4264  1.1824
 6170SOL     OW30145   2.520   3.578  17.707  0.0694 -0.0745  0.0630
 6170SOL    HW130146   2.603   3.550  17.668 -1.2856  0.1951 -2.9849
 6170SOL    HW230147   2.567   3.626   0.059  0.5304  0.6615 -0.7651
 6171SOL     OW30148   4.105   0.855   6.250 -0.0120  0.2851 -0.2110
 6171SOL    HW130149   4.026   0.840   6.302 -0.2105  1.0244 -0.3027
 6171SOL    HW230150   4.100   0.949   6.234 -1.4577 -0.1463 -2.3405
 6172SOL     OW30151   4.326   2.416  16.342  0.0718  0.3587  0.1123
 6172SOL    HW130152   4.277   2.440  16.421  0.3294 -0.3955  0.5006
 6172SOL    HW230153   4.311   2.493  16.287 -1.0718 -0.1750 -0.3159
 6173SOL     OW30154   4.572   0.736   3.462  0.7347  0.3092 -0.0851
 6173SOL    HW130155   4.640   0.674   3.437  1.4240  1.6970 -1.7009
 6173SOL    HW230156   4.568   0.784   3.379  0.3019  1.0593  0.3640
 6174SOL     OW30157   1.169   3.354  10.668 -0.1643 -0.2934  0.1634
 6174SOL    HW130158   1.185   3.269  10.627  0.4887 -0.1507  0.1333
 6174SOL    HW230159   1.194   3.338  10.758  0.6995  0.0813 -0.0160
 6175SOL     OW30160   2.245   4.624   5.726 -0.5711 -0.5852 -0.0141
 6175SOL    HW130161   2.245   4.539   5.682  0.2038 -0.3737 -0.4165
 6175SOL    HW230162   2.319   4.671   5.689 -1.0048  0.5790  0.5882
 6176SOL     OW30163   0.069   2.349   8.029 -0.0572 -0.4657 -0.3062
 6176SOL    HW130164   0.107   2.415   7.971 -0.8443  0.9065  0.7742
 6176SOL    HW230165   0.066   2.270   7.974  2.7409 -0.8481  0.0603
 6177SOL     OW30166   3.650   1.434   1.840 -0.5839 -0.3874  0.1755
 6177SOL    HW130167   3.560   1.413   1.816 -0.3407  0.6375 -1.6349
 6177SOL    HW230168   3.630   1.505   1.902 -1.8340  0.9720 -1.7774
 6178SOL     OW30169   1.265   4.508  17.319  0.1622 -0.4263 -0.1894
 6178SOL    HW130170   1.221   4.586  17.287 -0.0951 -0.3979  0.2380
 6178SOL    HW230171   1.347   4.516  17.270 -0.3814 -0.6363 -1.1172
 6179SOL     OW30172   0.761   1.817   8.011 -0.5629 -0.1064 -0.2322
 6179SOL    HW130173   0.729   1.886   8.069 -1.9226 -2.0690  1.3437
 6179SOL    HW230174   0.852   1.838   7.994 -0.3776 -0.5451  0.1945
 6180SOL     OW30175   1.183   3.393   3.081 -0.2405 -0.5416  0.3070
 6180SOL    HW130176   1.093   3.410   3.111  0.7725  2.6267  1.4975
 6180SOL    HW230177   1.207   3.309   3.122  1.8376  0.6089  1.4234
 6181SOL     OW30178   1.854   1.765  14.090  0.2738 -0.7233 -0.7150
 6181SOL    HW130179   1.937   1.812  14.099 -1.5573  2.4908 -0.5736
 6181SOL    HW230180   1.842   1.771  13.995 -2.4805  2.6210 -0.1630
 6182SOL     OW30181   2.427   3.382  16.872  0.7221 -0.3103 -0.0349
 6182SOL    HW130182   2.363   3.310  16.874 -0.6767  1.0504  3.4079
 6182SOL    HW230183   2.509   3.336  16.855  0.0860 -1.4845  0.0771
 6183SOL     OW30184   3.207   4.197   7.790 -0.1403 -0.1083 -1.0351
 6183SOL    HW130185   3.263   4.153   7.854 -1.2758  0.6532  0.5136
 6183SOL    HW230186   3.248   4.196   7.704 -0.2917  1.7447 -1.1283
 6184SOL     OW30187   4.448   1.651   6.125  0.5041 -0.0355 -0.2430
 6184SOL    HW130188   4.390   1.726   6.135  2.7009  1.1542  3.1620
 6184SOL    HW230189   4.394   1.589   6.173  0.1334 -0.1754 -0.8285
 6185SOL     OW30190   1.092   0.896   6.746  0.4109 -0.1499  0.8044
 6185SOL    HW130191   1.106   0.806   6.774 -0.7460 -0.6998 -0.3731
 6185SOL    HW230192   1.003   0.899   6.783 -0.7145 -0.3106 -1.8624
 6186SOL     OW30193   2.154   4.508  15.390 -0.0042 -0.0117  0.5440
 6186SOL    HW130194   2.120   4.572  15.453 -0.9219  0.0562 -0.0286
 6186SOL    HW230195   2.065   4.480  15.367  0.3743 -1.9895  1.5067
 6187SOL     OW30196   3.342   0.677   3.340  0.1635  0.9591  0.2962
 6187SOL    HW130197   3.370   0.591   3.374  3.7877  1.2658 -1.8893
 6187SOL    HW230198   3.247   0.669   3.333  0.4538 -0.8681 -1.3987
 6188SOL     OW30199   3.453   2.534   7.609  0.2209 -0.0985 -0.2277
 6188SOL    HW130200   3.437   2.578   7.692  2.1446  1.0990 -0.4723
 6188SOL    HW230201   3.370   2.552   7.565 -0.2172  1.4167  1.2412
 6189SOL     OW30202   1.049   2.307  10.920  0.2567 -0.3373 -0.7013
 6189SOL    HW130203   1.058   2.319  11.015  0.3077 -3.2653 -0.3487
 6189SOL    HW230204   1.117   2.248  10.886  0.5815 -0.1019 -0.4647
 6190SOL     OW30205   2.285   4.326   1.644  0.2078  0.1622 -0.3884
 6190SOL    HW130206   2.263   4.341   1.552 -0.3354  0.2670 -0.2390
 6190SOL    HW230207   2.372   4.366   1.647  0.3310 -0.1823  0.4574
 6191SOL     OW30208   4.474   4.199   6.789  0.5619  0.0820  0.1037
 6191SOL    HW130209   4.555   4.162   6.753 -0.3002  0.6674 -2.4003
 6191SOL    HW230210   4.432   4.218   6.705  2.7684 -2.4643 -1.5915
 6192SOL     OW30211   2.503   1.539   0.971  0.1510 -0.1736 -0.4478
 6192SOL    HW130212   2.526   1.492   0.891 -0.6480 -1.3894  0.0391
 6192SOL    HW230213   2.446   1.608   0.936  0.7213  0.7738  0.4967
 6193SOL     OW30214   2.234   0.672   3.759  0.3213  0.3885 -0.5670
 6193SOL    HW130215   2.264   0.742   3.701 -0.3851  0.9290 -0.2745
 6193SOL    HW230216   2.292   0.606   3.722  0.0113  0.1971 -0.7143
 6194SOL     OW30217   2.615   2.870   5.543  0.0624 -0.1264 -0.2283
 6194SOL    HW130218   2.633   2.951   5.590 -3.0061 -1.7395  3.6378
 6194SOL    HW230219   2.541   2.901   5.490  0.0533 -0.0594 -0.1769
 6195SOL     OW30220   1.981   1.033   7.558 -0.0645  0.3510 -0.6227
 6195SOL    HW130221   2.019   1.105   7.608 -0.4710 -0.8303  1.3840
 6195SOL    HW230222   1.923   1.007   7.630 -1.6836  0.4758 -1.8772
 6196SOL     OW30223   3.752   1.748  15.783 -0.1854 -0.1521 -0.2734
 6196SOL    HW130224   3.737   1.777  15.873  1.1088 -2.4721  0.6959
 6196SOL    HW230225   3.768   1.837  15.753  1.6200 -0.2439  0.4308
 6197SOL     OW30226   1.382   3.196   8.930 -0.1102  0.7499 -0.2429
 6197SOL    HW130227   1.296   3.237   8.944 -0.8980 -1.0850  0.3464
 6197SOL    HW230228   1.440   3.269   8.949  0.6648 -0.2077  1.0665
 6198SOL     OW30229   2.963   1.502  11.742  0.1230  0.1915  0.2085
 6198SOL    HW130230   2.883   1.520  11.791 -0.3913 -2.0938  0.2153
 6198SOL    HW230231   2.999   1.422  11.781  1.2626 -0.1198 -1.4671
 6199SOL     OW30232   3.912   3.709   7.761  0.3286  0.0648 -0.3125
 6199SOL    HW130233   3.980   3.656   7.719  1.3395  0.6326  0.5970
 6199SOL    HW230234   3.892   3.670   7.846 -3.0148  2.1173 -0.1661
 6200SOL     OW30235   4.043   2.538   4.628  0.1381 -0.6847 -0.4528
 6200SOL    HW130236   4.004   2.476   4.690  1.4023 -0.4381  0.5728
 6200SOL    HW230237   4.056   2.605   4.695  0.7176 -0.7938 -0.4576
 6201SOL     OW30238   2.382   1.861   5.415 -0.1727  0.4195  0.3313
 6201SOL    HW130239   2.327   1.788   5.444  0.1853  0.8557  2.0810
 6201SOL    HW230240   2.327   1.897   5.346  1.8452  0.6228 -1.1554
 6202SOL     OW30241   3.346   2.373   6.946  0.1885  0.0128 -0.7291
 6202SOL    HW130242   3.258   2.395   6.917 -0.3129 -0.6204  0.3193
 6202SOL    HW230243   3.337   2.278   6.952  0.5712  0.0396  0.1903
 6203SOL     OW30244   0.486   0.425   3.842  0.0260  0.4465  0.4359
 6203SOL    HW130245   0.556   0.417   3.777  0.6911 -2.3370  1.4981
 6203SOL    HW230246   0.531   0.467   3.915 -0.8609 -0.2450  1.3804
 6204SOL     OW30247   0.833   0.091  13.881  0.2242  0.4219  0.3864
 6204SOL    HW130248   0.908   0.131  13.924  1.4315  0.4340 -1.7364
 6204SOL    HW230249   0.765   0.096  13.948 -0.5078  0.0933 -0.3206
 6205SOL     OW30250   3.027   0.653   8.744  0.0481 -0.0748 -0.1974
 6205SOL    HW130251   2.933   0.636   8.756  0.5244 -1.8421  1.0591
 6205SOL    HW230252   3.042   0.582   8.682 -1.3158 -1.2254  0.7650
 6206SOL     OW30253   1.497   3.848   0.769 -0.1235  0.1115  0.5093
 6206SOL    HW130254   1.446   3.882   0.843  0.6937  2.4575 -0.0074
 6206SOL    HW230255   1.499   3.758   0.801 -3.9182  0.5544  1.9949
 6207SOL     OW30256   0.452   0.016   7.087 -0.1085 -0.0016  0.4845
 6207SOL    HW130257   0.427   0.027   7.179 -1.7497 -0.1462  0.0460
 6207SOL    HW230258   0.376   0.056   7.047 -1.2683 -1.3629  1.3267
 6208SOL     OW30259   0.381   4.473  10.586 -0.9462 -0.1777  0.3763
 6208SOL    HW130260   0.384   4.486  10.491  1.4296 -0.4368  0.4129
 6208SOL    HW230261   0.402   4.380  10.590 -3.7784 -0.7586  1.4851
 6209SOL     OW30262   2.231   2.250  12.456 -0.3131  0.0794 -0.3069
 6209SOL    HW130263   2.145   2.293  12.457 -0.5494 -0.3908 -0.2932
 6209SOL    HW230264   2.215   2.164  12.494  0.2155 -0.3296 -1.0059
 6210SOL     OW30265   0.138   1.084   8.200 -0.1193  0.2530 -0.4529
 6210SOL    HW130266   0.190   1.094   8.121  0.3630 -0.8425 -0.2735
 6210SOL    HW230267   0.211   1.074   8.261  1.4564 -2.1678 -2.7610
 6211SOL     OW30268   2.825   0.164   3.210  0.1550  0.0686 -0.0880
 6211SOL    HW130269   2.788   0.174   3.123 -0.7978 -0.2077  0.2845
 6211SOL    HW230270   2.914   0.135   3.189 -0.5668 -0.8256 -1.8906
 6212SOL     OW30271   0.232   3.082   1.689  0.1079  0.0654 -0.3358
 6212SOL    HW130272   0.286   3.070   1.611 -1.6826  1.8383 -1.8503
 6212SOL    HW230273   0.283   3.033   1.754 -1.5934  1.0441  1.7543
 6213SOL     OW30274   2.157   1.506   5.138 -0.5218 -0.0686  0.2129
 6213SOL    HW130275   2.101   1.579   5.113 -0.5282 -0.3538 -0.5816
 6213SOL    HW230276   2.123   1.432   5.089  0.8308 -1.7052  1.7318
 6214SOL     OW30277   3.767   0.179   4.852 -0.1300  0.0495  0.3779
 6214SOL    HW130278   3.802   0.103   4.900  1.1590  0.6266  0.3646
 6214SOL    HW230279   3.729   0.234   4.921 -1.9969  0.6332 -1.1233
 6215SOL     OW30280   0.115   1.253  15.684 -0.2372 -0.1448 -0.2746
 6215SOL    HW130281   0.067   1.278  15.605 -3.6378  0.4741  1.9507
 6215SOL    HW230282   0.175   1.192  15.641  2.0911  0.6912  1.7976
 6216SOL     OW30283   1.678   1.828   8.010  0.1988  0.3382 -0.8974
 6216SOL    HW130284   1.682   1.840   8.104 -3.2451  0.1881 -0.7244
 6216SOL    HW230285   1.762   1.785   7.997  1.4686  2.2225  1.0930
 6217SOL     OW30286   4.201   2.192   5.393 -0.1807 -0.1159 -0.2586
 6217SOL    HW130287   4.192   2.269   5.337 -1.8116 -1.1143 -1.3693
 6217SOL    HW230288   4.168   2.227   5.475  0.7989  0.2925 -0.0473
 6218SOL     OW30289   0.447   2.197   5.262 -0.0007  0.1481  0.2552
 6218SOL    HW130290   0.357   2.220   5.285 -0.1761 -1.4051  1.1383
 6218SOL    HW230291   0.464   2.122   5.319 -0.2526  0.1105  0.2804
 6219SOL     OW30292   3.210   1.573   8.228  0.6622 -0.0885 -0.1424
 6219SOL    HW130293   3.288   1.522   8.205  0.0726 -0.8700 -0.4371
 6219SOL    HW230294   3.250   1.659   8.242 -0.8182  0.6196 -0.2584
 6220SOL     OW30295   0.016   2.854  14.966  0.1214  0.4324 -0.1708
 6220SOL    HW130296   0.093   2.797  14.974 -0.4294 -0.3070 -0.1647
 6220SOL    HW230297   0.052   2.940  14.945 -3.0024  1.8156  0.1779
 6221SOL     OW30298   0.119   1.930   2.412  0.0345  0.3053 -0.2663
 6221SOL    HW130299   0.101   1.900   2.500 -0.0887  0.5290 -0.2157
 6221SOL    HW230300   0.051   1.997   2.400 -0.7633 -0.4129  0.2913
 6222SOL     OW30301   4.037   3.760  17.236  0.5036 -1.0903 -0.4604
 6222SOL    HW130302   4.005   3.724  17.318  1.0983 -1.3303 -0.3324
 6222SOL    HW230303   4.070   3.683  17.191  0.3048 -1.6837  0.4185
 6223SOL     OW30304   1.455   0.168  15.967 -0.5690  0.9286 -0.0935
 6223SOL    HW130305   1.441   0.152  16.060 -2.8756  0.5317 -0.5146
 6223SOL    HW230306   1.499   0.253  15.964 -1.8093  1.5195 -1.4862
 6224SOL     OW30307   1.825   1.290   6.431  0.2011 -0.0347 -0.6225
 6224SOL    HW130308   1.818   1.212   6.485  0.5768 -0.7283 -1.5919
 6224SOL    HW230309   1.740   1.292   6.386  0.4880  4.6237 -1.0264
 6225SOL     OW30310   0.436   4.043   9.879  0.0428 -0.0376 -0.0529
 6225SOL    HW130311   0.393   3.957   9.881  1.1823 -0.5725  1.6498
 6225SOL    HW230312   0.527   4.016   9.872  0.8633  2.0735  2.4751
 6226SOL     OW30313   2.891   0.974   5.829 -0.2655  0.2735  0.4689
 6226SOL    HW130314   2.863   0.999   5.741 -0.4880  0.7303  0.6696
 6226SOL    HW230315   2.803   0.963   5.865 -0.7222  0.4835 -0.5905
 6227SOL     OW30316   4.465   1.734   4.785 -0.1839 -0.4833 -0.7005
 6227SOL    HW130317   4.372   1.759   4.789  0.8596  3.1648  0.6876
 6227SOL    HW230318   4.467   1.683   4.703  1.1145 -0.3372 -0.7568
 6228SOL     OW30319   1.824   3.134  10.108 -0.3540  0.0004 -0.0777
 6228SOL    HW130320   1.841   3.042  10.129 -1.5481 -0.0365  0.7202
 6228SOL    HW230321   1.904   3.181  10.133 -0.6056  1.7081 -2.5114
 6229SOL     OW30322   0.378   3.656   8.652  0.4216 -0.4977  0.0346
 6229SOL    HW130323   0.423   3.720   8.707  0.7872 -0.9205  0.2349
 6229SOL    HW230324   0.423   3.578   8.684  0.1220 -0.5252  0.3876
 6230SOL     OW30325   1.538   3.080   2.500  0.1175 -0.3737  0.1754
 6230SOL    HW130326   1.509   3.125   2.579 -0.5603 -1.7114  0.6814
 6230SOL    HW230327   1.571   3.148   2.441  1.1014 -0.6157  0.4481
 6231SOL     OW30328   1.808   3.388  16.068 -0.1152  0.1336 -0.3526
 6231SOL    HW130329   1.715   3.369  16.081 -0.5591  2.1969 -0.5585
 6231SOL    HW230330   1.853   3.332  16.131 -1.0469  1.7786  1.7876
 6232SOL     OW30331   0.675   1.892   3.826  0.3555  0.5719  0.0762
 6232SOL    HW130332   0.753   1.947   3.826 -0.9405  2.3844 -0.7299
 6232SOL    HW230333   0.689   1.853   3.739 -0.9451 -0.7511  0.4564
 6233SOL     OW30334   1.471   3.161   5.517  0.5407 -0.3489 -0.1023
 6233SOL    HW130335   1.401   3.097   5.501  2.7899 -2.9597  0.4262
 6233SOL    HW230336   1.419   3.240   5.511 -1.2517 -1.3910  1.7579
 6234SOL     OW30337   0.981   3.256   5.924 -0.5891  0.0707  0.3122
 6234SOL    HW130338   0.999   3.206   5.845  1.1319 -1.9575  1.9994
 6234SOL    HW230339   1.063   3.243   5.972 -1.1829  0.1112  1.3408
 6235SOL     OW30340   0.642   0.369   5.458  0.2150  0.1549 -0.0847
 6235SOL    HW130341   0.565   0.370   5.402 -0.6300  1.6912  1.1013
 6235SOL    HW230342   0.644   0.278   5.486  0.3315 -0.1335 -1.0242
 6236SOL     OW30343   3.047   3.698  11.337  0.7148  0.8689 -0.7813
 6236SOL    HW130344   3.067   3.714  11.245  1.5157 -2.1588 -1.1418
 6236SOL    HW230345   2.984   3.769  11.347 -0.9412 -0.6031 -0.8605
 6237SOL     OW30346   4.609   3.691   4.564 -0.6884 -0.2122 -0.7298
 6237SOL    HW130347   4.546   3.759   4.585 -0.9975 -0.2633 -1.5032
 6237SOL    HW230348   4.578   3.611   4.607  1.0410 -1.0046 -0.9631
 6238SOL     OW30349   1.891   0.840   5.643 -0.6850 -0.0913 -0.3845
 6238SOL    HW130350   1.813   0.894   5.628 -2.7295 -2.8017  0.5918
 6238SOL    HW230351   1.859   0.750   5.642 -0.5897 -0.1417  1.4267
 6239SOL     OW30352   1.406   3.216   2.186  0.2430 -0.3969 -0.2349
 6239SOL    HW130353   1.336   3.253   2.241  0.3138  0.5986 -0.8220
 6239SOL    HW230354   1.397   3.125   2.214  1.6749  0.2124  2.2151
 6240SOL     OW30355   4.478   2.490  16.914 -0.0601  0.3074 -0.2655
 6240SOL    HW130356   4.441   2.429  16.851 -2.6561 -0.1382  1.7010
 6240SOL    HW230357   4.560   2.505  16.867 -0.9607  0.0422 -1.9318
 6241SOL     OW30358   1.593   2.225   2.602 -0.2889  0.1692  0.0671
 6241SOL    HW130359   1.583   2.321   2.604  0.0834  0.2033  0.1239
 6241SOL    HW230360   1.687   2.214   2.615 -0.6611 -1.8692  0.8576
 6242SOL     OW30361   2.591   2.640   7.222 -0.2525 -0.6914  0.0411
 6242SOL    HW130362   2.639   2.722   7.210 -0.1935 -0.9436 -1.3484
 6242SOL    HW230363   2.517   2.659   7.164 -1.1965 -0.7525  1.2056
 6243SOL     OW30364   3.553   3.539   1.601 -0.5063 -0.1251 -0.1246
 6243SOL    HW130365   3.632   3.493   1.629 -1.0534 -0.9984 -0.0426
 6243SOL    HW230366   3.589   3.604   1.540  0.3725  1.5372  2.1767
 6244SOL     OW30367   1.558   2.494   0.803  0.0702 -0.2432 -0.3561
 6244SOL    HW130368   1.634   2.523   0.855  0.0266 -1.4672  0.3907
 6244SOL    HW230369   1.530   2.418   0.853  2.5789  0.7803  2.6563
 6245SOL     OW30370   0.415   2.225  16.229  0.2120  0.0219 -0.0106
 6245SOL    HW130371   0.442   2.316  16.225  2.7207 -0.5918  2.9674
 6245SOL    HW230372   0.466   2.169  16.170  1.8167  1.7791 -0.2657
 6246SOL     OW30373   4.144   2.675   7.210 -0.1238  0.3892 -0.1272
 6246SOL    HW130374   4.225   2.717   7.240  1.2195 -1.3972 -1.2025
 6246SOL    HW230375   4.072   2.735   7.230 -1.4512 -1.5083  0.6893
 6247SOL     OW30376   0.281   0.375  14.785 -0.2796 -0.0145 -0.9915
 6247SOL    HW130377   0.202   0.373  14.731 -0.8754 -1.6192 -0.0876
 6247SOL    HW230378   0.257   0.455  14.831 -0.7429  0.1364 -1.5001
 6248SOL     OW30379   4.058   0.740   1.258 -0.5783 -0.0762  0.2953
 6248SOL    HW130380   4.089   0.795   1.330  1.6310 -2.3774  1.1042
 6248SOL    HW230381   4.034   0.660   1.306 -0.2707 -0.0443  0.5045
 6249SOL     OW30382   0.253   1.038  17.177  0.2371 -0.0766 -0.6109
 6249SOL    HW130383   0.276   0.984  17.253 -0.3791 -0.7269 -0.8907
 6249SOL    HW230384   0.281   1.126  17.203 -1.0751  0.3485 -0.6101
 6250SOL     OW30385   2.827   0.644  10.490 -0.5985 -0.0782  0.5287
 6250SOL    HW130386   2.807   0.737  10.500 -1.0581 -0.4228  2.6978
 6250SOL    HW230387   2.918   0.647  10.520 -0.5709 -0.0730  0.4461
 6251SOL     OW30388   3.302   1.311   3.614  0.0490 -0.3162  0.1738
 6251SOL    HW130389   3.383   1.278   3.652  2.0930  2.0127 -2.2281
 6251SOL    HW230390   3.305   1.273   3.526  1.0054 -2.2339  1.0352
 6252SOL     OW30391   3.402   4.642   7.970 -0.3064  0.4969  0.8037
 6252SOL    HW130392   3.316   4.684   7.980 -0.6030 -0.6723  2.9653
 6252SOL    HW230393   3.406   4.597   8.054 -1.4232 -2.2995 -0.6581
 6253SOL     OW30394   1.095   0.192   5.832  0.3477 -0.2588  0.3660
 6253SOL    HW130395   1.109   0.266   5.772  1.2150  0.1344  1.0554
 6253SOL    HW230396   1.169   0.194   5.892  1.0582  0.4188 -0.5355
 6254SOL     OW30397   0.902   1.061   4.631  0.4110  0.2904 -0.1048
 6254SOL    HW130398   0.809   1.039   4.623 -0.0898  1.5104  2.5334
 6254SOL    HW230399   0.942   0.978   4.656 -0.2350 -0.0042 -0.0603
 6255SOL     OW30400   2.953   0.894   4.944 -0.4324  0.6442 -0.4073
 6255SOL    HW130401   3.004   0.855   5.015  0.7863  0.2029 -1.5304
 6255SOL    HW230402   2.951   0.987   4.969  0.1945  0.7738 -0.8526
 6256SOL     OW30403   1.446   3.159   1.879  0.7637  0.0024 -0.1772
 6256SOL    HW130404   1.374   3.098   1.869 -0.3125  1.2783 -0.1529
 6256SOL    HW230405   1.455   3.159   1.974 -1.6132  2.2961  0.0215
 6257SOL     OW30406   3.058   2.021   9.553  0.3855  0.3194  0.0524
 6257SOL    HW130407   2.993   2.031   9.482  0.3143  1.4513  0.2851
 6257SOL    HW230408   3.022   1.945   9.599  0.8218 -0.5975 -1.1058
 6258SOL     OW30409   4.704   3.683   7.740 -0.1717  0.2747 -0.7964
 6258SOL    HW130410   0.006   3.741   7.670  2.1787  0.5358  0.4996
 6258SOL    HW230411   4.609   3.698   7.738  0.0007  1.4554  0.2925
 6259SOL     OW30412   1.939   4.215   6.403 -0.4385  0.0816  0.2109
 6259SOL    HW130413   1.882   4.178   6.335 -0.0281  0.2711 -0.2335
 6259SOL    HW230414   1.983   4.290   6.363 -2.0176  0.5850 -0.5656
 6260SOL     OW30415   4.360   0.052   3.982 -0.7529 -0.1657  0.1403
 6260SOL    HW130416   4.277   0.009   3.998 -0.5846 -1.2041 -1.7925
 6260SOL    HW230417   4.414   4.711   4.018 -0.2076  0.2493  0.1318
 6261SOL     OW30418   2.167   4.426   2.192 -0.2982  0.5401  0.2285
 6261SOL    HW130419   2.130   4.500   2.241  0.2818  0.4978  0.7365
 6261SOL    HW230420   2.248   4.467   2.159 -0.8840  0.9736 -0.6676
 6262SOL     OW30421   3.297   2.464   0.694  0.8155 -0.2794 -0.2558
 6262SOL    HW130422   3.243   2.532   0.653  0.0535 -1.5639 -1.3555
 6262SOL    HW230423   3.376   2.511   0.720 -0.1651  1.4488 -0.3761
 6263SOL     OW30424   4.020   2.781   5.568  0.2320  0.2013 -0.1872
 6263SOL    HW130425   4.025   2.701   5.620  1.7392 -1.7956 -3.3712
 6263SOL    HW230426   3.930   2.807   5.587 -0.5160 -2.2666 -0.3910
 6264SOL     OW30427   3.825   1.480  14.601  0.0236 -0.4579 -0.3190
 6264SOL    HW130428   3.880   1.546  14.643 -1.9553  0.6030  0.6191
 6264SOL    HW230429   3.744   1.531  14.603 -0.1036 -0.6489 -0.8204
 6265SOL     OW30430   1.588   1.189  14.844  0.2807 -0.4537  0.3566
 6265SOL    HW130431   1.625   1.223  14.763  2.2254  1.1363  1.9050
 6265SOL    HW230432   1.503   1.158  14.814 -1.2056  1.3448  2.7735
 6266SOL     OW30433   1.821   4.379   9.759  0.5214  0.4217  0.1892
 6266SOL    HW130434   1.860   4.291   9.762 -0.5328 -0.1065 -1.8096
 6266SOL    HW230435   1.884   4.420   9.818  0.1253  0.6049  0.4840
 6267SOL     OW30436   4.105   3.651  15.241  0.4371 -0.3478  0.1837
 6267SOL    HW130437   4.198   3.656  15.263  0.5784 -2.4440  0.0502
 6267SOL    HW230438   4.074   3.719  15.301 -0.8921 -3.1591  2.6983
 6268SOL     OW30439   2.894   1.159  10.965 -0.3662 -0.7606 -0.0264
 6268SOL    HW130440   2.977   1.204  10.952 -0.2577 -0.6779  0.9806
 6268SOL    HW230441   2.885   1.153  11.060 -0.0868  0.3787  0.0634
 6269SOL     OW30442   2.636   2.329   5.108  0.2218 -0.4342  0.1029
 6269SOL    HW130443   2.647   2.402   5.169  2.6047 -1.0599  0.4165
 6269SOL    HW230444   2.728   2.312   5.088  0.3158  1.0216 -0.6888
 6270SOL     OW30445   4.281   4.073  15.158  0.6133  0.6744 -0.1727
 6270SOL    HW130446   4.307   4.095  15.247  2.9118 -1.3929 -0.3208
 6270SOL    HW230447   4.187   4.091  15.163  0.5490  0.4109 -0.3935
 6271SOL     OW30448   1.823   1.965   4.970  0.9514  0.1278  0.1474
 6271SOL    HW130449   1.766   1.926   4.903 -0.1203  0.3200  0.9317
 6271SOL    HW230450   1.832   2.051   4.930 -1.7981 -0.0385 -0.8346
 6272SOL     OW30451   1.055   3.062  10.822 -0.3293  0.0833 -0.2569
 6272SOL    HW130452   1.065   3.011  10.903 -2.6713 -1.3681 -0.8723
 6272SOL    HW230453   1.106   3.014  10.757 -0.5830  0.4442 -0.7180
 6273SOL     OW30454   1.360   3.614   0.043 -0.3586 -0.2770  0.3571
 6273SOL    HW130455   1.436   3.668   0.021 -1.5769  0.9935 -0.7299
 6273SOL    HW230456   1.283   3.661   0.011  0.4171  0.2541 -0.7220
 6274SOL     OW30457   1.515   4.193   5.433 -0.4016  0.1642 -0.1725
 6274SOL    HW130458   1.444   4.255   5.424  1.5857  2.6235  0.9779
 6274SOL    HW230459   1.462   4.113   5.424 -1.8717  0.8572  2.3019
 6275SOL     OW30460   1.867   0.673  15.810 -0.6438  0.0913  0.0575
 6275SOL    HW130461   1.916   0.697  15.889 -1.9042 -0.2687  0.9580
 6275SOL    HW230462   1.888   0.580  15.795  0.0024  0.4531 -1.2832
 6276SOL     OW30463   2.513   2.990   6.965  0.1173 -0.0286  0.2680
 6276SOL    HW130464   2.464   2.950   6.893 -0.2743  1.6306 -0.3910
 6276SOL    HW230465   2.598   2.990   6.921 -0.0101  1.7318  0.0181
 6277SOL     OW30466   0.041   4.640   6.055  0.2115  0.1090  0.2136
 6277SOL    HW130467   0.047   0.004   6.031 -1.4019  1.1873  4.0969
 6277SOL    HW230468   0.067   4.594   5.975  3.2146  0.8129  0.7638
 6278SOL     OW30469   0.542   3.149   9.103 -0.7516 -0.1253  0.1873
 6278SOL    HW130470   0.513   3.066   9.140  3.1754 -2.0388 -0.9342
 6278SOL    HW230471   0.636   3.131   9.100 -0.3186  2.6302 -2.0763
 6279SOL     OW30472   2.968   4.577  14.459 -0.1598  0.2571  0.1620
 6279SOL    HW130473   2.962   4.518  14.534  1.8910  2.8514  2.3604
 6279SOL    HW230474   3.024   4.529  14.399 -0.0120 -1.0173  1.3386
 6280SOL     OW30475   1.773   2.551   9.903 -0.1300  0.1079  0.2414
 6280SOL    HW130476   1.866   2.548   9.925  0.5031  0.5743 -2.3654
 6280SOL    HW230477   1.730   2.605   9.970 -1.8279 -2.8602  1.5531
 6281SOL     OW30478   2.612   0.108  16.315  0.0390 -0.5837 -0.0674
 6281SOL    HW130479   2.543   0.168  16.343 -1.4723 -2.0214 -0.7236
 6281SOL    HW230480   2.654   0.156  16.243 -3.8293  1.8424 -0.7437
 6282SOL     OW30481   2.951   0.899  11.642  0.3602 -0.0966 -0.0645
 6282SOL    HW130482   3.039   0.902  11.605  0.6195  1.2627  0.6308
 6282SOL    HW230483   2.972   0.861  11.727 -1.4618  2.2855  1.4746
 6283SOL     OW30484   1.366   3.619   4.147 -0.2424  0.0830  0.0757
 6283SOL    HW130485   1.292   3.582   4.098  0.1362  0.3105 -0.6668
 6283SOL    HW230486   1.427   3.550   4.120 -1.0759 -1.6505  2.5297
 6284SOL     OW30487   3.296   2.589  17.351  0.3640 -0.0998  0.0511
 6284SOL    HW130488   3.248   2.657  17.304  0.5984  0.6558  0.8981
 6284SOL    HW230489   3.311   2.517  17.290  2.5678  0.2325  0.1939
 6285SOL     OW30490   1.654   2.943  11.899  0.2837  0.4141  0.6029
 6285SOL    HW130491   1.626   2.865  11.947  0.6074  1.0179  1.7889
 6285SOL    HW230492   1.574   2.958  11.850 -2.2217 -1.4724  4.0830
 6286SOL     OW30493   1.714   2.670   9.426  0.0850 -0.0327  0.1344
 6286SOL    HW130494   1.664   2.749   9.408  0.5198 -0.3320 -2.3351
 6286SOL    HW230495   1.800   2.708   9.443 -0.8447  1.3994  1.5894
 6287SOL     OW30496   0.786   0.012   2.963 -0.0525 -0.2589 -0.2240
 6287SOL    HW130497   0.826   4.655   2.976 -0.6765 -0.0247  3.1094
 6287SOL    HW230498   0.796   0.012   2.868  5.5205 -0.4808  0.3368
 6288SOL     OW30499   3.467   1.529   8.824 -0.2818  0.0420 -0.0297
 6288SOL    HW130500   3.525   1.466   8.781 -2.2268 -0.1147 -2.3886
 6288SOL    HW230501   3.481   1.614   8.783 -1.4712  0.8858  1.3395
 6289SOL     OW30502   2.505   1.968   8.146 -0.2333  0.2347  0.2826
 6289SOL    HW130503   2.549   2.041   8.190  0.3223  0.0215  0.0858
 6289SOL    HW230504   2.506   1.995   8.054 -2.9920  0.6504  0.3926
 6290SOL     OW30505   0.123   3.675   2.495 -0.3463  0.1001 -0.1140
 6290SOL    HW130506   0.098   3.634   2.412 -0.3316  1.2681 -0.6953
 6290SOL    HW230507   0.153   3.600   2.546  1.1098  0.5004 -0.3845
 6291SOL     OW30508   0.025   4.427   6.272  0.2129  0.7305  0.5220
 6291SOL    HW130509   4.726   4.354   6.217  0.7424  0.8015  0.1642
 6291SOL    HW230510   0.092   4.464   6.214  1.4337  0.1865  1.5932
 6292SOL     OW30511   0.599   3.205   3.178 -0.5755  0.3256 -0.1902
 6292SOL    HW130512   0.582   3.295   3.152 -1.2286  1.0967  2.8349
 6292SOL    HW230513   0.695   3.206   3.188 -0.2744 -0.6200 -2.9640
 6293SOL     OW30514   3.760   2.965   1.788  0.2201  0.6776  0.4315
 6293SOL    HW130515   3.710   2.998   1.713  2.5372 -1.2077 -1.9241
 6293SOL    HW230516   3.841   3.013   1.775  1.1656 -0.4291  2.2473
 6294SOL     OW30517   2.025   3.395   6.783  0.6183  0.4338  0.4238
 6294SOL    HW130518   1.984   3.416   6.699  1.5273  0.4210 -0.0207
 6294SOL    HW230519   1.961   3.327   6.804 -1.8818  2.6518  0.0290
 6295SOL     OW30520   0.778   0.610  16.821 -0.3320  0.1839 -0.1386
 6295SOL    HW130521   0.703   0.611  16.880  1.1552 -3.7541  1.8142
 6295SOL    HW230522   0.849   0.567  16.869  0.2605 -0.2818 -1.4431
 6296SOL     OW30523   0.885   2.154  14.113 -0.0665  0.0898 -0.2555
 6296SOL    HW130524   0.836   2.234  14.098 -2.5363 -1.2178  0.8176
 6296SOL    HW230525   0.814   2.089  14.114 -1.1466  1.2836  2.1217
 6297SOL     OW30526   1.708   2.671  10.623 -0.4816  0.0375 -0.5532
 6297SOL    HW130527   1.792   2.692  10.663 -0.5752  0.5997 -0.6527
 6297SOL    HW230528   1.674   2.602  10.680 -0.3698  1.3785  1.1188
 6298SOL     OW30529   0.227   0.927   5.793  0.0299  0.1098 -0.2870
 6298SOL    HW130530   0.294   0.865   5.765  0.2870  0.6718 -0.9105
 6298SOL    HW230531   0.152   0.876   5.825  1.6859 -1.1565  1.6040
 6299SOL     OW30532   0.562   3.439   9.210  0.1020 -0.1932  0.4671
 6299SOL    HW130533   0.583   3.468   9.121 -1.7974 -0.9979 -0.2326
 6299SOL    HW230534   0.588   3.347   9.206  0.2739 -0.0521 -1.4051
 6300SOL     OW30535   0.590   0.477   5.084  0.4050 -0.1331 -0.1922
 6300SOL    HW130536   0.632   0.557   5.116  0.2921  1.0502 -2.9786
 6300SOL    HW230537   0.556   0.435   5.163  3.8488 -0.5852  1.0560
 6301SOL     OW30538   3.420   1.852  15.778  0.1136  0.4012  0.3728
 6301SOL    HW130539   3.472   1.911  15.723 -0.7202 -0.5278 -1.4186
 6301SOL    HW230540   3.333   1.855  15.738  1.1688 -2.9180 -2.2758
 6302SOL     OW30541   4.142   2.667   3.177  0.3031  0.2782 -0.2448
 6302SOL    HW130542   4.190   2.731   3.230  0.2742  1.3760 -1.5368
 6302SOL    HW230543   4.053   2.674   3.213  1.1311  0.7941  1.7516
 6303SOL     OW30544   1.429   3.869   4.032  0.2333 -0.2103 -0.0993
 6303SOL    HW130545   1.433   3.854   4.126  0.2230  1.1605  0.1107
 6303SOL    HW230546   1.482   3.796   3.999  0.3314  0.1740 -0.7955
 6304SOL     OW30547   1.208   4.170   2.438 -0.5128 -0.0972 -0.2901
 6304SOL    HW130548   1.290   4.122   2.424 -0.6714 -0.7078  0.8444
 6304SOL    HW230549   1.167   4.157   2.353 -2.4156 -0.2923  0.6578
 6305SOL     OW30550   4.310   0.852   9.993 -0.0244 -0.1073 -1.2121
 6305SOL    HW130551   4.387   0.906  10.012 -0.2061 -0.1876 -0.2315
 6305SOL    HW230552   4.262   0.885  10.069  0.4001 -1.5343 -0.3163
 6306SOL     OW30553   0.397   1.839   3.393  0.6606 -0.3971  0.0092
 6306SOL    HW130554   0.403   1.915   3.334  0.9639 -0.5374 -0.1412
 6306SOL    HW230555   0.327   1.782   3.362  1.0006 -1.3647  1.0471
 6307SOL     OW30556   3.802   2.020  15.710 -0.3230  0.3217  0.3505
 6307SOL    HW130557   3.865   2.075  15.665 -2.0567  1.1109 -1.1265
 6307SOL    HW230558   3.805   2.060  15.797  0.4434  0.0108  0.4672
 6308SOL     OW30559   0.102   2.611   7.450  0.2437  1.1420  0.4020
 6308SOL    HW130560   0.194   2.589   7.439  0.6177  2.3483  1.0984
 6308SOL    HW230561   0.099   2.672   7.524  1.0065  1.1159  0.4526
 6309SOL     OW30562   1.206   3.293   4.883 -0.1520 -0.8845  0.3573
 6309SOL    HW130563   1.288   3.243   4.878  0.8033  0.7471 -0.3035
 6309SOL    HW230564   1.134   3.231   4.876 -1.8932  1.1491 -0.0062
 6310SOL     OW30565   3.557   0.398   3.760  0.0501  0.6675  0.2058
 6310SOL    HW130566   3.484   0.353   3.803  0.1894 -0.1974 -0.4727
 6310SOL    HW230567   3.623   0.329   3.753 -2.1634 -1.5595  1.3213
 6311SOL     OW30568   0.176   0.710   7.229 -0.1327  0.0835  0.0755
 6311SOL    HW130569   0.153   0.772   7.160  2.2592  0.9931  0.0931
 6311SOL    HW230570   0.094   0.699   7.276  1.0341 -1.4744  1.7561
 6312SOL     OW30571   1.508   0.656   1.198 -0.2892 -0.2341  0.8687
 6312SOL    HW130572   1.544   0.677   1.112  1.2988 -1.8439  1.1159
 6312SOL    HW230573   1.496   0.561   1.204 -0.6310 -0.2025  0.6578
 6313SOL     OW30574   4.342   2.156   1.737  0.1352 -0.7602  0.3047
 6313SOL    HW130575   4.259   2.188   1.701 -1.1467 -1.3794  2.7049
 6313SOL    HW230576   4.390   2.147   1.654 -0.6160 -0.8114 -0.1225
 6314SOL     OW30577   2.412   4.414  14.963  0.3855 -0.1070 -0.1171
 6314SOL    HW130578   2.400   4.377  15.050 -1.0524  1.1736  0.2382
 6314SOL    HW230579   2.392   4.506  14.981  2.5346  0.0270  1.5388
 6315SOL     OW30580   1.570   0.442   7.213  0.1222  0.2301  0.4194
 6315SOL    HW130581   1.588   0.396   7.295 -0.3365 -2.8760 -1.2094
 6315SOL    HW230582   1.635   0.410   7.150  0.0728 -1.0885  1.0380
 6316SOL     OW30583   4.481   3.498   4.690 -0.3445 -0.4799 -0.1186
 6316SOL    HW130584   4.497   3.405   4.706  0.9592 -0.0439  1.1373
 6316SOL    HW230585   4.405   3.513   4.746  0.6637  0.7758  0.9042
 6317SOL     OW30586   2.111   0.746  14.336  0.0345 -0.1655  0.1086
 6317SOL    HW130587   2.185   0.802  14.313 -1.1195  0.2257 -2.6028
 6317SOL    HW230588   2.149   0.661  14.312 -1.6621 -0.8592 -0.1145
 6318SOL     OW30589   2.500   3.718  11.093  0.4483 -0.0659 -0.2008
 6318SOL    HW130590   2.476   3.693  11.182  1.6307  0.3609  0.2352
 6318SOL    HW230591   2.429   3.685  11.038 -0.5651  0.1204  0.9971
 6319SOL     OW30592   3.715   2.074  11.415  0.4759  0.1410 -0.1439
 6319SOL    HW130593   3.770   2.005  11.380  0.2114 -0.3913  0.5000
 6319SOL    HW230594   3.630   2.031  11.409  0.7251 -0.6224  1.7654
 6320SOL     OW30595   3.352   3.051   0.005 -0.3603 -0.2277 -0.1362
 6320SOL    HW130596   3.305   2.971  17.697  0.8443 -0.9233 -0.2100
 6320SOL    HW230597   3.351   3.107  17.645 -2.7670  0.9666  0.7561
 6321SOL     OW30598   2.631   3.257  15.950  1.2214  0.2402  0.1557
 6321SOL    HW130599   2.617   3.339  15.902  0.2765  1.6916  2.8981
 6321SOL    HW230600   2.639   3.203  15.871  1.0795 -0.7062  0.7924
 6322SOL     OW30601   4.296   1.396   3.022 -0.3788  0.3673  0.3338
 6322SOL    HW130602   4.319   1.370   2.933  1.2838 -0.1565  0.9153
 6322SOL    HW230603   4.373   1.374   3.074  0.7626  0.6332 -1.2369
 6323SOL     OW30604   2.559   3.680   1.608 -0.7023  0.2196 -0.2413
 6323SOL    HW130605   2.572   3.614   1.541  1.2940  2.6948 -2.2743
 6323SOL    HW230606   2.609   3.642   1.681  0.1022 -1.3564 -1.6175
 6324SOL     OW30607   0.599   1.794   8.733 -0.1813 -0.4166 -0.3671
 6324SOL    HW130608   0.527   1.748   8.775 -1.8930  2.2578 -0.3182
 6324SOL    HW230609   0.578   1.885   8.754 -1.8633 -0.6430 -1.0598
 6325SOL     OW30610   3.162   3.893  13.347 -0.2182 -0.2734  0.2542
 6325SOL    HW130611   3.174   3.800  13.329 -0.6999 -0.4336  0.7608
 6325SOL    HW230612   3.167   3.891  13.443  0.9562 -3.4645  0.1237
 6326SOL     OW30613   2.783   4.221  11.198  0.2338  0.4951 -0.3200
 6326SOL    HW130614   2.744   4.255  11.278  2.2980  3.8327 -0.7701
 6326SOL    HW230615   2.839   4.150  11.231 -0.0789  0.3650 -0.0682
 6327SOL     OW30616   2.094   2.002  12.312  0.1107 -0.3906 -0.1663
 6327SOL    HW130617   2.104   1.917  12.268 -2.7820 -1.1582  0.6252
 6327SOL    HW230618   2.161   2.003  12.380  0.5654  0.7349 -0.6319
 6328SOL     OW30619   1.557   4.366   5.102 -0.3953  0.5469  0.0275
 6328SOL    HW130620   1.510   4.283   5.111  3.0917 -1.5570 -0.9161
 6328SOL    HW230621   1.564   4.373   5.007  1.2860 -0.1017  0.1057
 6329SOL     OW30622   3.554   4.119   4.511 -0.2667  0.1152 -0.0412
 6329SOL    HW130623   3.493   4.154   4.447  2.3312  2.0892 -1.4377
 6329SOL    HW230624   3.596   4.045   4.466 -2.4101 -0.5989 -0.8822
 6330SOL     OW30625   3.844   0.324   2.410  0.4343  0.5508 -0.5362
 6330SOL    HW130626   3.793   0.400   2.385 -2.5335 -1.5063 -0.7405
 6330SOL    HW230627   3.812   0.256   2.351 -0.3350  0.6227 -0.1926
 6331SOL     OW30628   3.929   3.833  16.561  0.7892  0.4477 -0.0428
 6331SOL    HW130629   3.990   3.773  16.604  0.4495  0.0158 -0.1704
 6331SOL    HW230630   3.995   3.876  16.506 -1.1391  3.6781  0.1771
 6332SOL     OW30631   1.421   1.688   7.533 -0.2357 -0.2316  0.4006
 6332SOL    HW130632   1.501   1.650   7.497 -0.4597  0.7830 -1.1677
 6332SOL    HW230633   1.389   1.600   7.554  1.0317  0.0557  3.4537
 6333SOL     OW30634   1.780   0.690  15.094  0.5018 -0.1754  0.1170
 6333SOL    HW130635   1.758   0.731  15.010 -0.9103 -2.7621 -0.7431
 6333SOL    HW230636   1.836   0.621  15.061  1.8775  0.8633  0.2871
 6334SOL     OW30637   2.670   3.606  11.528 -0.1328 -0.0665  0.2568
 6334SOL    HW130638   2.609   3.649  11.588 -1.5861 -3.3258  1.1003
 6334SOL    HW230639   2.744   3.637  11.581 -0.2459  0.9096 -0.1445
 6335SOL     OW30640   2.537   1.858   4.366  0.3146  0.4390 -0.3780
 6335SOL    HW130641   2.515   1.844   4.458  0.4277  2.6700 -0.0164
 6335SOL    HW230642   2.621   1.817   4.348  1.3995  2.3573  0.3403
 6336SOL     OW30643   4.670   2.223   1.614 -0.0408  0.1031 -0.4313
 6336SOL    HW130644   4.617   2.280   1.670 -0.2001 -2.0740  1.6627
 6336SOL    HW230645   4.614   2.214   1.537  1.0103 -0.7298 -1.0937
 6337SOL     OW30646   3.949   4.514   5.629 -0.0737 -0.8369 -0.0960
 6337SOL    HW130647   3.858   4.489   5.615 -0.5634  1.5488 -1.1767
 6337SOL    HW230648   3.951   4.599   5.585 -2.0553 -0.2303  0.9969
 6338SOL     OW30649   0.237   3.745   0.815  0.0367  0.3847  0.5546
 6338SOL    HW130650   0.291   3.693   0.755  1.1406  2.5594 -0.3154
 6338SOL    HW230651   0.233   3.830   0.770 -2.9320 -0.8517 -1.5599
 6339SOL     OW30652   1.697   0.947   7.359  0.2060 -0.3754  0.7643
 6339SOL    HW130653   1.643   0.937   7.280  0.7309  0.6227  0.2778
 6339SOL    HW230654   1.674   1.037   7.382  0.7817  0.0557 -0.3417
 6340SOL     OW30655   4.116   3.843   4.624 -0.6577 -0.1369 -0.2595
 6340SOL    HW130656   4.162   3.871   4.702  2.0764  0.9569 -2.2595
 6340SOL    HW230657   4.172   3.775   4.586 -1.4044 -0.4720 -0.7700
 6341SOL     OW30658   1.312   3.524   8.444  0.3487 -0.4881 -0.6054
 6341SOL    HW130659   1.378   3.551   8.508 -1.1671  0.3842  0.5997
 6341SOL    HW230660   1.312   3.434   8.475 -5.2086 -0.1818  0.3205
 6342SOL     OW30661   2.374   0.852   6.913 -0.6302  0.2604  0.0897
 6342SOL    HW130662   2.392   0.946   6.910  0.3914  0.0168 -1.3751
 6342SOL    HW230663   2.337   0.852   6.824  0.5861 -0.8612 -0.4152
 6343SOL     OW30664   2.128   3.337   5.822  0.4445  0.4013  0.3334
 6343SOL    HW130665   2.198   3.280   5.854  1.9905  3.1878  2.0278
 6343SOL    HW230666   2.160   3.426   5.841  0.0384  0.9170 -1.4308
 6344SOL     OW30667   4.128   4.684   8.303 -0.5671 -0.1283 -0.1521
 6344SOL    HW130668   4.058   4.682   8.237 -1.2840  0.7382  0.5656
 6344SOL    HW230669   4.204   4.700   8.247 -0.3911  2.7747  0.9037
 6345SOL     OW30670   2.844   3.877  11.923  0.6603 -0.3784 -0.5334
 6345SOL    HW130671   2.837   3.784  11.902 -0.8420  0.1040 -2.1514
 6345SOL    HW230672   2.755   3.898  11.949  0.8678  1.0168 -0.9780
 6346SOL     OW30673   3.570   1.109   7.901  0.5848 -0.0990  0.3156
 6346SOL    HW130674   3.619   1.112   7.820 -0.5176 -1.1136 -0.3967
 6346SOL    HW230675   3.552   1.202   7.910  1.7494  0.1108  0.4626
 6347SOL     OW30676   3.098   0.687   5.618 -0.1168  0.0486  0.2363
 6347SOL    HW130677   3.111   0.736   5.699  2.8984 -0.3254  0.0161
 6347SOL    HW230678   3.181   0.639   5.621  0.6491  1.5323  2.5332
 6348SOL     OW30679   0.600   2.853  13.387  0.1571 -0.0783  0.4445
 6348SOL    HW130680   0.525   2.876  13.332  1.4337  1.4537 -0.6943
 6348SOL    HW230681   0.610   2.934  13.438 -0.9217  0.1056  0.3659
 6349SOL     OW30682   3.908   2.471   7.674  0.3110 -0.2388 -1.0683
 6349SOL    HW130683   3.833   2.479   7.733  0.8527 -0.9533 -0.2916
 6349SOL    HW230684   3.917   2.379   7.651 -1.4788 -0.6783 -0.0275
 6350SOL     OW30685   0.215   1.790   5.280 -0.1154  0.2681 -0.2982
 6350SOL    HW130686   0.228   1.858   5.214  0.6660  0.5286  0.1255
 6350SOL    HW230687   0.122   1.766   5.274 -0.1400  0.3876 -0.4131
 6351SOL     OW30688   4.251   0.178   4.340 -0.3976  0.4424 -0.9146
 6351SOL    HW130689   4.170   0.199   4.386  0.5200 -0.0037  0.9203
 6351SOL    HW230690   4.220   0.223   4.261 -1.6134  0.6424 -0.3105
 6352SOL     OW30691   0.197   0.838   6.158  0.4018  0.3062 -0.0086
 6352SOL    HW130692   0.179   0.745   6.171 -0.1393  0.2825 -0.9576
 6352SOL    HW230693   0.145   0.852   6.079  1.2701 -0.1254 -0.6590
 6353SOL     OW30694   3.356   4.502  16.147 -0.3106 -0.2002  0.0508
 6353SOL    HW130695   3.441   4.462  16.166  0.0235  0.1696 -0.6600
 6353SOL    HW230696   3.343   4.492  16.052 -1.7434 -1.1731  0.3587
 6354SOL     OW30697   3.047   1.489   8.014 -0.2422  0.0042  0.0908
 6354SOL    HW130698   2.968   1.502   8.066 -0.9293 -0.4509 -0.8382
 6354SOL    HW230699   3.105   1.534   8.076 -1.8646  1.6633  0.4069
 6355SOL     OW30700   0.442   2.856  15.171 -0.1471  0.2143  0.2361
 6355SOL    HW130701   0.475   2.946  15.182 -1.0917  0.6467 -0.4307
 6355SOL    HW230702   0.376   2.861  15.240  0.7771 -0.8959  1.1979
 6356SOL     OW30703   2.059   3.528   7.028 -0.1103 -0.6577  0.4161
 6356SOL    HW130704   1.969   3.556   7.044  0.0234  0.1216 -0.2104
 6356SOL    HW230705   2.050   3.467   6.954  0.0376 -0.2892  0.0978
 6357SOL     OW30706   0.394   2.432   2.185  0.5136 -0.1392  0.0246
 6357SOL    HW130707   0.458   2.404   2.120 -1.7106 -1.8448 -1.4677
 6357SOL    HW230708   0.346   2.496   2.133 -1.2434  0.1830  2.0236
 6358SOL     OW30709   2.854   3.118   9.536  0.2543  0.0121  0.6296
 6358SOL    HW130710   2.920   3.181   9.564  1.8884 -1.1459 -0.5812
 6358SOL    HW230711   2.776   3.172   9.543  1.0386  1.2985 -0.3502
 6359SOL     OW30712   4.262   3.910   4.826 -0.0250  0.0236  0.0970
 6359SOL    HW130713   4.235   3.858   4.902 -2.9785 -0.9563 -1.6092
 6359SOL    HW230714   4.312   3.977   4.872 -1.7980  0.6958  1.0441
 6360SOL     OW30715   0.719   1.575   0.826  0.3105 -0.2364 -0.4999
 6360SOL    HW130716   0.655   1.645   0.831  0.0040 -0.6121  0.7278
 6360SOL    HW230717   0.797   1.626   0.847  0.6809 -0.4331 -1.3681
 6361SOL     OW30718   4.256   3.173  13.530  0.8901  0.6778 -0.2500
 6361SOL    HW130719   4.172   3.131  13.513  1.3500 -0.5136  0.4795
 6361SOL    HW230720   4.308   3.117  13.473  1.9661  1.0868  0.3318
 6362SOL     OW30721   3.934   2.150   7.937 -0.1198  0.7276 -0.8694
 6362SOL    HW130722   3.968   2.060   7.945  0.8828  1.3259  1.6462
 6362SOL    HW230723   3.907   2.154   7.845 -1.6955  1.0340 -0.3928
 6363SOL     OW30724   4.565   3.129  17.321 -0.4320  0.0437  0.4041
 6363SOL    HW130725   4.511   3.049  17.328 -1.4337  0.6618 -0.1791
 6363SOL    HW230726   4.555   3.149  17.228 -1.4904  0.2158  0.5508
 6364SOL     OW30727   0.289   3.887   2.480  0.3639 -0.2135 -0.2961
 6364SOL    HW130728   0.230   3.813   2.494  0.4123  0.1681  2.0608
 6364SOL    HW230729   0.227   3.950   2.443 -2.2290 -0.4890  3.4983
 6365SOL     OW30730   0.505   2.886   7.741  0.0499 -0.8439 -0.2116
 6365SOL    HW130731   0.466   2.950   7.682  0.7187 -1.2867 -1.1413
 6365SOL    HW230732   0.437   2.818   7.733 -0.3825 -0.4823  0.3716
 6366SOL     OW30733   3.827   1.805   9.553 -0.0706  0.3053  0.7160
 6366SOL    HW130734   3.918   1.786   9.530  0.0915 -0.4495  1.9710
 6366SOL    HW230735   3.850   1.871   9.619 -0.6155 -0.7509  1.9707
 6367SOL     OW30736   1.816   3.822   3.831 -0.3429 -0.1237 -0.0952
 6367SOL    HW130737   1.888   3.858   3.882 -0.1435 -0.1248 -0.3756
 6367SOL    HW230738   1.851   3.832   3.743 -0.1374 -2.0959 -0.2560
 6368SOL     OW30739   1.669   2.654   2.813 -0.4036  0.3282  0.2235
 6368SOL    HW130740   1.732   2.689   2.750 -2.0383  1.2030 -0.9232
 6368SOL    HW230741   1.712   2.682   2.893  0.6980 -1.6563  0.3268
 6369SOL     OW30742   1.801   3.089   5.108 -0.0461 -0.2068  0.1890
 6369SOL    HW130743   1.761   3.041   5.036 -0.2919  1.0151 -0.5000
 6369SOL    HW230744   1.764   3.061   5.192 -1.6558 -0.5443 -0.6394
 6370SOL     OW30745   1.457   1.466   8.607 -0.2581 -0.0829 -0.0524
 6370SOL    HW130746   1.481   1.478   8.699  1.3503  2.1769 -0.7584
 6370SOL    HW230747   1.363   1.474   8.624 -0.2982  0.4916 -0.5839
 6371SOL     OW30748   0.836   1.726   3.596  0.1004  0.1384  0.1177
 6371SOL    HW130749   0.926   1.713   3.567  0.4941 -0.0841  1.4430
 6371SOL    HW230750   0.819   1.633   3.614 -0.6428  0.6415  2.0276
 6372SOL     OW30751   3.575   1.736   8.426 -0.1183 -0.4104  0.9679
 6372SOL    HW130752   3.620   1.689   8.356  2.2577 -3.0315  4.2930
 6372SOL    HW230753   3.614   1.821   8.404 -2.3414 -0.1783 -2.1282
 6373SOL     OW30754   4.102   2.282  16.499  0.3941  0.2341  0.5217
 6373SOL    HW130755   4.076   2.298  16.590  0.3292 -0.4915  0.6370
 6373SOL    HW230756   4.164   2.209  16.508 -1.2575 -1.2805 -0.2100
 6374SOL     OW30757   2.563   1.287   7.127 -0.3730  0.0223 -0.0535
 6374SOL    HW130758   2.572   1.342   7.205  0.6397 -1.0127  0.5562
 6374SOL    HW230759   2.653   1.260   7.107  0.2938  2.4944 -0.4024
 6375SOL     OW30760   2.413   4.150   0.764  0.6640  0.1588  0.0578
 6375SOL    HW130761   2.433   4.241   0.787 -0.3829  0.1446  1.0387
 6375SOL    HW230762   2.387   4.156   0.672  0.2807 -0.3811  0.1294
 6376SOL     OW30763   4.518   1.192  13.463  0.3061  0.4623  0.4012
 6376SOL    HW130764   4.568   1.189  13.545  0.6064  0.2354  0.2102
 6376SOL    HW230765   4.427   1.208  13.487  0.8844 -1.0733  3.6456
 6377SOL     OW30766   4.220   3.952   2.259  0.6158  0.1529  0.1382
 6377SOL    HW130767   4.237   3.994   2.175 -1.9043  0.6161 -0.1579
 6377SOL    HW230768   4.252   4.012   2.326  0.3286  0.0153  0.4009
 6378SOL     OW30769   4.655   1.601   6.991  0.2026 -0.0260 -0.2809
 6378SOL    HW130770   4.621   1.574   6.906 -4.1705  0.2898  1.3475
 6378SOL    HW230771   4.616   1.687   6.982 -0.4564 -0.3611 -0.6430
 6379SOL     OW30772   2.039   4.373   8.344  0.5724 -0.9055  0.6864
 6379SOL    HW130773   1.949   4.347   8.363  0.8446 -2.7483 -0.4551
 6379SOL    HW230774   2.080   4.288   8.328  0.9544 -0.7889  1.0408
 6380SOL     OW30775   0.209   1.929   3.564  0.6376  0.4818  0.2478
 6380SOL    HW130776   0.266   2.005   3.577  1.5295 -0.2294  0.5081
 6380SOL    HW230777   0.281   1.879   3.525 -1.3352 -2.1097 -0.0497
 6381SOL     OW30778   4.537   3.343  12.905  0.3645 -0.9056  0.2610
 6381SOL    HW130779   4.496   3.321  12.821 -2.0930  0.7046  1.0594
 6381SOL    HW230780   4.565   3.258  12.938 -0.0926 -1.1198  0.0863
 6382SOL     OW30781   3.285   2.126  15.370 -0.3580 -0.4298 -1.0112
 6382SOL    HW130782   3.272   2.077  15.289  2.0691 -3.3469  0.3789
 6382SOL    HW230783   3.373   2.101  15.399 -0.4103  0.1661 -0.3318
 6383SOL     OW30784   1.426   2.256   3.397 -0.1109 -0.5972  0.5374
 6383SOL    HW130785   1.354   2.234   3.456  1.1942 -2.0032  1.5955
 6383SOL    HW230786   1.503   2.224   3.445  0.8908  0.2882 -0.4729
 6384SOL     OW30787   4.209   1.297   3.412 -0.2066  0.4885 -0.3696
 6384SOL    HW130788   4.194   1.214   3.456  2.0203  0.3816  0.2008
 6384SOL    HW230789   4.134   1.318   3.356  0.1375  0.0379 -1.0004
 6385SOL     OW30790   4.567   2.282   2.084  0.7764 -0.2965 -0.5518
 6385SOL    HW130791   4.558   2.296   2.178  0.0853  1.5945 -0.8867
 6385SOL    HW230792   4.606   2.198   2.061 -0.5130 -0.3788 -2.4571
 6386SOL     OW30793   3.726   1.730   2.688  0.2764  0.1505 -0.0488
 6386SOL    HW130794   3.680   1.722   2.772  1.7084 -0.8512  0.6377
 6386SOL    HW230795   3.820   1.728   2.704 -0.0883  0.6520  2.1454
 6387SOL     OW30796   4.501   1.868  14.259  0.0873  0.3549  0.0306
 6387SOL    HW130797   4.469   1.815  14.186 -1.4939  2.7036 -0.9614
 6387SOL    HW230798   4.529   1.949  14.216  0.8761 -0.0150 -0.1535
 6388SOL     OW30799   3.213   4.156   9.361 -0.5947  0.2265 -0.4491
 6388SOL    HW130800   3.251   4.124   9.442 -0.0316 -0.7009 -1.0836
 6388SOL    HW230801   3.184   4.071   9.327 -1.1374  0.3495 -0.2969
 6389SOL     OW30802   2.299   1.069   3.054 -0.4118 -0.3933 -0.4407
 6389SOL    HW130803   2.303   0.985   3.098  0.1517 -0.6880 -1.0483
 6389SOL    HW230804   2.344   1.059   2.970  0.6654  0.6090  0.0043
 6390SOL     OW30805   4.680   4.428  11.934 -0.6577  0.1620  1.0207
 6390SOL    HW130806   4.588   4.409  11.952 -0.9214  0.3655 -0.1319
 6390SOL    HW230807   4.674   4.522  11.915  1.4516  0.0338 -0.3828
 6391SOL     OW30808   3.874   2.327   5.736  0.1469 -0.7018 -0.6042
 6391SOL    HW130809   3.880   2.298   5.827  0.7166  0.6254 -0.2109
 6391SOL    HW230810   3.797   2.277   5.708 -0.9493  0.6084  0.0871
 6392SOL     OW30811   0.867   3.416   5.323  0.6979  0.2201  0.5936
 6392SOL    HW130812   0.938   3.373   5.275 -0.7105 -0.9864 -0.3923
 6392SOL    HW230813   0.813   3.454   5.254 -0.4244 -0.0960  1.3110
 6393SOL     OW30814   4.461   3.469  13.147  0.5709  0.1420  0.2488
 6393SOL    HW130815   4.496   3.438  13.063 -0.4131 -0.6106  0.1166
 6393SOL    HW230816   4.493   3.403  13.209 -0.8870 -1.6186 -0.8596
 6394SOL     OW30817   4.352   2.374   0.770  0.2034  0.0406 -0.6510
 6394SOL    HW130818   4.404   2.299   0.800  0.3848 -1.1809 -3.9298
 6394SOL    HW230819   4.406   2.405   0.697  0.8293 -0.9027 -0.5899
 6395SOL     OW30820   2.050   1.867   9.302  0.2066 -0.1241  0.1014
 6395SOL    HW130821   2.096   1.908   9.375 -2.6206  2.4069  0.4958
 6395SOL    HW230822   2.128   1.860   9.248 -2.3852 -0.9753 -3.5519
 6396SOL     OW30823   4.079   0.929   4.371  0.5177  0.6634 -0.3774
 6396SOL    HW130824   4.073   0.981   4.291  0.2875 -1.7136 -1.8744
 6396SOL    HW230825   3.991   0.893   4.366  0.7118 -0.1917  2.6227
 6397SOL     OW30826   0.986   0.622  14.951 -0.1196  0.0981 -0.4594
 6397SOL    HW130827   1.064   0.600  15.003  1.1251  0.1593 -2.2810
 6397SOL    HW230828   0.918   0.571  14.995  1.0821 -2.3440 -1.4021
 6398SOL     OW30829   2.516   3.738   6.885 -0.9467 -0.2072  0.0803
 6398SOL    HW130830   2.557   3.753   6.800  1.6997 -1.0856  1.2205
 6398SOL    HW230831   2.579   3.679   6.927 -0.9280  0.0611  0.4261
 6399SOL     OW30832   0.634   4.641   4.934 -0.4014 -0.4516 -0.0507
 6399SOL    HW130833   0.633   4.546   4.924  0.4882 -0.5521  0.8419
 6399SOL    HW230834   0.624   4.647   5.029  0.1758 -0.3691  0.0049
 6400SOL     OW30835   1.424   2.344  13.172  0.3381 -0.7680  0.5676
 6400SOL    HW130836   1.451   2.311  13.258  1.6502  2.4295  1.3889
 6400SOL    HW230837   1.380   2.270  13.131 -0.6576 -0.8395  1.7777
 6401SOL     OW30838   1.696   3.185   9.854  0.1205 -0.3493  0.4382
 6401SOL    HW130839   1.678   3.093   9.836  0.1205 -0.6631  2.0952
 6401SOL    HW230840   1.735   3.178   9.941 -2.9395  1.0422  1.9406
 6402SOL     OW30841   3.708   2.832   4.536  0.5579  0.0227 -0.0312
 6402SOL    HW130842   3.643   2.802   4.472 -1.9498  3.3395  0.9559
 6402SOL    HW230843   3.699   2.759   4.598  1.2126 -1.0587 -1.2030
 6403SOL     OW30844   3.968   2.860   7.309  0.1984 -0.3099  0.4285
 6403SOL    HW130845   3.898   2.904   7.357  0.5238 -0.0007  0.6261
 6403SOL    HW230846   4.036   2.928   7.304  1.9170 -1.9085  1.9939
 6404SOL     OW30847   0.855   3.678  15.330  0.0880  0.3479 -0.3781
 6404SOL    HW130848   0.891   3.693  15.418  0.1118 -0.5704 -0.2326
 6404SOL    HW230849   0.806   3.758  15.312  1.2735  0.2781 -3.8037
 6405SOL     OW30850   3.412   1.904   3.114 -0.3006  0.1625 -0.3330
 6405SOL    HW130851   3.480   1.963   3.148 -1.1879  1.4764 -0.8181
 6405SOL    HW230852   3.468   1.828   3.101 -1.2737 -0.8298  1.2921
 6406SOL     OW30853   2.963   2.685   5.499  0.5505 -0.6514  0.5379
 6406SOL    HW130854   2.990   2.755   5.559 -2.5665  1.3676 -0.4017
 6406SOL    HW230855   2.978   2.613   5.560  0.6673  0.8826  2.3397
 6407SOL     OW30856   2.942   4.693   4.801 -0.1389  0.4088  0.3955
 6407SOL    HW130857   2.854   4.665   4.777  0.8404 -2.3739  0.0145
 6407SOL    HW230858   2.931   4.719   4.893  3.1555  0.2003  0.8306
 6408SOL     OW30859   1.441   4.111  12.238 -0.2800  0.4670 -0.0750
 6408SOL    HW130860   1.429   4.114  12.333 -2.0144  1.4632 -0.3140
 6408SOL    HW230861   1.353   4.078  12.218 -0.0899  0.9984 -1.8015
 6409SOL     OW30862   2.577   2.184   5.827 -0.2640  0.6370 -0.2080
 6409SOL    HW130863   2.537   2.160   5.910 -0.1734  0.1904 -0.2936
 6409SOL    HW230864   2.533   2.117   5.775 -2.2884  1.1039  0.9038
 6410SOL     OW30865   3.092   4.437  14.265  0.7562 -0.0546 -0.2968
 6410SOL    HW130866   3.106   4.348  14.231  0.9602 -0.2816  0.3659
 6410SOL    HW230867   3.036   4.474  14.197 -1.6392 -3.2379 -0.1103
 6411SOL     OW30868   3.638   1.596  10.585  0.5965 -0.0408 -0.8218
 6411SOL    HW130869   3.694   1.648  10.642 -1.0883 -0.3672  1.1374
 6411SOL    HW230870   3.562   1.654  10.577  0.8886  0.2627 -1.4205
 6412SOL     OW30871   1.764   3.475  17.374 -0.2167  0.3020  0.1869
 6412SOL    HW130872   1.852   3.469  17.411 -0.4842 -0.1252  0.7416
 6412SOL    HW230873   1.763   3.565  17.340  2.8883  0.7973  1.4553
 6413SOL     OW30874   2.655   3.370  12.503 -1.4417  0.2809  0.1205
 6413SOL    HW130875   2.660   3.275  12.499  0.1363  0.3945 -0.8286
 6413SOL    HW230876   2.744   3.389  12.471 -1.6921 -1.2762 -1.4597
 6414SOL     OW30877   3.712   2.922   7.412  0.0933  0.3123  0.1315
 6414SOL    HW130878   3.673   2.984   7.473  1.3667 -1.5281  2.8414
 6414SOL    HW230879   3.681   2.838   7.446 -0.3865  0.3864 -0.1326
 6415SOL     OW30880   3.036   1.949  11.309  0.0077  0.1918 -0.0674
 6415SOL    HW130881   3.010   1.887  11.377 -0.9505  2.1495  1.3592
 6415SOL    HW230882   2.969   1.932  11.244 -0.3611  2.5657 -0.2980
 6416SOL     OW30883   0.528   0.100   1.570 -0.0774 -0.1060 -0.3422
 6416SOL    HW130884   0.615   0.130   1.596  0.0119 -1.7018  1.2370
 6416SOL    HW230885   0.525   0.016   1.616  0.4178  1.0076  1.7525
 6417SOL     OW30886   3.828   0.597  12.244 -0.1660  0.6131 -0.0157
 6417SOL    HW130887   3.912   0.617  12.285  0.3484 -4.1102  1.1807
 6417SOL    HW230888   3.770   0.644  12.304 -0.0850  2.2803 -1.2355
 6418SOL     OW30889   2.101   3.002  10.533 -0.1085  0.1488 -0.2680
 6418SOL    HW130890   2.029   3.030  10.478 -0.5554 -1.3749 -0.4648
 6418SOL    HW230891   2.040   2.970  10.599 -1.3078  1.4694 -0.7539
 6419SOL     OW30892   3.684   2.885   2.650  0.1615 -0.2420 -0.4034
 6419SOL    HW130893   3.715   2.862   2.563  2.1455 -0.6008  0.3918
 6419SOL    HW230894   3.700   2.979   2.642  0.5104 -0.3985 -1.5436
 6420SOL     OW30895   3.286   2.197   1.581  0.0580  0.1383 -0.1020
 6420SOL    HW130896   3.275   2.242   1.665  0.9928  0.5956 -0.2285
 6420SOL    HW230897   3.196   2.195   1.549 -0.3081  0.2886  0.9278
 6421SOL     OW30898   4.198   1.599   1.591  0.3791 -0.4394 -0.0270
 6421SOL    HW130899   4.103   1.603   1.603  0.1018 -2.8085 -1.4061
 6421SOL    HW230900   4.235   1.642   1.668 -0.4330 -1.0895  0.7359
 6422SOL     OW30901   2.191   3.368  11.711  0.2129 -0.6356 -0.0729
 6422SOL    HW130902   2.129   3.355  11.782  0.7826 -2.1204  0.1662
 6422SOL    HW230903   2.197   3.279  11.676 -3.7904  0.2848 -3.0621
 6423SOL     OW30904   2.174   2.345   3.451  0.6854 -0.2173  0.2932
 6423SOL    HW130905   2.204   2.324   3.539  0.8605 -1.2073 -0.0030
 6423SOL    HW230906   2.196   2.438   3.453  1.6441 -0.4657  0.9820
 6424SOL     OW30907   3.381   2.096   9.233  0.4293  0.1148  0.0481
 6424SOL    HW130908   3.298   2.056   9.259  0.7386 -1.4815 -1.3628
 6424SOL    HW230909   3.360   2.187   9.254  0.8849 -0.1227  1.5038
 6425SOL     OW30910   0.679   4.173   6.484 -0.2690  0.1952  0.4666
 6425SOL    HW130911   0.733   4.129   6.550  0.3299  1.1201  0.5917
 6425SOL    HW230912   0.743   4.174   6.413 -1.3464 -0.9299 -0.5060
 6426SOL     OW30913   0.901   3.999   5.017 -1.0640  0.6479  0.1335
 6426SOL    HW130914   0.862   3.985   4.931 -2.8921  0.4374  0.9961
 6426SOL    HW230915   0.991   4.016   4.990 -0.4091 -0.6312  1.5442
 6427SOL     OW30916   4.097   2.860   5.851  0.3480  0.1474  0.0412
 6427SOL    HW130917   4.063   2.812   5.926 -0.8618  1.6523  0.4640
 6427SOL    HW230918   4.087   2.797   5.780 -0.6048 -1.1278  1.3146
 6428SOL     OW30919   0.542   3.049  16.350  0.2752  0.0673  0.4517
 6428SOL    HW130920   0.602   3.010  16.286 -1.5094  0.1570 -1.2365
 6428SOL    HW230921   0.603   3.050  16.424  0.1445 -0.3196  0.5672
 6429SOL     OW30922   2.275   2.879  14.228 -0.1783  0.5256 -0.0752
 6429SOL    HW130923   2.311   2.939  14.162 -3.4633  0.2347 -2.1254
 6429SOL    HW230924   2.181   2.896  14.223 -0.8037 -2.7035  0.8172
 6430SOL     OW30925   1.026   1.003   5.451 -0.7778 -0.0237  0.5370
 6430SOL    HW130926   1.056   1.067   5.387 -0.8887 -0.9884 -0.4888
 6430SOL    HW230927   0.954   0.966   5.399 -1.1564 -0.4464  1.3605
 6431SOL     OW30928   3.602   3.947   2.321  0.4024  0.8201 -0.5676
 6431SOL    HW130929   3.659   4.023   2.307  0.1665  1.0382 -0.3401
 6431SOL    HW230930   3.519   3.976   2.284 -0.2211 -0.8126 -0.4736
 6432SOL     OW30931   2.225   3.795   0.597 -0.2146 -0.2006  0.5702
 6432SOL    HW130932   2.166   3.753   0.660 -1.8662  0.6955 -0.3806
 6432SOL    HW230933   2.169   3.807   0.521  0.2514  0.3234  0.3049
 6433SOL     OW30934   3.176   0.423   5.946 -0.2632 -0.0169 -0.1653
 6433SOL    HW130935   3.246   0.395   6.004 -1.6752 -2.9547  0.0768
 6433SOL    HW230936   3.208   0.510   5.922  3.9210 -0.2313  4.6954
 6434SOL     OW30937   1.562   4.411   0.203 -0.6048  0.9538 -0.4166
 6434SOL    HW130938   1.629   4.369   0.257  0.4658  0.2599 -2.2895
 6434SOL    HW230939   1.495   4.421   0.270  1.0097  2.3631  0.9938
 6435SOL     OW30940   1.154   1.214   7.226  0.6353 -0.4270  0.2615
 6435SOL    HW130941   1.229   1.158   7.246  0.4647 -0.4510  0.8206
 6435SOL    HW230942   1.161   1.236   7.133  0.4901 -2.1926 -0.1705
 6436SOL     OW30943   2.347   2.984  10.607  0.4307 -0.0218  0.4161
 6436SOL    HW130944   2.335   2.896  10.643  0.4494  0.4185  1.5132
 6436SOL    HW230945   2.258   2.998  10.577  0.9743 -0.0888 -1.1899
 6437SOL     OW30946   3.103   0.740  10.553 -0.6995 -0.6460  0.0716
 6437SOL    HW130947   3.093   0.821  10.501  0.9799 -0.7651 -0.4388
 6437SOL    HW230948   3.100   0.779  10.640 -1.2857 -0.0640 -0.2015
 6438SOL     OW30949   1.131   3.213  12.843 -0.4385 -0.1264  0.2688
 6438SOL    HW130950   1.063   3.207  12.776 -0.7005 -1.8403  0.7004
 6438SOL    HW230951   1.084   3.222  12.926 -0.5618  1.9179 -0.0296
 6439SOL     OW30952   2.357   0.919  17.048 -0.5215  0.1275  0.3103
 6439SOL    HW130953   2.325   0.962  16.969  0.1045 -0.6798 -0.3942
 6439SOL    HW230954   2.329   0.828  17.035  0.2152 -0.2939  1.6034
 6440SOL     OW30955   3.681   0.624   4.187  0.3236 -0.3763  0.0769
 6440SOL    HW130956   3.735   0.613   4.109  1.3045  0.5167  0.6257
 6440SOL    HW230957   3.739   0.688   4.229 -0.5629  0.2107  0.3982
 6441SOL     OW30958   4.683   3.392   3.959 -0.1573  0.2599  0.2168
 6441SOL    HW130959   4.677   3.414   4.051 -1.9230  0.1834  0.1204
 6441SOL    HW230960   0.043   3.357   3.953 -0.6640 -0.9534 -0.3258
 6442SOL     OW30961   0.888   0.531   2.677  0.6348  0.1493 -0.3517
 6442SOL    HW130962   0.895   0.592   2.603 -0.7306  0.5024 -0.1896
 6442SOL    HW230963   0.794   0.519   2.660  0.5286  1.3198 -0.5979
 6443SOL     OW30964   2.523   3.759  12.810  0.2323  0.3327 -0.2086
 6443SOL    HW130965   2.491   3.697  12.876  0.0201  0.6371 -0.0260
 6443SOL    HW230966   2.579   3.811  12.867  0.9008 -1.5494  0.8310
 6444SOL     OW30967   2.227   4.643   4.061  0.2339  0.3595 -0.6020
 6444SOL    HW130968   2.166   4.703   4.104  2.0624  1.2143  0.7333
 6444SOL    HW230969   2.178   4.624   3.980  0.4284 -1.7617 -0.2087
 6445SOL     OW30970   1.321   1.193   1.550 -0.0830 -0.4270  0.1290
 6445SOL    HW130971   1.275   1.197   1.634 -0.5900  0.2922 -0.1801
 6445SOL    HW230972   1.291   1.116   1.503 -0.6511 -0.0906 -0.0613
 6446SOL     OW30973   0.742   1.959  13.271 -0.0819  0.1143  0.0866
 6446SOL    HW130974   0.657   1.985  13.236 -0.4797 -1.2663  0.0067
 6446SOL    HW230975   0.710   1.918  13.351 -0.2469 -1.4863 -0.7883
 6447SOL     OW30976   2.293   2.194   2.459  0.9117  0.1448  0.8319
 6447SOL    HW130977   2.329   2.257   2.396 -0.7419  0.0501 -0.2013
 6447SOL    HW230978   2.264   2.128   2.396  3.3293  0.4049 -0.5513
 6448SOL     OW30979   0.945   3.430  14.121  0.2051 -0.8960  0.0487
 6448SOL    HW130980   0.930   3.445  14.214  0.4191  1.9488 -0.3652
 6448SOL    HW230981   1.035   3.459  14.104 -0.2416 -0.3328 -1.3050
 6449SOL     OW30982   3.111   1.504   5.905  0.1123 -0.0470  0.0597
 6449SOL    HW130983   3.089   1.596   5.887  1.9109  1.1558  3.8485
 6449SOL    HW230984   3.130   1.504   5.999  2.7795  0.1400 -0.4799
 6450SOL     OW30985   2.428   2.401   3.930 -0.5101  0.2130 -0.1303
 6450SOL    HW130986   2.393   2.490   3.927 -2.3679 -0.4506  1.8310
 6450SOL    HW230987   2.517   2.415   3.895  1.1315 -2.1115  3.1673
 6451SOL     OW30988   2.151   3.726  12.459  0.0391  0.4019  0.1905
 6451SOL    HW130989   2.226   3.774  12.495 -1.5687  1.3426  2.2761
 6451SOL    HW230990   2.087   3.753  12.525 -0.4828 -0.7352  0.1528
 6452SOL     OW30991   3.298   2.203   1.867 -0.2825 -0.2192  0.0319
 6452SOL    HW130992   3.310   2.139   1.937 -1.3330 -0.5471 -0.0922
 6452SOL    HW230993   3.388   2.212   1.837 -0.3301  0.3471  0.0611
 6453SOL     OW30994   1.956   4.376   7.096  0.1888  0.0390 -0.1469
 6453SOL    HW130995   1.971   4.340   7.183 -1.0828  0.9744  0.4547
 6453SOL    HW230996   2.044   4.413   7.083 -0.0556  0.2689 -1.1512
 6454SOL     OW30997   1.092   2.297   9.556 -0.2074  0.3543 -0.5797
 6454SOL    HW130998   1.126   2.378   9.519 -0.1073 -0.1871 -1.6740
 6454SOL    HW230999   1.016   2.283   9.499 -0.8643 -1.1608  0.6654
 6455SOL     OW31000   0.729   3.259   4.114  0.7329 -0.7101 -0.6146
 6455SOL    HW131001   0.699   3.223   4.197  3.4162 -2.6577 -0.5179
 6455SOL    HW231002   0.822   3.235   4.112  0.8828  0.0592 -3.0670
 6456SOL     OW31003   2.456   1.724  15.879 -0.0918 -0.4411 -0.2132
 6456SOL    HW131004   2.378   1.777  15.864  0.1757  0.0222  0.0466
 6456SOL    HW231005   2.425   1.643  15.839 -2.5020  0.7973 -0.7974
 6457SOL     OW31006   0.787   4.208   9.897  0.0840 -0.1381 -0.3565
 6457SOL    HW131007   0.807   4.140   9.961  1.0869  0.2237 -0.2901
 6457SOL    HW231008   0.792   4.282   9.958 -0.0181 -0.2364 -0.2296
 6458SOL     OW31009   1.069   1.737  10.707 -0.4792  0.2090 -0.2453
 6458SOL    HW131010   0.991   1.740  10.762  0.5015 -0.3839  1.1550
 6458SOL    HW231011   1.115   1.660  10.737 -0.8919  0.3006  0.6248
 6459SOL     OW31012   0.280   2.935   3.079 -0.3067 -0.5979 -0.0289
 6459SOL    HW131013   0.212   2.996   3.106 -0.6022 -1.6923  1.7165
 6459SOL    HW231014   0.235   2.850   3.080 -0.7171 -0.3849 -0.9866
 6460SOL     OW31015   4.661   2.070   7.375  0.0893 -0.4881  0.0509
 6460SOL    HW131016   4.629   2.156   7.402 -0.3975 -0.6442 -0.0412
 6460SOL    HW231017   0.013   2.077   7.426 -2.4914 -0.4869  4.0717
 6461SOL     OW31018   3.127   1.388   8.410 -0.1552  0.4629 -0.0204
 6461SOL    HW131019   3.087   1.440   8.479 -1.9577 -0.7324 -0.1846
 6461SOL    HW231020   3.163   1.450   8.347  0.5700 -1.4518 -1.4926
 6462SOL     OW31021   1.468   1.394   1.204 -0.3420  0.1085 -0.2270
 6462SOL    HW131022   1.498   1.391   1.295  1.9757 -1.2147 -1.0433
 6462SOL    HW231023   1.452   1.301   1.186  0.3941  0.2983 -1.8749
 6463SOL     OW31024   4.513   3.633   2.015  0.5079  0.9583 -0.2396
 6463SOL    HW131025   4.567   3.572   1.965 -0.7366 -1.0820  0.8946
 6463SOL    HW231026   4.558   3.667   2.093  0.1311 -0.1397  0.4510
 6464SOL     OW31027   1.956   4.461  12.589  0.2118  0.2660 -1.0369
 6464SOL    HW131028   2.015   4.520  12.635  1.8496 -1.4694 -0.8976
 6464SOL    HW231029   1.940   4.393  12.655 -0.1918  1.3929  0.0381
 6465SOL     OW31030   1.212   0.885   3.821 -0.2771  0.0232 -0.1179
 6465SOL    HW131031   1.207   0.879   3.917  1.4312  3.1982  0.1678
 6465SOL    HW231032   1.299   0.924   3.813  0.4132 -1.5109 -0.1098
 6466SOL     OW31033   1.791   3.081  11.578 -0.2560 -0.2009  0.3626
 6466SOL    HW131034   1.831   2.995  11.563  0.9735  0.6088 -1.0027
 6466SOL    HW231035   1.816   3.097  11.669 -2.0557 -0.8246  0.9664
 6467SOL     OW31036   1.047   4.232   6.051 -0.2604 -0.6412  0.5850
 6467SOL    HW131037   1.028   4.262   5.962  0.8841  0.3235  0.6678
 6467SOL    HW231038   1.082   4.143   6.043  0.5746 -0.2567  0.0040
 6468SOL     OW31039   3.295   2.646   2.886 -0.0624  0.1945  0.1867
 6468SOL    HW131040   3.390   2.637   2.878 -0.0791  1.1544 -1.1293
 6468SOL    HW231041   3.269   2.713   2.822 -0.0327 -0.7311 -0.7823
 6469SOL     OW31042   3.634   2.259   5.242 -0.8439 -0.4493 -0.1745
 6469SOL    HW131043   3.665   2.188   5.187  1.7431  0.4880  0.0638
 6469SOL    HW231044   3.692   2.330   5.213  0.6771 -1.6942 -0.1779
 6470SOL     OW31045   1.252   3.185   4.138 -0.3929 -0.1074  0.1966
 6470SOL    HW131046   1.273   3.254   4.201 -1.0623  0.9553 -0.7505
 6470SOL    HW231047   1.335   3.164   4.095  0.5981  0.8393  1.6773
 6471SOL     OW31048   4.308   1.611   6.948 -0.2279  0.1580 -0.3121
 6471SOL    HW131049   4.329   1.643   6.861  1.8125  0.1330  0.1860
 6471SOL    HW231050   4.288   1.694   6.991 -1.6764 -0.9437  1.1633
 6472SOL     OW31051   3.617   2.010   3.225  0.3326  0.3732 -0.1708
 6472SOL    HW131052   3.671   2.087   3.238  0.8515 -0.1017  0.4856
 6472SOL    HW231053   3.662   1.940   3.272  0.0637  0.0942 -0.3228
 6473SOL     OW31054   3.064   4.718   7.262 -0.2784 -0.6279 -0.1815
 6473SOL    HW131055   3.079   0.062   7.322  0.4200 -0.4096 -0.6138
 6473SOL    HW231056   2.988   4.680   7.305  0.2170 -1.7377 -0.2734
 6474SOL     OW31057   4.716   1.177   3.448 -0.3637  0.4327 -0.5293
 6474SOL    HW131058   4.695   1.192   3.356  0.1018  1.7992 -0.4188
 6474SOL    HW231059   0.068   1.127   3.439  0.4172  1.5338  0.2688
 6475SOL     OW31060   3.571   0.190   1.162  0.1445  0.6682 -0.1664
 6475SOL    HW131061   3.491   0.166   1.208 -0.3716  1.8745 -0.4231
 6475SOL    HW231062   3.612   0.108   1.133  0.2398  1.2991 -1.8427
 6476SOL     OW31063   2.273   2.615   8.119  0.6817 -0.3214  0.3211
 6476SOL    HW131064   2.300   2.528   8.148  2.0175 -0.0637 -0.1554
 6476SOL    HW231065   2.338   2.671   8.161  0.7921 -0.7546  0.7237
 6477SOL     OW31066   4.716   1.313   4.094 -0.1278 -0.4615  0.6963
 6477SOL    HW131067   0.082   1.316   4.103 -0.2056 -0.6712  1.6252
 6477SOL    HW231068   4.697   1.220   4.110 -1.1148 -0.2635  0.6807
 6478SOL     OW31069   0.306   3.851   6.167 -0.0159  0.2642 -0.3750
 6478SOL    HW131070   0.305   3.935   6.213  0.7523  1.6084 -2.7579
 6478SOL    HW231071   0.347   3.803   6.238  0.3197 -0.0645 -0.7868
 6479SOL     OW31072   3.135   4.639  15.800 -0.0413  0.0985 -0.2897
 6479SOL    HW131073   3.109   4.591  15.879 -1.1302 -2.2160 -2.0747
 6479SOL    HW231074   3.117   0.003  15.815 -0.4888 -0.1816  0.9219
 6480SOL     OW31075   2.607   3.103   5.771  0.1462 -0.0874  0.0609
 6480SOL    HW131076   2.561   3.058   5.842  0.8106  0.5310  0.8842
 6480SOL    HW231077   2.533   3.129   5.717  1.9715  2.1708 -1.3568
 6481SOL     OW31078   4.015   0.364  11.969  0.5075  0.5386  0.0070
 6481SOL    HW131079   3.929   0.324  11.978  0.4010  1.0236  1.1759
 6481SOL    HW231080   4.065   0.328  12.042 -0.9634 -2.7095 -0.6104
 6482SOL     OW31081   3.407   0.809   5.477  0.4753 -0.1344  0.6806
 6482SOL    HW131082   3.414   0.814   5.573  1.1417  1.3485  0.5555
 6482SOL    HW231083   3.417   0.900   5.451 -0.1826 -0.0546  0.7057
 6483SOL     OW31084   0.718   3.641   6.662  0.1888 -0.3173 -0.1704
 6483SOL    HW131085   0.753   3.575   6.602 -0.1044 -1.4236  0.8766
 6483SOL    HW231086   0.708   3.594   6.744 -0.6021 -0.0640 -0.1186
 6484SOL     OW31087   0.824   3.818   9.808  0.3671  0.8237  0.5138
 6484SOL    HW131088   0.862   3.892   9.760  1.3435 -0.4273 -0.6537
 6484SOL    HW231089   0.906   3.771   9.826 -0.0494  0.3212  1.0591
 6485SOL     OW31090   3.400   4.657   8.332  0.6696 -0.1530 -0.2584
 6485SOL    HW131091   3.449   4.711   8.394  1.2962  2.3775 -2.9338
 6485SOL    HW231092   3.473   4.629   8.276  1.3573  0.7611  0.1802
 6486SOL     OW31093   2.707   3.268   0.853  0.4030 -0.1118  0.3741
 6486SOL    HW131094   2.668   3.345   0.810  1.6564  1.1995  1.5715
 6486SOL    HW231095   2.652   3.199   0.817  1.1368 -0.9494  0.8619
 6487SOL     OW31096   3.570   2.711  11.570 -0.6261 -0.2537  0.7557
 6487SOL    HW131097   3.536   2.623  11.557 -0.0155 -0.4547  0.5233
 6487SOL    HW231098   3.485   2.752  11.554  0.4112  1.5163 -0.1661
 6488SOL     OW31099   1.687   1.277  17.184  0.2152  0.0832 -0.0308
 6488SOL    HW131100   1.597   1.260  17.155  1.0637 -2.3693 -1.2159
 6488SOL    HW231101   1.691   1.371  17.198 -1.4225  0.2624 -0.8081
 6489SOL     OW31102   2.776   0.369   8.606  0.0756 -0.3604  0.2136
 6489SOL    HW131103   2.784   0.301   8.673  1.7838  1.4801  1.8565
 6489SOL    HW231104   2.695   0.415   8.631  0.2238  0.5378 -0.9436
 6490SOL     OW31105   3.443   2.665   4.476  0.2345  0.0084 -0.0690
 6490SOL    HW131106   3.430   2.640   4.567  0.4259  0.3660  0.0591
 6490SOL    HW231107   3.438   2.582   4.428  1.1965  0.3039 -0.6778
 6491SOL     OW31108   0.242   0.285   4.542  0.1196  0.3364  0.2649
 6491SOL    HW131109   0.334   0.310   4.547 -0.4236  2.4607 -0.4477
 6491SOL    HW231110   0.204   0.366   4.510 -3.1446 -1.3923 -0.1761
 6492SOL     OW31111   4.662   3.142   1.975  0.3880 -0.0051  0.2967
 6492SOL    HW131112   4.649   3.212   2.038  2.4928 -0.6363  1.4397
 6492SOL    HW231113   0.022   3.119   2.000  0.4462 -0.6335 -0.4811
 6493SOL     OW31114   0.857   0.798   2.204  0.6996 -0.3884 -0.4081
 6493SOL    HW131115   0.812   0.860   2.147 -0.6817 -0.0636  1.0223
 6493SOL    HW231116   0.924   0.764   2.144 -2.0233  0.8988 -4.1720
 6494SOL     OW31117   2.647   0.503  14.430 -0.0267 -0.1055 -0.3490
 6494SOL    HW131118   2.650   0.490  14.525  0.5300 -0.4270 -0.4057
 6494SOL    HW231119   2.557   0.536  14.425 -0.0878 -0.5496 -2.2909
 6495SOL     OW31120   3.839   0.211   3.523  0.0789  0.0535  0.0224
 6495SOL    HW131121   3.834   0.305   3.537 -4.0178 -0.0763 -0.5801
 6495SOL    HW231122   3.782   0.189   3.596 -0.1641 -0.3917 -0.2993
 6496SOL     OW31123   4.245   0.417   2.063  0.1199  0.3636 -0.0901
 6496SOL    HW131124   4.158   0.457   2.067 -0.0993 -0.0017 -1.1229
 6496SOL    HW231125   4.215   0.343   2.010  1.1458  0.6038 -0.9978
 6497SOL     OW31126   2.846   4.360  15.876  0.1749  0.5286 -0.3020
 6497SOL    HW131127   2.823   4.319  15.960  1.9134  1.8741  0.8172
 6497SOL    HW231128   2.843   4.286  15.816  0.8759  3.6588 -4.1891
 6498SOL     OW31129   4.243   2.564   4.400  0.1789 -0.4322 -0.1262
 6498SOL    HW131130   4.201   2.588   4.483 -0.0480 -1.1973 -0.0277
 6498SOL    HW231131   4.188   2.499   4.358 -2.0578  0.6371  1.1695
 6499SOL     OW31132   0.556   4.307   5.949 -0.2485  0.1546 -0.7094
 6499SOL    HW131133   0.609   4.283   6.024 -2.2765  0.0946  0.7050
 6499SOL    HW231134   0.630   4.329   5.892 -0.5275  0.4668 -0.9485
 6500SOL     OW31135   2.224   3.736   4.550  0.0824 -0.6274  0.0168
 6500SOL    HW131136   2.227   3.751   4.644 -1.5973  1.2095 -0.2284
 6500SOL    HW231137   2.171   3.810   4.518  1.0138  0.4205  0.9081
 6501SOL     OW31138   4.630   2.520   6.634 -0.1933  0.0845  0.4712
 6501SOL    HW131139   4.557   2.493   6.690  0.3613  1.4052  1.8286
 6501SOL    HW231140   4.698   2.490   6.695  1.2703 -1.2644 -1.8156
 6502SOL     OW31141   4.209   4.032   7.049  0.2331  0.0129  0.6854
 6502SOL    HW131142   4.234   4.123   7.035 -0.2028 -0.0211 -0.3396
 6502SOL    HW231143   4.235   4.009   6.960 -0.9144 -0.1645  0.3910
 6503SOL     OW31144   1.110   4.621   6.582  0.3405  0.1895 -0.1338
 6503SOL    HW131145   1.074   4.707   6.558  1.1695  0.5309 -0.1503
 6503SOL    HW231146   1.028   4.572   6.590  0.0834  0.2536 -2.3754
 6504SOL     OW31147   3.752   1.630   8.917  0.2512 -0.2509  0.7033
 6504SOL    HW131148   3.660   1.658   8.922  0.4643  0.0473  2.8445
 6504SOL    HW231149   3.790   1.685   8.985  0.4343 -2.8729  2.6870
 6505SOL     OW31150   3.145   0.788   7.729 -0.5445  0.1115 -0.5244
 6505SOL    HW131151   3.141   0.735   7.809 -1.8537 -0.4544 -0.9656
 6505SOL    HW231152   3.194   0.867   7.753  0.5237 -0.8047  0.3034
 6506SOL     OW31153   1.117   4.524   5.195 -0.2356 -0.2747 -0.0843
 6506SOL    HW131154   1.086   4.604   5.153  0.0365 -0.0312  0.1741
 6506SOL    HW231155   1.141   4.464   5.125  1.5924 -0.8473  1.0289
 6507SOL     OW31156   1.517   2.776  12.093 -0.1255 -0.0082  0.3132
 6507SOL    HW131157   1.458   2.740  12.027  0.4170  0.4532 -0.4395
 6507SOL    HW231158   1.482   2.863  12.111 -1.1267 -0.2191 -0.6441
 6508SOL     OW31159   0.187   1.045  11.801 -0.4938 -0.2205  0.4069
 6508SOL    HW131160   0.097   1.049  11.833 -0.2760 -0.4981  1.0556
 6508SOL    HW231161   0.239   1.023  11.879  1.0386 -0.9626 -0.8109
 6509SOL     OW31162   1.102   4.026  13.179  0.0344 -0.0461  0.2628
 6509SOL    HW131163   1.029   3.972  13.149  0.2251 -1.4206  2.2899
 6509SOL    HW231164   1.137   3.978  13.254  1.6155  1.5393  0.5269
 6510SOL     OW31165   2.915   0.586   1.436  0.1170 -0.2410 -0.6095
 6510SOL    HW131166   2.965   0.634   1.370  2.2773  0.2108  1.3835
 6510SOL    HW231167   2.830   0.593   1.392  1.3370  1.7499 -2.6495
 6511SOL     OW31168   0.953   1.362   7.778 -0.3460 -0.2668  0.3972
 6511SOL    HW131169   1.002   1.445   7.780  2.7024 -2.1093  1.9513
 6511SOL    HW231170   0.864   1.398   7.785 -1.1421 -1.7895 -2.0702
 6512SOL     OW31171   1.464   2.033   4.008 -0.6280  0.3156  0.1276
 6512SOL    HW131172   1.450   1.952   4.057  2.0134  0.6026  1.3603
 6512SOL    HW231173   1.381   2.074   4.035  0.5593  2.0510  1.1313
 6513SOL     OW31174   1.161   3.405   2.732 -0.3624  0.5556 -0.5852
 6513SOL    HW131175   1.113   3.331   2.772 -0.6186  0.5689 -0.8666
 6513SOL    HW231176   1.091   3.451   2.686 -0.6381 -0.0919 -0.8163
 6514SOL     OW31177   1.317   4.134   4.228 -0.2991  0.2968  0.0695
 6514SOL    HW131178   1.392   4.169   4.276  0.4872 -1.8537  0.4109
 6514SOL    HW231179   1.306   4.044   4.258 -0.5546  0.8549  1.6348
 6515SOL     OW31180   1.927   3.660   4.984  0.0451  0.4334  0.2854
 6515SOL    HW131181   2.004   3.643   5.039 -1.4431  0.9529  2.5361
 6515SOL    HW231182   1.909   3.579   4.937  1.4927  0.5812 -0.5144
 6516SOL     OW31183   2.148   3.391   4.761  0.7269 -0.2647 -0.0599
 6516SOL    HW131184   2.171   3.300   4.741  0.9396 -0.0575 -0.7509
 6516SOL    HW231185   2.225   3.421   4.809 -0.0541  0.1892  0.9150
 6517SOL     OW31186   0.041   2.169   7.827 -0.5988  0.0675  0.6090
 6517SOL    HW131187   4.686   2.186   7.785  0.7443 -0.0151 -2.1149
 6517SOL    HW231188   0.056   2.075   7.817 -0.2161  0.4250 -2.2029
 6518SOL     OW31189   4.487   3.779   8.440  0.5512  0.3219 -0.3751
 6518SOL    HW131190   4.423   3.846   8.418  2.6381  2.6909  0.6963
 6518SOL    HW231191   4.547   3.790   8.366  0.0506 -1.7093 -1.0856
 6519SOL     OW31192   3.594   2.152   1.276 -0.2987  0.3276  0.1096
 6519SOL    HW131193   3.641   2.106   1.206 -1.8660 -1.5103  0.2751
 6519SOL    HW231194   3.502   2.146   1.252  0.3839 -1.8895 -1.9990
 6520SOL     OW31195   4.414   4.667   2.050 -0.0185  0.2630  0.2182
 6520SOL    HW131196   4.415   0.016   1.995 -2.4153  0.2525  0.1645
 6520SOL    HW231197   4.356   4.704   2.117  0.7042  1.3943  0.2225
 6521SOL     OW31198   2.823   2.520  10.337  0.2314 -0.1705 -0.1266
 6521SOL    HW131199   2.888   2.585  10.310  0.6085 -0.0762  1.0095
 6521SOL    HW231200   2.875   2.441  10.350  0.0133 -0.0993  1.0943
 6522SOL     OW31201   2.929   3.136   5.540 -0.2225  0.3416 -0.3158
 6522SOL    HW131202   2.847   3.141   5.491 -1.5522  0.5455  1.9125
 6522SOL    HW231203   2.981   3.153   5.461 -0.4995 -0.0243 -0.5759
 6523SOL     OW31204   3.792   2.138  17.062 -0.0452  0.0499 -0.1013
 6523SOL    HW131205   3.800   2.103  16.973  1.3076  0.6073 -0.2045
 6523SOL    HW231206   3.870   2.093  17.094  0.6985  1.6188  0.2846
 6524SOL     OW31207   2.422   4.545  15.389  0.1838  0.0669 -0.5245
 6524SOL    HW131208   2.428   4.550  15.484 -1.3900  1.9481 -0.5467
 6524SOL    HW231209   2.329   4.548  15.366 -0.0215 -0.9946  0.1820
 6525SOL     OW31210   2.761   1.815  17.469  0.0414  0.5173  0.4224
 6525SOL    HW131211   2.762   1.728  17.429  1.5626 -0.1778  1.9672
 6525SOL    HW231212   2.711   1.786  17.546 -1.0962 -0.0424 -0.5186
 6526SOL     OW31213   2.602   3.895   4.366 -0.0690 -0.8113 -0.1716
 6526SOL    HW131214   2.512   3.927   4.360 -0.4739 -1.6342  1.4372
 6526SOL    HW231215   2.646   3.922   4.285  1.3349  2.6812  1.7803
 6527SOL     OW31216   1.910   1.556   7.919  0.2437  0.0319  0.2354
 6527SOL    HW131217   1.902   1.584   8.010  1.2571  1.2132 -0.0452
 6527SOL    HW231218   1.977   1.488   7.931 -1.0857 -1.2320  0.5768
 6528SOL     OW31219   4.201   4.533   7.162 -0.5515  0.6698  0.5076
 6528SOL    HW131220   4.202   4.483   7.243  1.2692 -0.3725 -0.1718
 6528SOL    HW231221   4.295   4.545   7.147 -0.6051  0.5491  0.0700
 6529SOL     OW31222   2.998   4.292  12.194 -0.8413 -0.0681 -0.2140
 6529SOL    HW131223   3.005   4.203  12.159 -0.8785 -0.4164  0.6624
 6529SOL    HW231224   3.010   4.274  12.288 -2.0037  3.8046  0.6732
 6530SOL     OW31225   3.554   2.158  14.137 -0.2755 -0.1399 -0.2281
 6530SOL    HW131226   3.562   2.072  14.097  0.3896 -0.4793  0.6468
 6530SOL    HW231227   3.538   2.134  14.229 -1.3426 -1.1428 -0.6798
 6531SOL     OW31228   3.003   2.897   6.186 -0.0406  0.1597 -0.5840
 6531SOL    HW131229   2.983   2.880   6.278 -0.2486  1.5273 -0.3881
 6531SOL    HW231230   3.079   2.954   6.202 -0.7886  0.5334  1.6523
 6532SOL     OW31231   1.417   1.600   2.827  0.7495  0.6356  0.1942
 6532SOL    HW131232   1.324   1.594   2.809  0.7373 -0.8300  0.7420
 6532SOL    HW231233   1.420   1.681   2.879 -0.7621  0.0024  1.2662
 6533SOL     OW31234   3.591   0.592   6.185  0.3114  0.3604 -0.2911
 6533SOL    HW131235   3.608   0.519   6.126 -0.7242  1.4251 -1.9043
 6533SOL    HW231236   3.623   0.663   6.129 -1.8563  1.6111  0.0510
 6534SOL     OW31237   4.090   1.768   9.182 -0.5545  0.3780 -0.0826
 6534SOL    HW131238   4.168   1.734   9.139 -1.5559 -2.6117  0.4602
 6534SOL    HW231239   4.036   1.754   9.104  0.1357 -1.1845 -0.2859
 6535SOL     OW31240   2.944   4.549   7.029  0.5729 -0.7954 -0.1229
 6535SOL    HW131241   2.898   4.632   7.041  1.7980  0.4079 -4.0236
 6535SOL    HW231242   2.890   4.493   7.086 -1.5630 -2.1688 -3.4664
 6536SOL     OW31243   3.180   0.912   3.955 -0.1104 -0.3650 -0.0241
 6536SOL    HW131244   3.141   0.983   3.905 -0.4002 -1.6935 -1.7031
 6536SOL    HW231245   3.249   0.879   3.899 -1.2514  1.1698 -2.3241
 6537SOL     OW31246   3.656   3.923   0.397 -0.0722  0.2295 -0.1878
 6537SOL    HW131247   3.652   3.849   0.337  0.3995  0.7533 -0.8703
 6537SOL    HW231248   3.725   3.970   0.350  1.3883 -1.6971  0.0274
 6538SOL     OW31249   2.794   1.254  10.729  0.1574  0.9892 -0.0774
 6538SOL    HW131250   2.840   1.209  10.800 -0.1854 -0.1895 -0.5998
 6538SOL    HW231251   2.762   1.338  10.759  0.1848  0.7367  0.6515
 6539SOL     OW31252   3.299   3.346   1.847  0.2027  0.6386 -0.2882
 6539SOL    HW131253   3.363   3.318   1.782  0.6244  1.1829 -0.1062
 6539SOL    HW231254   3.343   3.378   1.926  1.1792  0.8143 -0.9012
 6540SOL     OW31255   3.231   3.766  15.996  0.2552 -0.0381 -0.0602
 6540SOL    HW131256   3.150   3.759  16.046  0.3184 -2.5181 -0.2858
 6540SOL    HW231257   3.307   3.764  16.054 -1.2391  1.0253  1.9407
 6541SOL     OW31258   4.549   0.807   1.832 -0.8644  0.5493  0.2373
 6541SOL    HW131259   4.624   0.759   1.795 -1.0845  0.6736 -0.3663
 6541SOL    HW231260   4.548   0.890   1.785  1.0519  1.1168  1.1873
 6542SOL     OW31261   2.597   1.366   0.774 -0.0050 -1.0452 -0.0839
 6542SOL    HW131262   2.663   1.425   0.737  0.4171 -1.4693 -0.0124
 6542SOL    HW231263   2.653   1.319   0.836 -0.0894 -1.7481 -0.5416
 6543SOL     OW31264   0.882   1.075   5.095 -0.3555  0.4307 -0.1691
 6543SOL    HW131265   0.950   1.067   5.029  1.6879  0.5689  1.9270
 6543SOL    HW231266   0.905   1.157   5.140 -1.8405  0.6165  0.2454
 6544SOL     OW31267   4.227   2.472  10.172 -0.0849 -0.1474  0.0336
 6544SOL    HW131268   4.186   2.525  10.240 -0.3717 -2.8486  1.9814
 6544SOL    HW231269   4.313   2.511  10.186  0.0807  0.3333 -2.3600
 6545SOL     OW31270   2.130   1.533  13.003  0.1446 -0.5282 -0.9656
 6545SOL    HW131271   2.043   1.527  12.964  1.0819 -2.8463 -2.6535
 6545SOL    HW231272   2.189   1.555  12.931  2.8782 -1.2482  1.0545
 6546SOL     OW31273   2.859   2.977  13.010  0.1963  0.3203  0.2033
 6546SOL    HW131274   2.844   2.903  13.070  2.4684  1.9745  2.8254
 6546SOL    HW231275   2.782   2.967  12.955  0.6791 -0.7225 -0.2931
 6547SOL     OW31276   2.715   2.098   2.381  0.2972  0.2759  0.3438
 6547SOL    HW131277   2.704   2.094   2.286 -0.2010  1.7396  0.3538
 6547SOL    HW231278   2.742   2.007   2.395  1.4807  0.0677 -3.3069
 6548SOL     OW31279   4.404   2.175  14.594 -0.5323  0.6871 -0.1053
 6548SOL    HW131280   4.332   2.235  14.615  0.2966  1.2635  1.0833
 6548SOL    HW231281   4.455   2.180  14.675  0.8430 -2.5507 -0.7672
 6549SOL     OW31282   4.160   3.940   7.988 -0.6468 -0.7136 -0.0486
 6549SOL    HW131283   4.191   3.870   8.046 -1.6474 -0.7530  0.4267
 6549SOL    HW231284   4.104   3.986   8.050  2.0466  1.6149  0.7023
 6550SOL     OW31285   2.888   1.758  12.010  0.3336 -0.7431  0.1399
 6550SOL    HW131286   2.893   1.779  12.103 -0.0585  1.7447 -0.3829
 6550SOL    HW231287   2.829   1.683  12.005 -1.9820  1.0632  0.1847
 6551SOL     OW31288   0.279   2.279   4.791  0.2146 -0.1640  0.2407
 6551SOL    HW131289   0.237   2.255   4.874  1.9201  0.1108  1.1830
 6551SOL    HW231290   0.209   2.267   4.726  0.3027  1.4259 -0.1506
 6552SOL     OW31291   4.282   3.412  16.119  0.1879 -0.0889 -0.0903
 6552SOL    HW131292   4.223   3.482  16.089  0.1964 -0.4703 -0.9944
 6552SOL    HW231293   4.251   3.340  16.064  0.8496 -2.3539  2.5586
 6553SOL     OW31294   1.096   0.262   6.783 -0.2515 -0.0062  0.0900
 6553SOL    HW131295   1.167   0.199   6.797 -1.4251 -1.8839 -2.3024
 6553SOL    HW231296   1.044   0.277   6.861  0.1397  2.4944 -0.1239
 6554SOL     OW31297   4.553   3.542   3.634 -0.7005  0.1474 -0.2165
 6554SOL    HW131298   4.524   3.475   3.696 -2.6481  1.7159  0.5928
 6554SOL    HW231299   4.470   3.582   3.608  1.5102  3.4912 -2.1674
 6555SOL     OW31300   2.133   0.519   7.408 -0.6487 -0.2379 -0.4742
 6555SOL    HW131301   2.053   0.530   7.460 -0.2315 -2.9976  0.7580
 6555SOL    HW231302   2.102   0.454   7.345 -0.1824 -1.7405  0.8485
 6556SOL     OW31303   4.345   0.487   1.831  0.0580  0.3083  0.3807
 6556SOL    HW131304   4.438   0.473   1.814 -0.1617 -1.2371  0.4372
 6556SOL    HW231305   4.344   0.453   1.920  0.7980 -0.5400  0.0619
 6557SOL     OW31306   2.487   0.739  10.179 -0.4070 -0.1240 -0.4671
 6557SOL    HW131307   2.401   0.721  10.217  0.0992 -2.0858 -0.2584
 6557SOL    HW231308   2.462   0.776  10.095  0.7528  1.0702 -0.2870
 6558SOL     OW31309   1.108   3.772   4.482  0.3662 -0.1856 -0.2696
 6558SOL    HW131310   1.083   3.860   4.511  0.0071 -0.3992  0.0639
 6558SOL    HW231311   1.024   3.730   4.463 -0.2683  0.1936  1.7217
 6559SOL     OW31312   1.645   4.653   9.094 -0.5787  0.0309 -0.0443
 6559SOL    HW131313   1.581   4.597   9.138 -0.1902 -0.3380  0.0501
 6559SOL    HW231314   1.726   4.610   9.119  0.4077  1.5350 -0.6848
 6560SOL     OW31315   0.910   0.285   6.024 -0.1974 -0.0734 -0.3860
 6560SOL    HW131316   0.951   0.288   6.111 -1.2102 -0.9131  0.1256
 6560SOL    HW231317   0.984   0.250   5.974  0.1775  0.8089 -0.4338
 6561SOL     OW31318   4.186   0.922  16.447 -0.0244 -0.2550  0.0898
 6561SOL    HW131319   4.135   0.855  16.491 -0.8837  0.6434  0.4664
 6561SOL    HW231320   4.116   0.987  16.443  1.2637  1.3162  2.6725
 6562SOL     OW31321   2.410   0.466   3.680  0.0088 -0.2072  0.3154
 6562SOL    HW131322   2.391   0.374   3.664 -2.1544 -0.0256  1.7916
 6562SOL    HW231323   2.498   0.476   3.643 -0.1631  1.1702  0.2695
 6563SOL     OW31324   2.268   4.348  15.203  0.9020  0.6883  0.1952
 6563SOL    HW131325   2.197   4.286  15.187  1.1774  0.6638 -0.9242
 6563SOL    HW231326   2.232   4.417  15.258 -0.9426 -1.2983  1.4627
 6564SOL     OW31327   0.532   3.729   7.958 -0.2034 -0.1976 -0.1063
 6564SOL    HW131328   0.447   3.687   7.976 -0.3177  0.6350  1.2605
 6564SOL    HW231329   0.585   3.666   8.007  0.9774 -0.2743 -1.4980
 6565SOL     OW31330   0.507   3.257  14.692  0.3767 -0.1139  0.0196
 6565SOL    HW131331   0.495   3.296  14.779 -3.2719  2.2653 -1.5786
 6565SOL    HW231332   0.476   3.332  14.642 -0.9379 -1.3297 -0.9810
 6566SOL     OW31333   0.061   2.289   5.943 -0.2030 -0.6512  0.2946
 6566SOL    HW131334   0.027   2.205   5.912  1.0271 -1.2817  0.6546
 6566SOL    HW231335   4.723   2.320   6.004 -0.7283  0.6538 -0.9251
 6567SOL     OW31336   1.342   1.980   8.926 -0.1899 -0.7590 -0.1676
 6567SOL    HW131337   1.348   1.915   8.996  3.7602 -0.9814 -0.6854
 6567SOL    HW231338   1.274   2.035   8.965 -0.8060  0.1880 -2.5780
 6568SOL     OW31339   1.518   2.470   3.268 -0.0601 -0.5386 -0.1559
 6568SOL    HW131340   1.500   2.402   3.332 -0.9173 -0.2315 -0.0738
 6568SOL    HW231341   1.482   2.432   3.188  1.7901 -1.5635 -0.5039
 6569SOL     OW31342   3.750   4.579   7.769  0.2661  0.2131 -0.2683
 6569SOL    HW131343   3.758   4.523   7.847  0.3222  0.3565 -0.1715
 6569SOL    HW231344   3.673   4.540   7.727  0.4426 -0.1254 -0.2752
 6570SOL     OW31345   1.277   3.343  10.951 -0.9419 -0.2400 -0.0585
 6570SOL    HW131346   1.352   3.399  10.930 -0.1318 -1.4014 -0.2740
 6570SOL    HW231347   1.249   3.384  11.033  2.2919 -0.9285  1.4099
 6571SOL     OW31348   2.944   0.442   6.676  0.0563 -0.2840 -0.2495
 6571SOL    HW131349   2.891   0.521   6.683  1.8042  1.0088 -1.7378
 6571SOL    HW231350   2.949   0.451   6.581  0.1400  0.3923 -0.1793
 6572SOL     OW31351   4.053   1.236  16.162 -0.1354  0.5180  0.4550
 6572SOL    HW131352   4.032   1.245  16.069  2.2673 -1.6972 -0.3082
 6572SOL    HW231353   3.979   1.281  16.204  0.2566  1.3669  0.2408
 6573SOL     OW31354   2.064   0.790   5.848 -0.0204  0.1070  0.2118
 6573SOL    HW131355   2.004   0.803   5.775  0.7178 -1.1097 -0.6132
 6573SOL    HW231356   2.136   0.846   5.819 -0.0283  0.7210  1.3840
 6574SOL     OW31357   0.396   3.421   3.863 -0.5736  0.3702 -0.8125
 6574SOL    HW131358   0.314   3.469   3.852  0.2120  1.7294 -0.8037
 6574SOL    HW231359   0.367   3.332   3.881  1.3387 -0.2230 -0.6254
 6575SOL     OW31360   4.622   4.161   8.928  0.4714 -0.3951  0.3699
 6575SOL    HW131361   4.655   4.239   8.971 -2.3326  1.2456 -0.4492
 6575SOL    HW231362   4.703   4.111   8.919 -0.4315 -1.4904 -1.6328
 6576SOL     OW31363   1.836   2.864   1.621  0.0338 -0.4906 -0.5586
 6576SOL    HW131364   1.826   2.916   1.541  0.5199 -2.5563 -1.9802
 6576SOL    HW231365   1.828   2.940   1.679 -1.0109 -2.0576  1.3341
 6577SOL     OW31366   3.510   4.047   6.526  0.6125  0.0374 -0.0675
 6577SOL    HW131367   3.463   4.079   6.603  0.0338 -0.3948 -0.2414
 6577SOL    HW231368   3.551   3.973   6.571  0.0146  0.2261  0.7968
 6578SOL     OW31369   0.106   1.623   7.663  0.0146  0.2659  0.4860
 6578SOL    HW131370   0.015   1.602   7.642  0.0237  0.8869 -0.1570
 6578SOL    HW231371   0.134   1.553   7.721 -0.8245  0.2477  0.8718
 6579SOL     OW31372   2.747   0.305   7.659 -0.1869 -0.6645  0.2217
 6579SOL    HW131373   2.761   0.231   7.600  1.5877 -1.5327  1.7026
 6579SOL    HW231374   2.833   0.311   7.700  0.3081  1.7212 -1.2068
 6580SOL     OW31375   2.519   2.186  12.458  0.4605 -0.2635 -0.3367
 6580SOL    HW131376   2.550   2.142  12.378 -1.5124 -1.5033 -0.4102
 6580SOL    HW231377   2.428   2.206  12.437  0.0015 -1.6987  0.3242
 6581SOL     OW31378   1.883   4.725  12.066 -0.1636  0.3620  0.0595
 6581SOL    HW131379   1.822   0.004  11.993  0.2929 -1.9164 -0.5700
 6581SOL    HW231380   1.917   4.639  12.042  0.7763  0.4144  1.1681
 6582SOL     OW31381   1.845   3.801  12.954 -0.1345 -0.1242  0.3175
 6582SOL    HW131382   1.788   3.753  12.893 -1.5325 -1.4708  2.6662
 6582SOL    HW231383   1.914   3.737  12.936 -1.6212 -0.9209 -2.7228
 6583SOL     OW31384   1.769   2.145   6.342  0.3032 -0.2147  0.0590
 6583SOL    HW131385   1.794   2.194   6.420 -1.2480 -2.1668  1.7623
 6583SOL    HW231386   1.838   2.178   6.284 -2.1094  1.5056 -1.8240
 6584SOL     OW31387   3.481   1.304   5.663 -0.1253 -0.2746  0.0952
 6584SOL    HW131388   3.562   1.313   5.614 -0.8264  0.4398 -0.9529
 6584SOL    HW231389   3.438   1.388   5.645  2.5602  1.4135  1.6030
 6585SOL     OW31390   1.131   0.308   8.674  0.2461 -0.3726 -0.5910
 6585SOL    HW131391   1.113   0.379   8.736  0.8127 -0.7899  0.0561
 6585SOL    HW231392   1.196   0.261   8.727 -1.0144  1.5426  2.6844
 6586SOL     OW31393   4.377   4.452   8.056 -0.1303  0.1307  0.1379
 6586SOL    HW131394   4.292   4.488   8.031 -0.7964 -0.8062  1.0553
 6586SOL    HW231395   4.404   4.514   8.124 -0.1846 -0.7420  0.9462
 6587SOL     OW31396   1.844   4.207  12.720 -0.4686  0.0943  0.6871
 6587SOL    HW131397   1.873   4.216  12.810  0.3013  1.2845  0.3105
 6587SOL    HW231398   1.882   4.125  12.689  1.8885  1.7198 -0.6803
 6588SOL     OW31399   3.932   2.460  14.661  0.1886  0.6569  0.2599
 6588SOL    HW131400   3.870   2.402  14.616 -0.2650  0.7260  0.7933
 6588SOL    HW231401   3.897   2.463  14.751 -1.0685 -0.4042 -0.1898
 6589SOL     OW31402   2.841   3.062   6.772 -0.4271 -0.2336  0.2054
 6589SOL    HW131403   2.921   3.069   6.720  0.6977  0.2715  1.9825
 6589SOL    HW231404   2.827   3.154   6.795  0.7746  0.0463 -0.1629
 6590SOL     OW31405   2.947   0.472   8.069  0.1458 -0.0366 -0.2340
 6590SOL    HW131406   3.024   0.509   8.026 -0.2691  0.9896 -0.0757
 6590SOL    HW231407   2.973   0.472   8.161 -0.9142 -0.4602  0.0717
 6591SOL     OW31408   4.652   2.298  17.385 -0.0543  0.2489  0.0094
 6591SOL    HW131409   4.576   2.308  17.327 -1.2391  2.4141  1.9116
 6591SOL    HW231410   4.716   2.308  17.315 -0.9101  3.4618 -0.2993
 6592SOL     OW31411   2.191   4.324   4.369 -0.4569  0.4343 -0.5658
 6592SOL    HW131412   2.187   4.346   4.276 -0.9352 -1.5093 -1.0263
 6592SOL    HW231413   2.269   4.372   4.396 -0.7594  0.1101  0.8791
 6593SOL     OW31414   2.143   3.073  16.692 -0.1655 -0.1642 -0.5669
 6593SOL    HW131415   2.092   3.144  16.654 -0.4995 -0.7601 -1.2291
 6593SOL    HW231416   2.108   2.997  16.646  0.8708 -0.6888 -0.4856
 6594SOL     OW31417   0.106   0.823   7.920  0.0862 -0.7913  0.0110
 6594SOL    HW131418   0.152   0.907   7.914 -1.3239 -0.1231 -1.5215
 6594SOL    HW231419   0.176   0.765   7.950 -0.2167 -0.2601  1.7096
 6595SOL     OW31420   3.241   2.651   7.456  0.0106 -0.5689  0.2766
 6595SOL    HW131421   3.265   2.739   7.427 -0.5587 -0.4221  0.2632
 6595SOL    HW231422   3.158   2.674   7.498  0.3830  0.0835  0.6712
 6596SOL     OW31423   2.523   2.071   6.318  0.7016 -0.1921 -0.6838
 6596SOL    HW131424   2.478   2.047   6.399  3.4544  0.5317  1.0469
 6596SOL    HW231425   2.605   2.023   6.328  0.9019  0.1238 -0.8086
 6597SOL     OW31426   2.780   0.896   0.542 -0.1719 -0.4944  0.3271
 6597SOL    HW131427   2.828   0.820   0.510 -0.7378 -0.2991 -1.0089
 6597SOL    HW231428   2.736   0.878   0.625 -0.8867 -0.9736 -0.1481
 6598SOL     OW31429   2.668   1.227   4.720  0.1580  0.1030 -0.0628
 6598SOL    HW131430   2.690   1.159   4.657  1.2027 -2.3628  2.9775
 6598SOL    HW231431   2.702   1.188   4.800  0.6089  0.9945  0.1803
 6599SOL     OW31432   0.182   0.610   2.341  0.0273 -0.0292 -0.1515
 6599SOL    HW131433   0.173   0.698   2.376  3.2625 -0.5270  1.9442
 6599SOL    HW231434   0.098   0.572   2.366  0.1645 -0.1139  0.1775
 6600SOL     OW31435   2.313   1.751  10.079  0.1196 -0.0169 -0.5407
 6600SOL    HW131436   2.345   1.834  10.113  1.3542 -1.1355  1.0569
 6600SOL    HW231437   2.328   1.769   9.986 -0.8738 -0.8102 -0.8587
 6601SOL     OW31438   1.435   1.870   9.244 -0.2410 -0.3458 -0.4125
 6601SOL    HW131439   1.450   1.952   9.292  1.2229 -0.3425 -0.8896
 6601SOL    HW231440   1.512   1.816   9.258  0.0157 -0.0579 -0.7018
 6602SOL     OW31441   2.071   0.089   1.621 -0.1509 -0.0959  0.9920
 6602SOL    HW131442   1.980   0.061   1.617  0.0157 -0.4081 -0.5046
 6602SOL    HW231443   2.119   0.014   1.654  0.6368  0.9306  2.1853
 6603SOL     OW31444   1.381   1.051   2.551 -0.2498  0.0970 -0.0030
 6603SOL    HW131445   1.407   1.141   2.568  1.8098 -0.7418  1.2237
 6603SOL    HW231446   1.432   1.010   2.620  0.6550  1.3984  0.1043
 6604SOL     OW31447   0.231   3.905   7.759  0.2973 -0.3082 -0.2680
 6604SOL    HW131448   0.324   3.884   7.771 -0.2116 -1.7838  1.0778
 6604SOL    HW231449   0.220   3.920   7.665  2.8961 -1.4837 -0.7777
 6605SOL     OW31450   2.181   1.728   0.104 -0.1553 -0.1058 -0.2317
 6605SOL    HW131451   2.160   1.808   0.151  2.6815 -0.4506  1.6654
 6605SOL    HW231452   2.132   1.662   0.154  1.1240 -1.9915 -1.4566
 6606SOL     OW31453   3.898   0.857   4.746 -0.1182 -0.0556 -0.0469
 6606SOL    HW131454   3.901   0.938   4.694 -0.9192  1.5610  2.4189
 6606SOL    HW231455   3.975   0.812   4.710 -0.2946 -0.5034  0.1490
 6607SOL     OW31456   1.953   4.095   5.581 -0.0269 -0.1238  0.8658
 6607SOL    HW131457   1.861   4.077   5.602 -0.5117  1.0344 -0.2755
 6607SOL    HW231458   1.942   4.171   5.524 -1.9062 -2.2027 -1.5627
 6608SOL     OW31459   2.290   1.452   6.375  0.1005  0.4016 -0.1158
 6608SOL    HW131460   2.353   1.466   6.445 -0.5175 -0.5437  0.6295
 6608SOL    HW231461   2.321   1.378   6.322 -2.3544 -0.3024 -0.5719
 6609SOL     OW31462   4.613   2.473  16.497 -0.0295  0.1706 -0.3810
 6609SOL    HW131463   4.672   2.465  16.422  1.3064  2.6733  0.4280
 6609SOL    HW231464   4.564   2.391  16.507 -2.3275  1.6234  0.2344
 6610SOL     OW31465   4.573   2.889   7.306  0.0395  0.3454  0.0014
 6610SOL    HW131466   4.556   2.964   7.363 -0.7348  1.4235 -1.6476
 6610SOL    HW231467   4.658   2.859   7.339  0.1347  2.0297  1.2800
 6611SOL     OW31468   1.274   2.068   4.624 -0.1297  0.0911 -0.2152
 6611SOL    HW131469   1.210   2.133   4.595  0.6619  2.3689  3.2105
 6611SOL    HW231470   1.319   2.128   4.683  0.4464  0.4519 -1.0310
 6612SOL     OW31471   3.611   2.028   9.131 -0.0485 -0.7552  0.0054
 6612SOL    HW131472   3.575   2.035   9.043 -0.6759  0.7400  0.3873
 6612SOL    HW231473   3.532   2.049   9.181  0.0019 -0.2130 -0.1473
 6613SOL     OW31474   4.589   4.103   8.318  0.2107 -0.2067  0.4810
 6613SOL    HW131475   4.500   4.133   8.298 -0.3295 -2.2503 -0.2168
 6613SOL    HW231476   4.591   4.117   8.412  0.2119 -2.0286  0.7636
 6614SOL     OW31477   1.527   3.308  16.855 -0.3406 -0.2221 -0.1914
 6614SOL    HW131478   1.442   3.267  16.844 -1.2224  1.6621 -0.3650
 6614SOL    HW231479   1.517   3.337  16.945 -1.8203  1.6995 -0.9893
 6615SOL     OW31480   3.265   1.211  15.539 -0.5531 -0.1598 -0.3947
 6615SOL    HW131481   3.305   1.138  15.492 -0.5816  1.4839 -2.9629
 6615SOL    HW231482   3.333   1.273  15.567 -0.9334  1.0795 -2.2121
 6616SOL     OW31483   2.390   2.202   7.441  0.3867  0.1145  0.3756
 6616SOL    HW131484   2.354   2.263   7.506 -0.3093 -0.3358  0.4069
 6616SOL    HW231485   2.376   2.256   7.364 -2.4484 -1.0859  0.0851
 6617SOL     OW31486   2.863   2.622   6.156  0.7905  0.4527 -0.2528
 6617SOL    HW131487   2.797   2.649   6.219  1.8982  2.7891 -0.0635
 6617SOL    HW231488   2.946   2.647   6.197  0.5927  2.2328 -0.9250
 6618SOL     OW31489   4.429   3.042   0.047  0.5983  0.0777  0.0480
 6618SOL    HW131490   4.494   2.989   0.002  0.3695 -1.2207  1.2746
 6618SOL    HW231491   4.406   3.103  17.694 -0.9127 -0.9759 -0.3721
 6619SOL     OW31492   2.337   3.827   8.786 -0.4917  0.2277  0.7974
 6619SOL    HW131493   2.273   3.791   8.847 -0.9883 -1.4239 -0.6995
 6619SOL    HW231494   2.280   3.872   8.724 -0.5129 -0.1295  0.5574
 6620SOL     OW31495   2.209   1.524  17.652  0.7110 -0.6783 -0.1947
 6620SOL    HW131496   2.196   1.594  17.716 -0.2908 -1.1863  0.1440
 6620SOL    HW231497   2.280   1.473  17.691 -1.9777 -2.9902  1.6878
 6621SOL     OW31498   0.504   4.129   6.178 -0.1045 -0.2985 -0.1170
 6621SOL    HW131499   0.421   4.155   6.218  0.0677  0.3956 -0.2258
 6621SOL    HW231500   0.478   4.144   6.088  0.0042 -1.1764 -0.3005
 6622SOL     OW31501   0.441   1.341   6.517 -0.4409 -0.0353  0.4430
 6622SOL    HW131502   0.365   1.394   6.493 -0.4460 -0.4401 -0.4241
 6622SOL    HW231503   0.485   1.336   6.432 -1.5739  0.8364 -0.1981
 6623SOL     OW31504   1.389   3.370   2.535 -0.6579 -0.4553 -0.3056
 6623SOL    HW131505   1.429   3.456   2.521  0.6243 -1.0794 -0.4982
 6623SOL    HW231506   1.319   3.390   2.598 -1.4052  0.0118 -1.2821
 6624SOL     OW31507   3.103   1.012  15.677 -0.0322 -0.0005  0.4120
 6624SOL    HW131508   3.172   1.078  15.663 -0.3701 -0.4171 -3.3885
 6624SOL    HW231509   3.029   1.070  15.693  1.3461  2.0609 -0.5412
 6625SOL     OW31510   1.486   0.080  10.133 -0.1359  0.6261  0.4108
 6625SOL    HW131511   1.469   0.006  10.192  3.4400 -0.8311 -0.3437
 6625SOL    HW231512   1.524   0.140  10.197  0.8819 -0.1381  0.5385
 6626SOL     OW31513   2.057   2.759  10.379 -0.0533  0.5323 -0.2928
 6626SOL    HW131514   2.079   2.679  10.428  0.2126  0.9244  0.2292
 6626SOL    HW231515   2.129   2.818  10.399  0.4384 -0.4557  0.8565
 6627SOL     OW31516   0.411   0.214   2.227 -0.1851  0.1352 -0.1022
 6627SOL    HW131517   0.399   0.309   2.236 -3.3196 -0.1659 -0.8845
 6627SOL    HW231518   0.471   0.216   2.153 -0.7050  0.9059 -0.4982
 6628SOL     OW31519   3.571   4.418   4.065 -0.2829 -0.1136  0.1360
 6628SOL    HW131520   3.649   4.428   4.120  1.1186  1.1443 -2.0878
 6628SOL    HW231521   3.603   4.445   3.979  1.3361 -0.4926  0.6264
 6629SOL     OW31522   1.120   1.477   6.366 -0.0737 -0.1638 -0.0759
 6629SOL    HW131523   1.058   1.477   6.439  1.7033  2.4434  1.4299
 6629SOL    HW231524   1.200   1.440   6.404  0.2485  0.1383 -0.4641
 6630SOL     OW31525   4.349   2.886   7.813  0.2258 -0.3085  0.3219
 6630SOL    HW131526   4.392   2.801   7.810  1.9095  0.5543 -0.1396
 6630SOL    HW231527   4.270   2.872   7.865  0.4661 -0.2372  0.7041
 6631SOL     OW31528   0.039   3.545   3.210  0.6375  0.6122  0.1059
 6631SOL    HW131529   4.712   3.534   3.134  1.4757  1.4122 -0.6283
 6631SOL    HW231530   4.724   3.481   3.266 -0.1592  0.3797 -0.8053
 6632SOL     OW31531   4.371   3.363   7.410 -0.2380 -0.0572 -0.0767
 6632SOL    HW131532   4.430   3.315   7.351 -0.0951  0.8226 -0.6491
 6632SOL    HW231533   4.295   3.374   7.353  0.7669  2.0026 -1.0158
 6633SOL     OW31534   2.763   1.063   8.107  0.2956  0.2502 -0.0437
 6633SOL    HW131535   2.781   1.103   8.022  3.5017 -1.9498 -0.4119
 6633SOL    HW231536   2.817   0.985   8.092  0.2394 -0.2028  2.0765
 6634SOL     OW31537   1.168   3.635   7.292  0.4012  0.3798  0.0934
 6634SOL    HW131538   1.107   3.683   7.349 -0.2091  1.1733 -1.2269
 6634SOL    HW231539   1.243   3.695   7.293 -0.8192  1.9130 -0.1757
 6635SOL     OW31540   3.289   3.559   5.236  0.3050 -0.3998 -0.2047
 6635SOL    HW131541   3.384   3.552   5.239  0.5684  2.5052 -1.7172
 6635SOL    HW231542   3.268   3.477   5.191 -1.3897 -0.0773 -0.0161
 6636SOL     OW31543   3.721   0.881   2.441  0.2397 -0.0379 -0.4455
 6636SOL    HW131544   3.706   0.856   2.350  0.4296  1.0256 -0.7659
 6636SOL    HW231545   3.769   0.806   2.476 -1.7188 -1.8532 -1.7058
 6637SOL     OW31546   3.082   0.653   3.300  0.0354  0.0711  0.4777
 6637SOL    HW131547   3.002   0.694   3.332 -0.8282 -1.0889 -0.1708
 6637SOL    HW231548   3.048   0.572   3.261  0.5818 -1.7671  3.8633
 6638SOL     OW31549   4.643   2.855  15.946 -0.2849  0.2688 -0.1159
 6638SOL    HW131550   4.662   2.843  15.853 -2.2954 -0.2996 -0.4569
 6638SOL    HW231551   4.642   2.950  15.936  0.6841  0.4377  1.2688
 6639SOL     OW31552   3.981   3.574   1.918  0.8747  0.3347 -0.6533
 6639SOL    HW131553   4.065   3.619   1.920  1.1997 -0.3095  0.8112
 6639SOL    HW231554   3.999   3.483   1.895 -0.8642  0.0633 -0.9286
 6640SOL     OW31555   2.428   3.061   8.128  0.1759 -0.7856  0.3817
 6640SOL    HW131556   2.497   3.069   8.195  0.7898 -1.9631 -0.1116
 6640SOL    HW231557   2.368   3.001   8.172 -0.1657 -0.1683  0.7700
 6641SOL     OW31558   4.196   2.432   7.371 -0.1449  0.0537  0.6115
 6641SOL    HW131559   4.155   2.500   7.318  0.1855 -0.1125  0.1452
 6641SOL    HW231560   4.262   2.396   7.313 -0.7683 -1.1265  0.6312
 6642SOL     OW31561   3.925   0.998  16.999  0.0335  0.2529 -0.5773
 6642SOL    HW131562   3.905   0.904  16.999  3.1645 -0.3888 -0.3821
 6642SOL    HW231563   3.837   1.028  16.973  0.0301  0.4903 -0.2936
 6643SOL     OW31564   2.110   2.786   6.652 -0.2025  0.2731  0.1540
 6643SOL    HW131565   2.130   2.855   6.588 -0.6109  0.8491  0.6464
 6643SOL    HW231566   2.022   2.760   6.625  0.2235 -2.5058  1.4625
 6644SOL     OW31567   4.199   0.104   7.929 -0.1550  0.4853  0.2638
 6644SOL    HW131568   4.239   0.107   7.842 -1.8072  1.1476 -0.4736
 6644SOL    HW231569   4.166   0.194   7.938  1.9333  1.5840 -2.8374
 6645SOL     OW31570   2.573   3.186  14.285  0.1173  0.6273  0.6276
 6645SOL    HW131571   2.667   3.171  14.272 -0.5251 -0.3769 -2.8871
 6645SOL    HW231572   2.579   3.270  14.331  1.4699  0.0247  1.5485
 6646SOL     OW31573   4.604   0.046   3.601 -0.0661  0.2699  0.1758
 6646SOL    HW131574   4.693   0.029   3.631  0.2279  2.5886  0.6234
 6646SOL    HW231575   4.555   0.026   3.681  1.2725 -0.2674  0.8687
 6647SOL     OW31576   2.034   2.492   1.387  0.2217  0.2587 -0.2121
 6647SOL    HW131577   2.046   2.465   1.478  1.6953 -0.0974 -0.5054
 6647SOL    HW231578   2.115   2.540   1.368  2.9967 -2.6457  4.1189
 6648SOL     OW31579   1.325   1.965   1.745  0.2855 -0.1458 -0.3081
 6648SOL    HW131580   1.276   1.994   1.822 -0.1698 -0.8987 -0.3110
 6648SOL    HW231581   1.275   1.887   1.721  0.4827  0.2253 -1.9340
 6649SOL     OW31582   2.370   1.652   3.567 -0.3709 -0.1796 -0.5567
 6649SOL    HW131583   2.296   1.610   3.524  0.4500 -0.8891 -1.2884
 6649SOL    HW231584   2.348   1.740   3.536 -0.3233  0.0459  0.0678
 6650SOL     OW31585   4.471   1.128   1.811 -0.1943  0.2270 -0.0048
 6650SOL    HW131586   4.565   1.125   1.792 -0.3113 -0.2603 -0.5113
 6650SOL    HW231587   4.473   1.189   1.884 -1.1059  0.6581 -0.3470
 6651SOL     OW31588   3.452   1.617   4.673  0.2472  0.1613  0.0163
 6651SOL    HW131589   3.433   1.709   4.655 -0.0118  0.2271  0.6186
 6651SOL    HW231590   3.424   1.578   4.590  0.9714  0.3865 -0.3402
 6652SOL     OW31591   3.916   2.886   2.787 -0.4243  0.1211 -0.4022
 6652SOL    HW131592   3.975   2.914   2.717  0.6358 -1.9667 -0.3376
 6652SOL    HW231593   3.836   2.870   2.737 -0.8364  3.1112 -0.7204
 6653SOL     OW31594   3.094   1.270  16.346 -0.4567 -0.1878 -0.2823
 6653SOL    HW131595   3.005   1.297  16.321  0.6240  2.4807 -1.2431
 6653SOL    HW231596   3.136   1.355  16.334 -1.0566  0.2189  0.4939
 6654SOL     OW31597   2.451   0.317  16.389 -0.0504  0.5500 -0.0110
 6654SOL    HW131598   2.511   0.363  16.331 -0.8787 -0.7667 -1.9067
 6654SOL    HW231599   2.415   0.392  16.435 -0.7457  0.5292 -0.5264
 6655SOL     OW31600   0.716   1.922   6.699  0.2577 -0.7205  0.2902
 6655SOL    HW131601   0.682   1.856   6.638 -2.4138  1.0781 -0.1840
 6655SOL    HW231602   0.717   2.001   6.645  3.2897  1.0817  3.0279
 6656SOL     OW31603   2.262   4.335  12.007  0.2626  0.0448  0.2636
 6656SOL    HW131604   2.341   4.323  12.060  0.0190  1.3244  0.9350
 6656SOL    HW231605   2.197   4.338  12.078 -0.8555 -0.0652 -0.7516
 6657SOL     OW31606   2.121   2.488  10.595 -0.6818  0.1435  0.0133
 6657SOL    HW131607   2.200   2.518  10.550 -0.7570 -0.8848 -0.7917
 6657SOL    HW231608   2.140   2.395  10.590 -1.0332  0.0008  1.5079
 6658SOL     OW31609   4.064   2.387  12.496 -0.0742  0.4549  0.3637
 6658SOL    HW131610   4.046   2.294  12.480 -3.3373  0.5976  2.9840
 6658SOL    HW231611   4.154   2.399  12.465 -0.6558 -1.0203 -1.9106
 6659SOL     OW31612   1.603   1.574   4.381  0.5047 -0.4465  0.0443
 6659SOL    HW131613   1.638   1.516   4.449  1.0129 -0.5390 -0.3027
 6659SOL    HW231614   1.663   1.548   4.311  0.2204  0.2873 -0.4644
 6660SOL     OW31615   3.487   0.711  13.963  0.1676  0.2143 -0.2614
 6660SOL    HW131616   3.489   0.795  13.919 -2.1621  0.4817  0.1814
 6660SOL    HW231617   3.468   0.656  13.887  0.3874  2.0063 -1.6175
 6661SOL     OW31618   3.729   2.777   0.285  0.1698  0.9012  0.3610
 6661SOL    HW131619   3.659   2.825   0.240  0.5197  2.6514  1.6759
 6661SOL    HW231620   3.804   2.799   0.229  0.9861 -0.4762  0.9067
 6662SOL     OW31621   1.412   2.839  17.080 -0.5345  0.1231  0.0749
 6662SOL    HW131622   1.415   2.912  17.019  0.9450 -1.0246 -1.2280
 6662SOL    HW231623   1.492   2.793  17.055 -0.8283  0.3302 -1.2025
 6663SOL     OW31624   2.327   4.186   7.946  0.0830  0.3268 -0.0846
 6663SOL    HW131625   2.322   4.106   7.998 -1.1400  0.8367  0.5770
 6663SOL    HW231626   2.348   4.253   8.012 -1.8095  0.4126  0.4047
 6664SOL     OW31627   3.140   2.253   2.557 -0.5414  0.0129 -0.1583
 6664SOL    HW131628   3.060   2.205   2.581 -0.3471 -1.0135 -1.4859
 6664SOL    HW231629   3.117   2.280   2.467 -1.8283 -1.0014 -0.1435
 6665SOL     OW31630   1.589   2.282  10.029 -0.1150 -0.0443 -0.4559
 6665SOL    HW131631   1.583   2.321  10.116  2.5616  1.7970 -1.0944
 6665SOL    HW231632   1.524   2.338   9.987 -0.4248  0.0757  0.1794
 6666SOL     OW31633   3.223   0.428   4.190 -0.1229  0.3652 -0.8680
 6666SOL    HW131634   3.282   0.504   4.190 -0.4061  0.5783  0.1608
 6666SOL    HW231635   3.141   0.470   4.214  0.4853  1.2134 -0.2695
 6667SOL     OW31636   1.588   3.467   7.224 -0.2833 -0.5442 -0.4384
 6667SOL    HW131637   1.533   3.496   7.152 -0.1099  2.3871  0.5721
 6667SOL    HW231638   1.656   3.424   7.173 -0.9757 -1.7100 -0.3611
 6668SOL     OW31639   4.100   1.723  10.092  0.0922  0.1805  0.4921
 6668SOL    HW131640   4.071   1.795  10.148  1.1025 -0.3525  1.6925
 6668SOL    HW231641   4.038   1.650  10.096 -0.4472  0.4498 -2.4641
 6669SOL     OW31642   4.179   4.184   4.784 -0.1526  0.9605  0.0241
 6669SOL    HW131643   4.129   4.259   4.817  0.1625  0.4876  1.5783
 6669SOL    HW231644   4.105   4.125   4.772  1.1390 -0.8178  0.8691
 6670SOL     OW31645   0.868   1.197   7.226 -0.1668 -0.3977 -0.3855
 6670SOL    HW131646   0.961   1.187   7.250  0.0027 -0.0487 -0.8804
 6670SOL    HW231647   0.850   1.288   7.249 -1.1995 -0.5902 -0.4543
 6671SOL     OW31648   2.086   2.913   2.827  0.3974  0.4796 -0.5858
 6671SOL    HW131649   2.090   2.822   2.797 -0.5290  0.8765 -1.8597
 6671SOL    HW231650   2.175   2.943   2.808  0.8797 -1.0011 -0.6741
 6672SOL     OW31651   0.551   3.041  14.149  0.3128 -0.0121  0.7679
 6672SOL    HW131652   0.510   3.025  14.234 -1.8484 -0.9443 -0.4653
 6672SOL    HW231653   0.638   3.077  14.167  0.8249 -0.0538 -1.6592
 6673SOL     OW31654   1.486   1.706   2.222 -0.6375 -0.3997  0.5940
 6673SOL    HW131655   1.409   1.666   2.183  0.4399 -0.3228 -1.5758
 6673SOL    HW231656   1.458   1.788   2.264  0.1045  0.3975 -0.4657
 6674SOL     OW31657   3.944   3.790  13.805  0.1185  0.6100  0.0014
 6674SOL    HW131658   3.931   3.702  13.841  0.3775  0.2105 -0.8739
 6674SOL    HW231659   3.928   3.763  13.715  0.7514  0.2478 -0.0025
 6675SOL     OW31660   2.393   3.492   3.261 -0.1490  0.2367 -0.1623
 6675SOL    HW131661   2.327   3.423   3.268  0.5029 -0.1471  2.1761
 6675SOL    HW231662   2.452   3.479   3.334 -2.0044 -2.7008  0.8033
 6676SOL     OW31663   1.498   2.097   8.221  0.1756  0.1745 -0.4052
 6676SOL    HW131664   1.586   2.084   8.258 -0.4163  1.1518  1.3502
 6676SOL    HW231665   1.525   2.164   8.160 -0.4573 -0.3470 -1.2577
 6677SOL     OW31666   1.706   2.332   8.791  0.0614 -0.3539  1.0040
 6677SOL    HW131667   1.622   2.325   8.837  0.4865 -1.0185  1.6760
 6677SOL    HW231668   1.758   2.299   8.864  0.3519 -0.3858  0.7833
 6678SOL     OW31669   4.041   1.939  14.559 -0.6512  0.4782 -0.0299
 6678SOL    HW131670   4.115   1.908  14.507 -1.2759  0.4688 -0.9116
 6678SOL    HW231671   4.073   1.932  14.649  1.0490 -2.6166 -0.9005
 6679SOL     OW31672   3.944   2.967   1.399 -0.8958 -0.2525 -0.3459
 6679SOL    HW131673   4.020   3.022   1.418 -1.3240  0.8119 -1.6980
 6679SOL    HW231674   3.871   3.028   1.388  0.7014  1.5378 -0.8423
 6680SOL     OW31675   1.863   0.617   3.218  0.4194 -0.0338 -0.3873
 6680SOL    HW131676   1.940   0.667   3.245 -0.0824 -0.3805  1.6640
 6680SOL    HW231677   1.880   0.532   3.259  2.2209  0.8436  0.6881
 6681SOL     OW31678   1.693   0.151   3.582 -0.6718 -0.6872  0.1101
 6681SOL    HW131679   1.703   0.244   3.561  0.5481 -1.1795 -1.4682
 6681SOL    HW231680   1.597   0.146   3.585 -0.6316 -0.5328  1.3326
 6682SOL     OW31681   2.214   1.694   4.620  0.0821  0.6309 -0.7786
 6682SOL    HW131682   2.208   1.657   4.532  1.0707 -0.6024 -0.3272
 6682SOL    HW231683   2.276   1.634   4.662 -0.6051  1.0077  0.7520
 6683SOL     OW31684   1.811   1.041   6.636  0.3882 -0.3206  0.2575
 6683SOL    HW131685   1.902   1.014   6.622  1.3154  2.5057  0.8742
 6683SOL    HW231686   1.766   0.959   6.657  0.6117 -0.7259 -0.8639
 6684SOL     OW31687   0.211   1.424   3.644  0.3260 -0.1785  0.3256
 6684SOL    HW131688   0.174   1.388   3.724 -0.1023  1.3995  0.8458
 6684SOL    HW231689   0.254   1.507   3.664 -0.9487  0.1988  1.4649
 6685SOL     OW31690   1.221   0.425   0.241  0.3181 -0.0325 -0.6769
 6685SOL    HW131691   1.156   0.467   0.298  1.6954  0.1524  0.7576
 6685SOL    HW231692   1.229   0.487   0.168  1.1029 -0.5218 -1.0010
 6686SOL     OW31693   3.096   0.493   6.438  0.0959 -0.3695  0.0461
 6686SOL    HW131694   3.148   0.564   6.399  0.0135 -0.6159 -0.5044
 6686SOL    HW231695   3.151   0.454   6.506 -0.2554  0.4100  0.7785
 6687SOL     OW31696   2.662   4.625   8.878  0.8970  0.9603  0.3503
 6687SOL    HW131697   2.631   4.652   8.965  1.0050  1.8753  0.0973
 6687SOL    HW231698   2.605   4.667   8.814  1.1990 -1.1435 -1.2948
 6688SOL     OW31699   2.406   4.420   2.609  0.0086  0.2427 -0.2665
 6688SOL    HW131700   2.392   4.399   2.702 -4.3052  0.2371 -0.8930
 6688SOL    HW231701   2.322   4.460   2.585 -0.5390 -0.2366  0.8066
 6689SOL     OW31702   2.262   3.985   8.098 -0.3072  0.4433  0.0118
 6689SOL    HW131703   2.236   3.952   8.184 -0.6278  0.2521 -0.1585
 6689SOL    HW231704   2.303   3.908   8.059 -0.3393  0.1484  0.5614
 6690SOL     OW31705   4.154   2.335  14.950 -0.5686  0.3031 -0.0342
 6690SOL    HW131706   4.097   2.359  15.023  0.3420  3.1653 -0.2674
 6690SOL    HW231707   4.189   2.250  14.976 -2.1448  0.2422  1.8861
 6691SOL     OW31708   2.038   3.561   8.080 -0.0295 -0.7566 -0.0749
 6691SOL    HW131709   1.997   3.576   8.165  0.5343  0.2446  0.0159
 6691SOL    HW231710   1.983   3.491   8.044 -2.8163  0.8996  0.9816
 6692SOL     OW31711   4.032   2.885   8.831 -0.1743  0.4307  0.3806
 6692SOL    HW131712   4.102   2.838   8.876  0.9898  1.3643 -0.4597
 6692SOL    HW231713   4.029   2.834   8.750 -3.1446  1.2293 -0.0223
 6693SOL     OW31714   3.270   3.621   1.417 -0.1575 -0.2140 -0.3923
 6693SOL    HW131715   3.198   3.622   1.480  0.0882  1.8894 -0.1490
 6693SOL    HW231716   3.339   3.674   1.455  0.5262 -2.1244  1.0358
 6694SOL     OW31717   2.364   1.113  10.862  0.3720  0.2680  0.0037
 6694SOL    HW131718   2.347   1.025  10.827 -0.0759 -0.4931  2.1397
 6694SOL    HW231719   2.413   1.078  10.936  2.1478  0.8638 -0.8796
 6695SOL     OW31720   4.592   4.108   3.890 -0.1273 -0.6302  0.3562
 6695SOL    HW131721   4.500   4.124   3.868  0.3275 -0.1883 -1.2193
 6695SOL    HW231722   4.596   4.133   3.982 -0.4237 -3.4166  1.1275
 6696SOL     OW31723   4.061   3.258  15.040  0.0606 -0.1287 -0.6181
 6696SOL    HW131724   4.044   3.351  15.030 -0.5110 -0.0727  0.9583
 6696SOL    HW231725   4.014   3.217  14.967 -1.7226 -2.7217  2.0068
 6697SOL     OW31726   2.241   2.202   5.647  0.4730 -0.2985  0.0873
 6697SOL    HW131727   2.157   2.160   5.627 -0.3507  1.1973  0.4041
 6697SOL    HW231728   2.290   2.127   5.680 -0.9063 -1.1711  0.1907
 6698SOL     OW31729   2.584   2.704   5.770  0.0052 -0.1310 -0.0716
 6698SOL    HW131730   2.641   2.741   5.703 -1.3178  0.3867 -0.9040
 6698SOL    HW231731   2.589   2.609   5.758  0.6557 -0.1912  0.6270
 6699SOL     OW31732   1.829   1.210  17.423  0.0729 -0.5982  0.1171
 6699SOL    HW131733   1.747   1.183  17.466 -0.0943 -0.2665  0.0052
 6699SOL    HW231734   1.795   1.271  17.357 -0.4304 -1.4516 -0.4163
 6700SOL     OW31735   3.479   2.183  13.442  0.0824  0.1776 -0.2055
 6700SOL    HW131736   3.498   2.275  13.460  1.4774 -0.1138 -0.1797
 6700SOL    HW231737   3.459   2.149  13.529 -1.4397 -2.1806 -1.4871
 6701SOL     OW31738   2.177   3.376   9.034 -0.1006 -0.7676 -0.2040
 6701SOL    HW131739   2.107   3.354   9.095  0.6854 -1.3080  0.5051
 6701SOL    HW231740   2.139   3.447   8.982 -0.9927 -1.6537 -0.7544
 6702SOL     OW31741   4.096   3.257   2.523 -0.1413  0.3528 -0.4128
 6702SOL    HW131742   4.101   3.346   2.558 -0.7776  1.4725 -3.1503
 6702SOL    HW231743   4.181   3.249   2.481  0.0839 -2.0237  0.5196
 6703SOL     OW31744   1.718   1.339   8.657 -0.0244 -0.0281 -0.4701
 6703SOL    HW131745   1.657   1.374   8.721 -1.3791 -0.3130 -1.6033
 6703SOL    HW231746   1.725   1.248   8.685  3.7106  0.2362 -0.4204
 6704SOL     OW31747   1.838   4.227  16.884  0.2753 -0.0941  0.0416
 6704SOL    HW131748   1.860   4.164  16.953  1.9873 -1.5320 -1.8104
 6704SOL    HW231749   1.922   4.246  16.842  1.0264 -1.1131  1.0711
 6705SOL     OW31750   1.226   2.036   4.973 -0.3121 -0.4861 -0.2456
 6705SOL    HW131751   1.251   2.124   5.003 -0.9087 -0.7920  1.1609
 6705SOL    HW231752   1.314   2.004   4.952 -0.8114  0.7733 -4.2975
 6706SOL     OW31753   1.819   3.501   5.683 -0.6676 -0.4154 -0.2807
 6706SOL    HW131754   1.882   3.552   5.633  1.6193 -1.6156  1.4086
 6706SOL    HW231755   1.807   3.426   5.626 -0.1320  0.7475 -1.9085
 6707SOL     OW31756   2.113   1.976   0.206 -0.2476 -0.0780  0.0535
 6707SOL    HW131757   2.150   2.057   0.239  3.0478 -0.7267 -2.0998
 6707SOL    HW231758   2.098   2.003   0.116 -1.7384  0.0963  0.3416
 6708SOL     OW31759   0.751   0.557   7.384 -0.1592  0.7931 -0.1071
 6708SOL    HW131760   0.733   0.567   7.290 -2.3813  0.0100  0.2488
 6708SOL    HW231761   0.765   0.463   7.394 -0.5222  0.8287  0.6793
 6709SOL     OW31762   2.225   3.716  16.540  0.0437 -0.8556 -0.4746
 6709SOL    HW131763   2.220   3.779  16.468 -0.1318 -1.4004 -0.9371
 6709SOL    HW231764   2.138   3.729  16.577  0.7204  1.4053  0.2902
 6710SOL     OW31765   1.997   4.219  15.779  0.2033 -0.3223 -0.7385
 6710SOL    HW131766   2.083   4.178  15.791  0.8339  2.0595  2.8492
 6710SOL    HW231767   1.957   4.189  15.860 -0.8930  1.2470 -0.7113
 6711SOL     OW31768   2.882   4.440  16.266 -0.6760  0.0125 -0.3569
 6711SOL    HW131769   2.909   4.465  16.354  0.5524 -0.2302 -0.6659
 6711SOL    HW231770   2.853   4.523  16.230  0.3846  0.1888 -0.8070
 6712SOL     OW31771   2.275   2.367   6.243 -0.1355  0.2757 -0.2162
 6712SOL    HW131772   2.292   2.375   6.149 -2.0109 -0.5314 -0.6438
 6712SOL    HW231773   2.219   2.443   6.256 -0.4425  0.1446 -0.7626
 6713SOL     OW31774   2.535   4.696   4.958 -0.5805  0.0490  0.0414
 6713SOL    HW131775   2.579   4.616   4.987 -2.1967 -0.1600  1.8902
 6713SOL    HW231776   2.571   0.046   4.997  2.1219 -0.1171 -2.0880
 6714SOL     OW31777   3.563   1.835   5.677  0.1588  0.5913 -0.1191
 6714SOL    HW131778   3.529   1.907   5.624  0.6707  0.4911 -0.5870
 6714SOL    HW231779   3.647   1.824   5.633 -0.1317  1.4655 -0.9122
 6715SOL     OW31780   3.930   3.148   1.692 -0.4502  0.1000 -0.3979
 6715SOL    HW131781   3.999   3.128   1.629 -0.6502 -0.7462 -0.3493
 6715SOL    HW231782   3.992   3.202   1.741 -1.0657  0.1472  0.3413
 6716SOL     OW31783   3.187   2.567  13.464  0.5626 -0.0393 -0.0654
 6716SOL    HW131784   3.160   2.608  13.381 -0.2803 -1.1769 -0.3497
 6716SOL    HW231785   3.198   2.647  13.515 -2.4540 -2.0706  3.7339
 6717SOL     OW31786   3.718   2.524   7.866  0.0653  0.5318 -0.4614
 6717SOL    HW131787   3.674   2.484   7.942 -0.4537 -0.8181 -1.4687
 6717SOL    HW231788   3.721   2.613   7.900 -0.5262 -0.7343  2.9455
 6718SOL     OW31789   2.302   1.366  15.072  0.7681 -0.0388  0.1866
 6718SOL    HW131790   2.267   1.285  15.109  1.8809 -0.8158 -0.4694
 6718SOL    HW231791   2.338   1.404  15.153  2.7029 -0.0404 -0.6644
 6719SOL     OW31792   3.360   2.652   2.398 -0.3573  0.4538 -0.1384
 6719SOL    HW131793   3.276   2.607   2.389  0.1473 -0.4130 -0.5843
 6719SOL    HW231794   3.376   2.709   2.323 -1.4492  0.4855 -0.3390
 6720SOL     OW31795   0.571   2.550   1.615 -0.1019  0.3509 -0.7776
 6720SOL    HW131796   0.502   2.608   1.581  0.2332  1.5394  0.5486
 6720SOL    HW231797   0.601   2.499   1.540  0.8671 -0.1493 -0.0502
 6721SOL     OW31798   2.777   2.797   4.408  0.2442  0.2169 -0.7493
 6721SOL    HW131799   2.867   2.764   4.414  0.0133 -0.2717  0.0635
 6721SOL    HW231800   2.760   2.826   4.498 -2.5088  0.8846 -1.5016
 6722SOL     OW31801   0.035   1.058   5.468 -0.4467  0.5658 -0.2011
 6722SOL    HW131802   4.724   1.090   5.388  0.1081 -0.6326 -0.9709
 6722SOL    HW231803   0.091   1.127   5.503  0.9724  0.2453 -1.8132
 6723SOL     OW31804   2.600   2.960   1.260  0.1666 -0.5655  0.6398
 6723SOL    HW131805   2.577   2.985   1.170 -0.8482 -1.1589  0.7365
 6723SOL    HW231806   2.641   3.045   1.278  1.8482 -1.4497  1.0183
 6724SOL     OW31807   0.177   0.775  15.083 -0.4645 -1.1798  0.3568
 6724SOL    HW131808   0.176   0.704  15.019 -0.7050 -0.4641 -0.4372
 6724SOL    HW231809   0.259   0.756  15.129  0.1619 -1.6690 -0.9597
 6725SOL     OW31810   1.514   2.149  10.731 -0.3153 -0.0506 -0.4223
 6725SOL    HW131811   1.593   2.111  10.693  0.4670  0.8831  0.2596
 6725SOL    HW231812   1.532   2.243  10.730  2.4482 -0.5681 -0.9313
 6726SOL     OW31813   0.338   0.690  16.784 -0.2730  0.3345 -0.8064
 6726SOL    HW131814   0.290   0.771  16.767 -0.0175  0.2437 -1.9650
 6726SOL    HW231815   0.315   0.651  16.869 -0.8392 -0.4179 -1.3098
 6727SOL     OW31816   1.167   1.736   6.299  0.5014 -0.0794  0.4202
 6727SOL    HW131817   1.081   1.770   6.275  0.9716 -0.3460 -1.6449
 6727SOL    HW231818   1.141   1.662   6.354  1.7987 -1.9450 -1.4439
 6728SOL     OW31819   0.267   3.336   5.099 -0.6213  0.1522 -0.4101
 6728SOL    HW131820   0.229   3.404   5.154 -3.1142 -3.5944  2.5725
 6728SOL    HW231821   0.319   3.388   5.039  0.1403  1.3205  1.2811
 6729SOL     OW31822   3.350   2.231  13.960 -0.1884  0.2052 -0.2642
 6729SOL    HW131823   3.433   2.192  13.988 -0.5552 -0.9545 -0.7949
 6729SOL    HW231824   3.287   2.205  14.027 -0.1287 -0.2497 -0.3850
 6730SOL     OW31825   0.512   0.754   5.828 -0.7988 -0.4298  0.0500
 6730SOL    HW131826   0.596   0.710   5.827 -0.5812  0.0016 -1.4985
 6730SOL    HW231827   0.487   0.740   5.737 -0.3703 -0.2549 -0.0934
 6731SOL     OW31828   4.060   4.060  12.386 -0.0055  0.1995  0.1747
 6731SOL    HW131829   4.117   4.025  12.318 -0.6540  0.8182 -0.6941
 6731SOL    HW231830   4.059   3.983  12.443 -1.0796  0.6004  0.7087
 6732SOL     OW31831   1.757   1.817   6.493  0.1690 -0.3369  0.2049
 6732SOL    HW131832   1.751   1.745   6.556  0.7607 -0.1921  0.4289
 6732SOL    HW231833   1.834   1.866   6.523  1.7255 -1.9220 -1.1321
 6733SOL     OW31834   2.223   0.375  13.710  0.0864 -0.0866  0.3376
 6733SOL    HW131835   2.223   0.342  13.800  0.0441  0.6747  0.6125
 6733SOL    HW231836   2.290   0.319  13.670 -0.4987 -0.3753 -0.2329
 6734SOL     OW31837   3.627   1.864   4.879  0.0968 -0.4801  0.1102
 6734SOL    HW131838   3.686   1.912   4.821  1.0288 -1.6859  0.0698
 6734SOL    HW231839   3.671   1.781   4.894  2.0904  0.7684  1.1478
 6735SOL     OW31840   3.907   0.304   6.232  0.1902  0.0991  0.1303
 6735SOL    HW131841   3.913   0.339   6.143 -1.4439 -1.0369 -0.4288
 6735SOL    HW231842   3.975   0.347   6.285  0.2336  0.0754  0.0941
 6736SOL     OW31843   4.698   3.795   0.460  0.3942  0.6547  0.3234
 6736SOL    HW131844   0.032   3.865   0.474  0.5642  0.3735  0.9464
 6736SOL    HW231845   4.631   3.818   0.524  0.3159  3.3113 -0.7205
 6737SOL     OW31846   0.962   2.734   7.225 -0.0709 -0.2147 -0.0092
 6737SOL    HW131847   0.965   2.787   7.304  2.2697 -3.1679  1.8667
 6737SOL    HW231848   0.912   2.655   7.247  1.7465 -1.3766 -0.0319
 6738SOL     OW31849   4.557   2.397   2.318 -0.3030  0.3177 -0.6952
 6738SOL    HW131850   4.517   2.459   2.379 -0.2469 -2.5361  2.2380
 6738SOL    HW231851   4.597   2.337   2.381  0.2507 -0.0500 -1.3980
 6739SOL     OW31852   3.774   1.790  11.324 -0.1659 -0.0339 -0.1462
 6739SOL    HW131853   3.784   1.784  11.419 -1.8910  0.5001  0.0763
 6739SOL    HW231854   3.834   1.722  11.294 -0.1756 -0.1887  0.1834
 6740SOL     OW31855   0.603   0.644   6.218  0.2148  0.0653  0.2040
 6740SOL    HW131856   0.684   0.695   6.217 -0.1161  0.6619  3.3542
 6740SOL    HW231857   0.629   0.585   6.147 -1.4622 -1.6223  0.9841
 6741SOL     OW31858   1.389   0.561   9.222  0.0569  0.2071  0.5547
 6741SOL    HW131859   1.407   0.587   9.131 -1.2079  0.4127  0.3731
 6741SOL    HW231860   1.296   0.549   9.205  0.3993 -0.9073 -0.5869
 6742SOL     OW31861   1.444   2.590   4.588  0.4782 -0.0192 -0.0098
 6742SOL    HW131862   1.354   2.615   4.564  0.4186  0.0878  0.3346
 6742SOL    HW231863   1.441   2.572   4.681  0.7792 -1.7440 -0.3297
 6743SOL     OW31864   2.659   1.236   7.532  0.3992 -0.4123 -0.6751
 6743SOL    HW131865   2.651   1.146   7.563 -1.4627 -0.2832 -0.7841
 6743SOL    HW231866   2.589   1.285   7.576  1.3984 -1.9158  2.5686
 6744SOL     OW31867   3.823   3.988   1.455 -0.2915 -0.1164  0.3162
 6744SOL    HW131868   3.775   3.912   1.420 -0.3611 -0.3963  1.0116
 6744SOL    HW231869   3.870   4.015   1.377 -1.6606  0.0840 -0.4514
 6745SOL     OW31870   1.391   2.812   2.797 -0.4038 -0.3017 -0.0887
 6745SOL    HW131871   1.389   2.866   2.875  1.4611  0.0491 -0.2881
 6745SOL    HW231872   1.450   2.739   2.817  0.7756  0.2063 -1.6490
 6746SOL     OW31873   2.380   3.881  17.581 -0.9833  0.2193 -0.5747
 6746SOL    HW131874   2.378   3.876  17.677 -1.0418  1.7250 -0.4958
 6746SOL    HW231875   2.462   3.930  17.576 -1.4892  1.0262 -1.0823
 6747SOL     OW31876   3.588   2.156  10.995  0.3673 -0.0689 -0.4331
 6747SOL    HW131877   3.666   2.130  10.945  0.5549  1.8860 -1.1330
 6747SOL    HW231878   3.561   2.066  11.014  1.4290 -0.1948  0.5037
 6748SOL     OW31879   1.208   0.894   1.544  0.2809 -0.0644 -0.3308
 6748SOL    HW131880   1.261   0.875   1.466 -1.0497 -1.6014 -0.8623
 6748SOL    HW231881   1.130   0.844   1.520 -0.7732  1.3673  0.1546
 6749SOL     OW31882   3.152   0.535   2.485  0.0013  0.1883 -0.4510
 6749SOL    HW131883   3.164   0.630   2.483  0.7139  0.1341  0.9061
 6749SOL    HW231884   3.241   0.501   2.493  1.4303  3.5600 -1.9106
 6750SOL     OW31885   4.347   3.051  16.092 -0.3974 -0.0902 -0.2656
 6750SOL    HW131886   4.340   2.965  16.052 -0.1753  0.1655 -0.8547
 6750SOL    HW231887   4.255   3.076  16.095 -0.0604  1.1365 -0.1081
 6751SOL     OW31888   4.451   3.512   3.100 -0.3687  0.4724 -0.4335
 6751SOL    HW131889   4.412   3.575   3.161  1.5450 -1.5886  2.8933
 6751SOL    HW231890   4.507   3.566   3.045  0.6699 -1.7868 -1.5999
 6752SOL     OW31891   2.329   0.608   4.909  0.7694  0.4674 -0.2370
 6752SOL    HW131892   2.355   0.523   4.872 -0.7814 -0.9640  1.9563
 6752SOL    HW231893   2.253   0.583   4.961  1.4432  0.7448  0.8875
 6753SOL     OW31894   0.802   4.040   7.797 -0.0938 -0.1204  0.4507
 6753SOL    HW131895   0.718   4.063   7.837 -1.4071  1.6728 -3.4399
 6753SOL    HW231896   0.851   4.072   7.873  3.2541 -1.0368 -1.3159
 6754SOL     OW31897   2.670   4.241   2.639 -0.1453  0.2221  0.5334
 6754SOL    HW131898   2.739   4.239   2.572 -0.5857  0.8869  0.0580
 6754SOL    HW231899   2.595   4.193   2.601  1.6774 -0.3925 -2.3089
 6755SOL     OW31900   0.632   2.279  15.117 -0.3073  0.9653  0.0619
 6755SOL    HW131901   0.583   2.325  15.185  0.0762 -0.7270  1.4764
 6755SOL    HW231902   0.575   2.292  15.041 -1.0529  0.4884  0.5436
 6756SOL     OW31903   1.169   0.727  10.532  0.2392 -0.2561 -0.0961
 6756SOL    HW131904   1.080   0.690  10.525  0.3687 -0.2982 -1.4784
 6756SOL    HW231905   1.199   0.716  10.442 -0.7066  0.2948 -0.4832
 6757SOL     OW31906   3.274   3.986  11.476  0.4339 -0.2927 -0.4027
 6757SOL    HW131907   3.352   3.932  11.486 -0.1115 -1.0201 -0.0841
 6757SOL    HW231908   3.207   3.923  11.503  0.9430 -0.1886  1.0730
 6758SOL     OW31909   4.532   1.656  16.240  0.1447 -0.2240  0.0115
 6758SOL    HW131910   4.526   1.668  16.335 -0.6101 -1.2349  0.0911
 6758SOL    HW231911   4.441   1.655  16.209  0.8172 -1.6684 -1.9489
 6759SOL     OW31912   0.645   1.681   6.939  0.0538  0.2860 -0.2012
 6759SOL    HW131913   0.704   1.637   7.002  0.8336 -2.2997 -2.7325
 6759SOL    HW231914   0.671   1.771   6.960 -1.0611  0.3691  0.8122
 6760SOL     OW31915   4.306   3.624   8.566  0.0805 -0.0308 -0.0787
 6760SOL    HW131916   4.325   3.534   8.591 -0.0073 -0.8288 -2.8861
 6760SOL    HW231917   4.393   3.651   8.538  0.5374  0.4533  1.7651
 6761SOL     OW31918   4.071   0.250   8.369 -0.4935 -0.2152  0.5156
 6761SOL    HW131919   4.111   0.169   8.337  0.1239 -0.7309  2.6085
 6761SOL    HW231920   4.088   0.254   8.463 -1.4222 -0.7157  0.7086
 6762SOL     OW31921   1.172   2.156  16.053 -0.0071  0.1981 -0.7472
 6762SOL    HW131922   1.119   2.235  16.067 -2.0050 -1.0830 -1.0040
 6762SOL    HW231923   1.130   2.094  16.114  0.6403  1.1895  0.7081
 6763SOL     OW31924   0.735   0.086   3.372  0.5676 -0.2400  0.5506
 6763SOL    HW131925   0.793   0.010   3.370 -0.2042 -0.8131 -0.4910
 6763SOL    HW231926   0.797   0.149   3.335 -1.8283  2.2798  0.7657
 6764SOL     OW31927   4.238   3.609   4.046  0.0851 -0.3676 -0.3814
 6764SOL    HW131928   4.246   3.514   4.047 -1.3370 -0.4819 -0.0813
 6764SOL    HW231929   4.180   3.617   3.970  0.9296 -0.6292 -1.0518
 6765SOL     OW31930   1.732   0.710   5.132 -0.4187 -0.6251  0.0384
 6765SOL    HW131931   1.765   0.639   5.076  1.5636  0.3257 -0.0156
 6765SOL    HW231932   1.759   0.688   5.221 -0.5069 -2.1868 -0.3268
 6766SOL     OW31933   4.691   3.286   8.400 -0.2908  0.1914  0.3110
 6766SOL    HW131934   0.007   3.250   8.476 -0.1930  1.1483  0.7070
 6766SOL    HW231935   4.703   3.381   8.407  0.9296  0.0016  0.7857
 6767SOL     OW31936   4.590   3.536   5.894 -0.0167 -0.3062 -0.1274
 6767SOL    HW131937   4.679   3.550   5.927 -0.4393 -0.6346  1.1442
 6767SOL    HW231938   4.597   3.508   5.802 -1.6916  0.5659 -0.5264
 6768SOL     OW31939   1.965   2.235   4.578  0.0316 -0.4447  0.2867
 6768SOL    HW131940   1.986   2.270   4.491 -1.3249  1.1649  0.5955
 6768SOL    HW231941   1.962   2.139   4.575  0.5654 -0.4436 -0.2841
 6769SOL     OW31942   2.860   1.133   5.177 -0.6821  0.1140  0.0457
 6769SOL    HW131943   2.793   1.151   5.243 -0.8720 -1.2259  0.2320
 6769SOL    HW231944   2.900   1.062   5.228  0.6561  0.8468 -0.0034
 6770SOL     OW31945   3.821   0.827  13.628  0.2641 -0.1466  0.9519
 6770SOL    HW131946   3.856   0.841  13.540 -3.0513  0.2678 -0.2890
 6770SOL    HW231947   3.898   0.789  13.671  1.3678 -0.4141 -1.2940
 6771SOL     OW31948   2.722   4.040   6.812  0.3092 -0.0957  0.3348
 6771SOL    HW131949   2.767   3.956   6.825 -0.1500 -0.3006  0.6130
 6771SOL    HW231950   2.645   4.034   6.868  0.8975 -0.5195  1.0926
 6772SOL     OW31951   3.288   2.715   3.432 -0.4249 -0.4712 -0.0332
 6772SOL    HW131952   3.290   2.810   3.445  0.0816 -0.3600 -0.9492
 6772SOL    HW231953   3.235   2.695   3.509 -1.2414  2.5031  0.1867
 6773SOL     OW31954   2.799   3.588   6.174 -0.0753 -0.3908 -0.7057
 6773SOL    HW131955   2.831   3.592   6.084  2.1752  3.1899  0.2437
 6773SOL    HW231956   2.815   3.677   6.207 -0.1429 -0.3619 -0.7520
 6774SOL     OW31957   0.558   2.745   4.989  0.2922  0.8703  0.2110
 6774SOL    HW131958   0.631   2.697   5.027  1.6614  1.3886 -1.7614
 6774SOL    HW231959   0.516   2.769   5.072  0.4321 -0.5483  0.6814
 6775SOL     OW31960   4.201   3.485   8.132 -0.3084  0.3103 -0.1332
 6775SOL    HW131961   4.227   3.432   8.208 -1.0231 -0.0949 -0.1794
 6775SOL    HW231962   4.273   3.463   8.073 -0.5341  1.5813 -0.8709
 6776SOL     OW31963   2.925   1.425  17.097  0.4702  0.9814 -0.3644
 6776SOL    HW131964   2.896   1.498  17.043  0.1279 -0.0690 -1.5947
 6776SOL    HW231965   2.989   1.470  17.153  0.1982  1.2170 -0.2403
 6777SOL     OW31966   3.823   3.713  11.620 -0.3498 -0.1771 -0.3987
 6777SOL    HW131967   3.797   3.639  11.675  0.6569  0.4323  0.9219
 6777SOL    HW231968   3.891   3.676  11.563 -0.7260 -2.0290  0.3452
 6778SOL     OW31969   2.654   3.541  10.052 -0.3358 -0.2969 -0.2267
 6778SOL    HW131970   2.649   3.598   9.975  0.4650 -0.6915 -0.5695
 6778SOL    HW231971   2.623   3.458  10.015  2.3862 -2.5263  2.5375
 6779SOL     OW31972   0.937   1.983   3.821 -0.1040 -0.6715  0.0875
 6779SOL    HW131973   1.033   1.977   3.816 -0.0509 -1.0190  1.6389
 6779SOL    HW231974   0.932   2.005   3.914  1.2420  0.0014  0.0030
 6780SOL     OW31975   2.668   3.684   0.199  0.2370 -0.4111 -0.3381
 6780SOL    HW131976   2.617   3.667   0.279  0.8771 -1.7288 -0.2067
 6780SOL    HW231977   2.750   3.640   0.218  1.3459  1.4384 -0.8987
 6781SOL     OW31978   3.191   3.253   6.455 -0.6397 -0.1657  0.6034
 6781SOL    HW131979   3.163   3.287   6.370  2.3824 -1.4173 -0.9044
 6781SOL    HW231980   3.256   3.317   6.485 -1.5662 -0.0567  2.3044
 6782SOL     OW31981   4.444   2.640  10.201  0.1270 -0.3577 -0.5354
 6782SOL    HW131982   4.520   2.620  10.255  1.2164  2.1530 -1.1763
 6782SOL    HW231983   4.485   2.690  10.131  0.3420 -0.7763 -0.7055
 6783SOL     OW31984   1.374   3.436   6.738  0.0697  0.2829  0.5080
 6783SOL    HW131985   1.331   3.434   6.823 -1.7258 -3.9507 -0.4640
 6783SOL    HW231986   1.366   3.341   6.724 -0.8635  0.6682 -1.5651
 6784SOL     OW31987   2.891   2.161  12.850 -0.3376 -0.3400  0.0886
 6784SOL    HW131988   2.881   2.257  12.855 -1.6130 -0.3327 -2.7519
 6784SOL    HW231989   2.986   2.152  12.843 -0.5785 -0.2512 -3.1726
 6785SOL     OW31990   1.873   0.551   1.198 -0.0201  0.3457 -0.6104
 6785SOL    HW131991   1.840   0.609   1.129 -1.6226 -0.9552 -0.9418
 6785SOL    HW231992   1.896   0.473   1.148  0.8683 -0.8033  1.5505
 6786SOL     OW31993   0.374   2.234   1.133  0.3856 -0.0855 -0.1883
 6786SOL    HW131994   0.375   2.313   1.187 -0.9449 -0.2214  0.0394
 6786SOL    HW231995   0.307   2.270   1.074  0.4566 -0.5610 -0.5549
 6787SOL     OW31996   2.817   2.278   9.093 -0.3278 -0.1993  0.2634
 6787SOL    HW131997   2.754   2.211   9.065  0.3291 -0.3793 -0.7992
 6787SOL    HW231998   2.859   2.298   9.009  0.5419  0.4754  0.8580
 6788SOL     OW31999   2.316   2.460  15.840 -0.4140 -0.4830 -0.1876
 6788SOL    HW132000   2.405   2.460  15.875  0.4129  1.8715 -2.3941
 6788SOL    HW232001   2.266   2.461  15.922  2.3121  1.3296  1.4298
 6789SOL     OW32002   2.963   3.021  17.247 -0.4976 -0.3151  0.0779
 6789SOL    HW132003   2.889   3.026  17.186 -0.1496 -0.9751 -0.3993
 6789SOL    HW232004   3.031   3.050  17.186 -0.1155 -0.3426  0.4978
 6790SOL     OW32005   2.777   0.749  14.352  0.3267  0.4204  0.0659
 6790SOL    HW132006   2.733   0.680  14.402  0.6345 -0.2406 -0.5735
 6790SOL    HW232007   2.719   0.758  14.276 -0.0816  0.0427  0.3258
 6791SOL     OW32008   1.742   4.545  15.261 -0.0507  0.4023 -0.2309
 6791SOL    HW132009   1.677   4.519  15.197 -0.3227  0.5607 -0.0190
 6791SOL    HW232010   1.704   4.628  15.291 -1.2297 -0.5637  0.9493
 6792SOL     OW32011   1.656   0.452   1.969 -0.0624  0.4759  0.7484
 6792SOL    HW132012   1.740   0.482   1.933  1.4472 -2.6203  1.7004
 6792SOL    HW232013   1.643   0.528   2.027  0.6698  1.6587 -0.6294
 6793SOL     OW32014   4.394   2.772   5.934 -0.0046 -0.2241  0.1639
 6793SOL    HW132015   4.359   2.741   5.851  0.1176 -1.2424  0.4834
 6793SOL    HW232016   4.483   2.801   5.913  0.3015 -1.0089  0.3737
 6794SOL     OW32017   1.373   3.918   3.618 -0.0926  0.3151  0.2842
 6794SOL    HW132018   1.406   3.832   3.645  1.8741  0.9538 -0.1038
 6794SOL    HW232019   1.450   3.968   3.591  0.2580 -1.2289 -1.5357
 6795SOL     OW32020   2.562   1.713   8.161  0.7753 -0.3231  0.1843
 6795SOL    HW132021   2.593   1.696   8.249 -0.8084  1.1376  1.0188
 6795SOL    HW232022   2.547   1.806   8.179  0.2396 -0.4193  0.2386
 6796SOL     OW32023   3.162   0.578   4.568  0.1748 -1.0176 -0.2456
 6796SOL    HW132024   3.092   0.514   4.569  1.3292 -2.2898 -1.5574
 6796SOL    HW232025   3.151   0.631   4.647 -1.6161  0.1232 -1.2437
 6797SOL     OW32026   0.765   0.439  10.599  0.0830 -0.4535 -0.0722
 6797SOL    HW132027   0.752   0.348  10.571  0.3860 -1.4952  3.1437
 6797SOL    HW232028   0.691   0.448  10.659  0.0683 -3.5575  0.3896
 6798SOL     OW32029   2.679   4.571  15.873 -0.2099  0.8674 -0.0906
 6798SOL    HW132030   2.718   4.634  15.813 -0.2185  1.3281  0.3898
 6798SOL    HW232031   2.744   4.501  15.861 -1.2068 -0.2278  0.9323
 6799SOL     OW32032   2.112   3.149  10.170  0.0511  0.0002 -0.1248
 6799SOL    HW132033   2.117   3.223  10.231  0.8127  0.5659 -0.8746
 6799SOL    HW232034   2.187   3.170  10.114  0.0260 -1.6918 -0.7932
 6800SOL     OW32035   2.307   2.445   5.589  0.0123  0.1481  0.3070
 6800SOL    HW132036   2.258   2.521   5.558 -3.4021 -2.9791 -1.9392
 6800SOL    HW232037   2.237   2.381   5.600  0.6735 -0.5782  0.2169
 6801SOL     OW32038   3.337   2.791   5.641 -0.6272  0.1209  0.2552
 6801SOL    HW132039   3.411   2.795   5.701 -0.1527 -2.8472 -0.1234
 6801SOL    HW232040   3.272   2.842   5.689  0.8236  1.9187  0.3498
 6802SOL     OW32041   0.509   2.412   6.493 -0.3208  0.2653  0.0809
 6802SOL    HW132042   0.546   2.422   6.406  0.3793  0.7782  0.4304
 6802SOL    HW232043   0.503   2.504   6.521  0.8626  0.8093 -1.4344
 6803SOL     OW32044   1.341   3.434   6.043  0.2113  0.7581 -0.4982
 6803SOL    HW132045   1.312   3.482   6.120 -0.6458  2.3459 -1.8171
 6803SOL    HW232046   1.298   3.352   6.068 -0.4216  1.5428  0.9908
 6804SOL     OW32047   0.043   1.363   2.131 -0.0530 -0.0838 -0.5534
 6804SOL    HW132048   4.678   1.380   2.132 -0.3420 -1.6062 -1.7454
 6804SOL    HW232049   0.075   1.411   2.054  0.6470 -0.6662 -0.6266
 6805SOL     OW32050   1.513   1.132   7.709  0.5399  0.2412  0.1481
 6805SOL    HW132051   1.433   1.097   7.747 -0.7766  1.0282 -1.9141
 6805SOL    HW232052   1.470   1.197   7.653 -2.6564 -1.7502  0.3135
 6806SOL     OW32053   4.229   2.383  14.668 -0.9669  0.0780 -0.0891
 6806SOL    HW132054   4.225   2.357  14.760 -2.1747 -0.2386 -0.2257
 6806SOL    HW232055   4.141   2.417  14.654 -0.8666  0.8923  1.2960
 6807SOL     OW32056   3.918   3.532  13.791 -0.7669 -0.6342  0.2931
 6807SOL    HW132057   3.940   3.531  13.698 -2.9610  1.2230 -0.2702
 6807SOL    HW232058   3.846   3.470  13.801 -0.0333 -1.8343 -1.8614
 6808SOL     OW32059   0.410   1.140   3.286 -0.6291  0.4978  0.2068
 6808SOL    HW132060   0.502   1.133   3.263 -0.8988 -3.2775  0.3227
 6808SOL    HW232061   0.361   1.096   3.217 -0.2109 -0.8867  0.8042
 6809SOL     OW32062   3.437   0.693  10.479  0.2946  0.7431  0.1344
 6809SOL    HW132063   3.468   0.603  10.484 -2.1027 -0.2018 -2.0033
 6809SOL    HW232064   3.363   0.681  10.420  1.9609 -2.7319 -1.2627
 6810SOL     OW32065   0.081   1.309   5.844  0.1628  0.4543  0.0893
 6810SOL    HW132066   0.053   1.305   5.752 -0.5633 -4.9644  0.5579
 6810SOL    HW232067   0.005   1.352   5.882  0.3880  0.4367  0.5506
 6811SOL     OW32068   1.672   3.995   6.185 -0.3529 -0.1266 -0.0246
 6811SOL    HW132069   1.679   3.994   6.280 -0.9885 -0.8699  0.0118
 6811SOL    HW232070   1.744   4.053   6.159 -1.5589  0.7115 -1.5001
 6812SOL     OW32071   1.926   3.882   4.264 -0.3612 -0.6000  0.1449
 6812SOL    HW132072   2.015   3.865   4.233  0.2358  0.5690  1.2413
 6812SOL    HW232073   1.879   3.801   4.243 -0.1786 -0.6634 -0.0184
 6813SOL     OW32074   1.518   2.690  14.501 -0.1181 -0.0184  0.1926
 6813SOL    HW132075   1.497   2.712  14.592  0.1495 -1.0167  0.4988
 6813SOL    HW232076   1.613   2.685  14.511 -0.1404  0.3526  0.5897
 6814SOL     OW32077   2.470   3.496  14.001  0.5547 -0.1697 -0.2961
 6814SOL    HW132078   2.392   3.455  14.039 -0.0532  1.5649  0.3671
 6814SOL    HW232079   2.440   3.493  13.910  1.1618  1.7251 -0.5568
 6815SOL     OW32080   4.401   2.884  13.051 -0.1991  0.0256 -0.1410
 6815SOL    HW132081   4.320   2.892  13.001 -1.4737  0.0814  1.9035
 6815SOL    HW232082   4.365   2.864  13.138 -0.1605  0.1208 -0.1033
 6816SOL     OW32083   2.886   4.240   1.330 -0.8263 -0.1746 -0.0452
 6816SOL    HW132084   2.800   4.217   1.366 -2.0469  1.4769 -1.9251
 6816SOL    HW232085   2.938   4.204   1.402  0.9372  1.0634 -0.6927
 6817SOL     OW32086   3.909   0.426  14.753 -0.4216 -0.1058 -0.4445
 6817SOL    HW132087   3.869   0.426  14.666  1.0159 -0.6487 -1.1131
 6817SOL    HW232088   3.837   0.456  14.807 -1.6634 -1.1171 -1.5208
 6818SOL     OW32089   2.370   1.993  14.208 -0.3591  0.0130  0.1436
 6818SOL    HW132090   2.351   1.986  14.114  1.3636  0.7380 -0.2644
 6818SOL    HW232091   2.287   1.973  14.250  0.9230  0.9061  3.0808
 6819SOL     OW32092   2.418   1.155   2.809 -0.1155 -0.0515 -0.4443
 6819SOL    HW132093   2.373   1.239   2.808 -0.9353 -0.4800 -0.0397
 6819SOL    HW232094   2.371   1.104   2.743  0.0613 -0.4090 -0.2925
 6820SOL     OW32095   2.898   3.430   2.860  0.3393  0.0150  0.4849
 6820SOL    HW132096   2.957   3.411   2.934  0.6262  1.9827  0.7510
 6820SOL    HW232097   2.866   3.342   2.837 -3.0312  1.8870 -1.9030
 6821SOL     OW32098   3.815   3.342   8.463  0.1626 -0.5497 -0.2913
 6821SOL    HW132099   3.820   3.358   8.557  0.5739 -2.1147 -0.0364
 6821SOL    HW232100   3.888   3.286   8.437 -0.0803 -0.1238 -1.9172
 6822SOL     OW32101   0.616   3.960   7.021 -0.4046 -0.1464  0.1601
 6822SOL    HW132102   0.570   3.900   6.962 -1.0203  0.8521 -0.3774
 6822SOL    HW232103   0.551   3.963   7.091  0.6532  1.3050  1.0762
 6823SOL     OW32104   3.589   1.007   6.734  0.2560  0.3197 -0.3254
 6823SOL    HW132105   3.616   0.931   6.786  1.3823  2.2655  1.9481
 6823SOL    HW232106   3.667   1.062   6.737  0.0270  0.7010 -1.6320
 6824SOL     OW32107   0.397   1.369   5.096 -0.0915  0.1915  0.3522
 6824SOL    HW132108   0.375   1.436   5.031  0.1275  1.1878  1.3006
 6824SOL    HW232109   0.360   1.293   5.051  0.2332  0.0100  0.3876
 6825SOL     OW32110   4.726   1.968   6.421  0.1332  0.7565 -0.5823
 6825SOL    HW132111   4.665   1.951   6.492  1.5576 -0.6514  0.2773
 6825SOL    HW232112   4.692   1.909   6.353 -1.0462  1.5554 -0.6928
 6826SOL     OW32113   1.658   4.197  10.043  0.8295 -0.4108  0.1632
 6826SOL    HW132114   1.675   4.144  10.120  1.3822 -0.2424  0.1601
 6826SOL    HW232115   1.608   4.263  10.092  1.7427 -0.5831  1.3140
 6827SOL     OW32116   2.000   0.257   8.102  0.5090 -0.3411  0.5175
 6827SOL    HW132117   2.079   0.234   8.150 -0.2918  0.4804  2.2018
 6827SOL    HW232118   2.008   0.353   8.098 -0.6438 -0.1943  1.9503
 6828SOL     OW32119   4.224   1.658  14.543  0.5754 -0.2925  0.3376
 6828SOL    HW132120   4.170   1.582  14.519  0.5457 -0.8396  2.1612
 6828SOL    HW232121   4.234   1.651  14.638 -3.8513  0.5935  0.8790
 6829SOL     OW32122   1.148   1.908   5.695  0.1882 -0.3753  0.2684
 6829SOL    HW132123   1.066   1.863   5.673 -0.3871  0.6370  0.3088
 6829SOL    HW232124   1.119   2.000   5.693  0.8936 -0.2460 -2.9365
 6830SOL     OW32125   1.197   0.397   5.296  0.6732 -0.1600  0.7613
 6830SOL    HW132126   1.197   0.335   5.369 -1.7680 -2.3791 -1.1068
 6830SOL    HW232127   1.188   0.342   5.219 -1.6106 -1.2954  1.8232
 6831SOL     OW32128   2.064   3.626  12.938  0.2376 -0.0108  0.5094
 6831SOL    HW132129   2.058   3.547  12.990 -1.9963  0.0275  0.3328
 6831SOL    HW232130   2.116   3.681  12.996  0.7922 -1.6343  1.5301
 6832SOL     OW32131   3.479   1.350  14.437  0.2131 -0.3983 -0.3673
 6832SOL    HW132132   3.550   1.405  14.405  1.5997 -0.5373  2.5150
 6832SOL    HW232133   3.467   1.289  14.364 -1.4943  1.2675 -1.4590
 6833SOL     OW32134   1.329   0.983   5.327  0.3432  0.2032  0.0439
 6833SOL    HW132135   1.340   0.918   5.257  2.0077  0.7267 -0.1858
 6833SOL    HW232136   1.241   1.019   5.317  0.6067  0.4481 -1.3967
 6834SOL     OW32137   2.109   4.111   5.845  0.1105 -0.1023 -0.3959
 6834SOL    HW132138   2.200   4.087   5.832  0.1704  0.8287 -1.7066
 6834SOL    HW232139   2.079   4.119   5.754 -2.8731 -0.9629  0.5134
 6835SOL     OW32140   0.251   0.507   5.706 -0.3835 -0.6371 -0.1195
 6835SOL    HW132141   0.293   0.584   5.669 -0.2070 -1.0502 -0.7784
 6835SOL    HW232142   0.214   0.478   5.623 -0.8274 -1.1421  0.2539
 6836SOL     OW32143   1.509   2.088   9.389 -0.1561  0.3393 -0.4057
 6836SOL    HW132144   1.583   2.146   9.367 -0.6422  1.6734  1.5006
 6836SOL    HW232145   1.492   2.125   9.476  0.7751  0.6153 -0.3387
 6837SOL     OW32146   4.169   0.393   1.311 -0.2822  0.0304  0.1250
 6837SOL    HW132147   4.216   0.457   1.363  1.1646 -2.1843  1.5510
 6837SOL    HW232148   4.158   0.443   1.230  0.6698  0.8342  0.4916
 6838SOL     OW32149   1.180   4.077   8.665 -0.0901 -0.8382 -0.2051
 6838SOL    HW132150   1.189   4.102   8.573  2.6566 -1.7669 -0.2012
 6838SOL    HW232151   1.194   3.982   8.670  3.5674 -0.4603 -3.3173
 6839SOL     OW32152   4.353   0.201   3.745  0.4360 -0.5169 -0.3977
 6839SOL    HW132153   4.302   0.274   3.779  0.7300  0.0926 -1.2763
 6839SOL    HW232154   4.355   0.147   3.824  1.0959  0.2612  0.1128
 6840SOL     OW32155   3.030   3.104   8.910  0.0111  0.4996  0.0324
 6840SOL    HW132156   3.119   3.070   8.912 -0.9706 -1.9443  1.9254
 6840SOL    HW232157   2.978   3.024   8.902 -1.3389  1.3890 -0.2371
 6841SOL     OW32158   1.159   3.908   3.987 -0.2492 -0.4525  0.4189
 6841SOL    HW132159   1.153   3.993   3.942 -1.6763 -1.5409 -1.4337
 6841SOL    HW232160   1.254   3.904   3.993 -0.3359 -0.4927  1.8950
 6842SOL     OW32161   2.552   3.068   0.738  0.3198 -0.0956  0.0444
 6842SOL    HW132162   2.603   3.032   0.666  0.7450  1.3438 -0.3622
 6842SOL    HW232163   2.554   3.001   0.807  0.4452 -1.3771 -1.2062
 6843SOL     OW32164   4.136   2.102  17.549 -0.2009 -0.1569 -0.0377
 6843SOL    HW132165   4.053   2.137  17.517 -2.1582 -2.4120  2.6509
 6843SOL    HW232166   4.106   2.077  17.636  1.6747  0.0585  0.6867
 6844SOL     OW32167   2.532   0.584   9.749  0.2769 -0.2764 -0.0460
 6844SOL    HW132168   2.496   0.591   9.660 -1.8302 -0.8641  0.7702
 6844SOL    HW232169   2.512   0.494   9.774 -0.5272  0.5900  2.3848
 6845SOL     OW32170   1.151   0.976   3.279 -0.4640 -0.0449  0.7045
 6845SOL    HW132171   1.134   1.033   3.204  0.6721  0.0858  0.5487
 6845SOL    HW232172   1.232   1.021   3.304 -0.2579  0.9443 -1.6762
 6846SOL     OW32173   3.587   0.760  14.786 -0.0607 -0.3010 -0.6649
 6846SOL    HW132174   3.505   0.743  14.740 -1.0745 -0.8598  1.3558
 6846SOL    HW232175   3.591   0.854  14.767  1.5386 -0.2211  0.1080
 6847SOL     OW32176   2.210   2.894   1.753  0.3319  0.4265  0.6305
 6847SOL    HW132177   2.201   2.987   1.734  1.4469  0.7005  1.4176
 6847SOL    HW232178   2.221   2.900   1.848  1.0861  0.8055  0.5220
 6848SOL     OW32179   3.831   2.130   2.436 -0.1143 -0.0639  0.5944
 6848SOL    HW132180   3.764   2.171   2.491 -1.2134 -1.6739  0.4474
 6848SOL    HW232181   3.882   2.205   2.406  1.7602 -0.8606  1.8329
 6849SOL     OW32182   1.477   1.970   7.913 -0.4341 -0.0538 -0.0981
 6849SOL    HW132183   1.524   2.052   7.921  1.0098 -1.0128  1.3097
 6849SOL    HW232184   1.542   1.915   7.957  1.7111  2.8174  0.2707
 6850SOL     OW32185   1.557   2.346  10.402 -0.6938  0.2550 -0.0751
 6850SOL    HW132186   1.565   2.441  10.398  2.6316 -0.0385 -0.1498
 6850SOL    HW232187   1.485   2.321  10.343 -0.4791  1.4921 -0.8395
 6851SOL     OW32188   2.054   2.251   7.692  0.1692 -0.3365  0.0986
 6851SOL    HW132189   2.145   2.244   7.719 -0.0255  3.3423  1.7078
 6851SOL    HW232190   2.013   2.233   7.777 -1.4987  0.7604 -0.4851
 6852SOL     OW32191   4.121   3.567   1.400  0.3848  0.3171  0.0800
 6852SOL    HW132192   4.085   3.648   1.363 -3.4685 -1.8142 -0.8250
 6852SOL    HW232193   4.087   3.562   1.489 -0.3994 -1.8301 -0.3519
 6853SOL     OW32194   1.008   0.281  12.941  0.0452 -0.3865 -0.2926
 6853SOL    HW132195   0.928   0.236  12.967 -0.3728  0.1431 -0.6618
 6853SOL    HW232196   0.968   0.361  12.905 -1.1563 -0.3267  1.1710
 6854SOL     OW32197   1.667   0.402   3.488 -0.7297  0.2264  0.4905
 6854SOL    HW132198   1.699   0.490   3.502 -1.9848  0.5289  1.4071
 6854SOL    HW232199   1.572   0.409   3.479 -0.5699  2.5681  0.7094
 6855SOL     OW32200   3.511   1.873   5.278  0.0247  0.4030  0.0558
 6855SOL    HW132201   3.423   1.860   5.245  0.3511  1.0212 -1.0555
 6855SOL    HW232202   3.546   1.790   5.244  0.7709 -0.2255  2.3593
 6856SOL     OW32203   3.753   4.340   9.993  0.0748 -0.1019 -0.0443
 6856SOL    HW132204   3.706   4.414  10.029 -3.0823 -2.5132  0.7658
 6856SOL    HW232205   3.688   4.279   9.957 -0.7607 -0.0095  1.3277
 6857SOL     OW32206   1.422   3.122   0.930  0.2196 -0.0546  0.2032
 6857SOL    HW132207   1.355   3.081   0.874  1.5570 -1.3335 -0.4922
 6857SOL    HW232208   1.470   3.170   0.862 -0.5105 -0.0529 -0.3116
 6858SOL     OW32209   2.175   2.632   7.536 -0.1368  0.2280 -0.3265
 6858SOL    HW132210   2.105   2.693   7.515  0.4377  0.6784 -0.9346
 6858SOL    HW232211   2.220   2.685   7.602 -0.9253  0.3483  0.1119
 6859SOL     OW32212   4.391   4.240   1.387 -0.2064 -0.0970  0.0096
 6859SOL    HW132213   4.331   4.193   1.445 -2.2696 -1.1577 -2.9789
 6859SOL    HW232214   4.477   4.202   1.406 -0.5730 -0.2058  1.4697
 6860SOL     OW32215   1.190   3.941  12.503 -0.1584  0.0669 -0.8816
 6860SOL    HW132216   1.235   3.857  12.492  2.4251  1.3604 -0.0709
 6860SOL    HW232217   1.254   4.005  12.473  0.7371 -0.2656  0.3322
 6861SOL     OW32218   4.110   2.097   0.602 -0.1871 -0.1767  0.4498
 6861SOL    HW132219   4.202   2.100   0.627  0.3964  0.4441 -1.7524
 6861SOL    HW232220   4.102   2.169   0.539 -0.0688 -1.4422 -1.0141
 6862SOL     OW32221   4.681   3.347   3.012 -0.2212 -0.0497 -0.2626
 6862SOL    HW132222   4.647   3.406   2.944 -0.0450  0.5409  0.1535
 6862SOL    HW232223   0.037   3.324   2.976 -0.7072  0.2360 -1.5791
 6863SOL     OW32224   3.201   1.530  11.466  0.1856 -0.6052  0.2618
 6863SOL    HW132225   3.142   1.601  11.491 -0.5140 -1.0474 -0.1521
 6863SOL    HW232226   3.213   1.473  11.542 -0.7904  1.7362  2.1878
 6864SOL     OW32227   2.420   1.086   1.496 -0.1304 -0.1508 -0.5640
 6864SOL    HW132228   2.394   1.177   1.481 -0.4081 -0.2951 -0.9672
 6864SOL    HW232229   2.501   1.097   1.546 -0.6392  0.2526  0.1641
 6865SOL     OW32230   2.427   3.468   4.904 -0.3850  0.0611  0.6167
 6865SOL    HW132231   2.361   3.421   4.955  1.1848 -2.6556  0.1793
 6865SOL    HW232232   2.466   3.531   4.965  1.4518  1.5705 -2.1206
 6866SOL     OW32233   4.649   0.501  13.436  0.3058 -0.2078 -0.1379
 6866SOL    HW132234   4.709   0.457  13.495  1.9320  0.1096 -1.5429
 6866SOL    HW232235   4.701   0.524  13.359  0.7855 -0.1383  0.2052
 6867SOL     OW32236   0.706   3.682   3.576  0.2976  0.1145  0.5114
 6867SOL    HW132237   0.664   3.691   3.491  0.6161  3.9626  0.7391
 6867SOL    HW232238   0.686   3.592   3.600 -0.5459 -0.3079 -1.7657
 6868SOL     OW32239   3.516   3.961   8.077  0.2058  0.2178  0.0819
 6868SOL    HW132240   3.580   3.965   8.148  0.4525 -1.0914 -0.0793
 6868SOL    HW232241   3.529   3.887   8.018 -1.3427 -0.1484  0.2009
 6869SOL     OW32242   2.136   2.066   4.356 -0.1476  0.2289 -0.4404
 6869SOL    HW132243   2.121   2.152   4.317  0.1884  0.4289 -0.1257
 6869SOL    HW232244   2.223   2.076   4.395  0.3127 -1.0931 -1.1359
 6870SOL     OW32245   3.947   1.660  15.584  0.5572 -0.1143 -0.2199
 6870SOL    HW132246   3.883   1.689  15.648  2.0837  1.4291  0.6167
 6870SOL    HW232247   3.966   1.570  15.614 -0.6295  0.5957  2.6721
 6871SOL     OW32248   2.498   2.476   1.764 -0.1377  0.5501 -0.1248
 6871SOL    HW132249   2.435   2.528   1.814 -1.5402 -1.1997 -0.0374
 6871SOL    HW232250   2.441   2.438   1.696  0.5842 -1.4651  0.4173
 6872SOL     OW32251   2.410   2.119   6.569  0.5138 -0.1874 -0.1371
 6872SOL    HW132252   2.371   2.063   6.636  1.0352  0.6738  0.8959
 6872SOL    HW232253   2.342   2.184   6.550  0.8946  0.5121  0.8639
 6873SOL     OW32254   2.549   3.785   4.901 -0.3029 -0.6957  0.2231
 6873SOL    HW132255   2.558   3.783   4.806  1.4213  2.9339  0.3107
 6873SOL    HW232256   2.617   3.719   4.919 -0.4951 -0.7732  0.6602
 6874SOL     OW32257   0.092   0.843   2.448 -0.2007  0.2454 -0.1017
 6874SOL    HW132258   0.049   0.867   2.530  1.2561  3.5218 -0.3015
 6874SOL    HW232259   0.044   0.885   2.376 -0.6127 -1.4517 -0.8094
 6875SOL     OW32260   3.619   2.756   1.989 -0.3244 -0.1869 -0.3657
 6875SOL    HW132261   3.713   2.770   1.993 -0.1165 -1.0047 -2.5396
 6875SOL    HW232262   3.599   2.767   1.896  1.4935  0.8768 -0.6318
 6876SOL     OW32263   4.188   0.389   4.168 -0.1708 -0.3736  0.2762
 6876SOL    HW132264   4.180   0.468   4.222 -1.1141 -0.3751  0.1465
 6876SOL    HW232265   4.124   0.400   4.098  1.4766  3.0608 -0.6683
 6877SOL     OW32266   2.930   0.159   4.186  0.1205  0.2865  0.2494
 6877SOL    HW132267   2.864   0.110   4.138  0.8587 -0.6394  0.1863
 6877SOL    HW232268   3.009   0.129   4.141  0.1880  2.0264 -0.8201
 6878SOL     OW32269   4.482   3.725  14.575 -0.4076 -0.1311  0.0090
 6878SOL    HW132270   4.505   3.814  14.548  0.0519 -1.2365 -3.2598
 6878SOL    HW232271   4.550   3.713  14.641  0.6754 -2.0181 -1.4493
 6879SOL     OW32272   0.893   2.011  16.821  0.0066 -0.3524 -0.2203
 6879SOL    HW132273   0.842   1.932  16.800 -1.6816  0.7269 -0.1633
 6879SOL    HW232274   0.833   2.065  16.872  0.1242 -1.0026  0.6222
 6880SOL     OW32275   0.697   2.979  13.063 -0.2606  0.2509 -0.6926
 6880SOL    HW132276   0.630   3.005  13.126  0.9570  3.0596 -0.5525
 6880SOL    HW232277   0.780   3.013  13.097 -1.3472  0.7829  1.4482
 6881SOL     OW32278   4.224   4.386   2.032 -0.4282  0.3495 -0.0645
 6881SOL    HW132279   4.303   4.381   2.086 -0.7816 -0.7480  0.3647
 6881SOL    HW232280   4.241   4.452   1.965 -2.4852  2.4800  1.4961
 6882SOL     OW32281   2.430   2.088  11.506  0.3517 -0.0220  0.1299
 6882SOL    HW132282   2.380   2.105  11.586  1.0794  1.6869  0.2277
 6882SOL    HW232283   2.503   2.045  11.550 -1.2407 -2.0776  0.7983
 6883SOL     OW32284   2.513   4.202   7.743  0.1993  0.3154 -0.7727
 6883SOL    HW132285   2.563   4.134   7.787 -1.0875  0.7562  1.3565
 6883SOL    HW232286   2.434   4.200   7.797  0.1462 -1.6745 -0.9055
 6884SOL     OW32287   3.636   0.045   7.933 -0.3505  0.1571 -0.6358
 6884SOL    HW132288   3.663   4.715   7.863  0.0335  3.2018 -3.0677
 6884SOL    HW232289   3.570   4.714   7.969 -0.1093  0.9760  1.1889
 6885SOL     OW32290   1.852   3.385   5.346 -0.6207  0.7055 -0.1533
 6885SOL    HW132291   1.780   3.358   5.289 -0.5676  0.6784 -0.2068
 6885SOL    HW232292   1.888   3.312   5.396 -2.4181 -0.7308 -0.9393
 6886SOL     OW32293   4.684   2.747   6.223 -0.0318 -0.1117 -0.7105
 6886SOL    HW132294   0.025   2.700   6.268 -2.0559 -1.7242  0.7670
 6886SOL    HW232295   4.708   2.730   6.132  1.7513  1.4527 -0.5500
 6887SOL     OW32296   4.062   1.852  10.731  0.1116  0.3888  0.5966
 6887SOL    HW132297   4.044   1.832  10.823 -1.7452 -0.4886  0.0397
 6887SOL    HW232298   3.977   1.880  10.696 -0.5000 -2.5811 -0.2624
 6888SOL     OW32299   2.000   4.661   8.404 -0.3823 -0.0949 -0.4552
 6888SOL    HW132300   2.012   4.567   8.391 -0.0753  0.0283 -1.0690
 6888SOL    HW232301   1.966   4.674   8.315  0.6377  0.5648 -0.7486
 6889SOL     OW32302   3.941   0.708   8.194  0.0532  0.3296  0.1810
 6889SOL    HW132303   4.008   0.760   8.240 -1.8778  0.4638  2.8589
 6889SOL    HW232304   3.986   0.628   8.222 -2.1641 -0.6142  1.0587
 6890SOL     OW32305   1.055   0.676   8.589  0.5563 -0.3165  0.4995
 6890SOL    HW132306   1.061   0.650   8.497 -1.1203  1.9594 -0.2289
 6890SOL    HW232307   1.142   0.714   8.600  0.3368  0.2484  0.2372
 6891SOL     OW32308   4.153   3.955   4.372  0.1940 -0.4095  0.5736
 6891SOL    HW132309   4.237   3.923   4.338 -0.0088  1.2285 -1.4950
 6891SOL    HW232310   4.157   3.911   4.457  0.2303  1.0524  1.3305
 6892SOL     OW32311   2.978   0.700   3.701  0.1292 -0.0237 -0.1238
 6892SOL    HW132312   2.927   0.674   3.625  0.8785 -1.2489 -0.2207
 6892SOL    HW232313   2.961   0.793   3.709 -0.5669 -0.3543  2.2889
 6893SOL     OW32314   0.692   4.111   4.244  0.3368  0.0531 -0.3055
 6893SOL    HW132315   0.708   4.187   4.299  0.2129  0.8345 -1.3413
 6893SOL    HW232316   0.772   4.062   4.262  0.6311  1.1652  1.4405
 6894SOL     OW32317   3.468   1.376  15.636  0.6606 -0.2024 -0.0730
 6894SOL    HW132318   3.485   1.450  15.693  1.8024 -1.7699  1.6229
 6894SOL    HW232319   3.514   1.303  15.678  0.1003 -0.8735 -0.6140
 6895SOL     OW32320   2.592   4.600   7.145 -0.0523 -0.3866  0.0383
 6895SOL    HW132321   2.650   4.669   7.112  0.1993 -1.2761 -1.3946
 6895SOL    HW232322   2.589   4.623   7.238 -0.7283  0.8944 -0.3054
 6896SOL     OW32323   0.426   0.442  13.702 -0.6311 -0.0686  0.0370
 6896SOL    HW132324   0.459   0.371  13.759 -1.7973 -0.7038 -0.0716
 6896SOL    HW232325   0.378   0.389  13.639 -1.9533  0.9912  0.1746
 6897SOL     OW32326   3.662   3.925   1.715 -0.0706 -0.4459 -0.1840
 6897SOL    HW132327   3.693   3.970   1.793 -3.3231  0.8892  0.3002
 6897SOL    HW232328   3.676   3.981   1.639  0.3345  0.2032  0.3715
 6898SOL     OW32329   2.786   0.255   5.676  0.2499  0.3512  0.7150
 6898SOL    HW132330   2.756   0.245   5.766 -0.3865  0.4143  0.5105
 6898SOL    HW232331   2.847   0.328   5.688  0.6318  0.4083 -1.6438
 6899SOL     OW32332   0.391   1.678   8.864 -0.1795  0.2945 -0.6070
 6899SOL    HW132333   0.366   1.590   8.891 -0.0720  0.7444  0.9838
 6899SOL    HW232334   0.305   1.721   8.862  0.7907  2.2080 -0.8089
 6900SOL     OW32335   2.133   0.192   6.312 -0.5196 -0.0438  0.4884
 6900SOL    HW132336   2.184   0.153   6.383  0.2753  1.2221  0.6286
 6900SOL    HW232337   2.177   0.277   6.317  2.0430 -1.3515  0.3277
 6901SOL     OW32338   2.975   3.633   2.288  0.1655 -0.2202  0.2496
 6901SOL    HW132339   3.043   3.617   2.353  2.9580  0.2177 -2.5695
 6901SOL    HW232340   2.977   3.728   2.293 -0.1843 -0.2797  1.4669
 6902SOL     OW32341   0.408   2.813   5.208  0.2025  0.2143 -0.2621
 6902SOL    HW132342   0.434   2.800   5.300  1.5976 -1.0167 -0.8230
 6902SOL    HW232343   0.396   2.906   5.192  0.1391 -0.2366 -2.8532
 6903SOL     OW32344   2.696   0.356  15.397 -0.6697 -0.1854  0.3669
 6903SOL    HW132345   2.678   0.443  15.363  1.2898 -0.4708 -1.3996
 6903SOL    HW232346   2.792   0.355  15.402 -0.7087 -4.1564  0.1176
 6904SOL     OW32347   4.305   0.019   3.461 -0.1337 -0.0237 -0.3150
 6904SOL    HW132348   4.268   0.100   3.498  0.2055  0.0883 -0.2263
 6904SOL    HW232349   4.286   4.689   3.534 -0.7347 -0.1860 -0.6016
 6905SOL     OW32350   1.164   2.321   2.040 -0.2753 -0.3304 -0.5290
 6905SOL    HW132351   1.214   2.260   2.093  0.4575 -0.3677 -1.2593
 6905SOL    HW232352   1.212   2.402   2.056 -0.1642  0.1703 -3.3403
 6906SOL     OW32353   1.707   1.112   8.801 -0.4179  0.0506 -0.2730
 6906SOL    HW132354   1.612   1.124   8.802 -0.5158 -0.8304  1.3672
 6906SOL    HW232355   1.717   1.055   8.877 -0.6929 -2.8624 -2.4427
 6907SOL     OW32356   0.205   3.560   0.143 -0.0678  0.8418 -0.3666
 6907SOL    HW132357   0.129   3.598   0.099 -1.6675 -0.7672  1.0233
 6907SOL    HW232358   0.162   3.542   0.226 -0.2261  0.7863 -0.4600
 6908SOL     OW32359   2.336   4.056   5.054  0.3533 -0.0412 -0.1155
 6908SOL    HW132360   2.328   4.139   5.100 -1.5000 -0.3394  0.0986
 6908SOL    HW232361   2.246   4.023   5.055  1.8204 -4.0458 -1.5246
 6909SOL     OW32362   1.245   2.595   1.090  0.1446 -0.1136  0.5670
 6909SOL    HW132363   1.339   2.597   1.071  0.1984 -0.4942  0.8064
 6909SOL    HW232364   1.197   2.595   1.007 -1.7542  0.8164  1.6820
 6910SOL     OW32365   2.833   2.565   2.005 -0.1860  0.5255 -0.1025
 6910SOL    HW132366   2.861   2.653   2.032 -0.6837  0.0501  1.9262
 6910SOL    HW232367   2.818   2.576   1.911 -2.8386  0.2888  0.3135
 6911SOL     OW32368   2.729   2.624   5.008 -0.1674 -0.7340  0.2811
 6911SOL    HW132369   2.739   2.577   5.091 -0.2256 -2.1933 -0.5329
 6911SOL    HW232370   2.633   2.615   5.010 -0.1651 -0.9284 -0.4754
 6912SOL     OW32371   3.211   1.567   8.916 -0.5087 -0.2696  0.3171
 6912SOL    HW132372   3.195   1.476   8.939  0.3094  0.0046  1.9214
 6912SOL    HW232373   3.305   1.573   8.903 -0.7993 -0.0221 -1.7762
 6913SOL     OW32374   0.207   0.650   3.624 -0.2121  0.0188 -0.1348
 6913SOL    HW132375   0.292   0.674   3.586 -0.1610 -1.1520 -0.7570
 6913SOL    HW232376   0.151   0.669   3.549  1.9288  0.6177 -1.5695
 6914SOL     OW32377   4.609   1.792   3.557  0.6103 -0.1823 -0.1813
 6914SOL    HW132378   4.649   1.707   3.537  1.1019 -0.1504  0.7046
 6914SOL    HW232379   4.582   1.765   3.645  1.0322  0.5737  0.1732
 6915SOL     OW32380   2.417   3.327   4.339  0.1925 -0.4739  0.2785
 6915SOL    HW132381   2.333   3.287   4.363  0.3818 -1.0609 -0.0579
 6915SOL    HW232382   2.405   3.413   4.381 -1.8232  0.0987 -1.4447
 6916SOL     OW32383   1.966   1.462  10.148 -0.2490 -0.9082  0.9288
 6916SOL    HW132384   1.984   1.458  10.054  0.3690  0.4888  0.9813
 6916SOL    HW232385   1.957   1.369  10.169  0.8875 -1.5624 -1.4655
 6917SOL     OW32386   2.715   1.322   8.486  0.0671  0.4431 -0.3817
 6917SOL    HW132387   2.704   1.247   8.429 -0.1549  1.3127 -1.4736
 6917SOL    HW232388   2.712   1.279   8.572  1.5253  3.9858  1.4471
 6918SOL     OW32389   0.278   3.880   5.350  0.3044 -0.6023 -0.0831
 6918SOL    HW132390   0.284   3.826   5.272 -1.3100  0.5336 -1.0004
 6918SOL    HW232391   0.369   3.887   5.377 -0.3727 -0.6724  2.2244
 6919SOL     OW32392   0.223   2.643   2.389 -0.1964  0.0655 -0.0631
 6919SOL    HW132393   0.198   2.614   2.477 -1.0666  0.2306 -0.2572
 6919SOL    HW232394   0.147   2.608   2.343 -1.9542  4.2934 -0.3232
 6920SOL     OW32395   4.448   3.770   7.960 -0.1341 -0.1001  0.3666
 6920SOL    HW132396   4.466   3.838   8.025 -1.0856  0.3761  0.1379
 6920SOL    HW232397   4.375   3.719   7.995 -0.4757 -0.0087 -0.2086
 6921SOL     OW32398   3.625   2.517   9.019 -0.4558  0.1054 -0.4707
 6921SOL    HW132399   3.653   2.608   9.007 -1.6588  0.6631  0.9644
 6921SOL    HW232400   3.686   2.482   9.085  0.8055 -4.1597 -3.9624
 6922SOL     OW32401   4.025   0.675   0.752 -0.0271  0.0078  0.8426
 6922SOL    HW132402   4.064   0.591   0.774 -0.3046 -0.5152 -0.6178
 6922SOL    HW232403   4.085   0.735   0.797 -0.0079  0.9245 -0.4005
 6923SOL     OW32404   1.851   0.485   9.043  0.2699  1.0241  0.4548
 6923SOL    HW132405   1.918   0.529   9.095  0.8131  1.0536 -0.2849
 6923SOL    HW232406   1.778   0.490   9.106  3.0890  0.4906  3.7550
 6924SOL     OW32407   2.776   2.818   0.247  0.5268 -0.8907  0.5209
 6924SOL    HW132408   2.807   2.866   0.170 -1.2268  0.5714  0.7440
 6924SOL    HW232409   2.689   2.855   0.252  0.3553 -1.1463 -0.6066
 6925SOL     OW32410   1.975   4.121   3.319  0.1169  0.3538  0.3100
 6925SOL    HW132411   1.970   4.167   3.235 -1.4871 -3.9613 -1.9262
 6925SOL    HW232412   1.937   4.036   3.300  0.2711  0.7550 -1.7259
 6926SOL     OW32413   0.795   1.469   3.534 -0.1061 -0.1350 -0.7473
 6926SOL    HW132414   0.818   1.393   3.586 -1.6473 -1.2702 -1.7145
 6926SOL    HW232415   0.745   1.424   3.466  3.4919 -1.6170 -2.4307
 6927SOL     OW32416   1.840   0.272   8.874 -0.6032  0.4872 -0.3601
 6927SOL    HW132417   1.863   0.353   8.920 -2.7721  1.0012 -0.1488
 6927SOL    HW232418   1.768   0.243   8.931  0.5810 -1.4713  0.1256
 6928SOL     OW32419   4.348   0.007   8.156  0.0237 -0.7218  0.0751
 6928SOL    HW132420   4.422   0.064   8.135 -1.3449  0.5822 -1.1690
 6928SOL    HW232421   4.291   0.022   8.080  0.5849 -0.3962 -0.2853
 6929SOL     OW32422   3.216   4.724   3.385  0.1832  0.2090  0.1966
 6929SOL    HW132423   3.127   0.020   3.362  0.1901  0.7060  0.7027
 6929SOL    HW232424   3.224   0.008   3.480 -2.4794  2.6686  0.0925
 6930SOL     OW32425   0.569   3.601   9.739  0.0095 -0.1772 -0.4332
 6930SOL    HW132426   0.575   3.655   9.818  0.8293  1.5710 -1.6915
 6930SOL    HW232427   0.592   3.515   9.773  1.8811 -0.1868 -1.7424
 6931SOL     OW32428   1.389   3.475   8.171  0.8072  0.1268 -0.0082
 6931SOL    HW132429   1.316   3.468   8.110  0.2665 -2.1702  0.9142
 6931SOL    HW232430   1.341   3.442   8.247  1.8566 -0.2964  0.4679
 6932SOL     OW32431   4.102   0.980   3.000  0.4205 -0.1267  0.6435
 6932SOL    HW132432   4.164   0.914   3.030  0.8313 -0.9322 -1.9826
 6932SOL    HW232433   4.052   0.940   2.929 -0.0246  0.0777  0.8373
 6933SOL     OW32434   1.099   2.913  17.534  0.2962 -0.2982 -0.4408
 6933SOL    HW132435   1.102   2.906  17.439  1.2162 -0.6135 -0.3846
 6933SOL    HW232436   1.087   2.820  17.554  1.5655 -0.6286 -1.2608
 6934SOL     OW32437   2.756   3.975  16.334  0.6142  0.0949  0.6186
 6934SOL    HW132438   2.788   4.045  16.391  1.3473  1.7772 -1.8904
 6934SOL    HW232439   2.667   3.963  16.369  1.1939 -2.8462  1.1031
 6935SOL     OW32440   3.864   4.349   2.726  0.6754 -0.2848 -0.2783
 6935SOL    HW132441   3.876   4.280   2.792  0.4574 -2.4005 -2.4568
 6935SOL    HW232442   3.948   4.392   2.741  0.6820 -0.6761  0.8254
 6936SOL     OW32443   2.919   0.076   6.044 -0.0302  0.1813  0.4891
 6936SOL    HW132444   2.966   0.015   6.100  0.3535  1.6716  1.7820
 6936SOL    HW232445   2.908   0.147   6.108  1.8388 -0.3766  1.3964
 6937SOL     OW32446   4.366   0.624   9.875 -0.1463 -0.2534  0.8570
 6937SOL    HW132447   4.424   0.647   9.803 -0.7746 -2.5139 -0.3560
 6937SOL    HW232448   4.342   0.711   9.907 -1.8527 -0.4953  0.2405
 6938SOL     OW32449   3.111   0.805   2.537  0.4228  0.5109 -0.2479
 6938SOL    HW132450   3.171   0.850   2.597  0.1723 -1.2068  1.2927
 6938SOL    HW232451   3.079   0.873   2.478  1.5571  0.5993 -0.7696
 6939SOL     OW32452   1.398   3.169   6.853  0.2855  0.2015 -0.2177
 6939SOL    HW132453   1.343   3.201   6.925 -0.4395  1.6332 -1.4107
 6939SOL    HW232454   1.452   3.108   6.902  0.4284 -1.6543 -2.7023
 6940SOL     OW32455   3.015   0.048  11.376  0.0353 -0.3310 -0.2356
 6940SOL    HW132456   2.982   0.125  11.328 -1.0774  0.5721  1.9680
 6940SOL    HW232457   2.934   0.025  11.422  0.9656 -3.4268 -0.1960
 6941SOL     OW32458   2.501   0.695   6.545 -0.2660  0.2889  0.1875
 6941SOL    HW132459   2.596   0.686   6.551 -0.2068 -0.7005 -2.1386
 6941SOL    HW232460   2.495   0.663   6.455  1.1439  1.6168 -0.3918
 6942SOL     OW32461   0.746   4.664   7.840  0.2709  0.2096 -0.0303
 6942SOL    HW132462   0.710   4.619   7.764  0.5872 -1.3799  0.7524
 6942SOL    HW232463   0.667   4.707   7.873  0.2724  0.8235 -0.8360
 6943SOL     OW32464   1.016   4.450   9.807  0.2161  0.5878 -0.4521
 6943SOL    HW132465   0.964   4.441   9.887  0.8188  1.6512  0.0615
 6943SOL    HW232466   1.045   4.363   9.782 -3.7960 -0.3935 -1.8157
 6944SOL     OW32467   2.804   2.232   8.431  0.0331 -0.2195 -0.5380
 6944SOL    HW132468   2.894   2.216   8.460  0.0181  1.1670  0.2826
 6944SOL    HW232469   2.773   2.149   8.395 -0.8012  0.2939 -0.9890
 6945SOL     OW32470   1.840   1.181  13.179 -0.3082 -0.7686  0.4749
 6945SOL    HW132471   1.917   1.142  13.220  0.6449  1.4601  0.8044
 6945SOL    HW232472   1.763   1.139  13.217  1.2492 -2.3687  1.8748
 6946SOL     OW32473   1.935   2.163  13.995 -0.1470  0.2394 -0.5357
 6946SOL    HW132474   1.844   2.144  14.018 -0.1336 -0.7954 -1.3037
 6946SOL    HW232475   1.958   2.096  13.930  2.4111  1.3649 -0.7870
 6947SOL     OW32476   3.532   3.084   7.096 -0.1987  0.4320  1.0760
 6947SOL    HW132477   3.516   2.990   7.095  1.5082  0.1910 -1.6844
 6947SOL    HW232478   3.480   3.100   7.176  0.0565  1.4070  1.0437
 6948SOL     OW32479   4.272   0.075   3.208 -0.9779 -0.2868  0.4302
 6948SOL    HW132480   4.356   0.055   3.166 -1.2263 -0.9799  0.2560
 6948SOL    HW232481   4.294   0.051   3.298 -1.2587 -2.2049 -0.0064
 6949SOL     OW32482   2.912   4.235   4.225 -0.3212  0.2824 -0.1904
 6949SOL    HW132483   2.866   4.199   4.301  2.3332 -2.3838  0.1380
 6949SOL    HW232484   2.835   4.238   4.169  0.4606  1.4068 -1.1883
 6950SOL     OW32485   0.274   0.788   6.575 -0.1827  0.6019 -0.2264
 6950SOL    HW132486   0.236   0.779   6.662 -1.8111  2.8050 -0.6999
 6950SOL    HW232487   0.201   0.835   6.535  0.4576  0.7882 -1.1870
 6951SOL     OW32488   3.435   1.480  16.089 -0.2872 -0.0597  0.0823
 6951SOL    HW132489   3.528   1.495  16.078 -0.1586  0.0519  1.3705
 6951SOL    HW232490   3.425   1.400  16.037 -0.6286 -1.4381  2.2655
 6952SOL     OW32491   1.090   0.549   3.988 -0.8502  0.1025 -0.0188
 6952SOL    HW132492   1.143   0.477   3.952 -2.4089 -0.3284 -1.4543
 6952SOL    HW232493   1.141   0.578   4.063  1.3393 -1.2387 -0.9930
 6953SOL     OW32494   4.044   2.217   0.324 -0.7442 -0.3963 -0.2884
 6953SOL    HW132495   4.061   2.306   0.292 -1.1305  0.4912  1.9858
 6953SOL    HW232496   3.972   2.244   0.381 -0.1894 -1.9830  1.1787
 6954SOL     OW32497   2.296   1.624   7.439 -0.1374 -0.0408  0.4540
 6954SOL    HW132498   2.299   1.618   7.535 -0.0938  0.2862  0.4714
 6954SOL    HW232499   2.299   1.716   7.414 -1.0197 -0.4224 -1.0483
 6955SOL     OW32500   0.578   3.411   4.389  0.0430 -0.2044  0.4335
 6955SOL    HW132501   0.617   3.325   4.371  1.2278  0.5243 -0.4553
 6955SOL    HW232502   0.540   3.432   4.303 -1.5305 -0.6264  1.0373
 6956SOL     OW32503   4.576   2.290  16.259  0.9043 -0.0641  0.6851
 6956SOL    HW132504   4.503   2.330  16.306  0.1222  0.5543 -1.0242
 6956SOL    HW232505   4.558   2.198  16.280  1.4035 -0.3946 -0.3081
 6957SOL     OW32506   0.887   2.681   2.972 -0.1034 -0.7406 -0.5744
 6957SOL    HW132507   0.869   2.608   3.031 -1.2183 -0.4978 -0.6148
 6957SOL    HW232508   0.800   2.684   2.934  0.9888  0.7700 -2.9805
 6958SOL     OW32509   2.314   2.250   9.450 -0.4970  0.2785 -0.7233
 6958SOL    HW132510   2.378   2.256   9.521 -0.5668  0.6067 -0.6918
 6958SOL    HW232511   2.269   2.171   9.481  1.0236 -0.5546 -0.6413
 6959SOL     OW32512   3.655   1.066   8.328 -0.3545  0.3432  0.4075
 6959SOL    HW132513   3.564   1.053   8.354 -1.5690  1.6582 -3.0738
 6959SOL    HW232514   3.661   1.019   8.244 -0.1797  3.0541 -1.0945
 6960SOL     OW32515   1.547   4.487   4.827 -0.3384  0.1530  0.2969
 6960SOL    HW132516   1.498   4.425   4.774  0.0092  0.4309 -0.3519
 6960SOL    HW232517   1.522   4.560   4.770 -3.6248 -0.4149  1.0098
 6961SOL     OW32518   3.415   2.839   2.151  0.0992 -0.0341  0.3489
 6961SOL    HW132519   3.451   2.923   2.178  0.4200 -1.0275  3.0412
 6961SOL    HW232520   3.479   2.800   2.093  2.8787  0.3425  3.1503
 6962SOL     OW32521   0.014   0.700   5.634  0.0348 -0.4694 -0.2054
 6962SOL    HW132522   4.682   0.627   5.640 -1.3522  0.7441  0.5112
 6962SOL    HW232523   0.068   0.701   5.713 -2.4748 -1.4873  1.5425
 6963SOL     OW32524   2.028   1.532   3.070  0.1300  0.3225  0.2464
 6963SOL    HW132525   1.936   1.532   3.046  0.4556 -1.8192 -1.0283
 6963SOL    HW232526   2.021   1.563   3.160 -0.6251 -2.1835  1.0454
 6964SOL     OW32527   1.797   2.008   0.467  0.2713  0.0237  0.0390
 6964SOL    HW132528   1.802   2.056   0.384 -2.9621  1.0293  0.4172
 6964SOL    HW232529   1.776   2.082   0.524 -1.9930 -0.6691  0.1136
 6965SOL     OW32530   0.457   1.328   5.595  0.0321 -0.3369 -0.2427
 6965SOL    HW132531   0.494   1.246   5.627 -1.4855 -0.5869  0.8431
 6965SOL    HW232532   0.368   1.297   5.579 -0.5770  0.0654  2.4870
 6966SOL     OW32533   4.045   3.914  10.486  0.8239  0.0071 -0.6765
 6966SOL    HW132534   4.000   3.993  10.516  0.6148  0.4588 -2.1624
 6966SOL    HW232535   4.093   3.897  10.568  1.5640  1.5338 -0.7948
 6967SOL     OW32536   0.725   2.455   2.341  0.0991 -0.1891 -0.3396
 6967SOL    HW132537   0.805   2.429   2.387 -0.1831  0.8392  0.7662
 6967SOL    HW232538   0.725   2.392   2.269 -0.1098  1.0357 -1.4100
 6968SOL     OW32539   0.001   3.123   8.181 -0.5183 -0.0234  0.2538
 6968SOL    HW132540   0.059   3.182   8.132  0.6624  0.0126  1.6997
 6968SOL    HW232541   0.001   3.167   8.265 -0.5397  0.4908 -0.0143
 6969SOL     OW32542   0.159   0.834   1.844  0.1894 -0.4664 -0.2451
 6969SOL    HW132543   0.178   0.747   1.879 -3.2939 -0.4920  1.5982
 6969SOL    HW232544   0.110   0.874   1.916 -0.0609 -0.3068 -0.5026
 6970SOL     OW32545   1.794   2.557  12.381 -0.3298  0.7019  0.0038
 6970SOL    HW132546   1.743   2.538  12.303 -1.6313  3.5154  0.1873
 6970SOL    HW232547   1.754   2.632  12.424  2.1632  2.3127 -0.4670
 6971SOL     OW32548   0.726   0.649  13.909  0.3251  0.1010  0.5883
 6971SOL    HW132549   0.680   0.631  13.990  1.1691  0.8206  1.2235
 6971SOL    HW232550   0.655   0.657  13.846  0.6032  0.0110  0.2569
 6972SOL     OW32551   3.403   3.472   3.301  0.1934  0.0962 -0.0884
 6972SOL    HW132552   3.345   3.397   3.312  1.0253 -0.6942 -1.0447
 6972SOL    HW232553   3.409   3.517   3.385 -0.9702 -0.1408  0.1184
 6973SOL     OW32554   2.645   2.720   2.360  0.0191  0.5350  0.6811
 6973SOL    HW132555   2.724   2.766   2.335 -0.9642  0.9767 -1.5895
 6973SOL    HW232556   2.609   2.702   2.273 -1.5382 -0.4116  1.5040
 6974SOL     OW32557   2.430   0.562   2.999  0.0444 -0.2921  0.5744
 6974SOL    HW132558   2.423   0.508   2.920 -2.2393 -1.8537  1.8522
 6974SOL    HW232559   2.347   0.548   3.045  0.7061  2.2153  2.5169
 6975SOL     OW32560   3.197   3.677   4.093 -0.0372  0.1919 -0.3707
 6975SOL    HW132561   3.110   3.652   4.123  1.5484 -2.3987  2.0710
 6975SOL    HW232562   3.182   3.729   4.014 -0.0993 -0.8736 -1.0592
 6976SOL     OW32563   4.232   3.705   1.663 -0.1875 -0.0657 -0.3250
 6976SOL    HW132564   4.209   3.741   1.748  0.3601 -1.7706  0.5466
 6976SOL    HW232565   4.143   3.692   1.630  1.0417 -2.9516 -2.5218
 6977SOL     OW32566   1.442   3.274  11.314 -0.1918  0.1988 -0.1574
 6977SOL    HW132567   1.463   3.195  11.363  0.2046  0.8288  0.6769
 6977SOL    HW232568   1.462   3.343  11.376 -1.0944 -0.2151  0.5995
 6978SOL     OW32569   2.906   3.245   8.314 -0.2583  0.2911 -0.1246
 6978SOL    HW132570   2.995   3.280   8.306 -0.3581  1.0383  1.9698
 6978SOL    HW232571   2.866   3.318   8.361 -1.8393 -0.1948 -0.7135
 6979SOL     OW32572   4.509   3.228   4.759 -0.9328  0.0721 -0.4964
 6979SOL    HW132573   4.598   3.240   4.726 -1.1131  0.1004 -0.9729
 6979SOL    HW232574   4.446   3.241   4.689 -1.7550  0.6143  0.3357
 6980SOL     OW32575   1.491   1.751   8.393  0.0994 -0.0255 -0.6248
 6980SOL    HW132576   1.410   1.735   8.440  0.0375  0.6465 -0.5042
 6980SOL    HW232577   1.467   1.839   8.364  0.8274  0.0170 -1.1104
 6981SOL     OW32578   2.455   4.144   7.472  0.1751  0.1061 -0.4106
 6981SOL    HW132579   2.443   4.177   7.561  0.1070 -0.5756 -0.1663
 6981SOL    HW232580   2.547   4.120   7.466  0.6344  1.9863 -0.8147
 6982SOL     OW32581   2.041   1.849   4.210 -0.2976  0.2979 -0.3709
 6982SOL    HW132582   2.100   1.789   4.255 -0.5710  0.0659 -0.3236
 6982SOL    HW232583   2.063   1.927   4.262  1.9847 -0.8160  0.3389
 6983SOL     OW32584   3.639   1.051   7.153 -0.7997 -0.5852 -0.4901
 6983SOL    HW132585   3.715   1.072   7.099 -1.6414  0.9754 -1.0654
 6983SOL    HW232586   3.651   0.960   7.180  1.6923 -0.5385 -1.4378
 6984SOL     OW32587   0.228   2.549  13.387 -0.0593  0.1968  0.5477
 6984SOL    HW132588   0.246   2.468  13.435 -4.8356 -1.0523  0.1974
 6984SOL    HW232589   0.322   2.567  13.377 -0.0214  0.1050  0.7339
 6985SOL     OW32590   0.662   3.604  10.706 -0.4773  0.0066  0.0405
 6985SOL    HW132591   0.609   3.683  10.703 -0.5182  0.0600  1.8178
 6985SOL    HW232592   0.713   3.604  10.625 -1.0761  0.8893 -0.3304
 6986SOL     OW32593   3.143   3.853   7.276 -0.6912  0.6282  0.4779
 6986SOL    HW132594   3.181   3.938   7.300  0.2532  1.3989 -3.7156
 6986SOL    HW232595   3.128   3.808   7.359 -1.9246  1.2437  0.5821
 6987SOL     OW32596   2.653   3.880   8.197  0.3073 -0.1901 -0.2952
 6987SOL    HW132597   2.614   3.835   8.271  1.8009 -1.0202 -0.0135
 6987SOL    HW232598   2.744   3.849   8.192  0.2668 -0.1279 -1.6293
 6988SOL     OW32599   0.113   2.875   8.119 -0.5618 -0.6348  0.1843
 6988SOL    HW132600   0.094   2.965   8.147 -0.1469 -0.5539  0.2027
 6988SOL    HW232601   0.099   2.825   8.199  0.1231 -1.3102 -0.1228
 6989SOL     OW32602   1.075   2.177   8.587  0.0035 -0.0101  0.5255
 6989SOL    HW132603   1.010   2.181   8.657 -0.9107 -0.2072 -0.3038
 6989SOL    HW232604   1.105   2.087   8.593 -0.3889 -0.2461 -0.9697
 6990SOL     OW32605   2.521   0.231   1.808 -0.4877 -0.0989 -0.3074
 6990SOL    HW132606   2.457   0.297   1.780 -1.8755 -0.8074  1.1680
 6990SOL    HW232607   2.583   0.285   1.857 -0.2673 -0.0626 -0.6306
 6991SOL     OW32608   2.831   3.962  12.724 -0.2771 -0.2824  0.0073
 6991SOL    HW132609   2.774   3.988  12.652 -1.3598  0.3931  1.1084
 6991SOL    HW232610   2.895   3.901  12.689  0.5029 -0.5475  1.9133
 6992SOL     OW32611   4.544   1.327   9.841  0.0305  0.1718 -0.0956
 6992SOL    HW132612   4.496   1.406   9.867  1.0630  1.0838 -0.9614
 6992SOL    HW232613   4.624   1.356   9.797 -0.0696  1.9962  0.9071
 6993SOL     OW32614   3.758   4.715   8.223 -0.0234 -0.5596 -0.3071
 6993SOL    HW132615   3.755   0.074   8.259 -0.6063 -0.9804  0.6870
 6993SOL    HW232616   3.778   4.729   8.131  1.8095 -0.3267  0.1301
 6994SOL     OW32617   2.413   0.745   4.168 -0.3967 -1.1549 -0.1896
 6994SOL    HW132618   2.346   0.809   4.194  1.5528  0.9815 -0.4236
 6994SOL    HW232619   2.375   0.660   4.190 -1.0977 -0.3672  1.6886
 6995SOL     OW32620   1.783   3.066   8.600 -0.4365  0.2646  0.8484
 6995SOL    HW132621   1.841   3.131   8.560 -1.1637  0.5809  0.3131
 6995SOL    HW232622   1.758   3.023   8.519 -0.4038 -1.4296  1.7437
 6996SOL     OW32623   1.268   1.715   9.094  0.1333 -0.2092  0.3084
 6996SOL    HW132624   1.316   1.632   9.093 -0.1511 -0.3967  1.3754
 6996SOL    HW232625   1.322   1.759   9.159 -1.1978 -0.7863  1.8141
 6997SOL     OW32626   1.112   1.662   3.640 -0.6724 -0.6313  0.6891
 6997SOL    HW132627   1.105   1.741   3.693  0.2493  1.9859 -3.0700
 6997SOL    HW232628   1.119   1.584   3.696 -3.0068 -0.3028  1.4525
 6998SOL     OW32629   2.783   3.975   4.691  0.0547 -0.0143  0.2624
 6998SOL    HW132630   2.845   3.914   4.652  0.5646 -0.1985  1.3478
 6998SOL    HW232631   2.702   3.924   4.688  0.7404 -1.0741 -0.0602
 6999SOL     OW32632   4.354   2.488  11.021 -0.0462  0.4711  0.2691
 6999SOL    HW132633   4.439   2.532  11.027  1.5889 -2.3539 -2.3125
 6999SOL    HW232634   4.378   2.400  10.992  1.6014  0.5487  1.3928
 7000SOL     OW32635   3.580   1.745   0.016  0.6227 -0.0945  0.1679
 7000SOL    HW132636   3.605   1.712   0.103  0.6451 -1.7321 -0.4602
 7000SOL    HW232637   3.570   1.836   0.045  2.0639  0.2764 -0.4898
 7001SOL     OW32638   1.815   0.733   9.769  0.2367  0.0311  0.1435
 7001SOL    HW132639   1.741   0.677   9.747  0.3572  0.2141 -0.6994
 7001SOL    HW232640   1.812   0.746   9.864  1.0049 -1.1406  0.3327
 7002SOL     OW32641   3.824   4.207   3.708 -0.0312  0.2523  0.0032
 7002SOL    HW132642   3.893   4.209   3.642  0.7701 -2.8219  0.7512
 7002SOL    HW232643   3.788   4.121   3.687 -1.2097  1.0831 -1.3663
 7003SOL     OW32644   3.458   4.006   9.924 -0.4452 -0.2669  0.6775
 7003SOL    HW132645   3.488   4.071   9.987  0.3034 -0.2251  0.2803
 7003SOL    HW232646   3.364   4.021   9.928 -0.6190 -1.2142  0.2115
 7004SOL     OW32647   2.702   4.244  13.309 -0.3520 -0.0694 -0.1148
 7004SOL    HW132648   2.643   4.318  13.300 -0.5134 -0.2997 -1.0030
 7004SOL    HW232649   2.636   4.174  13.309 -1.3250  0.8813  2.2362
 7005SOL     OW32650   0.556   1.537  17.424  0.3830  0.0642  0.0536
 7005SOL    HW132651   0.504   1.618  17.421 -0.5070 -0.4732  1.0126
 7005SOL    HW232652   0.631   1.556  17.368 -0.1063  1.5677 -0.1127
 7006SOL     OW32653   1.484   1.982   0.308 -0.0207 -0.4898 -0.1348
 7006SOL    HW132654   1.532   2.056   0.345 -0.2978 -0.3454 -0.0564
 7006SOL    HW232655   1.547   1.960   0.240  0.2536  0.9860 -0.3628
 7007SOL     OW32656   1.333   1.364  12.981 -0.4872 -0.2510  0.2975
 7007SOL    HW132657   1.314   1.379  13.074  0.2245  1.8493  0.0881
 7007SOL    HW232658   1.326   1.270  12.965  2.7869 -0.2351 -1.0869
 7008SOL     OW32659   0.595   1.448   7.474 -0.1038  0.6862  0.7325
 7008SOL    HW132660   0.532   1.401   7.420  0.3045  2.7072 -1.5662
 7008SOL    HW232661   0.596   1.404   7.559  4.3300 -1.0059 -0.1587
 7009SOL     OW32662   2.043   1.285   5.047  0.0498 -0.2895 -0.0356
 7009SOL    HW132663   2.117   1.229   5.023 -0.9929 -2.4005  1.6949
 7009SOL    HW232664   1.976   1.226   5.081 -1.2437 -0.1882 -2.3728
 7010SOL     OW32665   0.392   3.073   2.854  0.2449  0.0551  0.0207
 7010SOL    HW132666   0.393   2.989   2.807 -1.7125  2.0409 -3.6317
 7010SOL    HW232667   0.343   3.047   2.931 -0.1917  0.7936 -0.0042
 7011SOL     OW32668   3.785   1.043   3.808 -0.5954 -0.1875 -0.0848
 7011SOL    HW132669   3.775   0.961   3.760 -0.1323  0.8905 -2.0291
 7011SOL    HW232670   3.771   1.019   3.900  1.7340 -0.0703  0.3078
 7012SOL     OW32671   4.676   2.044   5.092  0.7930 -0.2175 -0.2347
 7012SOL    HW132672   4.647   2.111   5.031  1.5661 -1.8228 -2.3765
 7012SOL    HW232673   4.696   2.096   5.170  0.0762 -0.3991  0.0682
 7013SOL     OW32674   3.475   2.134  14.449  0.4985  0.2515  0.4268
 7013SOL    HW132675   3.413   2.206  14.454 -0.3281 -0.3802 -0.7810
 7013SOL    HW232676   3.420   2.061  14.422 -1.0499  1.9922 -1.1834
 7014SOL     OW32677   1.988   1.191  10.211 -0.2682 -0.5393 -0.5063
 7014SOL    HW132678   1.909   1.137  10.211 -1.7977  1.6921 -0.1252
 7014SOL    HW232679   2.033   1.153  10.286  1.0799  0.3108 -0.8989
 7015SOL     OW32680   2.046   4.310   7.556  0.5465  0.3016 -0.3757
 7015SOL    HW132681   2.111   4.270   7.614  1.9187  2.1000 -0.6843
 7015SOL    HW232682   1.971   4.251   7.567  1.5407 -1.1148 -1.1118
 7016SOL     OW32683   0.433   1.523   7.996 -0.4378  0.3009  0.3637
 7016SOL    HW132684   0.453   1.614   7.976  0.1167  0.1090  0.0554
 7016SOL    HW232685   0.473   1.522   8.083  0.4560  2.1945 -0.0327
 7017SOL     OW32686   3.854   1.851  10.454 -0.9413 -0.3391  0.0629
 7017SOL    HW132687   3.940   1.876  10.420  0.0244 -1.7806  1.4714
 7017SOL    HW232688   3.799   1.930  10.449 -0.6121 -0.0841  0.4582
 7018SOL     OW32689   4.292   1.892  15.027 -0.1474  0.1331  0.1743
 7018SOL    HW132690   4.384   1.897  15.053 -0.0527  0.6553 -0.2650
 7018SOL    HW232691   4.263   1.978  15.057 -0.0966  1.2647 -3.0623
 7019SOL     OW32692   4.251   4.159  13.286  0.4234 -0.2532 -0.4249
 7019SOL    HW132693   4.277   4.251  13.293 -1.1657  0.0087  1.9023
 7019SOL    HW232694   4.156   4.157  13.275  0.5089 -0.5496 -1.0989
 7020SOL     OW32695   3.826   0.329  17.086  0.7126  0.2974  0.5304
 7020SOL    HW132696   3.892   0.273  17.047  1.3609  1.3402  0.1147
 7020SOL    HW232697   3.779   0.353  17.006  0.2452 -0.9109  0.4498
 7021SOL     OW32698   3.145   4.508   7.835 -0.8869 -0.2556  0.0825
 7021SOL    HW132699   3.146   4.452   7.913 -1.2564  0.0532  0.3040
 7021SOL    HW232700   3.162   4.445   7.765 -0.7537 -0.9811  0.7651
 7022SOL     OW32701   2.482   1.333   5.529  0.3371 -0.3511 -0.1260
 7022SOL    HW132702   2.489   1.413   5.580 -4.7293 -0.7108  1.1219
 7022SOL    HW232703   2.400   1.342   5.481 -0.3032  1.7659  1.3729
 7023SOL     OW32704   3.822   0.358   7.813 -0.0673  0.0277  0.1863
 7023SOL    HW132705   3.726   0.354   7.818 -0.1271  1.8843  0.5872
 7023SOL    HW232706   3.840   0.267   7.788  1.5866  0.1003  1.1147
 7024SOL     OW32707   3.424   1.939   7.612  0.0561 -0.3033  0.2571
 7024SOL    HW132708   3.510   1.918   7.577 -0.7996 -0.4889 -1.6996
 7024SOL    HW232709   3.382   1.975   7.534  1.5249  1.5438  0.2997
 7025SOL     OW32710   1.042   1.673  14.178  0.2628  0.0437  0.3662
 7025SOL    HW132711   1.038   1.760  14.218  0.6543 -0.9232  2.5342
 7025SOL    HW232712   0.973   1.693  14.115  0.4800 -0.8101 -0.1315
 7026SOL     OW32713   3.192   0.092   8.039  0.3190  0.3734 -0.0056
 7026SOL    HW132714   3.143   0.174   8.050  1.7109  1.4553 -1.8225
 7026SOL    HW232715   3.191   0.071   8.133  2.3564  1.7170  0.3250
 7027SOL     OW32716   3.675   2.640  14.579  0.2569 -0.0459  0.0243
 7027SOL    HW132717   3.585   2.659  14.604  0.5026  3.1477 -1.5898
 7027SOL    HW232718   3.726   2.696  14.639 -0.0136 -1.2624  1.3978
 7028SOL     OW32719   0.948   3.495   7.648 -0.5384 -0.0284 -0.5557
 7028SOL    HW132720   0.968   3.578   7.605 -0.6286 -0.7297 -1.9560
 7028SOL    HW232721   0.968   3.431   7.580  0.9298 -0.0036 -0.1613
 7029SOL     OW32722   0.542   1.186   7.859  0.2456 -0.4257 -0.5264
 7029SOL    HW132723   0.469   1.152   7.910 -0.0209 -0.0565 -0.6645
 7029SOL    HW232724   0.608   1.192   7.929 -0.1233  2.6322 -0.4525
 7030SOL     OW32725   1.974   0.433  15.897  0.1586 -0.1065  0.2570
 7030SOL    HW132726   1.930   0.368  15.842 -0.9216  2.6665 -2.1423
 7030SOL    HW232727   1.947   0.402  15.984 -3.1373 -0.5813 -0.9495
 7031SOL     OW32728   3.293   3.181  10.496 -0.0000 -0.1592  0.2642
 7031SOL    HW132729   3.333   3.267  10.507 -0.0176 -0.6460  3.9013
 7031SOL    HW232730   3.212   3.208  10.538 -0.6354 -1.1556 -0.3046
 7032SOL     OW32731   3.940   1.561   6.855  0.1289 -0.3324  0.2063
 7032SOL    HW132732   3.911   1.635   6.801  0.3848 -1.4454 -1.4560
 7032SOL    HW232733   3.917   1.481   6.809  3.2223 -1.7907  1.2261
 7033SOL     OW32734   0.275   0.949   8.537  0.0275 -0.1212  0.1279
 7033SOL    HW132735   0.227   1.005   8.597 -0.6352 -1.0384  0.4393
 7033SOL    HW232736   0.220   0.872   8.522 -2.2005  1.5243 -0.1391
 7034SOL     OW32737   0.623   2.838   5.882  0.4717  0.0682 -0.5457
 7034SOL    HW132738   0.642   2.745   5.872 -0.9908 -0.4348  1.3240
 7034SOL    HW232739   0.628   2.866   5.791  0.7744  0.0230 -0.5462
 7035SOL     OW32740   0.783   3.469   6.439  0.1336  0.2624 -0.2944
 7035SOL    HW132741   0.847   3.418   6.488 -2.8790 -1.5782  1.7619
 7035SOL    HW232742   0.826   3.481   6.354  0.7367  1.3720  0.1680
 7036SOL     OW32743   4.582   0.006   8.598 -0.1542 -0.2602 -0.1078
 7036SOL    HW132744   4.517   0.041   8.659 -0.7657  1.8313 -1.9366
 7036SOL    HW232745   4.529   4.681   8.540 -0.2555  3.3464 -3.3719
 7037SOL     OW32746   1.062   4.348  14.319 -0.5875  0.6341 -0.1707
 7037SOL    HW132747   1.065   4.298  14.237 -1.2490 -0.4528  0.4687
 7037SOL    HW232748   1.093   4.277  14.375 -2.4168  0.5185  0.6901
 7038SOL     OW32749   0.381   0.305   8.766 -0.3104  0.2609 -0.2591
 7038SOL    HW132750   0.449   0.266   8.820  0.2951  1.2401 -0.3070
 7038SOL    HW232751   0.427   0.386   8.744 -1.4590  0.5476 -1.6055
 7039SOL     OW32752   1.671   1.663   3.307 -0.6269 -0.1836  0.4348
 7039SOL    HW132753   1.648   1.755   3.324 -0.6391  0.0279 -0.7466
 7039SOL    HW232754   1.676   1.625   3.395  0.0703  2.1228  1.3899
 7040SOL     OW32755   4.114   3.221   5.113 -0.4594 -0.0765 -0.0354
 7040SOL    HW132756   4.074   3.303   5.083  1.1544  0.1676 -1.5136
 7040SOL    HW232757   4.203   3.240   5.084 -0.6189 -1.8285 -1.6418
 7041SOL     OW32758   2.917   0.830   8.076  1.3114 -0.3091  0.2351
 7041SOL    HW132759   2.915   0.784   8.160 -1.6259 -0.9639 -0.2036
 7041SOL    HW232760   2.883   0.767   8.014  0.1601 -0.5603  1.1302
 7042SOL     OW32761   0.818   0.153   4.082 -0.6658 -0.1474  0.1086
 7042SOL    HW132762   0.823   0.179   3.990  1.4615  0.4865  0.4004
 7042SOL    HW232763   0.844   0.233   4.128  0.1101 -0.3369  0.0114
 7043SOL     OW32764   3.108   4.282   6.660  0.0694  0.4214  0.0217
 7043SOL    HW132765   3.116   4.187   6.660 -0.4122  0.3804 -0.2101
 7043SOL    HW232766   3.017   4.293   6.687 -0.5314 -2.3619 -0.9219
 7044SOL     OW32767   0.992   0.773   1.426  0.4606 -0.1004  0.3576
 7044SOL    HW132768   0.946   0.733   1.352  0.0512  1.2975 -0.1362
 7044SOL    HW232769   0.923   0.824   1.468  2.0097  0.7607  1.8567
 7045SOL     OW32770   3.114   1.601   3.204 -0.2194 -0.4545  0.5423
 7045SOL    HW132771   3.065   1.652   3.268  0.2946  0.8608 -0.1258
 7045SOL    HW232772   3.204   1.607   3.235  0.0942 -1.5862 -0.1244
 7046SOL     OW32773   1.548   4.129   6.872  0.5121  0.2959  0.6890
 7046SOL    HW132774   1.575   4.169   6.954 -0.8475 -0.4253  1.4864
 7046SOL    HW232775   1.593   4.045   6.873  2.9127  1.5466 -2.4268
 7047SOL     OW32776   3.185   4.242  15.680 -0.0070 -0.3170 -0.5263
 7047SOL    HW132777   3.204   4.331  15.650  0.2492 -0.6823 -1.4423
 7047SOL    HW232778   3.183   4.251  15.776 -1.7530  0.5056 -0.6432
 7048SOL     OW32779   1.606   0.158   5.832  0.0110  0.3038  0.6844
 7048SOL    HW132780   1.700   0.144   5.848  0.2437  1.0781 -0.0138
 7048SOL    HW232781   1.613   0.236   5.777 -0.7640 -1.1952 -1.5510
 7049SOL     OW32782   1.540   1.857   5.736  0.0849  0.1292 -0.3106
 7049SOL    HW132783   1.636   1.860   5.737  0.1302 -0.7717 -1.0300
 7049SOL    HW232784   1.518   1.771   5.700  0.2111  0.2113 -0.5846
 7050SOL     OW32785   4.478   4.552   4.838 -0.2210  0.0875  0.2567
 7050SOL    HW132786   4.551   4.599   4.799  0.6165 -0.9571  0.5732
 7050SOL    HW232787   4.412   4.549   4.769 -0.5217  1.8981  0.4527
 7051SOL     OW32788   2.392   4.529   4.459 -0.4150  0.0766  0.3682
 7051SOL    HW132789   2.312   4.580   4.473 -0.7747 -0.5245  0.5261
 7051SOL    HW232790   2.459   4.597   4.462  1.1078 -1.4946  1.9283
 7052SOL     OW32791   0.048   0.143  11.332 -0.4012 -0.2016 -0.0671
 7052SOL    HW132792   0.135   0.127  11.296  0.5560  0.3244  1.9889
 7052SOL    HW232793   0.003   0.165  11.251 -0.8082  1.1148  0.4998
 7053SOL     OW32794   4.539   1.059   2.429 -0.2031  0.8335 -0.5435
 7053SOL    HW132795   4.590   1.140   2.423 -0.0819  0.8404  0.6953
 7053SOL    HW232796   4.464   1.075   2.371 -2.6123 -0.0825  2.3711
 7054SOL     OW32797   2.170   2.968  17.462 -0.0914 -0.0064 -0.3890
 7054SOL    HW132798   2.237   3.018  17.507 -0.0842 -1.7790  1.5856
 7054SOL    HW232799   2.220   2.919  17.397 -1.2038 -1.5705 -0.0629
 7055SOL     OW32800   1.038   3.249   0.526 -0.1221 -0.0779  0.1430
 7055SOL    HW132801   1.119   3.244   0.576  0.4989  0.1827 -0.8457
 7055SOL    HW232802   1.070   3.294   0.448 -1.7554 -0.0718 -0.5305
 7056SOL     OW32803   3.039   2.291   9.242  0.5005  0.2285  0.1932
 7056SOL    HW132804   2.962   2.300   9.185  0.5150 -2.7647 -0.3061
 7056SOL    HW232805   3.014   2.220   9.301 -0.4465 -0.8516 -1.4952
 7057SOL     OW32806   2.303   4.257   1.950  0.3757 -0.0147 -0.0224
 7057SOL    HW132807   2.222   4.279   1.903 -0.2798  1.3131  1.7363
 7057SOL    HW232808   2.367   4.322   1.923 -1.6281  0.4029 -3.7766
 7058SOL     OW32809   3.280   0.022   4.217 -0.3417 -0.2215  0.3375
 7058SOL    HW132810   3.366   4.710   4.207  0.3786  1.0600  1.3041
 7058SOL    HW232811   3.304   0.077   4.292  1.6143  1.4117 -1.4562
 7059SOL     OW32812   0.187   1.471   7.882 -0.3824  0.0866  0.0323
 7059SOL    HW132813   0.126   1.541   7.904  0.4564  0.8454 -0.0401
 7059SOL    HW232814   0.264   1.477   7.938 -0.7303  0.7731  0.4290
 7060SOL     OW32815   1.490   0.322   1.488  0.3454  0.1394  0.2651
 7060SOL    HW132816   1.548   0.389   1.452 -0.0248  1.4657  2.1885
 7060SOL    HW232817   1.491   0.341   1.581 -0.2396 -0.2875  0.3558
 7061SOL     OW32818   3.662   4.387  17.413  0.8724  0.0883 -0.4737
 7061SOL    HW132819   3.738   4.384  17.471  1.2882  2.6236 -0.9167
 7061SOL    HW232820   3.634   4.474  17.440  2.6845 -0.0358  1.8945
 7062SOL     OW32821   3.733   1.363   9.390 -0.2251  0.3792 -0.3039
 7062SOL    HW132822   3.666   1.297   9.370 -0.0880 -0.6501  2.6965
 7062SOL    HW232823   3.693   1.444   9.360  1.3056  2.3036  2.8996
 7063SOL     OW32824   2.691   0.912   1.748 -0.0776  0.8771 -0.5425
 7063SOL    HW132825   2.784   0.932   1.760 -0.0900 -1.2073  2.8002
 7063SOL    HW232826   2.670   1.003   1.723 -2.5855  0.9917  2.0518
 7064SOL     OW32827   4.249   3.720   1.949  0.7922 -0.0861  0.3483
 7064SOL    HW132828   4.326   3.668   1.974  0.1605 -1.5326 -0.7026
 7064SOL    HW232829   4.269   3.798   2.000 -1.1964 -0.1451  1.2197
 7065SOL     OW32830   3.001   2.694   3.328  0.5136 -0.1712  0.1763
 7065SOL    HW132831   3.006   2.704   3.233 -0.5087  0.2186  0.1691
 7065SOL    HW232832   3.055   2.770   3.348  0.5987 -0.1876  0.0103
 7066SOL     OW32833   0.060   2.067   1.976  0.3200  0.1004 -0.3849
 7066SOL    HW132834   0.083   2.102   1.890  1.6637 -1.4041 -0.6541
 7066SOL    HW232835   0.130   2.097   2.034  1.1553  0.0943 -1.3993
 7067SOL     OW32836   0.015   2.682  13.557  0.3271  0.0384  0.2082
 7067SOL    HW132837   0.068   2.623  13.504 -1.3287  0.2891 -1.6835
 7067SOL    HW232838   0.029   2.653  13.647  1.3937  0.6567  0.2472
 7068SOL     OW32839   2.431   1.301   6.188  0.0445  0.4495 -0.6001
 7068SOL    HW132840   2.514   1.258   6.204 -1.8066 -3.2731 -0.8731
 7068SOL    HW232841   2.462   1.389   6.167 -2.1771  1.1285 -1.0473
 7069SOL     OW32842   0.887   3.965  17.517  0.0443  0.0302 -0.7387
 7069SOL    HW132843   0.877   4.011  17.433 -1.9550  0.1035 -0.4599
 7069SOL    HW232844   0.902   3.875  17.488 -2.7412  0.1225 -2.5209
 7070SOL     OW32845   2.821   0.755   9.045  0.0931  0.7060  0.1184
 7070SOL    HW132846   2.784   0.735   8.959  0.1682 -2.0565  0.7313
 7070SOL    HW232847   2.813   0.851   9.043 -0.4131  0.5655 -3.2721
 7071SOL     OW32848   1.939   3.859   7.080 -0.3052 -0.0143  0.0919
 7071SOL    HW132849   1.903   3.777   7.112  1.5187 -0.7344  0.3308
 7071SOL    HW232850   1.961   3.894   7.166 -1.1023  0.1711  0.2216
 7072SOL     OW32851   0.790   1.061   6.425  0.2764 -0.6873  0.3350
 7072SOL    HW132852   0.715   1.028   6.473 -0.7203  1.9166  0.5295
 7072SOL    HW232853   0.864   1.009   6.455  1.8769  2.3163  1.6088
 7073SOL     OW32854   3.646   0.211  10.406 -0.0135  0.5034 -0.1310
 7073SOL    HW132855   3.601   0.128  10.391  1.9225 -0.4683 -0.5105
 7073SOL    HW232856   3.698   0.188  10.483  0.5847  0.6599 -0.4881
 7074SOL     OW32857   2.102   3.832   8.619 -0.2083  0.4739 -0.1498
 7074SOL    HW132858   2.132   3.749   8.581 -1.1987  0.1877 -0.2873
 7074SOL    HW232859   2.034   3.796   8.675  0.4444  0.5215  0.6642
 7075SOL     OW32860   4.676   1.611   4.657  0.0608  0.1835 -0.0529
 7075SOL    HW132861   4.636   1.585   4.740  0.9204  2.0636  0.9228
 7075SOL    HW232862   4.600   1.594   4.601 -1.2983 -0.4559  1.9957
 7076SOL     OW32863   2.251   0.693  10.342  0.4645  0.2657 -0.0070
 7076SOL    HW132864   2.231   0.727  10.430  0.4983  2.2457 -0.7645
 7076SOL    HW232865   2.167   0.718  10.303  0.5776 -0.0890 -0.4761
 7077SOL     OW32866   1.591   0.535   9.660 -0.6195 -0.1703 -0.2058
 7077SOL    HW132867   1.521   0.585   9.619 -0.8157 -1.1836 -1.1113
 7077SOL    HW232868   1.565   0.448   9.628 -0.8954 -0.4054  0.6546
 7078SOL     OW32869   1.208   1.380   2.581 -0.3371  0.0575 -0.0262
 7078SOL    HW132870   1.183   1.288   2.567 -0.5143  0.3676 -1.7472
 7078SOL    HW232871   1.302   1.391   2.576 -0.3956  0.2779 -0.6441
 7079SOL     OW32872   3.202   2.472   8.527 -0.4753 -0.1796  0.0089
 7079SOL    HW132873   3.164   2.385   8.527  2.7199 -1.5704  1.7628
 7079SOL    HW232874   3.217   2.481   8.621 -1.7172  1.2100  0.0776
 7080SOL     OW32875   4.222   0.692   3.790 -0.1871 -0.0543 -0.1978
 7080SOL    HW132876   4.173   0.754   3.737 -0.1927 -0.3396 -0.5338
 7080SOL    HW232877   4.296   0.675   3.731  0.4577 -0.4360  0.7214
 7081SOL     OW32878   4.374   2.618   1.866  0.5079  0.1961 -0.3884
 7081SOL    HW132879   4.354   2.705   1.832 -0.8635 -0.4942 -1.3329
 7081SOL    HW232880   4.286   2.584   1.881  1.4910 -1.2960  2.0442
 7082SOL     OW32881   2.884   3.838   8.012 -0.6584 -0.2857  0.3933
 7082SOL    HW132882   2.896   3.890   8.091  0.2176  0.9507 -0.5372
 7082SOL    HW232883   2.963   3.869   7.967 -1.1949 -0.2343 -0.5007
 7083SOL     OW32884   3.061   0.401  12.138  1.0107 -0.2703  0.0859
 7083SOL    HW132885   2.992   0.468  12.138 -0.1947 -1.5217 -1.1878
 7083SOL    HW232886   3.078   0.409  12.232 -0.2049 -0.7402  0.3515
 7084SOL     OW32887   1.087   0.589   4.916 -0.4378  0.4704  0.1192
 7084SOL    HW132888   1.161   0.624   4.867 -0.1984  1.0378  0.8793
 7084SOL    HW232889   1.136   0.518   4.957 -1.8494 -0.7811 -0.3488
 7085SOL     OW32890   1.093   2.815   3.371  0.4335  0.1542  0.2639
 7085SOL    HW132891   1.107   2.796   3.464 -3.2347 -1.3038  0.5635
 7085SOL    HW232892   1.003   2.847   3.360  0.0174 -1.3829 -0.8625
 7086SOL     OW32893   1.458   2.923   4.258  0.6336 -0.1269 -0.5975
 7086SOL    HW132894   1.526   2.872   4.304  1.4820  0.7752 -0.8539
 7086SOL    HW232895   1.452   2.996   4.319 -0.4039 -1.3915  0.8236
 7087SOL     OW32896   4.018   2.943   2.534 -0.4121 -0.0404  0.2579
 7087SOL    HW132897   4.061   3.026   2.556 -0.3456  1.1347 -4.1162
 7087SOL    HW232898   3.975   2.980   2.456 -2.3572  0.8179  1.7582
 7088SOL     OW32899   0.139   2.067   0.588  0.6155  0.3646 -0.7350
 7088SOL    HW132900   0.148   2.123   0.665  1.4828 -0.8966  0.0672
 7088SOL    HW232901   0.108   1.983   0.621 -0.6799  1.0088 -0.2982
 7089SOL     OW32902   3.644   2.923  17.241  0.1613  0.2352  0.8385
 7089SOL    HW132903   3.609   2.869  17.311  0.5929  0.7256  1.4376
 7089SOL    HW232904   3.607   3.006  17.270 -1.4184  0.4883 -1.8862
 7090SOL     OW32905   2.338   3.493  10.515  0.0944 -0.4801  0.7273
 7090SOL    HW132906   2.411   3.483  10.576  0.7322  0.2199  0.0811
 7090SOL    HW232907   2.378   3.512  10.431  0.8165 -0.3537  1.0949
 7091SOL     OW32908   1.507   0.673   7.080  0.2445  0.0912 -0.1373
 7091SOL    HW132909   1.522   0.594   7.133  1.2846  0.0119 -0.5580
 7091SOL    HW232910   1.527   0.656   6.988  1.6973  1.0277  0.0007
 7092SOL     OW32911   3.466   1.064   5.898  0.8107 -0.4770  0.4209
 7092SOL    HW132912   3.465   1.053   5.993 -0.0511  1.5365  0.6429
 7092SOL    HW232913   3.412   1.143   5.902 -1.9828 -2.3688 -0.3650
 7093SOL     OW32914   1.633   0.319   7.934 -0.1226  0.6361 -0.3266
 7093SOL    HW132915   1.558   0.297   7.990  0.1765 -0.5504 -0.3915
 7093SOL    HW232916   1.604   0.285   7.850 -1.0250 -0.1433  0.3007
 7094SOL     OW32917   2.900   4.714   5.757 -0.4589  0.0199  0.2951
 7094SOL    HW132918   2.995   0.001   5.755 -0.1490 -1.3601  3.4863
 7094SOL    HW232919   2.885   0.034   5.838  0.5299 -1.6641  1.4797
 7095SOL     OW32920   3.677   3.761   1.466  0.3734 -0.1394 -0.0019
 7095SOL    HW132921   3.604   3.807   1.508 -0.5362 -1.8949  0.3412
 7095SOL    HW232922   3.645   3.746   1.377 -1.6703 -0.9434  0.8554
 7096SOL     OW32923   0.027   0.749  15.307 -0.4879  0.0470 -0.6546
 7096SOL    HW132924   0.082   0.759  15.229 -1.1770  1.5549 -0.9368
 7096SOL    HW232925   0.046   0.657  15.325 -0.9258 -0.0038 -0.4650
 7097SOL     OW32926   0.283   0.605   3.882  0.0536  0.0313  0.1714
 7097SOL    HW132927   0.255   0.617   3.791  0.7616 -1.5507 -0.2730
 7097SOL    HW232928   0.335   0.527   3.861  1.7061  1.6069 -1.6384
 7098SOL     OW32929   4.411   1.517   1.437 -0.2325  0.0888 -0.1933
 7098SOL    HW132930   4.429   1.604   1.403  1.8277  0.7632  2.5982
 7098SOL    HW232931   4.333   1.537   1.489 -1.0939 -4.6161  0.3883
 7099SOL     OW32932   0.780   4.458   6.576  0.6089  0.2427 -0.0273
 7099SOL    HW132933   0.758   4.432   6.665 -1.1992 -1.7676 -1.0414
 7099SOL    HW232934   0.693   4.447   6.537  0.3075 -1.5024  1.1317
 7100SOL     OW32935   4.127   1.717  15.144  0.4905 -0.0555 -0.2924
 7100SOL    HW132936   4.104   1.764  15.224 -1.2994  3.2077 -2.7659
 7100SOL    HW232937   4.182   1.776  15.094 -0.4605  1.3576  0.3138
 7101SOL     OW32938   1.262   1.955   4.354 -0.0675 -0.2342  0.3134
 7101SOL    HW132939   1.322   2.026   4.331 -0.6135  0.0698 -0.1662
 7101SOL    HW232940   1.289   1.943   4.445  0.3864  2.1939  0.4754
 7102SOL     OW32941   2.164   2.909   4.738  0.4582  0.2147 -0.1131
 7102SOL    HW132942   2.134   2.823   4.708 -0.6291  0.9106 -0.9993
 7102SOL    HW232943   2.241   2.907   4.682 -0.5998  1.3641 -1.6179
 7103SOL     OW32944   0.646   3.159   4.340 -0.4298  0.1612 -0.3180
 7103SOL    HW132945   0.587   3.083   4.336 -1.8858  1.1614  1.8817
 7103SOL    HW232946   0.727   3.115   4.366 -0.0962  1.3388  0.6228
 7104SOL     OW32947   4.112   0.173   3.557 -0.9964  0.5737 -0.1037
 7104SOL    HW132948   4.018   0.172   3.571 -1.1597 -0.0823 -1.3338
 7104SOL    HW232949   4.133   0.140   3.645 -1.7813  0.2457 -0.0392
 7105SOL     OW32950   2.999   0.247   3.827 -1.0087  0.2755  0.4296
 7105SOL    HW132951   3.058   0.225   3.899 -0.3037 -0.5713 -0.4160
 7105SOL    HW232952   2.958   0.324   3.868 -0.1356  1.4949 -0.9781
 7106SOL     OW32953   2.188   3.821  15.425  0.8474  0.4739 -0.4324
 7106SOL    HW132954   2.280   3.831  15.401  1.0124  1.6378  0.6807
 7106SOL    HW232955   2.190   3.832  15.520 -0.2432 -1.1844 -0.2272
 7107SOL     OW32956   4.663   1.499  17.166  0.1549  0.4003  0.2292
 7107SOL    HW132957   0.025   1.477  17.184  1.1670  2.6946 -2.2713
 7107SOL    HW232958   4.624   1.415  17.192  2.1350 -0.4647  0.4141
 7108SOL     OW32959   0.538   0.829   2.338  0.2304 -0.0530 -0.2922
 7108SOL    HW132960   0.548   0.804   2.430 -3.0056 -0.9668 -0.2091
 7108SOL    HW232961   0.545   0.924   2.345  1.2178 -0.0831 -0.8688
 7109SOL     OW32962   4.216   1.808  14.787  0.4174 -0.2868 -0.2784
 7109SOL    HW132963   4.232   1.838  14.876  0.4532  0.8329 -0.6541
 7109SOL    HW232964   4.305   1.805  14.753  0.2261 -1.0827 -0.6952
 7110SOL     OW32965   2.241   3.327   5.039 -0.3241 -0.4901  0.2133
 7110SOL    HW132966   2.175   3.285   5.094 -1.7596  1.6895  0.1371
 7110SOL    HW232967   2.259   3.266   4.967  0.3699  2.2337 -1.9051
 7111SOL     OW32968   4.350   4.149   6.555  0.1246  0.9837 -0.2066
 7111SOL    HW132969   4.338   4.183   6.466 -1.0885  1.7221  0.2417
 7111SOL    HW232970   4.318   4.060   6.538  0.5728  1.0251 -1.2921
 7112SOL     OW32971   2.403   0.183   1.343 -0.8185 -0.3925  0.6703
 7112SOL    HW132972   2.426   0.104   1.393 -0.4961 -0.3258  0.6308
 7112SOL    HW232973   2.494   0.213   1.339 -0.6009 -0.9230  1.5793
 7113SOL     OW32974   2.469   3.231  13.864 -0.1706  0.2093 -0.1263
 7113SOL    HW132975   2.456   3.138  13.882  1.9485  0.0955  0.8881
 7113SOL    HW232976   2.420   3.271  13.936 -1.8684 -1.5101 -0.3238
 7114SOL     OW32977   0.093   2.865   1.886  0.0091  0.1004  0.3447
 7114SOL    HW132978   0.151   2.799   1.923  2.6994  2.0809 -0.3238
 7114SOL    HW232979   0.104   2.937   1.948 -0.2580 -0.6441  1.2366
 7115SOL     OW32980   0.159   0.720   8.711 -0.1782  0.7348  0.4726
 7115SOL    HW132981   0.077   0.750   8.750  0.0083  1.3406  0.3965
 7115SOL    HW232982   0.143   0.625   8.716  2.6621  0.1344 -1.9657
 7116SOL     OW32983   0.219   1.041   0.165 -0.1964  0.0887 -0.3949
 7116SOL    HW132984   0.290   0.992   0.207 -0.2052  0.1591 -0.2960
 7116SOL    HW232985   0.269   1.114   0.129  0.7075  0.5713  1.8036
 7117SOL     OW32986   1.789   0.132  10.056 -0.0067  0.3890  0.1475
 7117SOL    HW132987   1.725   0.071  10.021  0.4602  1.4339 -2.5380
 7117SOL    HW232988   1.796   0.118  10.151 -4.3668 -0.9162  0.2601
 7118SOL     OW32989   0.388   4.725  15.970 -0.0911 -0.5663  0.6440
 7118SOL    HW132990   0.466   4.704  16.021  0.1054 -1.3681  0.0160
 7118SOL    HW232991   0.385   4.657  15.903  0.2924  1.0866 -1.0522
 7119SOL     OW32992   3.945   1.673   7.813 -0.4893 -0.0058  0.0975
 7119SOL    HW132993   3.859   1.698   7.778 -0.4026  1.0468  0.6395
 7119SOL    HW232994   3.919   1.583   7.834  2.6623 -0.6818  1.0138
 7120SOL     OW32995   2.772   1.896   5.478  0.3735 -0.7633  0.5664
 7120SOL    HW132996   2.796   1.811   5.515  2.6620  0.0461  0.9607
 7120SOL    HW232997   2.728   1.874   5.396  1.7496  0.8685 -0.6012
 7121SOL     OW32998   0.783   1.831  16.076  0.1610 -0.1395  0.1730
 7121SOL    HW132999   0.877   1.846  16.060  0.0367 -2.1258 -2.4845
 7121SOL    HW233000   0.783   1.775  16.153 -0.2617 -1.1822 -0.5835
 7122SOL     OW33001   3.151   4.428   7.278  0.1464  0.0899 -0.5315
 7122SOL    HW133002   3.135   4.505   7.332 -0.9194 -1.1266  0.8866
 7122SOL    HW233003   3.189   4.467   7.199 -0.2916  0.9347 -0.3319
 7123SOL     OW33004   4.237   3.660   7.363  0.5272 -0.2610  0.5029
 7123SOL    HW133005   4.262   3.593   7.299  2.0623 -0.9852  1.8880
 7123SOL    HW233006   4.314   3.712   7.343  0.4848  0.0138  1.0758
 7124SOL     OW33007   2.030   3.537   1.752 -0.0176  0.0149 -0.0272
 7124SOL    HW133008   1.953   3.553   1.807 -0.4443 -1.8767 -0.0682
 7124SOL    HW233009   1.998   3.481   1.682 -0.6680  0.9541 -0.4726
 7125SOL     OW33010   0.804   4.430   5.238 -0.0757  0.1671 -0.2242
 7125SOL    HW133011   0.896   4.452   5.222 -0.4853  0.0821 -2.8017
 7125SOL    HW233012   0.813   4.337   5.216 -1.0841  0.0609 -0.1888
 7126SOL     OW33013   2.094   2.390  10.050  0.0860 -0.1265 -0.3786
 7126SOL    HW133014   2.167   2.371  10.108  1.0160  1.1181 -1.1404
 7126SOL    HW233015   2.126   2.347   9.971  0.0079  0.9136 -0.9784
 7127SOL     OW33016   3.996   3.656  10.475 -0.7590 -0.0265 -0.0741
 7127SOL    HW133017   4.001   3.750  10.456 -0.6392  0.1831  0.9556
 7127SOL    HW233018   4.079   3.656  10.524 -1.8788 -1.6960  1.8321
 7128SOL     OW33019   1.393   4.308  17.701 -0.1769 -0.3556  0.3468
 7128SOL    HW133020   1.340   4.244   0.031  1.5740 -2.3466 -0.3932
 7128SOL    HW233021   1.435   4.350   0.059  3.4003 -0.0013 -1.8847
 7129SOL     OW33022   3.384   1.214   1.096  0.2184  0.2597 -0.3941
 7129SOL    HW133023   3.428   1.160   1.162  1.7271  1.2697 -0.5672
 7129SOL    HW233024   3.458   1.273   1.080  0.6377 -0.9115 -2.7781
 7130SOL     OW33025   0.331   0.940  13.972 -0.4063 -0.5810 -0.1218
 7130SOL    HW133026   0.343   0.878  13.900 -0.5636  1.4996 -1.9366
 7130SOL    HW233027   0.413   0.938  14.022 -0.0098  1.1801 -0.6861
 7131SOL     OW33028   1.068   3.073  14.002 -0.4742  0.8826 -0.3220
 7131SOL    HW133029   1.158   3.098  13.981  0.3986 -2.1947 -0.3610
 7131SOL    HW233030   1.081   3.027  14.086 -0.9786  0.5884 -0.4040
 7132SOL     OW33031   4.120   4.527  17.412  0.0899  0.0692 -0.1987
 7132SOL    HW133032   4.107   4.508  17.320 -2.5196  0.4367  0.0856
 7132SOL    HW233033   4.029   4.512  17.439  0.3838 -1.1950  0.1233
 7133SOL     OW33034   1.856   1.523   4.293  0.3612  0.5716 -0.0847
 7133SOL    HW133035   1.887   1.559   4.376  0.7601 -0.1159  0.0650
 7133SOL    HW233036   1.929   1.548   4.236  1.0241  2.1946  1.4802
 7134SOL     OW33037   4.711   4.660   1.583  0.0272 -0.5697  0.2689
 7134SOL    HW133038   0.018   0.017   1.560  2.6145 -1.4857  0.9256
 7134SOL    HW233039   4.667   4.691   1.662 -2.0522 -0.6393 -0.8518
 7135SOL     OW33040   2.561   1.825   7.756  0.4028 -0.3067 -0.0923
 7135SOL    HW133041   2.630   1.891   7.768  0.3517 -0.8347  3.1664
 7135SOL    HW233042   2.544   1.837   7.662  0.5642 -3.3299 -0.5135
 7136SOL     OW33043   3.985   4.147  13.275  0.4678 -0.4024 -0.1192
 7136SOL    HW133044   3.934   4.068  13.293  1.0376 -1.3290 -2.5805
 7136SOL    HW233045   3.924   4.198  13.222  0.5685 -1.3396 -1.1406
 7137SOL     OW33046   3.703   1.576   9.672 -0.2490 -0.2085  0.0884
 7137SOL    HW133047   3.737   1.654   9.628 -0.8835  0.2429  0.4208
 7137SOL    HW233048   3.633   1.609   9.727 -0.4692 -0.3145 -0.1280
 7138SOL     OW33049   2.507   0.058   2.397  0.2896 -0.0395  0.5005
 7138SOL    HW133050   2.552   0.109   2.464 -0.3431  0.9667  0.1623
 7138SOL    HW233051   2.552   4.704   2.406 -1.4039 -1.2263 -1.6905
 7139SOL     OW33052   3.636   1.906   3.853  0.1165  0.3442 -0.2313
 7139SOL    HW133053   3.601   1.821   3.825  0.5114  0.8106 -2.1562
 7139SOL    HW233054   3.694   1.917   3.777 -1.7669  0.1726 -1.7084
 7140SOL     OW33055   1.136   1.472   7.282 -0.4220 -0.0079 -0.1124
 7140SOL    HW133056   1.154   1.378   7.274  5.4624  1.2355 -0.9243
 7140SOL    HW233057   1.080   1.480   7.360 -0.1521 -0.8443  0.1667
 7141SOL     OW33058   2.599   4.698   4.230  0.2527  0.0796  0.6254
 7141SOL    HW133059   2.517   0.015   4.210 -0.9127 -2.9596 -1.7887
 7141SOL    HW233060   2.642   0.015   4.158  0.6398 -0.6286  0.4038
 7142SOL     OW33061   0.710   0.482   7.136 -0.2119 -0.3065 -0.6329
 7142SOL    HW133062   0.701   0.389   7.118 -0.0545 -0.1513 -1.5524
 7142SOL    HW233063   0.708   0.512   7.045 -0.5781 -1.4159 -0.9940
 7143SOL     OW33064   3.410   1.594   7.857  0.3363 -0.2080 -0.4512
 7143SOL    HW133065   3.414   1.607   7.762 -0.8797  0.5993 -0.3999
 7143SOL    HW233066   3.500   1.612   7.886 -0.6485 -1.5780  3.4721
 7144SOL     OW33067   2.137   0.781   7.022 -0.5751 -0.0977 -0.1348
 7144SOL    HW133068   2.127   0.723   6.947 -1.1178 -0.2986  0.0907
 7144SOL    HW233069   2.219   0.823   6.995  0.4540 -2.9284 -1.4347
 7145SOL     OW33070   3.271   0.961   4.413  0.2527  0.7821 -0.4981
 7145SOL    HW133071   3.343   0.904   4.441 -1.7650 -2.6163 -2.3676
 7145SOL    HW233072   3.207   0.893   4.394  1.7911 -0.5776 -0.7810
 7146SOL     OW33073   1.526   2.879   1.677  0.4855 -0.4637 -0.5012
 7146SOL    HW133074   1.435   2.851   1.668 -0.3486  2.2889 -0.5029
 7146SOL    HW233075   1.516   2.973   1.694 -0.2678 -1.3209  3.7547
 7147SOL     OW33076   0.431   2.171   4.023  0.0229  0.0091  0.1203
 7147SOL    HW133077   0.390   2.131   4.100  1.1404 -0.8823  0.2540
 7147SOL    HW233078   0.347   2.192   3.982 -1.6698 -1.7209  2.6080
 7148SOL     OW33079   4.528   2.241   5.608  0.1155  0.1894 -0.1115
 7148SOL    HW133080   4.506   2.159   5.652 -2.0583  0.1112 -1.3575
 7148SOL    HW233081   4.563   2.295   5.679  1.5206 -0.1543 -0.5420
 7149SOL     OW33082   1.006   3.424   6.803  0.2755  0.2442  0.7315
 7149SOL    HW133083   0.928   3.437   6.857  0.2318 -0.2340  0.7754
 7149SOL    HW233084   1.087   3.442   6.852  0.8913 -2.9204  0.8678
 7150SOL     OW33085   3.179   3.638   2.496 -0.4188 -0.4475 -0.7577
 7150SOL    HW133086   3.131   3.618   2.576  1.1747 -0.5704  0.1652
 7150SOL    HW233087   3.224   3.719   2.521  1.1363 -1.1047 -1.4091
 7151SOL     OW33088   2.025   0.758   3.444 -0.0255 -0.0627  0.2294
 7151SOL    HW133089   2.074   0.786   3.522 -0.0915  0.0510  0.2296
 7151SOL    HW233090   2.047   0.665   3.446 -0.7813 -0.2662 -0.9686
 7152SOL     OW33091   2.139   3.759   6.394 -0.2908  0.0226 -0.4180
 7152SOL    HW133092   2.087   3.765   6.473  1.2758  0.4383  0.5860
 7152SOL    HW233093   2.167   3.669   6.380 -2.0229 -0.6507  0.4394
 7153SOL     OW33094   0.188   3.956   5.954 -0.3936 -0.4307 -0.4416
 7153SOL    HW133095   0.226   3.920   6.033  3.4579  1.8676 -1.2533
 7153SOL    HW233096   0.156   4.044   5.974  0.3533  0.3037 -2.4070
 7154SOL     OW33097   4.673   4.233   7.393  0.0252  0.1637  0.6298
 7154SOL    HW133098   4.602   4.253   7.332 -0.4696 -3.1623  0.1244
 7154SOL    HW233099   4.697   4.322   7.418  1.7475  0.4892 -2.2138
 7155SOL     OW33100   4.355   0.403  14.529 -0.3210  0.1984 -0.1161
 7155SOL    HW133101   4.280   0.386  14.587  1.4427 -0.2657  2.0269
 7155SOL    HW233102   4.376   0.320  14.485  0.0422  0.5117 -0.5259
 7156SOL     OW33103   1.678   0.494   9.237 -0.8431 -0.0979 -0.7785
 7156SOL    HW133104   1.650   0.417   9.288  2.1128  0.4658  1.7027
 7156SOL    HW233105   1.597   0.545   9.227 -0.3922  0.6748 -0.4743
 7157SOL     OW33106   0.406   0.377   1.535  0.6511 -0.4556  0.2567
 7157SOL    HW133107   0.494   0.415   1.538  0.1333  0.7325  0.5423
 7157SOL    HW233108   0.423   0.285   1.556  1.8530  0.0059  1.2776
 7158SOL     OW33109   4.172   4.366   5.602 -0.3826  0.1507 -0.0496
 7158SOL    HW133110   4.104   4.430   5.625 -0.0114 -0.2704  2.1871
 7158SOL    HW233111   4.239   4.421   5.562 -2.1325  0.3114 -2.7298
 7159SOL     OW33112   1.751   0.499   6.245 -0.2302  0.0352 -0.0695
 7159SOL    HW133113   1.783   0.561   6.179 -0.9077 -0.9629 -1.3180
 7159SOL    HW233114   1.669   0.477   6.201 -0.4729  1.0141 -0.1271
 7160SOL     OW33115   0.477   3.009  11.955 -0.2202  0.4361  0.0980
 7160SOL    HW133116   0.520   2.995  11.870 -0.1625 -2.0636  0.5303
 7160SOL    HW233117   0.450   3.100  11.962  3.4023  1.4286  0.9182
 7161SOL     OW33118   3.880   4.491  11.536 -0.1600 -0.4247  0.4532
 7161SOL    HW133119   3.840   4.500  11.622  0.0168 -0.8991  0.5856
 7161SOL    HW233120   3.821   4.443  11.477 -0.1602 -0.1222  0.2036
 7162SOL     OW33121   2.609   2.480  13.836 -0.8154  0.2536 -0.6053
 7162SOL    HW133122   2.670   2.479  13.762  0.1541  1.8510  0.1479
 7162SOL    HW233123   2.632   2.403  13.888 -0.9851  0.5779 -0.0521
 7163SOL     OW33124   4.248   0.541   7.222  0.6871  0.2980  0.4443
 7163SOL    HW133125   4.249   0.604   7.150  0.0258  0.4688  0.5873
 7163SOL    HW233126   4.340   0.537   7.247  1.6829 -0.2869 -3.3086
 7164SOL     OW33127   0.042   4.423   4.204  1.0366 -0.3344 -0.1158
 7164SOL    HW133128   4.678   4.445   4.210  1.0217 -0.2522 -0.5965
 7164SOL    HW233129   0.072   4.462   4.121 -0.8588  0.1956 -0.5615
 7165SOL     OW33130   2.832   3.190   5.018 -0.2029 -0.2091 -0.1174
 7165SOL    HW133131   2.918   3.166   4.983  1.1901  1.4934  2.1573
 7165SOL    HW233132   2.770   3.119   5.002 -1.4807  0.9511 -0.3766
 7166SOL     OW33133   3.880   4.019   6.235  0.0754 -0.0773  0.1772
 7166SOL    HW133134   3.785   4.030   6.227  0.2440  0.8322 -0.5958
 7166SOL    HW233135   3.908   4.111   6.242 -0.8444  0.0259  2.5045
 7167SOL     OW33136   0.486   3.344   7.520 -0.2709  0.4070  0.1167
 7167SOL    HW133137   0.407   3.389   7.549 -1.2161 -0.8725 -0.4737
 7167SOL    HW233138   0.553   3.412   7.518 -0.4610  0.5248 -2.6140
 7168SOL     OW33139   1.686   2.391  16.594 -0.0576 -0.2844 -0.8872
 7168SOL    HW133140   1.705   2.444  16.517  2.8066 -0.3541 -0.2169
 7168SOL    HW233141   1.704   2.454  16.663 -0.6867 -3.4095  2.1704
 7169SOL     OW33142   3.884   2.240   1.931 -0.8592 -0.6015  0.4242
 7169SOL    HW133143   3.938   2.168   1.965 -3.6545 -3.8766 -2.1004
 7169SOL    HW233144   3.929   2.254   1.848 -4.1318  0.8964 -1.1030
 7170SOL     OW33145   4.036   1.381  13.969  0.0228 -0.2044  0.1746
 7170SOL    HW133146   4.055   1.371  13.876  1.6304 -0.3438  0.5080
 7170SOL    HW233147   3.951   1.424  13.962  0.3825  0.2760 -1.3303
 7171SOL     OW33148   2.090   1.095   9.149  0.2915  0.2045  0.1788
 7171SOL    HW133149   2.105   1.167   9.210 -1.5905  0.7864 -0.0494
 7171SOL    HW233150   2.097   1.146   9.068  0.4594  1.4635  1.0025
 7172SOL     OW33151   1.025   1.891   7.649  0.7957  0.8585  0.5108
 7172SOL    HW133152   1.096   1.901   7.586 -0.6737  1.3730 -1.0641
 7172SOL    HW233153   1.059   1.873   7.737  1.1259 -1.3028 -0.0474
 7173SOL     OW33154   0.913   1.220   1.877  0.1038  0.1754  0.0446
 7173SOL    HW133155   0.862   1.301   1.871  0.5443  0.4179 -0.4868
 7173SOL    HW233156   0.898   1.188   1.788  0.8397  3.2740 -1.2061
 7174SOL     OW33157   4.711   1.542   8.196 -0.0837 -0.7034 -0.2812
 7174SOL    HW133158   4.662   1.592   8.261  1.0172  0.9798 -0.7691
 7174SOL    HW233159   0.056   1.515   8.250 -0.3212  0.1487  0.4776
 7175SOL     OW33160   1.762   1.280   6.722  0.0652  0.3101 -0.0896
 7175SOL    HW133161   1.696   1.306   6.657 -1.5585  0.7844  1.7635
 7175SOL    HW233162   1.792   1.201   6.677 -2.1606 -0.8501  0.4342
 7176SOL     OW33163   1.294   3.616   2.979 -0.3458 -0.0351 -0.3393
 7176SOL    HW133164   1.262   3.622   2.889  0.8162  1.0844 -0.6732
 7176SOL    HW233165   1.246   3.542   3.016  0.3196 -0.9231 -1.2619
 7177SOL     OW33166   1.169   2.554   4.063 -0.1572  0.1883  0.0967
 7177SOL    HW133167   1.132   2.576   4.148 -0.0321 -0.4584  0.3112
 7177SOL    HW233168   1.082   2.537   4.027 -0.2660  1.3695 -0.2160
 7178SOL     OW33169   1.310   2.192   7.197 -0.7496  0.5037 -0.0639
 7178SOL    HW133170   1.245   2.122   7.201 -1.7849  1.4014 -1.1888
 7178SOL    HW233171   1.388   2.141   7.217  0.7674  2.7049 -0.3591
 7179SOL     OW33172   0.594   2.146   8.425 -0.5002 -0.0782 -0.2876
 7179SOL    HW133173   0.566   2.073   8.481  1.8125 -0.6907  0.0915
 7179SOL    HW233174   0.531   2.145   8.353  0.2931  1.9288 -1.0011
 7180SOL     OW33175   1.018   3.755   6.787  0.4486  0.2259  0.3090
 7180SOL    HW133176   0.977   3.669   6.788  0.4037  0.2835  2.9199
 7180SOL    HW233177   0.968   3.814   6.843  1.6329  0.7811  0.7771
 7181SOL     OW33178   2.609   2.142  12.060 -0.2724  0.3177  0.2594
 7181SOL    HW133179   2.618   2.069  12.121 -0.3282 -0.6882 -0.9331
 7181SOL    HW233180   2.518   2.134  12.031 -0.8780  0.4002  2.0863
 7182SOL     OW33181   2.497   2.907   5.931  0.0847 -0.4053  0.2535
 7182SOL    HW133182   2.555   2.867   5.996 -1.8008 -0.9329  1.5937
 7182SOL    HW233183   2.508   2.846   5.858 -2.8928 -2.3506  1.4313
 7183SOL     OW33184   3.808   0.944   1.872  0.2938  0.5078 -0.3530
 7183SOL    HW133185   3.848   1.027   1.900  0.7700  0.1856 -0.0841
 7183SOL    HW233186   3.720   0.965   1.902 -0.2503  0.8123 -2.1681
 7184SOL     OW33187   4.457   3.082  17.027 -0.6001 -0.3043 -0.0956
 7184SOL    HW133188   4.507   3.001  17.015 -1.1643 -0.2241 -3.0538
 7184SOL    HW233189   4.372   3.053  17.058 -0.8784  0.1784 -0.4097
 7185SOL     OW33190   3.021   3.282   9.872  0.0559  0.2554  0.3806
 7185SOL    HW133191   3.080   3.273   9.797 -1.5634 -2.2075 -0.6115
 7185SOL    HW233192   3.089   3.298   9.937  1.7792  0.5074 -1.4672
 7186SOL     OW33193   1.233   2.861   6.036  0.0404 -0.1610 -0.5198
 7186SOL    HW133194   1.141   2.885   6.042  0.1369 -0.4703  2.1685
 7186SOL    HW233195   1.232   2.794   5.968 -2.9287 -0.5491 -0.0926
 7187SOL     OW33196   2.836   3.199  10.056 -0.0647 -0.5794  0.3781
 7187SOL    HW133197   2.882   3.216  10.138  0.1537  0.8624 -0.0446
 7187SOL    HW233198   2.907   3.236  10.004  0.2180 -1.6720 -0.0067
 7188SOL     OW33199   3.983   2.766   8.314 -0.0297 -0.1691 -0.1223
 7188SOL    HW133200   3.936   2.837   8.272  0.8021 -0.3338 -1.3373
 7188SOL    HW233201   4.006   2.699   8.250  0.2847  0.7353 -0.9527
 7189SOL     OW33202   2.597   1.651   7.192  0.3949 -0.3623 -0.8169
 7189SOL    HW133203   2.682   1.612   7.214  1.2519  0.5378 -2.5195
 7189SOL    HW233204   2.537   1.597   7.242  2.2750  0.0160  1.8431
 7190SOL     OW33205   3.104   0.863   7.372  0.0978  0.5320 -0.1746
 7190SOL    HW133206   3.017   0.823   7.377 -1.2226  3.3487 -0.8258
 7190SOL    HW233207   3.158   0.795   7.412  0.8364  0.9145 -0.5230
 7191SOL     OW33208   2.934   0.446   3.154 -0.2521  0.0001  0.1777
 7191SOL    HW133209   2.886   0.369   3.187 -1.0178  0.2506 -0.3561
 7191SOL    HW233210   2.859   0.498   3.125 -0.5708 -0.2708  0.5076
 7192SOL     OW33211   0.407   1.035   7.296  0.0274  0.3543  0.2996
 7192SOL    HW133212   0.483   1.077   7.336  1.3552 -0.9982 -0.8002
 7192SOL    HW233213   0.335   1.050   7.356 -0.8482  0.3859 -0.7469
 7193SOL     OW33214   1.188   0.448   1.115  0.4672 -0.1011 -0.0179
 7193SOL    HW133215   1.194   0.484   1.204 -1.6595 -0.5264  0.2740
 7193SOL    HW233216   1.120   0.383   1.132 -0.5844  0.9083 -0.3735
 7194SOL     OW33217   0.850   1.935   0.729  0.8164 -0.5912 -0.2701
 7194SOL    HW133218   0.849   2.025   0.697  1.2208 -0.4168  0.2084
 7194SOL    HW233219   0.764   1.919   0.770 -0.0421  1.1047 -1.3972
 7195SOL     OW33220   3.339   3.810  17.496 -0.4023 -0.2026 -0.6097
 7195SOL    HW133221   3.370   3.725  17.465 -1.7067 -0.4618 -1.2134
 7195SOL    HW233222   3.420   3.855  17.470 -0.3082  0.5951  1.0622
 7196SOL     OW33223   1.827   3.052   3.855 -0.3996  1.0707 -0.2581
 7196SOL    HW133224   1.767   2.996   3.904 -0.8569  0.8751 -1.0373
 7196SOL    HW233225   1.758   3.095   3.804  0.4996  1.1699 -1.3907
 7197SOL     OW33226   1.239   3.268   8.551 -0.3385 -0.0888 -0.3815
 7197SOL    HW133227   1.315   3.211   8.549 -0.5410 -0.4006  0.6590
 7197SOL    HW233228   1.221   3.280   8.645  1.5508  0.8555 -0.1517
 7198SOL     OW33229   1.455   1.614   2.549 -0.4492  0.0500 -0.2401
 7198SOL    HW133230   1.444   1.604   2.644 -0.3728  0.5784 -0.1711
 7198SOL    HW233231   1.413   1.698   2.529  1.9806  1.4073  0.2985
 7199SOL     OW33232   4.008   2.412  12.804  0.2169 -0.8320  0.0524
 7199SOL    HW133233   4.044   2.385  12.719  0.3683 -1.3308  0.2705
 7199SOL    HW233234   3.920   2.378  12.786  0.8056 -2.4842  0.3085
 7200SOL     OW33235   3.328   1.210  14.206 -0.0396  0.5544  0.1417
 7200SOL    HW133236   3.326   1.136  14.145 -1.0672  0.7280 -0.0301
 7200SOL    HW233237   3.245   1.205  14.253  0.3704  3.2317  1.1505
 7201SOL     OW33238   0.140   1.501   2.766  0.0767  0.1315 -0.4297
 7201SOL    HW133239   0.172   1.588   2.743 -0.5530  0.7785  1.1483
 7201SOL    HW233240   0.189   1.501   2.848  0.3731 -0.8406 -0.6110
 7202SOL     OW33241   3.840   0.858   1.173  0.1057  0.3779 -0.5190
 7202SOL    HW133242   3.857   0.868   1.079  0.9582 -3.1377 -0.7313
 7202SOL    HW233243   3.917   0.813   1.208 -0.1285 -0.7229 -1.3980
 7203SOL     OW33244   2.501   2.848   9.097  0.1390  0.2468 -0.1753
 7203SOL    HW133245   2.485   2.754   9.090  0.1774  0.0168  2.9219
 7203SOL    HW233246   2.419   2.888   9.067 -0.3540  1.0343  2.2281
 7204SOL     OW33247   2.004   2.692   1.764 -0.2138 -0.5056  0.1331
 7204SOL    HW133248   2.076   2.755   1.755 -0.0127 -0.9364 -1.2644
 7204SOL    HW233249   1.936   2.748   1.726 -1.6567 -0.0274  3.3738
 7205SOL     OW33250   4.111   2.165  16.954  0.4671 -0.4213  0.1430
 7205SOL    HW133251   4.044   2.199  16.895 -1.2339 -2.3859  0.9631
 7205SOL    HW233252   4.072   2.082  16.981 -2.0201  0.6113 -0.3042
 7206SOL     OW33253   0.427   2.906   9.144  0.0781  0.2163 -0.4402
 7206SOL    HW133254   0.372   2.950   9.080  1.7109  1.4010 -1.0318
 7206SOL    HW233255   0.457   2.835   9.088 -1.0502  1.2421 -2.3538
 7207SOL     OW33256   2.346   0.506   7.044 -0.4216 -0.5162 -0.0812
 7207SOL    HW133257   2.419   0.531   6.988  0.5767 -0.0986  1.4145
 7207SOL    HW233258   2.366   0.549   7.127 -1.0991  0.7964 -0.5895
 7208SOL     OW33259   2.050   3.204   3.510  0.2118 -0.3695  0.2651
 7208SOL    HW133260   2.077   3.129   3.458  1.7372  0.8523 -0.7235
 7208SOL    HW233261   2.136   3.235   3.540 -0.4301 -0.4114  2.1949
 7209SOL     OW33262   0.621   1.739   5.281 -0.2896  0.1739 -0.0257
 7209SOL    HW133263   0.615   1.684   5.358  2.5164  1.5759  1.1743
 7209SOL    HW233264   0.596   1.824   5.318 -0.7077 -0.3005  0.7798
 7210SOL     OW33265   4.574   3.003   3.297  0.9901  0.3859 -0.0580
 7210SOL    HW133266   4.608   2.932   3.242 -2.9607 -1.0120 -0.7106
 7210SOL    HW233267   4.580   2.965   3.385  0.8827  0.4038 -0.0438
 7211SOL     OW33268   2.723   1.939   5.962  0.1729 -0.0456  0.7062
 7211SOL    HW133269   2.794   2.003   5.967  0.1508  0.0742 -0.5944
 7211SOL    HW233270   2.656   1.981   6.015 -0.0865 -0.3483  0.6220
 7212SOL     OW33271   4.586   3.845   9.117  0.4090 -1.1484 -0.1263
 7212SOL    HW133272   4.662   3.866   9.171  0.6307  0.2740 -0.9899
 7212SOL    HW233273   4.519   3.851   9.185  0.1331 -2.1924 -0.3092
 7213SOL     OW33274   0.139   0.476   2.699  0.1279 -0.3194 -0.0688
 7213SOL    HW133275   0.138   0.398   2.754 -2.2179 -0.1360  0.1776
 7213SOL    HW233276   0.207   0.456   2.635 -0.3324  0.9228 -0.9540
 7214SOL     OW33277   3.390   1.365   6.476 -1.0010  0.5734 -0.0968
 7214SOL    HW133278   3.300   1.334   6.482 -0.7869 -0.4497 -1.9875
 7214SOL    HW233279   3.385   1.454   6.440  0.7619  0.7649  0.1033
 7215SOL     OW33280   3.316   0.921  14.346  0.6993  0.1737  0.1234
 7215SOL    HW133281   3.248   0.951  14.407 -1.0464 -3.4930 -0.0051
 7215SOL    HW233282   3.263   0.881  14.276  0.6836 -0.9522  0.7709
 7216SOL     OW33283   1.333   1.402   4.139 -0.3294 -0.1902  0.1570
 7216SOL    HW133284   1.252   1.364   4.103  0.2905  0.7162 -2.2447
 7216SOL    HW233285   1.320   1.494   4.113  1.0531 -0.0722 -0.0969
 7217SOL     OW33286   3.367   4.049   3.979 -0.0081 -0.4605 -0.3935
 7217SOL    HW133287   3.285   4.087   4.012  0.9345  0.6057  0.7194
 7217SOL    HW233288   3.406   4.042   4.066 -0.1244  0.5267 -0.2554
 7218SOL     OW33289   1.301   4.033   3.377  0.1327 -0.6224 -0.8707
 7218SOL    HW133290   1.308   3.978   3.455  3.0545 -0.1190 -0.7888
 7218SOL    HW233291   1.382   4.083   3.383  0.3826 -1.3473  1.6997
 7219SOL     OW33292   0.290   0.977  12.036  0.3651 -0.3750  0.3825
 7219SOL    HW133293   0.280   0.888  12.068  3.2985 -0.1626  1.8614
 7219SOL    HW233294   0.284   1.032  12.114 -1.2731 -0.4898  0.3424
 7220SOL     OW33295   3.760   4.066   7.505  0.6460 -0.5005 -0.1240
 7220SOL    HW133296   3.734   4.135   7.444 -1.1107 -1.9155 -0.9655
 7220SOL    HW233297   3.760   4.118   7.585 -1.9263 -1.5855  0.5813
 7221SOL     OW33298   4.275   1.645   4.268 -0.3753 -0.4141 -0.2707
 7221SOL    HW133299   4.332   1.587   4.216  0.2736  0.1708 -0.2076
 7221SOL    HW233300   4.236   1.704   4.204 -0.7045  0.4200  0.7097
 7222SOL     OW33301   2.083   2.945   3.359  0.2586  0.2509 -0.3761
 7222SOL    HW133302   1.991   2.921   3.344  0.0950  0.3362  0.4998
 7222SOL    HW233303   2.120   2.907   3.279  0.9836 -2.3682  1.2032
 7223SOL     OW33304   4.574   4.404   5.956 -0.3731 -0.3621 -0.2944
 7223SOL    HW133305   4.554   4.411   6.049  3.0713 -1.0930  0.5275
 7223SOL    HW233306   4.620   4.488   5.949 -0.2874 -0.3310  0.7782
 7224SOL     OW33307   2.781   2.479   2.457  0.4420  0.1441  0.1291
 7224SOL    HW133308   2.774   2.455   2.365 -0.0947 -1.5804  0.6283
 7224SOL    HW233309   2.771   2.574   2.448  0.2158  0.0364 -0.8056
 7225SOL     OW33310   3.980   1.354   3.270 -0.1420  0.4637  0.4337
 7225SOL    HW133311   3.976   1.311   3.185  1.4202 -0.4886  0.8468
 7225SOL    HW233312   3.885   1.371   3.272 -0.4621 -1.4012  0.8210
 7226SOL     OW33313   4.549   4.141   4.432  0.4233 -0.6864 -0.0748
 7226SOL    HW133314   4.575   4.231   4.453  1.8402 -1.4515  1.5003
 7226SOL    HW233315   4.460   4.151   4.466  1.0369 -1.7273  1.8409
 7227SOL     OW33316   3.432   3.433   5.503 -0.4567 -0.0841 -0.2634
 7227SOL    HW133317   3.441   3.472   5.590  0.4915 -1.7098  0.3570
 7227SOL    HW233318   3.425   3.341   5.526 -1.5230 -0.2880 -1.4142
 7228SOL     OW33319   2.526   1.735   1.975  0.2880 -0.0517 -0.1840
 7228SOL    HW133320   2.611   1.748   2.017 -0.9574 -3.2628  3.3215
 7228SOL    HW233321   2.507   1.642   1.988  0.5106  0.0591  0.9283
 7229SOL     OW33322   1.315   2.990   3.858 -0.4944  0.0884 -0.2427
 7229SOL    HW133323   1.317   2.899   3.829 -1.2954  0.0576 -0.2009
 7229SOL    HW233324   1.238   2.997   3.914 -0.0839 -1.3614  0.4987
 7230SOL     OW33325   0.560   1.700   3.563  0.8315 -0.0039 -0.3246
 7230SOL    HW133326   0.510   1.751   3.499  1.4845  0.1786 -0.6898
 7230SOL    HW233327   0.648   1.716   3.529  0.5262  1.1652 -0.5415
 7231SOL     OW33328   0.531   0.851   3.231 -0.1043  0.1669  0.1921
 7231SOL    HW133329   0.454   0.839   3.287 -0.6139  2.3214 -0.0441
 7231SOL    HW233330   0.598   0.885   3.291  1.1438  0.8224 -1.5511
 7232SOL     OW33331   1.446   3.023  15.500  0.1566  0.0997  0.2650
 7232SOL    HW133332   1.429   3.117  15.495 -0.0248  0.1255  1.2062
 7232SOL    HW233333   1.453   2.987  15.412  2.3682 -1.5941  1.1271
 7233SOL     OW33334   1.810   4.348  15.612 -0.0435 -0.2068  0.3887
 7233SOL    HW133335   1.728   4.347  15.660 -0.9550  1.9850 -1.1179
 7233SOL    HW233336   1.863   4.306  15.679  0.4192 -0.3842 -0.0801
 7234SOL     OW33337   0.741   4.446  10.459 -0.1244 -0.1190 -0.1797
 7234SOL    HW133338   0.769   4.354  10.462  0.1697 -0.0773 -1.6714
 7234SOL    HW233339   0.677   4.429  10.391 -0.6122 -0.9766  0.4839
 7235SOL     OW33340   0.780   0.694   9.731 -0.1163 -0.3833  0.4587
 7235SOL    HW133341   0.831   0.773   9.716 -0.0609 -0.6094 -0.5819
 7235SOL    HW233342   0.703   0.739   9.766 -2.4504 -1.1976 -3.6246
 7236SOL     OW33343   1.086   1.616  11.964  0.5526 -0.2518  0.8437
 7236SOL    HW133344   0.994   1.631  11.986 -0.8674 -5.1923 -1.7241
 7236SOL    HW233345   1.132   1.637  12.045  0.7580  1.7443  0.2111
 7237SOL     OW33346   3.422   2.295  12.752 -0.3056 -0.0422 -0.3482
 7237SOL    HW133347   3.490   2.339  12.805 -0.8284 -0.3862  0.6175
 7237SOL    HW233348   3.472   2.275  12.673  1.4402  3.6754 -0.2032
 7238SOL     OW33349   3.010   1.405  11.264 -0.9891  0.0827 -0.1378
 7238SOL    HW133350   3.060   1.441  11.337 -2.7616 -0.0502  1.1343
 7238SOL    HW233351   3.057   1.324  11.247 -0.4321  0.1148  1.2718
 7239SOL     OW33352   1.114   3.994   3.689  0.5519 -0.4190 -0.4746
 7239SOL    HW133353   1.037   3.951   3.654 -0.5721  1.7058 -0.6192
 7239SOL    HW233354   1.184   3.946   3.645  0.6425 -0.8906  0.1849
 7240SOL     OW33355   3.487   2.978   6.019 -0.3183  0.0855 -0.2398
 7240SOL    HW133356   3.541   3.005   6.093 -0.7639  0.3230  0.0009
 7240SOL    HW233357   3.465   3.065   5.983 -1.5812 -0.5110 -0.9142
 7241SOL     OW33358   3.816   0.464   4.974 -0.4662 -0.2868  0.4280
 7241SOL    HW133359   3.780   0.548   4.944 -0.3479 -1.0180 -1.7873
 7241SOL    HW233360   3.908   0.488   4.961 -1.2836  1.1494 -2.7429
 7242SOL     OW33361   3.620   0.721   8.232  0.1089 -0.0178  0.1133
 7242SOL    HW133362   3.566   0.800   8.228  1.4968  0.8952 -0.4953
 7242SOL    HW233363   3.695   0.738   8.175 -0.2835  1.2388 -0.0382
 7243SOL     OW33364   1.911   4.115   6.064 -0.8916  0.4564 -0.7920
 7243SOL    HW133365   1.983   4.088   6.007 -0.5922 -0.0313 -0.1913
 7243SOL    HW233366   1.837   4.134   6.006 -2.4408 -1.4765  0.5732
 7244SOL     OW33367   4.490   3.439   5.149  0.3273  0.4421 -0.3656
 7244SOL    HW133368   4.404   3.450   5.190  0.3329 -0.3420 -0.1445
 7244SOL    HW233369   4.517   3.352   5.179 -0.7097  0.9382  1.9719
 7245SOL     OW33370   4.098   4.611   8.597  0.5710  0.1936  0.1589
 7245SOL    HW133371   4.109   4.669   8.522 -0.4375 -0.1666 -0.2668
 7245SOL    HW233372   4.172   4.551   8.590  0.1905 -0.3624  0.8534
 7246SOL     OW33373   3.137   1.316   4.668  0.8800  0.5615  0.0585
 7246SOL    HW133374   3.161   1.328   4.760 -0.7132  1.3928  0.3614
 7246SOL    HW233375   3.133   1.221   4.678 -1.7085  0.6819  0.1673
 7247SOL     OW33376   0.911   0.739   6.259  0.0811  0.3176  0.4121
 7247SOL    HW133377   0.988   0.692   6.229  2.3735  3.2116  1.7800
 7247SOL    HW233378   0.908   0.709   6.350 -0.2797  1.7817  0.8890
 7248SOL     OW33379   1.478   4.453   8.637 -0.5532 -0.2445  0.0612
 7248SOL    HW133380   1.422   4.527   8.616  0.4922  0.0840 -1.5574
 7248SOL    HW233381   1.547   4.498   8.686  0.4709 -0.2466 -1.3874
 7249SOL     OW33382   1.357   3.907  16.040  0.0014 -0.2958 -0.2979
 7249SOL    HW133383   1.326   3.983  15.992  0.7512  0.1297 -0.0950
 7249SOL    HW233384   1.341   3.928  16.132 -2.1588 -1.2746 -0.4240
 7250SOL     OW33385   2.530   0.710   4.585  0.1426  0.3237  0.7079
 7250SOL    HW133386   2.621   0.685   4.596 -0.0766 -0.1685  1.3868
 7250SOL    HW233387   2.486   0.639   4.632 -1.0030  0.6261  0.1053
 7251SOL     OW33388   3.951   1.968   3.237 -1.0786  0.0538  0.3268
 7251SOL    HW133389   3.943   2.055   3.276 -0.1930 -0.3374  1.3723
 7251SOL    HW233390   4.004   1.920   3.300 -0.3319  0.6588  0.1637
 7252SOL     OW33391   3.890   3.736  17.603  0.0036 -0.0389  0.3642
 7252SOL    HW133392   3.954   3.688  17.550  1.1999  1.8798  0.0810
 7252SOL    HW233393   3.901   3.825  17.569 -2.5825  0.4994  0.9536
 7253SOL     OW33394   0.682   1.875   1.048 -0.0312 -0.0824  0.4884
 7253SOL    HW133395   0.684   1.957   1.097 -0.3897  1.7287 -2.5446
 7253SOL    HW233396   0.765   1.837   1.075  0.1186  1.8005  2.7361
 7254SOL     OW33397   0.648   2.686   1.838 -0.2190  0.1532  0.2473
 7254SOL    HW133398   0.602   2.654   1.761 -0.1825 -0.0869  0.3261
 7254SOL    HW233399   0.718   2.621   1.837 -1.8969 -1.6229 -2.2092
 7255SOL     OW33400   2.302   3.408   8.150 -0.1867 -0.0629 -0.0959
 7255SOL    HW133401   2.247   3.362   8.213  0.9599  0.2137  1.1220
 7255SOL    HW233402   2.241   3.457   8.096 -2.9403 -1.3506  1.8613
 7256SOL     OW33403   2.537   1.533  16.559 -0.4434 -0.3165 -0.5268
 7256SOL    HW133404   2.463   1.506  16.613 -0.3170  1.5769  0.5761
 7256SOL    HW233405   2.568   1.454  16.514  0.1548  0.8937 -2.2537
 7257SOL     OW33406   3.032   2.913  14.958  0.3486  0.0230  0.0271
 7257SOL    HW133407   2.964   2.855  14.924  1.7545 -1.2543 -0.6395
 7257SOL    HW233408   3.082   2.851  15.011  2.0190 -0.4559 -2.0912
 7258SOL     OW33409   1.232   2.820  14.868  0.1305  0.4190  0.1327
 7258SOL    HW133410   1.259   2.900  14.914  1.5577 -0.8453  1.4576
 7258SOL    HW233411   1.165   2.854  14.809 -0.4113  1.5562  1.3944
 7259SOL     OW33412   1.814   2.233   3.817 -0.1046 -0.4268 -0.2289
 7259SOL    HW133413   1.753   2.160   3.807 -1.3625  0.6671 -0.5306
 7259SOL    HW233414   1.750   2.294   3.854  0.9672  0.4563  0.1721
 7260SOL     OW33415   2.023   4.458  16.948 -0.2385  0.3326  0.6597
 7260SOL    HW133416   2.107   4.432  16.984  2.4578  1.5674 -4.7764
 7260SOL    HW233417   2.042   4.504  16.866 -0.8363 -1.4217 -0.4848
 7261SOL     OW33418   3.177   2.742   3.675 -0.2019 -0.2494 -0.0820
 7261SOL    HW133419   3.117   2.814   3.659 -0.2698 -0.4893 -0.9080
 7261SOL    HW233420   3.121   2.666   3.689 -0.1094  0.0220  1.7069
 7262SOL     OW33421   1.855   0.678  11.581  0.1008 -0.9600  0.0690
 7262SOL    HW133422   1.900   0.762  11.596  2.0664 -1.7462 -1.4932
 7262SOL    HW233423   1.914   0.641  11.516  1.1828  1.2991 -0.2304
 7263SOL     OW33424   0.642   3.923   4.848 -0.2297  0.0430  0.0458
 7263SOL    HW133425   0.625   3.950   4.758  0.1292 -0.8958 -0.2998
 7263SOL    HW233426   0.613   3.992   4.908 -0.6576  0.9406 -1.1787
 7264SOL     OW33427   3.420   3.151  13.812  0.7168  0.2012 -0.0356
 7264SOL    HW133428   3.436   3.209  13.737  1.0214  0.2944  0.0993
 7264SOL    HW233429   3.507   3.148  13.852  0.1923 -0.1716  1.0674
 7265SOL     OW33430   0.511   2.332   6.793  0.1241  0.1375  0.0596
 7265SOL    HW133431   0.607   2.340   6.796  0.0894  0.8420 -0.9068
 7265SOL    HW233432   0.500   2.259   6.854 -2.3443  0.2672 -0.2489
 7266SOL     OW33433   2.610   0.873   9.262  0.3522  0.1031 -0.3059
 7266SOL    HW133434   2.689   0.859   9.315 -0.4785 -1.2960  0.5770
 7266SOL    HW233435   2.562   0.927   9.324  1.5011  1.3507 -0.4979
 7267SOL     OW33436   4.219   2.427  15.921 -0.0992 -0.1830  0.3478
 7267SOL    HW133437   4.287   2.459  15.862 -0.5129  1.1824  0.5989
 7267SOL    HW233438   4.145   2.463  15.871  1.6579  0.1487 -2.0134
 7268SOL     OW33439   2.906   4.230   3.459  0.0773  0.1935 -0.6442
 7268SOL    HW133440   2.893   4.136   3.449  3.3221  0.2836 -5.2695
 7268SOL    HW233441   2.998   4.249   3.441  0.3499  1.4157  1.9344
 7269SOL     OW33442   4.413   3.798   5.888 -0.2893  0.2225  0.2063
 7269SOL    HW133443   4.371   3.816   5.803 -0.4317 -1.6257 -0.1157
 7269SOL    HW233444   4.467   3.721   5.871  2.2517  2.1169 -0.2846
 7270SOL     OW33445   3.551   1.113   4.903  0.0114 -0.4487  0.1796
 7270SOL    HW133446   3.553   1.036   4.846 -0.2626 -0.9653  0.8707
 7270SOL    HW233447   3.495   1.087   4.976  2.6298 -1.9373  1.6672
 7271SOL     OW33448   0.306   3.726   4.773 -0.0153 -0.4876 -0.1748
 7271SOL    HW133449   0.308   3.821   4.783 -0.1547 -0.4472 -0.5212
 7271SOL    HW233450   0.297   3.713   4.678  0.7464  1.3454 -0.4971
 7272SOL     OW33451   4.354   1.306  16.220 -0.5568 -0.0392  0.1611
 7272SOL    HW133452   4.279   1.274  16.170 -0.7407 -2.4305  1.9620
 7272SOL    HW233453   4.419   1.323  16.152 -0.3410 -2.0579 -0.1266
 7273SOL     OW33454   1.845   4.074  15.955  0.1321 -0.1432 -0.4981
 7273SOL    HW133455   1.860   4.055  16.048 -0.1898  0.8706 -0.2357
 7273SOL    HW233456   1.752   4.050  15.955  0.1255 -0.1436  0.9115
 7274SOL     OW33457   0.425   3.071   7.579  0.2133 -0.3630 -0.4098
 7274SOL    HW133458   0.398   3.046   7.491 -0.0560  1.0227 -0.7199
 7274SOL    HW233459   0.422   3.166   7.568 -0.8834 -0.1733  1.4911
 7275SOL     OW33460   0.871   4.034  15.247 -0.0621  0.3272 -0.1999
 7275SOL    HW133461   0.798   3.994  15.294  0.5379  0.4835  0.8614
 7275SOL    HW233462   0.949   3.985  15.272 -0.5191 -0.5404 -0.4587
 7276SOL     OW33463   0.226   3.465   9.931 -0.7080  0.5673 -0.3356
 7276SOL    HW133464   0.295   3.508   9.881 -0.9059 -0.0099 -1.1013
 7276SOL    HW233465   0.266   3.467  10.018 -0.1873 -0.2473 -0.5470
 7277SOL     OW33466   0.197   3.121   2.071 -0.2803 -0.2013  0.0230
 7277SOL    HW133467   0.216   3.148   2.161 -0.9309  0.6134 -0.0838
 7277SOL    HW233468   0.286   3.093   2.047  0.4198  1.3425  0.7993
 7278SOL     OW33469   2.031   3.800  11.471  0.3154  0.2524 -0.2558
 7278SOL    HW133470   1.992   3.777  11.555 -0.4317  4.4449  0.5627
 7278SOL    HW233471   2.058   3.892  11.482  3.6274 -0.8122  0.5387
 7279SOL     OW33472   0.479   2.301  12.342  0.7458 -0.3022 -0.3678
 7279SOL    HW133473   0.516   2.380  12.382 -1.8307  0.6078  0.2012
 7279SOL    HW233474   0.402   2.335  12.296  0.3132 -1.1144 -0.2445
 7280SOL     OW33475   3.706   0.465  13.633 -0.4857  0.2085  0.6205
 7280SOL    HW133476   3.751   0.382  13.619 -1.0854 -0.1390  0.7786
 7280SOL    HW233477   3.771   0.501  13.694 -0.1193 -0.9045  0.8846
 7281SOL     OW33478   3.308   1.007   7.781  0.1174  0.2948  0.5222
 7281SOL    HW133479   3.289   1.086   7.731 -1.0448 -0.8159 -0.7855
 7281SOL    HW233480   3.375   1.030   7.845 -0.7954  2.0006  0.8602
 7282SOL     OW33481   0.748   1.925   3.433 -0.7648 -0.6065  0.3133
 7282SOL    HW133482   0.780   1.869   3.503 -2.1810 -0.1134  1.3591
 7282SOL    HW233483   0.803   2.003   3.435 -0.7179 -0.6240 -0.2808
 7283SOL     OW33484   3.010   4.119   1.543  0.6720  0.6519  1.3197
 7283SOL    HW133485   2.937   4.130   1.604 -0.6855  0.5061 -0.2661
 7283SOL    HW233486   3.056   4.042   1.575  0.9203  0.9125  1.5940
 7284SOL     OW33487   4.110   2.411   6.582 -0.8878 -0.4116 -0.1284
 7284SOL    HW133488   4.040   2.459   6.540 -0.9560 -0.6330 -0.2669
 7284SOL    HW233489   4.141   2.482   6.639 -1.3640 -0.2478 -0.0739
 7285SOL     OW33490   3.529   4.252   5.419  0.1689  0.5141  0.0808
 7285SOL    HW133491   3.587   4.177   5.405 -0.7600  0.1374 -1.8505
 7285SOL    HW233492   3.450   4.207   5.447  0.8492  1.0583  2.8780
 7286SOL     OW33493   3.068   0.374   5.688 -0.2722 -0.1630 -0.1083
 7286SOL    HW133494   3.123   0.400   5.762  2.3200  0.6568 -2.3377
 7286SOL    HW233495   3.084   0.280   5.675  1.4886 -0.0529  1.2717
 7287SOL     OW33496   0.576   0.442  10.773  0.3161 -0.6836  0.1736
 7287SOL    HW133497   0.617   0.391  10.843  1.0921  1.4453  1.2905
 7287SOL    HW233498   0.512   0.375  10.752  1.0421 -0.8688 -1.4949
 7288SOL     OW33499   0.125   1.379   3.145  0.1436 -0.2817 -0.5593
 7288SOL    HW133500   0.157   1.455   3.096  0.0832 -0.1991 -0.4709
 7288SOL    HW233501   0.049   1.418   3.189  0.1479 -0.2752 -0.5576
 7289SOL     OW33502   1.692   3.242   2.726 -0.3780  0.4385 -0.5682
 7289SOL    HW133503   1.708   3.148   2.726  0.0559  0.5136 -0.4041
 7289SOL    HW233504   1.621   3.251   2.789 -2.3620 -0.7962 -2.6606
 7290SOL     OW33505   0.450   2.977  14.403 -0.0551  0.4968  0.2476
 7290SOL    HW133506   0.495   2.942  14.480 -1.6953 -0.6932  0.6706
 7290SOL    HW233507   0.371   2.993  14.456 -0.6533  0.9742 -0.7855
 7291SOL     OW33508   3.160   1.447   6.759  0.3870 -0.2771 -0.0983
 7291SOL    HW133509   3.178   1.541   6.763  0.0868 -0.1179 -2.3605
 7291SOL    HW233510   3.148   1.442   6.664 -1.0638  2.4926 -0.0402
 7292SOL     OW33511   2.405   0.837   8.268 -0.8568  0.1170 -0.0871
 7292SOL    HW133512   2.365   0.761   8.310  1.6433 -1.2460 -0.1573
 7292SOL    HW233513   2.469   0.797   8.208  0.8660  4.5023 -1.1415
 7293SOL     OW33514   0.883   2.172   6.308  0.2361 -0.4519 -0.0518
 7293SOL    HW133515   0.961   2.227   6.310 -0.2386  0.1973  0.4190
 7293SOL    HW233516   0.913   2.110   6.242  2.0990  1.0084 -0.5659
 7294SOL     OW33517   2.742   4.405   7.647  0.6620 -0.3732  0.4707
 7294SOL    HW133518   2.692   4.347   7.703  1.3262  0.1294  1.5863
 7294SOL    HW233519   2.769   4.479   7.702  2.8266 -1.3428  0.7001
 7295SOL     OW33520   0.977   3.838   0.555 -0.3787 -0.4426 -0.2244
 7295SOL    HW133521   1.011   3.876   0.635 -0.0479 -1.9361  0.3470
 7295SOL    HW233522   0.959   3.752   0.592  0.8091 -1.2424 -1.4943
 7296SOL     OW33523   2.321   2.470   7.003  0.2241  0.6833  0.0177
 7296SOL    HW133524   2.264   2.522   6.948 -0.5048  0.3654  0.4689
 7296SOL    HW233525   2.375   2.541   7.039  1.7059  0.1636 -1.1722
 7297SOL     OW33526   3.283   4.273  15.949  0.0920  0.4586  0.5968
 7297SOL    HW133527   3.298   4.240  16.038 -0.0209 -1.9031 -0.2641
 7297SOL    HW233528   3.371   4.290  15.917 -0.1400  0.9791  0.2337
 7298SOL     OW33529   4.547   4.081   8.594 -0.5776  0.4265 -0.2237
 7298SOL    HW133530   4.590   4.002   8.627 -0.4955  0.7307  0.4046
 7298SOL    HW233531   4.465   4.077   8.644 -0.8156  0.3725 -0.6185
 7299SOL     OW33532   0.075   3.376   7.184 -0.4492 -0.6655 -0.0909
 7299SOL    HW133533   0.052   3.289   7.152 -1.7543  0.0002 -0.9486
 7299SOL    HW233534   0.033   3.383   7.270 -0.9169 -2.0535 -0.2053
 7300SOL     OW33535   3.849   1.328   4.327  0.0001 -0.5298  0.5537
 7300SOL    HW133536   3.764   1.347   4.288  0.0576 -2.1600 -0.3649
 7300SOL    HW233537   3.916   1.352   4.263 -1.3119 -1.2372 -1.0662
 7301SOL     OW33538   4.096   3.259   6.075  0.2205 -0.0757 -0.2291
 7301SOL    HW133539   4.060   3.226   5.992 -0.1948 -2.3295  0.8326
 7301SOL    HW233540   4.188   3.256   6.051  0.3922  1.9907  0.2141
 7302SOL     OW33541   1.457   1.349   7.428  0.4089 -0.2696  0.0109
 7302SOL    HW133542   1.372   1.361   7.471  0.2803 -0.4932 -0.1763
 7302SOL    HW233543   1.437   1.301   7.347  1.0666  0.2366 -0.4536
 7303SOL     OW33544   2.795   3.095   2.495  0.0213  0.1625  0.6406
 7303SOL    HW133545   2.718   3.144   2.469  1.2065  0.9398 -1.3958
 7303SOL    HW233546   2.866   3.159   2.500 -0.2088  0.2916  2.3870
 7304SOL     OW33547   1.048   0.565   2.914  0.6395  0.3297  0.1275
 7304SOL    HW133548   0.992   0.634   2.948  0.4748  1.5064 -2.5661
 7304SOL    HW233549   0.986   0.528   2.852 -1.2701  0.8478  1.7367
 7305SOL     OW33550   2.703   4.210   8.891  0.4222 -0.1729 -0.4861
 7305SOL    HW133551   2.628   4.247   8.936  1.6202 -1.1293  2.3457
 7305SOL    HW233552   2.656   4.128   8.873  0.6747 -0.4829  0.2243
 7306SOL     OW33553   3.852   1.579  16.737  0.0898 -0.2201  0.5940
 7306SOL    HW133554   3.787   1.645  16.713 -0.3342 -0.4622  1.0717
 7306SOL    HW233555   3.915   1.639  16.777 -0.0976 -0.0672  0.6589
 7307SOL     OW33556   3.109   3.110   7.388 -0.2878  0.3822  0.1164
 7307SOL    HW133557   3.066   3.196   7.387  0.5813  0.7800 -2.3199
 7307SOL    HW233558   3.088   3.090   7.479  0.0427  0.1887  0.1479
 7308SOL     OW33559   0.151   2.716   8.330 -0.0400  0.2641  0.8513
 7308SOL    HW133560   0.179   2.626   8.312 -0.4551  0.2933  0.0559
 7308SOL    HW233561   0.217   2.740   8.396  1.7728 -0.1487 -0.8012
 7309SOL     OW33562   4.222   4.359   4.245  0.9961 -0.6166  0.2320
 7309SOL    HW133563   4.146   4.308   4.272  1.1150  0.0524  1.8231
 7309SOL    HW233564   4.267   4.287   4.200  0.8681 -0.7109  0.2555
 7310SOL     OW33565   1.985   2.112   7.462 -0.4254 -0.2156 -0.1379
 7310SOL    HW133566   2.007   2.159   7.543 -0.2937 -1.1375  0.3665
 7310SOL    HW233567   2.002   2.020   7.484 -0.1892 -0.1054  0.1409
 7311SOL     OW33568   3.431   1.348   2.078 -0.2031  0.9938  0.5546
 7311SOL    HW133569   3.389   1.262   2.074  0.3393  0.8159 -1.5179
 7311SOL    HW233570   3.419   1.378   1.988 -1.1188  1.1513  0.7333
 7312SOL     OW33571   3.652   1.276   6.520 -0.7812 -0.2902 -0.8165
 7312SOL    HW133572   3.633   1.191   6.482 -0.9676 -0.9628  0.7834
 7312SOL    HW233573   3.568   1.321   6.511 -0.6971  0.7767  3.8008
 7313SOL     OW33574   2.386   3.514   6.589  0.1293 -0.5325  0.0681
 7313SOL    HW133575   2.478   3.503   6.566 -0.0702 -0.6202 -0.6909
 7313SOL    HW233576   2.349   3.489   6.504 -0.1218 -1.4250  0.4342
 7314SOL     OW33577   1.709   4.261   5.879  0.6668  0.6881 -0.6096
 7314SOL    HW133578   1.764   4.331   5.845  0.6116  1.6073  1.2003
 7314SOL    HW233579   1.682   4.216   5.799  1.0432 -0.1020 -0.2903
 7315SOL     OW33580   3.262   1.060  16.205 -0.4595 -0.4691  0.4857
 7315SOL    HW133581   3.207   1.134  16.231  0.3182 -0.0359  0.8871
 7315SOL    HW233582   3.345   1.073  16.251 -0.3352 -0.3594  0.2338
 7316SOL     OW33583   2.438   3.651  12.406 -0.3831  0.1366 -0.0540
 7316SOL    HW133584   2.411   3.704  12.332  2.3425  2.3934  0.5578
 7316SOL    HW233585   2.519   3.612  12.372 -1.2827 -0.5237 -1.4225
 7317SOL     OW33586   0.917   1.731   2.931 -0.3362 -0.7257 -0.1544
 7317SOL    HW133587   0.905   1.813   2.978  0.9129  0.1477 -1.3686
 7317SOL    HW233588   0.893   1.670   3.001 -0.6050  0.0981  0.4681
 7318SOL     OW33589   1.557   2.441   5.684 -0.4697  0.6652  0.2376
 7318SOL    HW133590   1.649   2.460   5.703 -0.0056 -1.2888 -0.0255
 7318SOL    HW233591   1.547   2.513   5.622  1.2435 -0.3066 -1.1608
 7319SOL     OW33592   3.141   3.119  10.848  0.0994 -0.6346 -0.3030
 7319SOL    HW133593   3.185   3.183  10.903 -2.9756 -1.2660  2.8869
 7319SOL    HW233594   3.077   3.171  10.798  0.5777  0.6171  0.3820
 7320SOL     OW33595   2.624   2.945  12.881  0.4414 -0.3170 -0.6833
 7320SOL    HW133596   2.581   2.863  12.904 -0.8823  0.9332  1.2687
 7320SOL    HW233597   2.545   2.999  12.885 -0.0893 -1.1590  0.0922
 7321SOL     OW33598   0.248   4.233   5.427 -0.4208 -0.0735 -0.4426
 7321SOL    HW133599   0.239   4.299   5.496 -1.2008  0.1492 -0.7608
 7321SOL    HW233600   0.252   4.153   5.480  1.7873  0.6009  0.3822
 7322SOL     OW33601   1.143   3.922   7.613 -0.2656  0.4122  0.4232
 7322SOL    HW133602   1.150   3.994   7.676  0.9419 -0.1907  0.9847
 7322SOL    HW233603   1.199   3.857   7.657 -0.1685  1.6182  2.0871
 7323SOL     OW33604   2.531   0.495   8.708 -0.5671 -0.7674  0.1198
 7323SOL    HW133605   2.468   0.424   8.696 -0.8409 -0.7399  1.3339
 7323SOL    HW233606   2.488   0.576   8.681  0.3925 -0.5867 -0.8870
 7324SOL     OW33607   2.046   1.121  15.242  0.0385  0.3219 -0.0692
 7324SOL    HW133608   1.967   1.113  15.189  0.1120  2.3562 -0.5037
 7324SOL    HW233609   2.106   1.051  15.217 -2.8386 -2.0633 -0.2847
 7325SOL     OW33610   3.929   0.063   8.017  0.0512  0.2606  0.1100
 7325SOL    HW133611   3.875   0.029   7.946  1.7924 -0.6105 -0.8058
 7325SOL    HW233612   3.967   0.143   7.981 -1.2462  0.8902  0.1278
 7326SOL     OW33613   1.008   1.148   7.605  0.3474  0.0622 -0.2147
 7326SOL    HW133614   0.951   1.079   7.571 -1.0527  1.5090 -0.8242
 7326SOL    HW233615   0.947   1.218   7.630  1.5215  0.7105  0.8301
 7327SOL     OW33616   2.947   2.165   1.716  0.0084 -0.3236  0.6168
 7327SOL    HW133617   2.934   2.234   1.651 -0.9389 -0.5650  0.5475
 7327SOL    HW233618   2.968   2.212   1.797  0.8187 -0.8684  0.7232
 7328SOL     OW33619   2.198   1.194   6.491 -0.1121 -0.1744 -0.2320
 7328SOL    HW133620   2.281   1.231   6.522 -0.4142  1.4885 -1.4118
 7328SOL    HW233621   2.141   1.270   6.505 -1.0029 -0.6690 -1.1350
 7329SOL     OW33622   2.256   1.740   1.630  0.6864 -0.2420  0.8448
 7329SOL    HW133623   2.349   1.741   1.607  0.3101 -0.5192 -0.7314
 7329SOL    HW233624   2.242   1.662   1.684 -0.4664 -0.7151 -0.1296
 7330SOL     OW33625   0.596   3.435   3.646 -0.2715  0.1949  0.3242
 7330SOL    HW133626   0.524   3.449   3.707 -0.0188 -1.0919  0.8964
 7330SOL    HW233627   0.600   3.341   3.630 -0.5910  0.2885 -0.2978
 7331SOL     OW33628   0.187   1.673   2.319  0.0834  0.3808 -0.1102
 7331SOL    HW133629   0.172   1.763   2.347  1.4542  0.5948 -0.0505
 7331SOL    HW233630   0.136   1.624   2.384  1.3897  0.2737  0.8330
 7332SOL     OW33631   2.743   1.027  11.558 -0.2456 -0.1729  0.5602
 7332SOL    HW133632   2.820   0.981  11.590 -0.0532  0.2109  0.6504
 7332SOL    HW233633   2.782   1.068  11.481  0.5050 -1.2126  0.3869
 7333SOL     OW33634   4.319   4.282   6.314 -0.2965 -0.4003  0.4496
 7333SOL    HW133635   4.341   4.356   6.258 -1.3446  0.0152  0.5747
 7333SOL    HW233636   4.292   4.223   6.244 -1.5598 -0.2330  0.7966
 7334SOL     OW33637   1.977   2.502   6.046  0.2440  0.2729 -0.3351
 7334SOL    HW133638   1.977   2.587   6.091  0.0343  1.3611 -2.3559
 7334SOL    HW233639   2.070   2.495   6.024 -0.0003 -0.9990 -0.9654
 7335SOL     OW33640   4.542   3.499   0.069 -0.0728  0.2778  0.6638
 7335SOL    HW133641   4.570   3.573   0.123 -0.2984  0.3914  0.6255
 7335SOL    HW233642   4.521   3.450   0.148 -0.3529  3.0508  2.3137
 7336SOL     OW33643   3.053   1.044   2.382  0.0155  0.4469 -0.1143
 7336SOL    HW133644   2.984   1.027   2.447 -0.1694 -0.1375 -0.4646
 7336SOL    HW233645   3.103   1.106   2.435 -2.0083  1.0770  1.0881
 7337SOL     OW33646   2.677   2.735   4.710  0.2270 -0.1025 -0.3163
 7337SOL    HW133647   2.672   2.733   4.806 -1.1658 -0.9047 -0.3989
 7337SOL    HW233648   2.694   2.644   4.687 -0.7633 -1.0059  2.5097
 7338SOL     OW33649   3.414   1.589   5.662 -0.1463 -0.3346  0.1972
 7338SOL    HW133650   3.457   1.673   5.681  0.2442 -0.0295 -1.9288
 7338SOL    HW233651   3.325   1.624   5.654 -0.1361 -0.4909 -0.6514
 7339SOL     OW33652   4.563   2.791  17.598  0.2504  0.6537 -0.1484
 7339SOL    HW133653   4.564   2.695  17.602  0.6492  0.5971 -1.6860
 7339SOL    HW233654   4.489   2.802  17.539  1.1280 -0.3834 -1.4546
 7340SOL     OW33655   2.916   1.186  10.498  0.4177  0.2223 -0.3933
 7340SOL    HW133656   2.883   1.265  10.456 -1.1625  0.6408  1.6779
 7340SOL    HW233657   2.874   1.190  10.584  0.1343  0.6331 -0.5556
 7341SOL     OW33658   4.452   4.389   3.124 -0.1610  0.2270  0.9664
 7341SOL    HW133659   4.528   4.408   3.180  0.3692 -1.5089  0.8280
 7341SOL    HW233660   4.447   4.294   3.125  1.1510  0.1335 -0.7467
 7342SOL     OW33661   3.676   3.088   7.910  0.2022  0.3925  0.1214
 7342SOL    HW133662   3.635   3.030   7.974  1.1716 -1.9419 -1.3789
 7342SOL    HW233663   3.667   3.031   7.833  0.8618  0.7506 -0.2194
 7343SOL     OW33664   0.637   2.385   7.114 -0.0763  0.1023 -0.2759
 7343SOL    HW133665   0.688   2.374   7.033 -1.2298 -3.0281 -0.5742
 7343SOL    HW233666   0.572   2.317   7.102 -1.1239  1.0266  0.1594
 7344SOL     OW33667   1.860   3.046  12.954 -0.6428 -0.0872  0.3724
 7344SOL    HW133668   1.876   2.963  12.908 -1.1992 -0.0859  0.1755
 7344SOL    HW233669   1.883   3.024  13.044 -0.9793 -1.1198  0.2019
 7345SOL     OW33670   3.056   0.344  10.739  0.3398  0.1621  0.9310
 7345SOL    HW133671   3.126   0.298  10.786  2.6940  3.1259  0.3364
 7345SOL    HW233672   3.102   0.367  10.658 -1.9669  1.9388  0.1318
 7346SOL     OW33673   3.629   0.836  12.194  0.4089  0.0389 -0.7260
 7346SOL    HW133674   3.603   0.752  12.156 -1.4789  0.0478  0.5351
 7346SOL    HW233675   3.649   0.813  12.285 -1.3418  0.2641 -0.2840
 7347SOL     OW33676   1.984   4.096   8.045 -0.0584  0.3350 -0.0178
 7347SOL    HW133677   1.961   4.013   8.003 -0.7057  0.5267 -0.0302
 7347SOL    HW233678   1.900   4.141   8.048 -1.2564 -1.8574 -0.4660
 7348SOL     OW33679   4.005   3.805   1.163  0.3803  0.0666  0.0097
 7348SOL    HW133680   4.013   3.888   1.116  0.1868 -1.2800 -2.4040
 7348SOL    HW233681   4.029   3.832   1.252 -0.1190  1.1203 -0.1684
 7349SOL     OW33682   3.602   2.085   1.524  0.1042 -0.4691  0.1344
 7349SOL    HW133683   3.589   2.113   1.433  1.9025 -1.1021 -0.3197
 7349SOL    HW233684   3.513   2.102   1.554 -0.0787  1.6717 -1.6920
 7350SOL     OW33685   2.887   4.273   6.834 -0.3091 -0.1014  0.2446
 7350SOL    HW133686   2.850   4.185   6.826 -2.5558  0.8893 -0.2865
 7350SOL    HW233687   2.813   4.328   6.859  0.7603  1.0436  0.8731
 7351SOL     OW33688   0.448   4.617   1.249  0.4771 -0.1700 -0.3560
 7351SOL    HW133689   0.529   4.637   1.201 -0.2068 -1.0592 -1.8805
 7351SOL    HW233690   0.458   4.522   1.251 -1.1184 -0.2979  0.6976
 7352SOL     OW33691   3.146   3.342  17.183  0.8398 -0.3454  0.4085
 7352SOL    HW133692   3.189   3.365  17.101  0.5951 -0.7250  0.1766
 7352SOL    HW233693   3.203   3.273  17.219 -0.2652 -2.1164 -1.2490
 7353SOL     OW33694   0.570   1.894   4.075  0.3389 -0.0487 -0.6654
 7353SOL    HW133695   0.629   1.914   4.003 -1.4299  2.7146 -1.3366
 7353SOL    HW233696   0.527   1.979   4.083 -1.9781 -1.1695 -1.0349
 7354SOL     OW33697   0.481   2.380   1.792 -0.5230  0.4870  0.2760
 7354SOL    HW133698   0.394   2.413   1.769 -1.0766 -2.5979 -1.9688
 7354SOL    HW233699   0.531   2.428   1.725  0.0265  2.0271  1.7760
 7355SOL     OW33700   1.239   3.899   3.078  0.2844 -0.1634  0.0109
 7355SOL    HW133701   1.254   3.931   3.167  4.2785  0.7734 -0.9713
 7355SOL    HW233702   1.257   3.809   3.103 -0.0925 -0.1448  0.3429
 7356SOL     OW33703   2.173   1.900   3.952 -0.0725  0.4519 -0.8564
 7356SOL    HW133704   2.211   1.862   4.031  2.1055  0.0168 -2.1301
 7356SOL    HW233705   2.112   1.958   3.999 -0.5274 -1.8339  1.3685
 7357SOL     OW33706   2.891   1.690   6.301 -0.6262  0.0381 -0.4379
 7357SOL    HW133707   2.832   1.616   6.313 -0.1746 -0.0501  1.2290
 7357SOL    HW233708   2.907   1.686   6.206  0.0424 -1.0427 -0.2770
 7358SOL     OW33709   2.851   1.051   2.993  0.3769 -0.7252  0.0514
 7358SOL    HW133710   2.760   1.078   2.981  0.4216 -1.1627 -1.3592
 7358SOL    HW233711   2.881   1.102   3.068 -0.9461  2.0102 -1.2735
 7359SOL     OW33712   1.974   0.126   9.868  0.9060  0.1270  0.7795
 7359SOL    HW133713   1.912   0.122   9.941 -0.1639 -1.4623 -0.2221
 7359SOL    HW233714   2.043   0.171   9.916  2.1327  2.2721 -3.0249
 7360SOL     OW33715   4.484   2.495   2.864 -0.3143  0.5708  0.1210
 7360SOL    HW133716   4.491   2.590   2.853  1.2213  0.2609 -1.5516
 7360SOL    HW233717   4.533   2.453   2.793 -0.7595  1.6338 -0.8163
 7361SOL     OW33718   0.572   0.710   4.737 -0.3424  0.0844  0.0314
 7361SOL    HW133719   0.594   0.712   4.644 -3.4262 -0.7300 -0.7273
 7361SOL    HW233720   0.653   0.737   4.780  1.2623 -0.4576 -2.7023
 7362SOL     OW33721   1.190   4.589   8.154  0.5133 -0.1134  0.2379
 7362SOL    HW133722   1.234   4.647   8.216  1.0560 -0.4285  0.1467
 7362SOL    HW233723   1.101   4.623   8.157  0.4464 -0.2094 -0.4995
 7363SOL     OW33724   1.620   3.448   4.386  0.2514  0.1722 -0.0470
 7363SOL    HW133725   1.664   3.367   4.359  1.0006  0.2863  0.8371
 7363SOL    HW233726   1.682   3.479   4.452 -1.2654 -0.9112  1.8936
 7364SOL     OW33727   4.075   3.499  16.864 -0.2279 -0.1977 -0.2190
 7364SOL    HW133728   4.101   3.538  16.781 -2.9130  0.9013 -0.5524
 7364SOL    HW233729   3.980   3.513  16.862 -0.2866 -0.3391  1.6048
 7365SOL     OW33730   3.972   1.605   3.953 -0.3645 -0.1929 -0.1497
 7365SOL    HW133731   3.998   1.661   3.880  2.6446 -0.9413  0.3238
 7365SOL    HW233732   3.990   1.517   3.920 -1.3617 -0.1844 -0.7148
 7366SOL     OW33733   3.915   1.711  14.402  0.3643  0.0435 -0.0391
 7366SOL    HW133734   3.957   1.773  14.461  2.0819 -0.3659 -0.8380
 7366SOL    HW233735   3.979   1.639  14.407 -1.8537 -1.8082  1.8552
 7367SOL     OW33736   3.105   3.341   8.768  0.1760  0.1014 -0.3305
 7367SOL    HW133737   3.041   3.405   8.798 -0.0797 -1.3386  2.1606
 7367SOL    HW233738   3.067   3.271   8.821  0.5115 -2.7088 -3.8064
 7368SOL     OW33739   0.833   2.273  12.995 -0.1446  0.2495  0.2815
 7368SOL    HW133740   0.762   2.220  12.958  0.3152 -0.0965 -0.1263
 7368SOL    HW233741   0.784   2.332  13.052 -1.4034 -0.1376 -0.3896
 7369SOL     OW33742   4.638   0.059  17.671 -0.2550  0.1550 -0.3885
 7369SOL    HW133743   4.643   4.718  17.606 -0.3656 -1.5614  1.4558
 7369SOL    HW233744   4.597   0.009   0.026 -0.2468 -1.6678 -1.6412
 7370SOL     OW33745   3.314   1.676   3.401  0.1772 -0.3102 -0.8950
 7370SOL    HW133746   3.311   1.764   3.438 -3.0097 -0.7625 -0.1006
 7370SOL    HW233747   3.274   1.624   3.471  0.4781 -0.9863 -1.2268
 7371SOL     OW33748   1.719   0.168   2.034  0.0723  0.1662 -0.3890
 7371SOL    HW133749   1.800   0.169   2.086 -0.0772 -3.7546 -0.0503
 7371SOL    HW233750   1.707   0.262   2.033 -1.5087 -0.0144  0.4875
 7372SOL     OW33751   2.476   2.551   6.731  0.4763 -0.1875  0.2871
 7372SOL    HW133752   2.508   2.583   6.647  0.8633 -2.2088 -0.3459
 7372SOL    HW233753   2.489   2.456   6.727  0.4421 -0.0784 -2.1846
 7373SOL     OW33754   2.208   3.768  13.127 -0.8783 -0.5839  0.0256
 7373SOL    HW133755   2.191   3.729  13.213  1.4513  0.6124  1.0403
 7373SOL    HW233756   2.300   3.742  13.117 -0.2351  1.3838  0.6496
 7374SOL     OW33757   1.985   3.182  15.442  0.5329 -0.6274 -0.2388
 7374SOL    HW133758   1.920   3.112  15.442  0.7269 -0.8040 -0.1803
 7374SOL    HW233759   1.925   3.242  15.487 -2.0363 -1.6519 -2.2316
 7375SOL     OW33760   0.461   1.584   2.306 -0.0914  0.2432  0.0856
 7375SOL    HW133761   0.503   1.669   2.317 -0.3758  0.3599  0.2439
 7375SOL    HW233762   0.373   1.611   2.331 -0.0084  0.1996  0.4344
 7376SOL     OW33763   2.819   2.467   4.018  0.0353 -0.2185 -0.6943
 7376SOL    HW133764   2.822   2.432   3.929 -0.3980 -2.1238  0.0223
 7376SOL    HW233765   2.793   2.387   4.064 -0.3405 -0.2446 -0.9521
 7377SOL     OW33766   1.915   0.792   1.402  0.3288  0.0935  0.4026
 7377SOL    HW133767   1.915   0.700   1.376 -0.3884 -0.0543  0.9104
 7377SOL    HW233768   1.990   0.785   1.461 -0.0713  1.2171  1.0502
 7378SOL     OW33769   1.738   1.837   7.451 -0.0953  0.2870  0.0285
 7378SOL    HW133770   1.730   1.742   7.443 -2.1820  0.3342  1.4249
 7378SOL    HW233771   1.770   1.842   7.542 -0.9983  0.5601  0.3319
 7379SOL     OW33772   4.625   0.923   5.716 -0.2646  0.3373  0.2077
 7379SOL    HW133773   4.655   0.833   5.708 -0.8629  0.2180 -0.7001
 7379SOL    HW233774   4.666   0.962   5.639 -0.4113 -0.8852 -0.4843
 7380SOL     OW33775   1.238   3.152   3.489  0.0258 -0.2219  0.4135
 7380SOL    HW133776   1.283   3.236   3.501 -1.3534  0.4696  0.6836
 7380SOL    HW233777   1.189   3.145   3.571 -0.2858 -2.2887  0.0438
 7381SOL     OW33778   0.023   4.725   8.124  0.2644  0.4327  0.0061
 7381SOL    HW133779   4.708   0.064   8.073  1.5697  0.9254 -0.4395
 7381SOL    HW233780   0.101   4.697   8.077  0.2378  1.6503 -0.7517
 7382SOL     OW33781   1.275   1.287   5.074  0.3072  0.0560  0.0826
 7382SOL    HW133782   1.280   1.383   5.072 -1.4825  0.1486 -0.0482
 7382SOL    HW233783   1.333   1.277   4.999 -0.1516 -2.0096  0.0089
 7383SOL     OW33784   0.760   0.018   7.517 -0.5416  0.1470 -0.5678
 7383SOL    HW133785   0.731   4.724   7.429 -0.9355  0.8709 -0.6274
 7383SOL    HW233786   0.707   4.677   7.555  0.7274  0.7467  2.3632
 7384SOL     OW33787   2.324   3.574   3.894  0.8528  0.2211  0.4968
 7384SOL    HW133788   2.276   3.493   3.908 -0.6839  1.0663  0.1069
 7384SOL    HW233789   2.382   3.572   3.970  0.6757  3.4747  0.7338
 7385SOL     OW33790   4.180   0.362  10.039  0.2664 -0.7021  0.2254
 7385SOL    HW133791   4.274   0.377  10.032  0.2186 -0.3317  0.4314
 7385SOL    HW233792   4.152   0.409   9.960 -1.9173  2.1123  2.7097
 7386SOL     OW33793   0.631   1.704   2.525  0.4793 -0.1005  0.4711
 7386SOL    HW133794   0.672   1.618   2.526  1.1555  0.2110 -2.2033
 7386SOL    HW233795   0.701   1.752   2.569  2.1104 -2.7535  0.7501
 7387SOL     OW33796   0.059   4.677   3.795  0.2301 -0.1445  0.4047
 7387SOL    HW133797   0.004   4.674   3.874  1.6032  0.5899  1.3933
 7387SOL    HW233798   0.125   0.012   3.821 -1.3205  1.3387  0.7315
 7388SOL     OW33799   3.643   3.626  17.669 -0.2430  0.1271  0.4079
 7388SOL    HW133800   3.655   3.658   0.042 -2.2955  2.5682 -0.1542
 7388SOL    HW233801   3.724   3.665  17.638  0.2185 -0.4182  0.9194
 7389SOL     OW33802   3.690   0.104   5.666 -0.1570  0.2250  0.3909
 7389SOL    HW133803   3.729   0.134   5.749  0.2517  1.2665 -0.1825
 7389SOL    HW233804   3.738   0.023   5.648  0.5975  0.9739 -0.9804
 7390SOL     OW33805   3.477   2.070   6.546 -0.2019 -0.4777 -0.1240
 7390SOL    HW133806   3.500   1.990   6.499 -1.0274 -1.4041  1.0541
 7390SOL    HW233807   3.387   2.047   6.570 -0.2731  0.6434  0.7072
 7391SOL     OW33808   0.068   0.972  12.601 -0.6619  0.0376 -0.7669
 7391SOL    HW133809   0.070   1.021  12.518 -1.6413  0.8750 -0.2984
 7391SOL    HW233810   4.712   0.927  12.601 -0.9709  0.6248 -0.1745
 7392SOL     OW33811   3.889   3.226   3.638  0.5070 -0.0695  0.7634
 7392SOL    HW133812   3.959   3.167   3.667  1.4279 -0.2668 -1.8302
 7392SOL    HW233813   3.940   3.299   3.602 -0.6884 -0.7470 -2.3034
 7393SOL     OW33814   4.557   0.317   2.480 -0.6385 -0.3494  0.0958
 7393SOL    HW133815   4.555   0.249   2.546  0.2643 -0.2544  0.2208
 7393SOL    HW233816   4.484   0.290   2.424 -0.6441  0.1195 -0.1292
 7394SOL     OW33817   3.603   0.562   6.668 -1.0471 -0.1613  0.1298
 7394SOL    HW133818   3.686   0.564   6.716 -0.7790  2.7913 -0.4811
 7394SOL    HW233819   3.537   0.556   6.737 -1.8741  0.8103 -0.5985
 7395SOL     OW33820   3.646   3.097  12.113  0.4075 -0.0524 -0.3119
 7395SOL    HW133821   3.593   3.069  12.038  0.3686 -1.3147  0.1770
 7395SOL    HW233822   3.577   3.106  12.178  1.0268  0.9011  0.2038
 7396SOL     OW33823   3.641   0.915   0.152 -0.1916  0.5005 -0.6104
 7396SOL    HW133824   3.671   0.983   0.092  0.7075  0.9549  0.3623
 7396SOL    HW233825   3.722   0.888   0.194 -0.8046 -3.2684 -1.9121
 7397SOL     OW33826   3.313   3.464   6.568 -0.0555 -0.3697  0.1099
 7397SOL    HW133827   3.353   3.488   6.652 -1.8405 -0.4509  0.9649
 7397SOL    HW233828   3.263   3.541   6.542 -0.5553 -0.7202  0.0333
 7398SOL     OW33829   2.439   2.357   8.564 -0.2425 -0.4317  0.3523
 7398SOL    HW133830   2.459   2.277   8.613  1.8785 -0.2070 -0.1278
 7398SOL    HW233831   2.424   2.421   8.634  0.3063  0.4226 -0.3263
 7399SOL     OW33832   0.006   1.885  12.573 -0.4850 -0.0207 -0.6885
 7399SOL    HW133833   4.649   1.872  12.612 -0.3288 -0.0495 -0.3587
 7399SOL    HW233834   0.024   1.978  12.584  0.7758 -0.2130 -1.1543
 7400SOL     OW33835   3.720   4.585   2.777 -0.0414  0.7923  0.1407
 7400SOL    HW133836   3.771   4.504   2.779  0.6493  1.2102 -0.3930
 7400SOL    HW233837   3.758   4.625   2.856 -0.0379  0.0643  0.5032
 7401SOL     OW33838   2.716   0.390   1.941 -0.0796  0.1111 -0.0860
 7401SOL    HW133839   2.721   0.484   1.926 -1.1868  0.3443  1.0041
 7401SOL    HW233840   2.753   0.383   2.030 -1.1438  0.7412  0.4012
 7402SOL     OW33841   1.793   2.781   3.066 -0.0785  0.1766 -0.2477
 7402SOL    HW133842   1.845   2.861   3.077  0.1249 -0.1682  1.2411
 7402SOL    HW233843   1.857   2.716   3.036  0.6376  1.2773 -1.1184
 7403SOL     OW33844   1.777   4.009   0.753 -0.0960 -0.4229  0.0377
 7403SOL    HW133845   1.727   4.028   0.832 -0.6121  0.4238 -0.4995
 7403SOL    HW233846   1.740   3.923   0.733 -1.2658  0.4098 -1.3434
 7404SOL     OW33847   4.067   3.392   4.698  0.3043 -0.3332 -0.2580
 7404SOL    HW133848   4.001   3.328   4.723  0.6441 -0.1354  1.1407
 7404SOL    HW233849   4.018   3.474   4.697  2.3781  0.9141  0.2141
 7405SOL     OW33850   2.915   0.499  13.597 -0.1556 -0.9240 -0.4651
 7405SOL    HW133851   2.821   0.509  13.613  0.0208 -0.0222 -0.0437
 7405SOL    HW233852   2.931   0.545  13.514 -1.8470 -0.0501 -0.2997
 7406SOL     OW33853   2.517   2.910   9.399  0.2681 -0.4204  0.8914
 7406SOL    HW133854   2.560   2.977   9.451 -3.4177  2.2382  0.5559
 7406SOL    HW233855   2.486   2.958   9.322  0.0305 -0.9245  0.6698
 7407SOL     OW33856   0.185   0.519   7.513  0.7717 -0.0489  1.1776
 7407SOL    HW133857   0.170   0.610   7.486  0.2113 -0.8605 -1.2735
 7407SOL    HW233858   0.228   0.533   7.597  1.9543 -2.1616  0.8994
 7408SOL     OW33859   3.446   2.330   8.926 -0.4809 -0.7573  0.3755
 7408SOL    HW133860   3.484   2.246   8.951 -1.0857 -0.9476  0.6504
 7408SOL    HW233861   3.520   2.383   8.955 -1.1644 -0.2963  1.2720
 7409SOL     OW33862   0.630   1.689   4.556  0.2736 -0.3484  0.0525
 7409SOL    HW133863   0.668   1.760   4.608  1.3511 -3.0811  2.9642
 7409SOL    HW233864   0.555   1.733   4.514  0.6431 -0.5715 -0.8369
 7410SOL     OW33865   4.273   0.569   5.009  0.4571  0.4642 -0.1703
 7410SOL    HW133866   4.356   0.548   4.966 -0.6060 -1.4907 -1.2930
 7410SOL    HW233867   4.236   0.481   5.015 -1.8134  1.3831 -0.4531
 7411SOL     OW33868   1.502   2.818   8.671  0.2549 -0.3814  0.2886
 7411SOL    HW133869   1.453   2.794   8.750 -1.9109  1.9018 -0.3584
 7411SOL    HW233870   1.575   2.757   8.678  1.5685  1.2746  1.0720
 7412SOL     OW33871   2.568   3.472   1.818 -0.1702 -0.5688  0.0534
 7412SOL    HW133872   2.475   3.461   1.803 -0.2198  2.1232 -1.6076
 7412SOL    HW233873   2.560   3.541   1.883  0.3560 -2.6008  2.2773
 7413SOL     OW33874   0.276   3.508   5.300  0.5508 -0.5899  0.2045
 7413SOL    HW133875   0.290   3.581   5.239  0.9363  0.0333  1.0389
 7413SOL    HW233876   0.318   3.541   5.380  1.1378  1.7879 -1.0834
 7414SOL     OW33877   0.480   2.660   8.162 -0.0031 -0.4156 -0.0108
 7414SOL    HW133878   0.444   2.690   8.079 -1.4542 -1.0131  0.4084
 7414SOL    HW233879   0.454   2.739   8.210 -0.2468  0.2201 -1.1989
 7415SOL     OW33880   1.731   2.268   8.167  0.4952 -0.6891  0.1423
 7415SOL    HW133881   1.826   2.276   8.158  0.6190  0.2493  2.3789
 7415SOL    HW233882   1.702   2.355   8.141  0.4386 -0.7683 -0.0611
 7416SOL     OW33883   3.669   3.307  10.004 -0.1156 -0.0395 -0.7832
 7416SOL    HW133884   3.613   3.368   9.955 -0.9837  0.3104  0.6336
 7416SOL    HW233885   3.609   3.312  10.078  1.7715  2.1758  0.6119
 7417SOL     OW33886   3.522   1.374   9.653 -0.1773 -0.7618 -0.0042
 7417SOL    HW133887   3.569   1.297   9.621 -0.4867 -0.5171 -1.0415
 7417SOL    HW233888   3.585   1.445   9.668  0.2457 -0.7263 -2.0515
 7418SOL     OW33889   0.508   0.633   6.707  0.1585 -0.2126 -0.1997
 7418SOL    HW133890   0.423   0.589   6.711 -0.5780  1.0325 -1.9673
 7418SOL    HW233891   0.472   0.721   6.711  1.9315  0.6137 -2.2640
 7419SOL     OW33892   4.699   1.311  10.046 -0.0341 -0.5859 -0.1218
 7419SOL    HW133893   4.623   1.307  10.105 -0.7753 -0.4788 -1.0617
 7419SOL    HW233894   4.655   1.319   9.961  0.0891  0.6337 -0.0678
 7420SOL     OW33895   3.631   0.796  11.396  0.4306 -0.3552  0.0596
 7420SOL    HW133896   3.693   0.727  11.370 -2.3439 -2.1654 -1.7915
 7420SOL    HW233897   3.604   0.840  11.315 -0.0058 -0.8979 -0.0965
 7421SOL     OW33898   3.254   0.622   0.271  0.0293 -0.4923  0.5877
 7421SOL    HW133899   3.346   0.602   0.288  0.4171 -0.0873 -0.9697
 7421SOL    HW233900   3.251   0.715   0.293 -0.0894 -0.2872 -0.2914
 7422SOL     OW33901   3.092   3.294   4.383  0.0879 -0.0387  0.3537
 7422SOL    HW133902   3.075   3.216   4.436  1.7113  1.0386  2.4539
 7422SOL    HW233903   3.034   3.280   4.308 -0.1499 -0.6965  0.6647
 7423SOL     OW33904   2.638   3.470   6.812 -0.1550  0.1640  0.3296
 7423SOL    HW133905   2.646   3.452   6.719  1.7557 -0.7865  0.6756
 7423SOL    HW233906   2.546   3.494   6.813 -0.3273 -0.4592 -1.2792
 7424SOL     OW33907   2.028   2.746   8.198 -0.3039  0.3292  0.2942
 7424SOL    HW133908   1.967   2.673   8.187 -3.2936  3.0822 -1.6046
 7424SOL    HW233909   2.110   2.702   8.178 -0.1985  1.6583 -2.1903
 7425SOL     OW33910   3.368   2.651   8.414 -0.3123  0.0843  0.4296
 7425SOL    HW133911   3.402   2.685   8.497 -0.5880 -1.2784  1.1124
 7425SOL    HW233912   3.312   2.585   8.455 -1.7941  1.1061  0.0221
 7426SOL     OW33913   2.392   3.440   7.888 -0.0889 -0.4512 -0.0382
 7426SOL    HW133914   2.401   3.451   7.982  0.1791 -0.5530 -0.0498
 7426SOL    HW233915   2.485   3.455   7.866 -0.3565  1.2122 -0.0445
 7427SOL     OW33916   2.316   1.397   2.763  0.1644  0.1168 -0.7145
 7427SOL    HW133917   2.285   1.473   2.812  0.2123  0.6406 -1.4876
 7427SOL    HW233918   2.361   1.448   2.696 -0.0713  0.3282 -0.7132
 7428SOL     OW33919   1.206   2.242   3.537 -0.0907  0.0732 -0.2952
 7428SOL    HW133920   1.140   2.311   3.542 -0.3044 -0.2143  1.0316
 7428SOL    HW233921   1.208   2.217   3.630 -0.7272 -0.0968 -0.3276
 7429SOL     OW33922   2.715   2.590  11.304 -1.1675  0.1835  0.5702
 7429SOL    HW133923   2.708   2.495  11.314  0.4753 -0.2143 -1.9342
 7429SOL    HW233924   2.796   2.617  11.347 -0.0182 -3.4248  0.6339
 7430SOL     OW33925   3.225   0.192  12.188  0.0707 -0.3665  0.4835
 7430SOL    HW133926   3.177   0.112  12.207  0.9899 -1.1369 -0.4443
 7430SOL    HW233927   3.167   0.246  12.134 -1.8181 -1.0248  1.8795
 7431SOL     OW33928   1.659   0.085   1.726 -0.2138  0.1797  0.6600
 7431SOL    HW133929   1.726   0.045   1.671  0.4745  0.2000  1.4874
 7431SOL    HW233930   1.670   0.045   1.812  2.3465 -0.8930 -0.1628
 7432SOL     OW33931   1.656   2.052   5.214 -0.0578  0.2510  0.4605
 7432SOL    HW133932   1.689   1.986   5.275  1.4303  1.6502  1.1528
 7432SOL    HW233933   1.587   2.004   5.168  0.8243  0.7410 -1.3591
 7433SOL     OW33934   2.509   2.105   7.918  0.1720  0.4836 -0.5725
 7433SOL    HW133935   2.569   2.170   7.954 -1.6811  1.7544  0.2253
 7433SOL    HW233936   2.573   2.046   7.878  0.9673  0.6064  0.5206
 7434SOL     OW33937   2.787   2.563   6.786  0.1012  0.5847  0.2023
 7434SOL    HW133938   2.692   2.554   6.773 -0.2213  0.1511  2.7787
 7434SOL    HW233939   2.792   2.653   6.817  1.6759 -0.0815  1.8503
 7435SOL     OW33940   3.845   0.495   3.517 -0.4004 -0.2478  0.6694
 7435SOL    HW133941   3.934   0.520   3.540 -0.3971  1.9084 -1.6799
 7435SOL    HW233942   3.810   0.550   3.446  0.4540  0.4424  0.7817
 7436SOL     OW33943   3.409   4.477   8.914  0.0431  0.0991 -0.0326
 7436SOL    HW133944   3.476   4.479   8.846 -0.3451  1.2901 -0.3701
 7436SOL    HW233945   3.459   4.471   8.995 -1.6992 -3.1847  0.8023
 7437SOL     OW33946   2.107   0.699   6.531  0.3981  0.7722 -0.7663
 7437SOL    HW133947   2.058   0.747   6.465 -0.0394  0.1038 -0.9314
 7437SOL    HW233948   2.047   0.625   6.528  2.0384 -0.5500 -1.1784
 7438SOL     OW33949   1.368   2.637   3.560 -0.3254 -0.3419  0.2981
 7438SOL    HW133950   1.307   2.637   3.486  1.2335  1.8742 -0.9807
 7438SOL    HW233951   1.443   2.690   3.535 -1.6932  0.9411 -1.1303
 7439SOL     OW33952   4.551   2.238   0.949 -0.0007  0.2017 -0.4314
 7439SOL    HW133953   4.616   2.298   0.912  0.5155 -0.5697 -0.7724
 7439SOL    HW233954   4.572   2.155   0.908 -2.8442 -0.6466 -0.1948
 7440SOL     OW33955   3.590   3.750   7.920 -0.0199 -0.1309  0.3435
 7440SOL    HW133956   3.546   3.714   7.844  0.0936  3.3558 -1.3546
 7440SOL    HW233957   3.669   3.784   7.878 -1.2046  2.0141 -0.1196
 7441SOL     OW33958   1.725   3.496   5.929 -0.4107 -0.1077 -0.4091
 7441SOL    HW133959   1.659   3.560   5.957 -2.0594 -0.9702 -2.3293
 7441SOL    HW233960   1.736   3.512   5.835  0.1693  1.0519 -0.1506
 7442SOL     OW33961   3.505   1.364   1.541 -0.2745 -0.1579  0.2764
 7442SOL    HW133962   3.510   1.459   1.549  3.4378 -0.2362 -1.0458
 7442SOL    HW233963   3.590   1.336   1.507 -0.8994 -2.1325  0.3220
 7443SOL     OW33964   2.650   3.860   4.070 -0.2185 -0.0584 -0.1647
 7443SOL    HW133965   2.598   3.784   4.095 -2.2163  1.5801  0.6942
 7443SOL    HW233966   2.588   3.922   4.031 -0.4028  0.7403  1.4188
 7444SOL     OW33967   0.959   2.803  16.064  0.0819 -0.6799 -0.1229
 7444SOL    HW133968   0.980   2.711  16.083 -0.1930 -0.4677  1.2324
 7444SOL    HW233969   1.026   2.855  16.108 -1.0814  1.6957 -1.1813
 7445SOL     OW33970   0.469   2.414   8.268  0.2062 -0.4761  0.1961
 7445SOL    HW133971   0.468   2.499   8.223 -0.8527 -0.6298 -0.0801
 7445SOL    HW233972   0.464   2.350   8.197 -0.4358 -0.2800  0.0607
 7446SOL     OW33973   3.969   1.629  10.959 -0.6946 -0.3025  0.2304
 7446SOL    HW133974   3.963   1.533  10.962  0.2222 -0.2427  3.7709
 7446SOL    HW233975   4.049   1.648  11.008 -1.3792 -0.7859  1.5514
 7447SOL     OW33976   3.443   4.596   5.475 -0.0468 -0.2653 -0.0633
 7447SOL    HW133977   3.455   4.556   5.561  2.0596  2.1292  0.7539
 7447SOL    HW233978   3.348   4.584   5.462 -0.1576 -0.6517  1.0479
 7448SOL     OW33979   0.661   2.087  12.893  0.1453  0.2667 -0.1428
 7448SOL    HW133980   0.636   2.104  12.803 -0.3972  1.3119  0.1991
 7448SOL    HW233981   0.693   1.997  12.892 -0.1498  0.2009 -3.1860
 7449SOL     OW33982   2.788   3.866   0.831  0.1071 -0.1309 -0.0727
 7449SOL    HW133983   2.857   3.892   0.771 -1.3054 -0.5407 -1.8755
 7449SOL    HW233984   2.808   3.773   0.834  0.9116  0.1128  2.1532
 7450SOL     OW33985   0.234   0.418   5.994  0.2686  0.0051 -0.0918
 7450SOL    HW133986   0.210   0.458   5.911 -0.4131  2.0781  1.1195
 7450SOL    HW233987   0.321   0.394   5.961  0.0341  0.1205 -0.7940
 7451SOL     OW33988   0.573   2.596   0.418  0.5334  0.2210 -0.0475
 7451SOL    HW133989   0.556   2.626   0.329  1.7739 -2.6702 -1.2578
 7451SOL    HW233990   0.505   2.530   0.432  1.5560 -0.7236  0.4461
 7452SOL     OW33991   2.485   2.728  12.947  0.6157 -0.1919 -0.6052
 7452SOL    HW133992   2.427   2.749  12.874 -2.1228 -0.2720  1.5422
 7452SOL    HW233993   2.466   2.637  12.970  2.1025  0.0991  1.7667
 7453SOL     OW33994   0.897   0.442   4.816 -0.0738  0.1600 -0.2470
 7453SOL    HW133995   0.974   0.492   4.839  0.2342 -1.0396  1.3078
 7453SOL    HW233996   0.834   0.465   4.884  2.2665  1.3531  1.4733
 7454SOL     OW33997   2.914   2.457   4.787 -0.6467  0.4822  0.3317
 7454SOL    HW133998   2.940   2.548   4.769 -0.5044  0.1801 -1.0012
 7454SOL    HW233999   2.845   2.451   4.721  0.5566 -0.3448 -0.8665
 7455SOL     OW34000   2.327   3.215   5.955 -0.2647  0.5556 -0.4670
 7455SOL    HW134001   2.416   3.186   5.977 -0.2552  0.4844 -0.5985
 7455SOL    HW234002   2.284   3.131   5.940  0.8141  0.1988 -1.6140
 7456SOL     OW34003   1.184   3.113   3.100  0.8266  0.4172  0.3349
 7456SOL    HW134004   1.230   3.030   3.111  0.6566  0.4555  1.3639
 7456SOL    HW234005   1.197   3.117   3.005 -2.4703 -0.6173 -0.1924
 7457SOL     OW34006   0.819   1.384  10.545  0.1155 -0.4628  0.3347
 7457SOL    HW134007   0.735   1.414  10.511 -0.7913 -2.2276  1.0419
 7457SOL    HW234008   0.871   1.461  10.521  2.1006 -2.0315 -0.3682
 7458SOL     OW34009   3.833   3.745   3.164 -0.3540 -0.0609  0.4848
 7458SOL    HW134010   3.769   3.693   3.212 -1.1146  0.0871 -0.3764
 7458SOL    HW234011   3.913   3.715   3.207  0.3975  2.0601  0.5807
 7459SOL     OW34012   2.005   0.199   3.506 -0.0879  0.0576  0.2729
 7459SOL    HW134013   2.020   0.120   3.455 -0.2263  1.0885 -1.3715
 7459SOL    HW234014   1.956   0.160   3.577  1.4463 -0.2254  1.1820
 7460SOL     OW34015   2.940   3.693   4.540  0.1356 -0.2401  0.6980
 7460SOL    HW134016   2.985   3.611   4.562 -0.5667 -0.0836  2.6691
 7460SOL    HW234017   2.850   3.663   4.528 -0.1450  0.4386  1.1071
 7461SOL     OW34018   0.022   2.641   4.794  0.2536 -0.1563  0.6599
 7461SOL    HW134019   0.068   2.669   4.715 -2.8830  1.6026 -0.5455
 7461SOL    HW234020   0.004   2.721   4.843 -1.3482 -0.2599  0.2549
 7462SOL     OW34021   3.353   0.538   4.789 -0.2863 -0.2601 -0.5656
 7462SOL    HW134022   3.309   0.461   4.825  1.2949 -0.6773  0.4976
 7462SOL    HW234023   3.370   0.584   4.872  0.2352  0.2367 -0.9493
 7463SOL     OW34024   3.930   0.262   2.912  0.0094 -0.3284  0.3178
 7463SOL    HW134025   3.997   0.197   2.891  0.5916  1.4544 -3.3253
 7463SOL    HW234026   3.924   0.306   2.827  0.1129 -1.0647 -0.0648
 7464SOL     OW34027   4.314   2.314   1.978  0.6225  0.1433  0.2099
 7464SOL    HW134028   4.298   2.244   1.914 -2.0174 -0.6802  1.7662
 7464SOL    HW234029   4.398   2.280   2.009  1.1128 -0.2221 -1.5432
 7465SOL     OW34030   0.822   1.036  11.925  0.1338 -0.1916  0.4630
 7465SOL    HW134031   0.853   0.973  11.990 -0.4487 -2.5785 -1.5818
 7465SOL    HW234032   0.875   1.008  11.851 -1.0363 -1.9724  0.2967
 7466SOL     OW34033   3.094   3.095   6.648  0.5933 -0.1465  0.2909
 7466SOL    HW134034   3.163   3.101   6.714  1.3145 -0.7125 -0.4119
 7466SOL    HW234035   3.124   3.166   6.591  0.8944  0.9090  1.7568
 7467SOL     OW34036   2.371   3.787   7.958 -0.4773  0.0498  0.1832
 7467SOL    HW134037   2.430   3.742   7.898  2.5494  1.5379  2.0205
 7467SOL    HW234038   2.391   3.735   8.036  2.4536  1.6261  0.4927
 7468SOL     OW34039   2.241   0.552  10.659  0.5525  0.3798 -0.0700
 7468SOL    HW134040   2.321   0.603  10.646  0.2390  0.8616 -0.1411
 7468SOL    HW234041   2.278   0.466  10.678  0.5075  0.1847 -0.8869
 7469SOL     OW34042   0.776   2.302   6.909 -0.6602  0.3176  0.0554
 7469SOL    HW134043   0.805   2.380   6.862 -2.1222  0.5079 -0.5430
 7469SOL    HW234044   0.851   2.243   6.902 -0.0489  0.9839  1.1285
 7470SOL     OW34045   3.450   1.642  14.370  0.1664 -0.3035  0.2036
 7470SOL    HW134046   3.394   1.599  14.307  1.9019 -1.6185 -0.4461
 7470SOL    HW234047   3.532   1.599  14.344  0.6857  1.4211 -1.0213
 7471SOL     OW34048   0.445   0.541  15.913  0.1540  0.1903  0.4140
 7471SOL    HW134049   0.529   0.582  15.932  0.1224  0.4164  0.0585
 7471SOL    HW234050   0.458   0.453  15.951  1.0186  0.2828  0.3388
 7472SOL     OW34051   4.348   0.564   7.848 -0.1682 -0.0341 -0.0475
 7472SOL    HW134052   4.325   0.513   7.771  0.7914 -0.1222 -0.2744
 7472SOL    HW234053   4.439   0.594   7.839 -0.4346  1.0605  0.9813
 7473SOL     OW34054   3.539   2.046   5.061  0.1450 -1.0191  0.4401
 7473SOL    HW134055   3.548   1.994   5.140  0.9047 -0.0631  0.9816
 7473SOL    HW234056   3.555   1.973   5.001  0.2509 -0.3231 -0.3979
 7474SOL     OW34057   3.571   0.312  16.704  0.2039  0.1078  0.0742
 7474SOL    HW134058   3.512   0.356  16.642 -0.8235 -4.1955 -2.0016
 7474SOL    HW234059   3.580   0.234  16.650  0.6970 -0.0518  0.3887
 7475SOL     OW34060   1.797   2.257   9.846  0.4780  0.2401 -0.4577
 7475SOL    HW134061   1.717   2.307   9.861  0.2353 -0.7466  1.5562
 7475SOL    HW234062   1.860   2.300   9.904  1.3780 -1.2293 -0.3546
 7476SOL     OW34063   4.312   1.291   6.242  0.0237  0.1228  0.2139
 7476SOL    HW134064   4.265   1.227   6.294  1.1423 -0.1165  0.9368
 7476SOL    HW234065   4.400   1.256   6.254 -0.4646 -1.2178 -0.1254
 7477SOL     OW34066   4.390   2.972  13.378 -0.3317 -1.4985  0.1102
 7477SOL    HW134067   4.358   2.897  13.328 -2.8141 -0.0890 -0.4285
 7477SOL    HW234068   4.478   2.938  13.394  0.2634  0.8326  1.8844
 7478SOL     OW34069   3.722   1.877  14.595 -0.0468 -0.8067 -0.5217
 7478SOL    HW134070   3.679   1.959  14.572  1.6569  0.8573  2.2220
 7478SOL    HW234071   3.803   1.903  14.639 -1.7351  2.2655  0.7315
 7479SOL     OW34072   3.988   1.706   2.785 -0.2248  0.7315 -0.1156
 7479SOL    HW134073   3.952   1.766   2.850  1.3911  0.0172  1.4499
 7479SOL    HW234074   4.073   1.679   2.821 -1.3321 -1.8939  0.5603
 7480SOL     OW34075   1.194   3.264   2.369  0.1008  0.9343  0.3277
 7480SOL    HW134076   1.181   3.359   2.359 -3.8682  0.2680 -0.6721
 7480SOL    HW234077   1.260   3.272   2.438  0.3042  1.3173  0.0897
 7481SOL     OW34078   2.147   1.980   4.807 -0.0160 -0.5833  0.2301
 7481SOL    HW134079   2.136   2.051   4.871  1.9453 -0.6899  0.7123
 7481SOL    HW234080   2.243   1.979   4.809 -0.0043  0.1773 -0.1481
 7482SOL     OW34081   2.684   2.869   6.127  0.1247  0.2423  0.4124
 7482SOL    HW134082   2.672   2.935   6.196 -1.1866 -0.2650  0.6691
 7482SOL    HW234083   2.777   2.847   6.130 -0.0196 -0.0306  2.8252
 7483SOL     OW34084   3.982   1.549  15.965  0.1241  0.1195  0.7289
 7483SOL    HW134085   3.925   1.619  15.998 -0.1935  1.1688 -2.0843
 7483SOL    HW234086   3.923   1.474  15.973 -0.5905  0.4275 -1.8662
 7484SOL     OW34087   2.636   1.984  12.307  0.4556  0.6440  0.1050
 7484SOL    HW134088   2.691   1.912  12.277  0.5886  0.5579  0.5579
 7484SOL    HW234089   2.608   1.960  12.395  0.4524  0.0026 -0.0772
 7485SOL     OW34090   3.373   0.295   4.613 -0.1140  0.0769  0.2598
 7485SOL    HW134091   3.392   0.262   4.525 -0.9996 -0.8502  0.4183
 7485SOL    HW234092   3.294   0.244   4.630 -0.9787  1.6545  1.0220
 7486SOL     OW34093   1.628   3.654   2.438  0.3935  0.1523 -0.0685
 7486SOL    HW134094   1.659   3.564   2.443  1.1835  0.4303  0.0566
 7486SOL    HW234095   1.549   3.651   2.493 -0.2014  0.5987 -0.9072
 7487SOL     OW34096   0.735   1.483   4.973  0.5323 -0.1025 -0.1656
 7487SOL    HW134097   0.682   1.561   4.990 -1.1826 -1.2934  0.0286
 7487SOL    HW234098   0.723   1.484   4.879 -2.5119 -0.7552  0.2177
 7488SOL     OW34099   1.976   2.073   5.216 -0.5864  0.5555 -0.1884
 7488SOL    HW134100   1.923   2.107   5.289 -1.1295 -1.3042  0.2657
 7488SOL    HW234101   1.905   2.071   5.152  1.7609  2.2252 -2.8055
 7489SOL     OW34102   1.749   3.541   1.956 -0.6099 -0.3101  0.0880
 7489SOL    HW134103   1.733   3.512   1.866 -0.2772 -1.3659  0.3564
 7489SOL    HW234104   1.688   3.488   2.008  0.5039 -1.0484  0.6625
 7490SOL     OW34105   1.707   2.962   6.705 -0.3465  0.1688 -0.3096
 7490SOL    HW134106   1.703   2.992   6.614  0.9458 -0.1220 -0.4606
 7490SOL    HW234107   1.615   2.941   6.719  0.1214 -1.5884  0.1014
 7491SOL     OW34108   1.853   0.116   5.894  0.1858  0.1553 -0.4525
 7491SOL    HW134109   1.897   0.035   5.918  0.4550  0.1752 -0.8832
 7491SOL    HW234110   1.889   0.172   5.963  2.1809 -4.0863  1.9293
 7492SOL     OW34111   3.997   3.000   7.002 -0.5708  0.1738  0.8895
 7492SOL    HW134112   3.915   3.000   7.052  0.0013 -0.8292  1.8151
 7492SOL    HW234113   3.993   3.082   6.952 -1.5390 -0.0306  0.6305
 7493SOL     OW34114   3.057   0.517   5.421  0.6421  0.1243 -0.5821
 7493SOL    HW134115   3.039   0.436   5.469 -0.2539  1.0747  0.6940
 7493SOL    HW234116   3.051   0.581   5.492 -1.4673  0.4313 -1.0453
 7494SOL     OW34117   1.186   0.515   1.372  0.0256  0.2293 -0.1344
 7494SOL    HW134118   1.232   0.530   1.454 -0.4471 -0.1267  0.1926
 7494SOL    HW234119   1.139   0.598   1.364 -0.6747 -0.1997 -0.5057
 7495SOL     OW34120   4.439   2.567  15.833  0.6069 -0.1693  0.2184
 7495SOL    HW134121   4.481   2.572  15.747  0.3063  2.7523  0.2224
 7495SOL    HW234122   4.517   2.564  15.889 -1.0475  0.7279  2.5732
 7496SOL     OW34123   0.568   0.783   2.637  0.2452  0.1985  0.4288
 7496SOL    HW134124   0.567   0.688   2.641 -0.2742  0.1103 -2.0862
 7496SOL    HW234125   0.493   0.812   2.689  1.2854  1.4824  1.2323
 7497SOL     OW34126   3.054   2.913   5.656  0.2470  0.0603  0.0539
 7497SOL    HW134127   3.023   2.998   5.626 -1.1545 -0.8321 -0.9848
 7497SOL    HW234128   2.996   2.913   5.732 -1.1860  2.0376 -1.0763
 7498SOL     OW34129   3.018   1.234   5.994  0.3563 -0.0677 -0.2122
 7498SOL    HW134130   3.036   1.305   5.932 -0.3924 -0.9925 -1.4676
 7498SOL    HW234131   2.961   1.173   5.950  1.5057 -0.7799 -0.7185
 7499SOL     OW34132   3.881   3.105   4.385  0.5604  0.9009  0.0765
 7499SOL    HW134133   3.878   3.030   4.444  0.2735  0.3855 -0.6006
 7499SOL    HW234134   3.846   3.182   4.431 -0.4013 -0.7380  2.0737
 7500SOL     OW34135   1.833   1.632  11.140  0.4231 -0.4472  0.3578
 7500SOL    HW134136   1.775   1.639  11.215  0.6529  0.7100  0.4292
 7500SOL    HW234137   1.791   1.566  11.085 -3.3721  1.8748  0.4704
 7501SOL     OW34138   2.625   3.700  11.836 -0.5112  0.2571  0.3071
 7501SOL    HW134139   2.570   3.725  11.762  0.6245  0.2729 -0.5351
 7501SOL    HW234140   2.712   3.705  11.796 -0.7004  0.4024 -0.0850
 7502SOL     OW34141   2.503   3.836   8.428 -0.3439  0.6343 -0.0132
 7502SOL    HW134142   2.418   3.879   8.418 -1.0020 -1.4168 -3.1040
 7502SOL    HW234143   2.549   3.902   8.480  0.6399  0.2213 -0.3575
 7503SOL     OW34144   3.739   1.655  16.089  0.1435 -0.1271 -0.0771
 7503SOL    HW134145   3.759   1.744  16.061  0.8671 -0.1533  0.3718
 7503SOL    HW234146   3.694   1.682  16.169  1.1191  1.2764 -0.0093
 7504SOL     OW34147   0.117   2.879   7.340  0.5846  0.3661  0.0210
 7504SOL    HW134148   0.208   2.908   7.337  0.5804  0.2371 -1.2178
 7504SOL    HW234149   0.121   2.791   7.302 -3.2287 -0.1467  0.8321
 7505SOL     OW34150   1.614   2.947   5.245 -0.3114 -0.0626 -0.5832
 7505SOL    HW134151   1.631   2.880   5.178 -0.4082 -1.4530  0.7876
 7505SOL    HW234152   1.519   2.956   5.239 -0.0874  1.5856 -1.6769
 7506SOL     OW34153   2.606   3.103  15.736  0.2493 -0.2795 -0.0882
 7506SOL    HW134154   2.606   3.163  15.661  0.9112  1.2353  1.1138
 7506SOL    HW234155   2.647   3.025  15.700 -2.8872 -2.0998  0.2567
 7507SOL     OW34156   3.618   1.604   9.300  0.2478 -0.0581 -0.9963
 7507SOL    HW134157   3.612   1.684   9.353  2.3194  0.0910 -0.9979
 7507SOL    HW234158   3.687   1.632   9.240  0.0676  3.5881  0.4906
 7508SOL     OW34159   0.651   3.737   9.531 -0.4539  0.1403 -0.1657
 7508SOL    HW134160   0.582   3.700   9.476 -2.7434  2.2428  1.3520
 7508SOL    HW234161   0.635   3.695   9.616 -1.1785  0.6267 -0.0651
 7509SOL     OW34162   1.524   0.292   0.915 -0.0268  0.0488 -0.0296
 7509SOL    HW134163   1.457   0.267   0.851  1.1064 -0.9285 -0.8157
 7509SOL    HW234164   1.598   0.295   0.855 -0.0769 -1.9201 -0.1640
 7510SOL     OW34165   3.272   2.527   5.595 -0.0678 -0.6000  0.4269
 7510SOL    HW134166   3.183   2.532   5.630 -0.4522  1.6316 -0.8484
 7510SOL    HW234167   3.296   2.620   5.585 -2.3587  0.0790  1.2859
 7511SOL     OW34168   2.387   0.395   6.019  0.7372  0.1643 -0.3563
 7511SOL    HW134169   2.354   0.306   6.015  1.6872 -0.2572  1.1708
 7511SOL    HW234170   2.305   0.442   6.005  0.9155  0.3082 -0.9389
 7512SOL     OW34171   2.394   3.435   8.462 -0.4860 -0.0087 -0.3925
 7512SOL    HW134172   2.333   3.385   8.408  0.0476  1.7468 -2.6219
 7512SOL    HW234173   2.459   3.367   8.476 -1.6470 -0.7621  1.3442
 7513SOL     OW34174   2.387   1.160   4.457 -0.0986  0.2200  1.1468
 7513SOL    HW134175   2.305   1.154   4.506 -0.2703 -2.8999  0.4714
 7513SOL    HW234176   2.430   1.092   4.508 -0.9027 -0.9287  0.2875
 7514SOL     OW34177   1.289   3.323   7.573  0.2195 -0.6147 -0.2599
 7514SOL    HW134178   1.335   3.392   7.525 -0.1316 -0.0905  0.1561
 7514SOL    HW234179   1.291   3.247   7.515  0.3681 -0.9800  0.2212
 7515SOL     OW34180   1.491   3.578   9.211 -0.7856  0.5501  0.5124
 7515SOL    HW134181   1.489   3.673   9.203 -0.5553  0.3390 -2.0198
 7515SOL    HW234182   1.538   3.577   9.295  0.3477  2.5557 -0.1013
 7516SOL     OW34183   2.330   3.381   9.984  0.5871  0.1177 -0.0428
 7516SOL    HW134184   2.317   3.468  10.022  0.5233  0.0405  0.1084
 7516SOL    HW234185   2.407   3.347  10.029  0.4931 -0.4402 -0.3047
 7517SOL     OW34186   4.502   2.992   8.124  0.3395 -0.1072 -0.3962
 7517SOL    HW134187   4.544   2.912   8.156  0.2698  0.2315  0.5402
 7517SOL    HW234188   4.574   3.053   8.141 -0.6204  1.1376 -0.7731
 7518SOL     OW34189   4.640   2.070   2.311  0.5160 -0.1121 -0.2335
 7518SOL    HW134190   4.549   2.040   2.317  0.3362  0.6490  0.6908
 7518SOL    HW234191   4.672   2.033   2.229  0.5581 -0.5440 -0.0219
 7519SOL     OW34192   1.630   4.462   6.742 -0.3238  0.2613 -0.1459
 7519SOL    HW134193   1.672   4.507   6.816 -2.9812  1.5331  0.6004
 7519SOL    HW234194   1.590   4.534   6.694  0.2475  1.9102  1.8119
 7520SOL     OW34195   3.698   0.091   2.638 -0.0858 -0.2515 -0.7745
 7520SOL    HW134196   3.739   0.166   2.680 -2.3761 -0.6143  2.0621
 7520SOL    HW234197   3.722   0.021   2.698  1.1763  1.2719  0.5050
 7521SOL     OW34198   3.762   1.331   7.205  0.0388 -0.1825 -0.6702
 7521SOL    HW134199   3.841   1.287   7.173  0.6376  0.3849  0.0193
 7521SOL    HW234200   3.709   1.317   7.126 -0.3019  0.6999 -0.6033
 7522SOL     OW34201   1.848   1.865   7.694  0.7120  0.0061  0.1752
 7522SOL    HW134202   1.829   1.954   7.722 -0.3393 -0.3800  0.7211
 7522SOL    HW234203   1.854   1.824   7.780 -1.8050 -0.1074  0.3019
 7523SOL     OW34204   3.878   2.733   1.741 -0.1259 -0.0233  0.0850
 7523SOL    HW134205   3.868   2.699   1.830  3.7968 -0.5179  0.3472
 7523SOL    HW234206   3.846   2.823   1.746 -1.6637 -0.5795  0.3253
 7524SOL     OW34207   0.856   0.944   7.497 -0.4767  0.2775 -0.0054
 7524SOL    HW134208   0.862   0.854   7.528  0.2272  0.6030  0.7964
 7524SOL    HW234209   0.907   0.936   7.416 -1.9199 -2.9374 -0.6011
 7525SOL     OW34210   4.174   1.990  11.942  0.0697 -0.2118 -0.3127
 7525SOL    HW134211   4.211   2.071  11.980 -0.3901 -0.1567  0.0161
 7525SOL    HW234212   4.241   1.960  11.881  0.3318 -0.2606 -0.0030
 7526SOL     OW34213   0.369   0.701  10.370 -0.5563  0.3403 -0.6093
 7526SOL    HW134214   0.379   0.606  10.371 -1.1501  0.3101  1.2828
 7526SOL    HW234215   0.445   0.722  10.425 -1.0075  0.8646 -0.1912
 7527SOL     OW34216   2.388   2.388   8.249  0.5906 -0.0569  0.3276
 7527SOL    HW134217   2.483   2.393   8.250  0.6439 -1.4971  1.5503
 7527SOL    HW234218   2.367   2.452   8.318  0.5968 -0.0597  0.3320
 7528SOL     OW34219   3.134   2.293   2.950  0.1666 -0.0838  0.8994
 7528SOL    HW134220   3.097   2.375   2.982  0.3935  0.2890  0.2085
 7528SOL    HW234221   3.059   2.262   2.900  0.6915  0.2538 -0.0784
 7529SOL     OW34222   4.576   0.117   6.911  0.0747  0.2422 -0.8054
 7529SOL    HW134223   4.578   0.184   6.843  0.4193  0.7961 -0.2460
 7529SOL    HW234224   4.657   0.071   6.887 -0.8004 -1.4054 -0.6427
 7530SOL     OW34225   2.658   3.640   9.740  0.3160 -0.1918 -0.0950
 7530SOL    HW134226   2.690   3.553   9.717  0.7785 -0.0740  0.0945
 7530SOL    HW234227   2.565   3.625   9.758  0.3688  2.2553  2.2036
 7531SOL     OW34228   0.178   4.179  16.136  0.0748  0.5266 -0.1309
 7531SOL    HW134229   0.143   4.165  16.048  2.0206 -2.9543 -0.3706
 7531SOL    HW234230   0.097   4.168  16.185 -0.4983 -0.8326 -1.3875
 7532SOL     OW34231   3.125   1.895  13.716  0.1468 -0.0732  0.6136
 7532SOL    HW134232   3.083   1.908  13.801 -1.0863  0.6309 -0.1110
 7532SOL    HW234233   3.217   1.900  13.742 -0.0529  0.8768  1.1643
 7533SOL     OW34234   3.726   1.502   8.033  0.3086  0.5390 -0.3748
 7533SOL    HW134235   3.781   1.425   8.018  1.2317  0.7626  1.8134
 7533SOL    HW234236   3.782   1.575   8.008  0.0747  0.5485 -0.8829
 7534SOL     OW34237   0.542   1.159   8.395 -0.1257 -0.4148 -0.4169
 7534SOL    HW134238   0.609   1.095   8.420 -0.9769 -0.3755  1.9475
 7534SOL    HW234239   0.491   1.106   8.335  0.3181 -0.4110 -0.7979
 7535SOL     OW34240   1.649   2.323   5.212 -0.5510 -0.1508 -0.3341
 7535SOL    HW134241   1.648   2.229   5.191  0.3564 -0.2920  0.2845
 7535SOL    HW234242   1.592   2.334   5.288  0.4548 -0.4237  0.4616
 7536SOL     OW34243   3.399   3.241   5.858 -0.2620  0.1531  0.4364
 7536SOL    HW134244   3.310   3.253   5.826 -0.9740 -0.7742  2.0667
 7536SOL    HW234245   3.448   3.224   5.777 -0.9659  0.1953  0.0059
 7537SOL     OW34246   0.690   3.249  11.453  0.0030  0.1074  0.2731
 7537SOL    HW134247   0.679   3.259  11.548 -1.4554 -0.2421  0.1427
 7537SOL    HW234248   0.716   3.334  11.417 -1.1367 -0.0790 -0.9878
 7538SOL     OW34249   2.795   0.091   3.705  0.1088  0.6515 -0.2378
 7538SOL    HW134250   2.875   0.121   3.749 -0.1347  1.0653 -0.0802
 7538SOL    HW234251   2.822   0.032   3.635 -2.2877 -0.1980 -0.4494
 7539SOL     OW34252   3.501   3.510   4.745  0.0068  0.7243  0.1105
 7539SOL    HW134253   3.424   3.557   4.712 -0.3991 -0.7266 -1.0115
 7539SOL    HW234254   3.565   3.549   4.685  0.1108 -1.3402 -1.1197
 7540SOL     OW34255   4.070   1.707   3.679  0.2269  0.1910  0.0408
 7540SOL    HW134256   4.139   1.691   3.614  0.5145 -0.1520  0.4368
 7540SOL    HW234257   4.031   1.788   3.646 -0.0330 -0.5329 -1.4136
 7541SOL     OW34258   2.929   1.692   1.539 -0.5671 -0.3742  0.1808
 7541SOL    HW134259   2.906   1.743   1.617 -1.0353 -1.4693  0.7609
 7541SOL    HW234260   2.891   1.744   1.469 -0.4012 -0.0969  0.2990
 7542SOL     OW34261   1.900   0.755  14.644  0.1793  0.2468 -0.2988
 7542SOL    HW134262   1.898   0.814  14.719 -1.2436  2.2436 -1.9231
 7542SOL    HW234263   1.822   0.700  14.648 -1.4384  2.3496 -2.5370
 7543SOL     OW34264   1.004   3.221   4.041 -0.2538 -0.0668  0.1628
 7543SOL    HW134265   1.089   3.197   4.078  0.2609 -0.0929 -1.0514
 7543SOL    HW234266   1.004   3.171   3.959 -1.9744  1.3783 -0.7120
 7544SOL     OW34267   0.702   4.376   7.994 -0.8302 -0.7541 -0.0676
 7544SOL    HW134268   0.716   4.437   8.067  0.6128  1.7397 -2.4547
 7544SOL    HW234269   0.786   4.385   7.949  0.1889  0.1500  2.0201
 7545SOL     OW34270   3.792   3.457   0.350  0.1834  0.3686 -0.3502
 7545SOL    HW134271   3.882   3.423   0.349  1.0962  2.7854  0.4213
 7545SOL    HW234272   3.742   3.377   0.369  0.2457  0.9363  2.2541
 7546SOL     OW34273   2.339   3.423  11.516  0.5732 -0.1628 -0.1742
 7546SOL    HW134274   2.334   3.428  11.612 -1.9223  1.1979 -0.3885
 7546SOL    HW234275   2.244   3.417  11.504  0.5640 -1.8544  0.6633
 7547SOL     OW34276   3.717   0.855   5.663  0.0790 -0.3120  0.1765
 7547SOL    HW134277   3.691   0.910   5.589  0.7591 -1.1770 -0.7058
 7547SOL    HW234278   3.663   0.777   5.653  0.1454 -0.4101  0.6110
 7548SOL     OW34279   1.303   0.010   6.760  0.1339 -0.4542  0.2846
 7548SOL    HW134280   1.229   4.705   6.710  0.8952  0.3161 -1.3483
 7548SOL    HW234281   1.353   0.040   6.684 -0.1707 -4.0276 -1.3513
 7549SOL     OW34282   3.341   0.524   9.687  0.5366  0.4415  0.2883
 7549SOL    HW134283   3.429   0.509   9.653  0.6697 -0.1800  0.8914
 7549SOL    HW234284   3.345   0.477   9.771 -0.7297 -1.2817 -0.6208
 7550SOL     OW34285   0.351   1.546   5.299  0.0918  0.1761  0.0886
 7550SOL    HW134286   0.332   1.625   5.249  0.2826  0.0505 -0.1793
 7550SOL    HW234287   0.347   1.485   5.225 -0.3063 -1.0464  1.1219
 7551SOL     OW34288   0.870   1.106   8.809 -0.5495  0.7269  0.4725
 7551SOL    HW134289   0.796   1.057   8.844 -1.0161 -0.0790 -1.7054
 7551SOL    HW234290   0.907   1.047   8.744 -0.0718  1.2700  0.2503
 7552SOL     OW34291   0.168   4.206   9.157  0.3518  0.0001 -0.0894
 7552SOL    HW134292   0.118   4.286   9.140 -1.3286 -1.3386 -1.3465
 7552SOL    HW234293   0.258   4.223   9.129 -0.3120  2.9140 -0.4303
 7553SOL     OW34294   3.735   0.804   3.624 -0.4615  0.6246  0.3222
 7553SOL    HW134295   3.789   0.827   3.548  0.0508  1.4050  0.9220
 7553SOL    HW234296   3.684   0.731   3.590  2.5397 -1.1325 -0.4565
 7554SOL     OW34297   2.315   0.941   7.556 -0.2587  0.0278  0.2035
 7554SOL    HW134298   2.384   0.874   7.562  0.3430  0.8070  1.8468
 7554SOL    HW234299   2.354   1.007   7.499 -0.1553 -0.6394 -0.5040
 7555SOL     OW34300   2.206   1.213   4.687 -0.4283  0.1515 -0.1826
 7555SOL    HW134301   2.150   1.135   4.687  1.4133 -1.1798  0.6048
 7555SOL    HW234302   2.231   1.204   4.779  0.8110 -1.9415 -0.7061
 7556SOL     OW34303   2.862   1.569   7.235 -0.2558 -0.4104 -0.1438
 7556SOL    HW134304   2.848   1.516   7.313 -2.3295  0.9307  0.3906
 7556SOL    HW234305   2.918   1.514   7.180 -0.8816  2.2740 -3.4803
 7557SOL     OW34306   4.257   0.738   1.883  0.0664  0.1048  0.1633
 7557SOL    HW134307   4.257   0.643   1.891  0.4308 -0.0168 -1.3225
 7557SOL    HW234308   4.325   0.750   1.817 -0.8527  1.4974 -0.5509
 7558SOL     OW34309   0.301   1.191  16.938 -0.0355 -0.0029  0.6514
 7558SOL    HW134310   0.331   1.234  17.018  0.0864  2.9274 -0.9761
 7558SOL    HW234311   0.322   1.100  16.958 -0.6014 -0.6687 -1.7645
 7559SOL     OW34312   3.535   2.698  17.139 -0.1912 -0.0293  0.2417
 7559SOL    HW134313   3.595   2.765  17.173 -0.0047  0.7039 -1.5213
 7559SOL    HW234314   3.455   2.751  17.131  0.3390  0.2425 -3.2992
 7560SOL     OW34315   0.456   4.497  13.095 -0.1429  0.1668 -0.0841
 7560SOL    HW134316   0.551   4.496  13.104 -0.1170  0.8171 -0.2645
 7560SOL    HW234317   0.437   4.567  13.157  0.7893  1.0087 -0.7448
 7561SOL     OW34318   4.414   2.158   1.438 -0.3123  0.4527  0.3933
 7561SOL    HW134319   4.323   2.165   1.409  0.4865 -0.2075 -2.2549
 7561SOL    HW234320   4.421   2.063   1.439  2.4249  0.6554  1.0016
 7562SOL     OW34321   0.527   0.985   8.714  0.1110  0.0247  0.1711
 7562SOL    HW134322   0.577   0.973   8.634 -1.5015  0.9490 -0.9628
 7562SOL    HW234323   0.447   0.946   8.678 -1.6539  1.7226  2.2577
 7563SOL     OW34324   3.877   3.444   4.327  0.1987 -0.1249 -0.3103
 7563SOL    HW134325   3.952   3.503   4.317 -1.6209  1.7536 -3.3105
 7563SOL    HW234326   3.902   3.362   4.284  0.9153  0.2332 -0.5805
 7564SOL     OW34327   0.838   1.398  11.012 -0.1887 -0.2357 -0.1568
 7564SOL    HW134328   0.799   1.325  10.965  2.1789 -0.8164 -1.2476
 7564SOL    HW234329   0.914   1.417  10.957  0.6084 -1.2059  0.5993
 7565SOL     OW34330   2.074   0.950   0.175 -0.1026  0.1164  0.1303
 7565SOL    HW134331   2.065   0.867   0.223  2.1789 -0.5005 -0.5208
 7565SOL    HW234332   1.983   0.978   0.167 -0.4267 -1.2337 -0.9336
 7566SOL     OW34333   3.638   1.023   6.435  0.2036  0.2699 -0.1088
 7566SOL    HW134334   3.676   0.936   6.417 -2.0842 -1.0392  1.3933
 7566SOL    HW234335   3.612   1.017   6.526 -1.6751 -0.8965 -0.7260
 7567SOL     OW34336   1.353   0.842   1.315  0.7054 -0.5863  0.0777
 7567SOL    HW134337   1.441   0.813   1.292  0.8406 -0.2828  0.2129
 7567SOL    HW234338   1.307   0.860   1.233  2.8130 -2.2322 -1.4772
 7568SOL     OW34339   3.224   1.473   2.213  0.2646 -0.2794  0.6340
 7568SOL    HW134340   3.273   1.554   2.199  0.4700 -0.4757  0.2118
 7568SOL    HW234341   3.291   1.411   2.185 -1.5798 -2.7458  1.6829
 7569SOL     OW34342   1.442   2.707   9.764 -0.2581 -0.2076 -0.5947
 7569SOL    HW134343   1.442   2.645   9.837 -0.4502  0.5368  0.0339
 7569SOL    HW234344   1.384   2.778   9.792  2.0409  0.7442  1.7377
 7570SOL     OW34345   3.485   1.912  11.418 -0.1441  0.2094 -0.0456
 7570SOL    HW134346   3.518   1.822  11.419  0.9037  0.6042  0.6227
 7570SOL    HW234347   3.436   1.908  11.499  0.8211  0.2264  0.5401
 7571SOL     OW34348   3.838   0.664   7.652 -0.4548 -0.4055 -0.4038
 7571SOL    HW134349   3.765   0.661   7.714 -0.1879  0.6675 -0.0421
 7571SOL    HW234350   3.834   0.756   7.625  2.4612  0.0561  0.7483
 7572SOL     OW34351   3.628   0.245   6.599 -0.7732  0.0431  0.3570
 7572SOL    HW134352   3.621   0.313   6.666  2.2167  1.1364 -0.4454
 7572SOL    HW234353   3.571   0.181   6.642 -0.6580  0.0868  0.5752
 7573SOL     OW34354   4.149   4.359   6.587 -0.1520 -0.4459  0.0221
 7573SOL    HW134355   4.228   4.306   6.576 -0.0296 -0.2559 -0.0024
 7573SOL    HW234356   4.187   4.446   6.581 -2.0638  0.3761 -0.3156
 7574SOL     OW34357   2.205   2.477   3.058  0.3249  0.5992  0.1498
 7574SOL    HW134358   2.162   2.494   3.142  1.1663  0.5341  0.5901
 7574SOL    HW234359   2.210   2.382   3.063  1.6800  0.5044 -2.9491
 7575SOL     OW34360   2.159   4.387   8.085  0.3852  0.0959 -0.5342
 7575SOL    HW134361   2.140   4.294   8.091 -2.9827  0.4983 -4.6931
 7575SOL    HW234362   2.129   4.413   8.172  1.4569 -0.0471 -0.1215
 7576SOL     OW34363   1.440   1.139   1.114 -0.3103  0.2654  0.0440
 7576SOL    HW134364   1.534   1.155   1.121 -0.4198  0.9874 -0.2071
 7576SOL    HW234365   1.442   1.048   1.082 -2.1528  0.4338 -0.5340
 7577SOL     OW34366   3.063   1.130  11.185  0.6391  0.2479  0.9257
 7577SOL    HW134367   3.062   1.050  11.238  2.2207  0.2282  0.9212
 7577SOL    HW234368   3.152   1.118  11.153  1.5027  1.5613  2.8270
 7578SOL     OW34369   1.682   3.971   5.128 -0.0418 -0.1012  0.1048
 7578SOL    HW134370   1.667   3.881   5.158  0.9689  0.2749  1.7115
 7578SOL    HW234371   1.738   3.998   5.200  0.6876  1.6607 -1.1157
 7579SOL     OW34372   2.504   0.349   2.190 -0.0966  0.5327 -0.0786
 7579SOL    HW134373   2.534   0.440   2.199 -1.3860  1.0220 -0.7363
 7579SOL    HW234374   2.578   0.305   2.231 -1.0340 -0.9856 -0.0156
 7580SOL     OW34375   4.571   1.485  11.977  0.4280  0.3732 -0.3315
 7580SOL    HW134376   4.629   1.546  11.931  0.6234  0.1103 -0.4317
 7580SOL    HW234377   4.502   1.547  12.002  0.6073  0.0132  1.0451
 7581SOL     OW34378   1.869   0.231   4.044 -0.0782 -0.6739 -0.2400
 7581SOL    HW134379   1.791   0.240   4.098 -0.4674  1.9512 -1.2733
 7581SOL    HW234380   1.867   0.314   3.996  1.7482  0.5087  1.6972
 7582SOL     OW34381   1.187   2.635   8.187 -0.3576  0.2946  0.5548
 7582SOL    HW134382   1.123   2.693   8.145 -1.4628 -0.6113  0.9813
 7582SOL    HW234383   1.144   2.626   8.272  0.5690 -1.8146  0.7985
 7583SOL     OW34384   1.198   1.324   6.120  0.1103 -0.3841 -0.2317
 7583SOL    HW134385   1.241   1.322   6.034 -1.7887 -0.0564 -1.2049
 7583SOL    HW234386   1.117   1.371   6.101  0.5239  0.4917  0.2122
 7584SOL     OW34387   4.720   4.426   9.061 -0.5810 -0.0944 -0.2582
 7584SOL    HW134388   0.052   4.461   8.997 -0.3664 -1.0058 -0.5603
 7584SOL    HW234389   4.655   4.495   9.068 -1.3902 -0.8511 -0.2858
 7585SOL     OW34390   4.022   2.787   9.262  0.3289 -0.3126  0.2593
 7585SOL    HW134391   4.031   2.777   9.356  0.6579  2.0100  0.4882
 7585SOL    HW234392   3.973   2.869   9.253  0.0583 -0.5553 -0.4454
 7586SOL     OW34393   2.121   4.716   1.308 -0.0764  0.1888  0.3949
 7586SOL    HW134394   2.184   4.711   1.380 -0.0269  1.9468  0.4836
 7586SOL    HW234395   2.042   0.014   1.355 -1.2210 -2.8920  0.2339
 7587SOL     OW34396   3.683   2.690  12.792  0.4551  0.3444  0.6794
 7587SOL    HW134397   3.631   2.624  12.838  0.5828  0.5029  1.0488
 7587SOL    HW234398   3.644   2.679  12.705  1.1966  1.8883  0.1669
 7588SOL     OW34399   0.221   0.134   2.705 -0.1727  0.3003 -0.2194
 7588SOL    HW134400   0.188   0.102   2.621 -1.7119 -0.0980  0.5295
 7588SOL    HW234401   0.274   0.207   2.672 -0.2234  0.1140 -0.7241
 7589SOL     OW34402   2.783   2.918   7.605  0.5486 -0.0465 -0.0579
 7589SOL    HW134403   2.712   2.865   7.569 -1.3745  2.3645  0.1624
 7589SOL    HW234404   2.736   2.942   7.685 -1.9610 -2.4539 -0.8256
 7590SOL     OW34405   2.278   4.700   8.860 -0.1204 -0.2292 -0.7088
 7590SOL    HW134406   2.313   0.050   8.820  1.1739 -0.8318 -0.7810
 7590SOL    HW234407   2.183   4.699   8.874 -0.4287 -1.1065 -2.7936
 7591SOL     OW34408   3.695   4.277   6.960  0.1525  0.0938  0.2216
 7591SOL    HW134409   3.747   4.214   6.910 -0.7857 -0.1262 -0.4858
 7591SOL    HW234410   3.744   4.359   6.950 -1.2656  0.8075 -1.0404
 7592SOL     OW34411   4.527   3.088   1.763 -0.2423  0.6835  0.0342
 7592SOL    HW134412   4.577   3.105   1.842  1.2527  1.3877 -1.0700
 7592SOL    HW234413   4.544   3.168   1.713 -1.3233 -0.0426 -1.5295
 7593SOL     OW34414   1.524   0.025   5.044  0.3344 -0.2229  0.2677
 7593SOL    HW134415   1.532   4.703   5.125  0.1970 -0.9974 -0.2199
 7593SOL    HW234416   1.441   4.722   5.011  0.3494  1.2930 -1.2449
 7594SOL     OW34417   4.674   1.822   1.915  0.0289 -0.0009  0.5938
 7594SOL    HW134418   4.706   1.908   1.942 -0.0337  0.0888  0.3806
 7594SOL    HW234419   0.006   1.769   1.966  0.8151 -0.2521 -0.6263
 7595SOL     OW34420   0.986   0.999   9.088  0.0450 -0.1289 -0.4428
 7595SOL    HW134421   0.989   1.077   9.033 -1.7490 -1.1924 -2.0267
 7595SOL    HW234422   0.963   1.029   9.176  6.0129  1.4459  0.5838
 7596SOL     OW34423   3.520   0.921   4.704 -0.2565 -0.2520 -0.3860
 7596SOL    HW134424   3.445   0.872   4.672  0.0089 -1.5450  0.9864
 7596SOL    HW234425   3.574   0.911   4.626 -0.9917  0.0148 -0.9266
 7597SOL     OW34426   0.032   2.635   5.107  0.3729  0.0473  0.4822
 7597SOL    HW134427   0.082   2.601   5.034 -0.1896 -1.1426  0.6530
 7597SOL    HW234428   0.012   2.722   5.072 -1.6312 -0.3890  0.5356
 7598SOL     OW34429   0.636   2.843  17.126 -0.1213 -0.2037 -0.6307
 7598SOL    HW134430   0.582   2.787  17.071 -1.0070 -0.4277  0.4761
 7598SOL    HW234431   0.572   2.912  17.146  1.9180  1.3197  0.6719
 7599SOL     OW34432   4.356   0.559   8.168 -0.6404 -0.3004  0.0062
 7599SOL    HW134433   4.381   0.651   8.155 -0.6892  0.2301  3.6449
 7599SOL    HW234434   4.413   0.512   8.108  0.5344  0.0608  0.8306
 7600SOL     OW34435   0.606   3.717   4.411  0.2778  0.3006  0.2099
 7600SOL    HW134436   0.573   3.629   4.432  0.0462 -0.3210 -2.7870
 7600SOL    HW234437   0.697   3.720   4.442  0.7593  0.3817 -1.1774
 7601SOL     OW34438   2.206   1.138   5.522 -0.6015 -0.0421  0.5738
 7601SOL    HW134439   2.251   1.164   5.442 -1.6284  1.9655  0.6269
 7601SOL    HW234440   2.146   1.212   5.535  0.9932  1.7062 -1.9871
 7602SOL     OW34441   4.413   4.037   7.324 -0.0721 -0.1163 -0.1882
 7602SOL    HW134442   4.448   4.104   7.265 -0.2292  0.3533  0.2568
 7602SOL    HW234443   4.323   4.067   7.316 -0.2248 -0.3274  0.7289
 7603SOL     OW34444   1.712   0.633   2.613 -0.3523  0.3109 -0.1578
 7603SOL    HW134445   1.763   0.564   2.656 -3.4114 -2.5054 -1.0600
 7603SOL    HW234446   1.673   0.581   2.543  1.3435 -0.5327 -0.4684
 7604SOL     OW34447   2.176   0.866   9.979  0.3865 -0.3988 -0.3123
 7604SOL    HW134448   2.116   0.885   9.908 -0.9455  0.3068  1.0003
 7604SOL    HW234449   2.255   0.844   9.930 -0.5819  0.0542 -2.0838
 7605SOL     OW34450   1.127   3.672  16.251 -0.0251  0.6196 -0.1802
 7605SOL    HW134451   1.092   3.761  16.246  0.9896  0.9680 -1.1011
 7605SOL    HW234452   1.130   3.648  16.343  0.2785 -2.9793 -1.1219
 7606SOL     OW34453   0.930   1.433   9.039 -0.2617 -0.4553 -0.5641
 7606SOL    HW134454   0.925   1.490   8.961 -1.7659  2.9672  2.0186
 7606SOL    HW234455   0.840   1.421   9.068 -0.2353 -0.8265 -0.6401
 7607SOL     OW34456   3.539   0.250   1.498 -0.0029  0.8556 -0.1950
 7607SOL    HW134457   3.629   0.227   1.519 -0.5068  1.1863  2.2448
 7607SOL    HW234458   3.558   0.324   1.440 -0.8347 -1.5957 -3.6084
 7608SOL     OW34459   3.147   4.150   5.208 -0.1120 -0.3366 -0.3761
 7608SOL    HW134460   3.194   4.068   5.223 -1.6591 -1.1547  0.0246
 7608SOL    HW234461   3.058   4.115   5.200 -0.0461 -0.2605 -1.5511
 7609SOL     OW34462   3.814   3.746  11.254 -0.1635 -0.3502  0.3758
 7609SOL    HW134463   3.884   3.734  11.191 -2.2476 -0.2421 -1.9331
 7609SOL    HW234464   3.845   3.670  11.303 -1.4882 -0.0953  1.6206
 7610SOL     OW34465   2.827   2.929   2.699 -0.2033 -0.0729 -0.0385
 7610SOL    HW134466   2.825   2.975   2.616 -0.9534  0.8074  0.4633
 7610SOL    HW234467   2.875   2.848   2.682  1.8265  0.9654  0.7188
 7611SOL     OW34468   1.994   1.353   5.427  0.5706  0.3299 -0.0633
 7611SOL    HW134469   2.005   1.381   5.518 -1.6901  1.0203  0.0001
 7611SOL    HW234470   1.940   1.426   5.397 -1.2444 -0.6080  0.9700
 7612SOL     OW34471   1.793   2.339   4.160  0.6568 -0.5617  0.8579
 7612SOL    HW134472   1.770   2.247   4.149 -0.4306  0.0718 -2.4017
 7612SOL    HW234473   1.708   2.383   4.159  0.3310 -1.2240 -1.7281
 7613SOL     OW34474   3.096   3.418   5.777 -0.4181  0.0956 -0.5259
 7613SOL    HW134475   3.047   3.468   5.843  0.6389 -0.5303  0.7101
 7613SOL    HW234476   3.046   3.338   5.765 -1.3954  0.6352 -0.0679
 7614SOL     OW34477   4.004   4.145  10.639  0.3250 -0.0814 -0.3097
 7614SOL    HW134478   4.072   4.158  10.704 -1.0556 -0.7319  1.2866
 7614SOL    HW234479   3.929   4.190  10.679  0.3332  0.0611 -0.4575
 7615SOL     OW34480   0.799   0.421   4.544  0.6729  0.4503  0.0303
 7615SOL    HW134481   0.838   0.441   4.629  1.8892 -0.0333 -0.4023
 7615SOL    HW234482   0.716   0.383   4.571 -0.4089  3.0950  0.4019
 7616SOL     OW34483   2.657   0.470   3.161  0.4571 -0.6696 -0.3916
 7616SOL    HW134484   2.615   0.517   3.089  0.7106  1.0822  0.6040
 7616SOL    HW234485   2.656   0.383   3.120 -0.3754 -0.6440 -0.4194
 7617SOL     OW34486   3.532   3.335   0.086 -0.2558  0.2591  0.3615
 7617SOL    HW134487   3.438   3.318   0.077 -0.0946 -0.1214 -0.6298
 7617SOL    HW234488   3.538   3.430   0.097 -0.1372  0.6017 -2.6027
 7618SOL     OW34489   0.044   0.598   6.698  0.0700 -0.6999 -0.2281
 7618SOL    HW134490   0.052   0.668   6.763  0.1922 -1.4840  0.6044
 7618SOL    HW234491   0.120   0.546   6.724  0.8178  0.4770 -0.0758
 7619SOL     OW34492   1.347   0.364   5.714 -0.2392 -0.0673  0.1020
 7619SOL    HW134493   1.296   0.446   5.714 -0.2774 -0.1055  1.6072
 7619SOL    HW234494   1.331   0.329   5.801  0.3618  0.3102  0.3578
 7620SOL     OW34495   0.968   3.013   7.183  0.5905 -0.3992  0.1416
 7620SOL    HW134496   1.057   3.028   7.214  0.7394  1.1304 -1.0141
 7620SOL    HW234497   0.962   2.917   7.178  0.0843 -0.3658  0.1213
 7621SOL     OW34498   3.466   3.406   6.986  0.3537 -0.1546 -0.0333
 7621SOL    HW134499   3.549   3.358   6.979  1.2742  1.4425 -0.1560
 7621SOL    HW234500   3.406   3.333   6.976  0.4824 -0.2236 -0.2979
 7622SOL     OW34501   4.258   0.481   4.726  1.1816  0.3707  0.5315
 7622SOL    HW134502   4.322   0.410   4.728  0.3625 -0.4530 -1.9670
 7622SOL    HW234503   4.187   0.420   4.746  1.5665 -0.3956 -0.4055
 7623SOL     OW34504   2.454   2.425  13.195  0.3949 -0.0792  0.0278
 7623SOL    HW134505   2.463   2.418  13.100 -0.6885  0.2674 -0.1048
 7623SOL    HW234506   2.470   2.336  13.224  0.4056 -0.0561  0.0915
 7624SOL     OW34507   1.327   0.670  10.319 -0.1067  0.5240 -0.9298
 7624SOL    HW134508   1.418   0.665  10.349 -1.3415 -0.1552  2.6204
 7624SOL    HW234509   1.337   0.600  10.254 -1.1858 -1.0238  0.6025
 7625SOL     OW34510   0.197   3.381   7.519  0.1081  0.1338  0.0998
 7625SOL    HW134511   0.187   3.389   7.614  0.0225  1.5028 -0.0282
 7625SOL    HW234512   0.151   3.461   7.495 -0.1441  0.1606  0.6782
 7626SOL     OW34513   4.183   2.580   0.865  0.1835 -0.1983  0.5507
 7626SOL    HW134514   4.158   2.549   0.953  0.7400 -1.6004  0.2224
 7626SOL    HW234515   4.258   2.522   0.853 -0.6874 -1.4074  0.9376
 7627SOL     OW34516   4.364   3.295   5.493 -0.2111 -1.0653 -0.4788
 7627SOL    HW134517   4.284   3.242   5.490 -1.5725  0.8853  1.1518
 7627SOL    HW234518   4.421   3.244   5.549  0.3755 -1.6555 -1.6063
 7628SOL     OW34519   4.125   1.724   2.517  0.0747  0.2525  0.0589
 7628SOL    HW134520   4.099   1.689   2.603  0.5525 -2.7223 -0.9956
 7628SOL    HW234521   4.045   1.768   2.489 -1.6120 -2.9509 -0.2148
 7629SOL     OW34522   1.437   0.559   5.320  0.1488  0.1088 -0.0287
 7629SOL    HW134523   1.360   0.515   5.354 -0.3205 -1.5497 -3.3158
 7629SOL    HW234524   1.468   0.486   5.267 -1.5221 -0.9657  0.4875
 7630SOL     OW34525   0.491   1.064   9.504 -0.0394 -0.8387 -0.0928
 7630SOL    HW134526   0.489   0.973   9.477 -1.3287 -0.8379  0.0268
 7630SOL    HW234527   0.503   1.067   9.599 -0.1986  0.7356 -0.1167
 7631SOL     OW34528   3.211   0.249  13.613  0.0062 -0.4440  0.3285
 7631SOL    HW134529   3.149   0.317  13.640  0.7468 -0.4656  2.0737
 7631SOL    HW234530   3.297   0.285  13.636  0.1507 -0.7072  0.1977
 7632SOL     OW34531   0.305   2.425   7.281  0.4987  0.3651 -0.4146
 7632SOL    HW134532   0.298   2.330   7.265  1.6626  0.0156  1.1405
 7632SOL    HW234533   0.368   2.417   7.352 -0.6408 -0.4804  0.5037
 7633SOL     OW34534   0.243   3.396   6.501 -0.3074 -0.2277 -0.2570
 7633SOL    HW134535   0.181   3.353   6.442 -0.3138  0.8648 -1.0385
 7633SOL    HW234536   0.228   3.489   6.483  1.2834 -0.1072 -0.9892
 7634SOL     OW34537   1.750   3.287   6.595 -0.1911  0.0334  0.3316
 7634SOL    HW134538   1.775   3.246   6.678 -1.6637 -1.0352  0.2500
 7634SOL    HW234539   1.764   3.211   6.539 -0.6690 -0.5061  0.9449
 7635SOL     OW34540   3.531   1.149   4.092 -0.3035  0.4096  0.0192
 7635SOL    HW134541   3.446   1.151   4.137 -1.1750  0.2903 -1.6010
 7635SOL    HW234542   3.568   1.235   4.113 -0.0630 -0.0040  1.2837
 7636SOL     OW34543   2.221   1.474  13.268 -0.0786  0.1624  0.2232
 7636SOL    HW134544   2.184   1.488  13.181  0.6853  2.4987  0.2675
 7636SOL    HW234545   2.312   1.483  13.240 -0.5418 -0.6735 -1.5286
 7637SOL     OW34546   1.459   1.296   4.844  0.1835  0.0918  0.1279
 7637SOL    HW134547   1.437   1.241   4.768 -0.2861  0.3969  0.0383
 7637SOL    HW234548   1.424   1.376   4.803 -0.7131 -0.9835 -1.1948
 7638SOL     OW34549   3.435   2.910   6.381 -0.0364 -0.2263  0.5950
 7638SOL    HW134550   3.496   2.929   6.452  0.0973  1.6667 -0.0234
 7638SOL    HW234551   3.468   2.822   6.364  0.2679  0.2210 -1.0954
 7639SOL     OW34552   2.381   2.016  10.106 -0.3238 -0.0800 -0.3315
 7639SOL    HW134553   2.459   2.058  10.143 -0.0568 -0.6319 -0.2785
 7639SOL    HW234554   2.355   2.089  10.049 -0.6601  1.9731  2.4053
 7640SOL     OW34555   0.772   2.953   7.887  0.2835  0.0194 -0.3638
 7640SOL    HW134556   0.685   2.917   7.872  0.2261 -0.1603  0.3557
 7640SOL    HW234557   0.825   2.924   7.813  0.3164 -1.9677  0.4276
 7641SOL     OW34558   0.812   3.808   3.796 -0.0233 -0.1777  0.2318
 7641SOL    HW134559   0.747   3.789   3.864 -1.3704 -0.3475 -1.0999
 7641SOL    HW234560   0.759   3.792   3.718  0.5835  0.0126 -0.2145
 7642SOL     OW34561   3.378   1.562   7.552 -0.2233 -0.3356 -0.3225
 7642SOL    HW134562   3.413   1.565   7.463  0.9586  0.3006  0.1655
 7642SOL    HW234563   3.296   1.613   7.549  0.4619  0.9276  1.8743
 7643SOL     OW34564   3.786   1.037   9.928  0.1156  0.6969 -0.1306
 7643SOL    HW134565   3.717   0.971   9.935  2.3554 -1.6517 -0.0803
 7643SOL    HW234566   3.869   0.990   9.922  0.4677  1.6262 -2.6398
 7644SOL     OW34567   4.628   3.956   2.161  0.6041  0.3397 -0.5039
 7644SOL    HW134568   4.681   3.992   2.090  1.1250  0.9576  0.1906
 7644SOL    HW234569   4.537   3.974   2.139  0.2393 -1.1343 -0.1695
 7645SOL     OW34570   3.088   3.317  10.628 -0.2129 -0.5801  0.0003
 7645SOL    HW134571   3.166   3.357  10.667 -0.7225  2.0970 -1.7855
 7645SOL    HW234572   3.051   3.389  10.578  0.7426 -0.5844 -0.7225
 7646SOL     OW34573   0.211   1.564   4.676  0.4959 -0.0960  0.0059
 7646SOL    HW134574   0.205   1.538   4.584 -0.9286 -0.1375  0.1144
 7646SOL    HW234575   0.121   1.592   4.692 -0.4899 -4.2192  1.7305
 7647SOL     OW34576   4.360   1.714   2.131 -0.8853  0.4480 -0.5331
 7647SOL    HW134577   4.383   1.743   2.043  2.8311  0.9019  0.6031
 7647SOL    HW234578   4.266   1.702   2.121 -0.9059 -1.2385  1.5538
 7648SOL     OW34579   3.438   2.784   1.746  0.3917 -0.1861  0.2706
 7648SOL    HW134580   3.509   2.755   1.688 -0.0261 -0.1632 -0.2446
 7648SOL    HW234581   3.390   2.701   1.747 -2.1399  1.3051  1.1445
 7649SOL     OW34582   3.932   4.594   6.521  0.6423  0.4723 -0.3728
 7649SOL    HW134583   3.996   4.536   6.562  0.8264  0.0788 -1.2222
 7649SOL    HW234584   3.987   4.632   6.453  0.8287  3.7007  1.5829
 7650SOL     OW34585   1.460   1.091   8.058 -0.1881  0.0121  0.2963
 7650SOL    HW134586   1.443   1.042   8.139  1.4535 -0.8700  0.1094
 7650SOL    HW234587   1.528   1.154   8.083 -0.0686 -0.5601  1.4569
 7651SOL     OW34588   1.828   0.027  14.680  0.1458 -0.2318  0.1520
 7651SOL    HW134589   1.910   0.025  14.728 -1.1722  1.1864  2.4716
 7651SOL    HW234590   1.818   0.122  14.674 -1.1881 -0.2592  1.9273
 7652SOL     OW34591   4.347   2.762   7.379 -0.1792 -0.1359 -0.2010
 7652SOL    HW134592   4.311   2.826   7.440 -0.4365 -2.8867  2.5276
 7652SOL    HW234593   4.423   2.809   7.344  0.4211 -1.5079 -0.7410
 7653SOL     OW34594   1.124   0.877   2.436  0.1331 -0.3054 -0.3224
 7653SOL    HW134595   1.205   0.850   2.479  0.6323  1.9897  0.1746
 7653SOL    HW234596   1.140   0.841   2.349  1.5267 -0.7065  0.0995
 7654SOL     OW34597   3.341   2.274   2.731 -0.6436  0.0660  0.1662
 7654SOL    HW134598   3.274   2.285   2.664 -0.8626  1.3053  0.5859
 7654SOL    HW234599   3.275   2.273   2.801 -0.2636 -0.7316  0.5143
 7655SOL     OW34600   1.856   0.336   2.986  0.0616 -0.7171  0.7233
 7655SOL    HW134601   1.788   0.315   3.049 -0.8701  2.6560  0.8301
 7655SOL    HW234602   1.928   0.309   3.043 -0.2651  0.1621  1.5503
 7656SOL     OW34603   4.091   1.555   3.113 -0.0659 -0.0936  0.1000
 7656SOL    HW134604   4.165   1.506   3.078 -0.4606 -0.3554 -0.3749
 7656SOL    HW234605   4.053   1.490   3.172 -0.6303 -1.0136 -1.2762
 7657SOL     OW34606   0.858   1.747  11.038 -0.7987 -0.5896 -0.1590
 7657SOL    HW134607   0.884   1.838  11.051  0.8602 -0.9413 -1.0869
 7657SOL    HW234608   0.822   1.749  10.949  0.1958 -1.1226 -0.5674
 7658SOL     OW34609   3.905   3.490  14.632  0.0976  0.2162 -0.1219
 7658SOL    HW134610   3.986   3.440  14.636  0.2984  0.7481  2.4425
 7658SOL    HW234611   3.943   3.578  14.625 -1.3230  0.8035 -0.4616
 7659SOL     OW34612   0.082   4.465   3.089 -0.1836 -0.4598 -0.1249
 7659SOL    HW134613   0.136   4.386   3.089  0.6558  0.1141 -1.0928
 7659SOL    HW234614   0.030   4.452   3.168  1.1706 -1.3232  0.6225
 7660SOL     OW34615   3.822   2.326   4.915 -0.0458 -0.3419 -0.2818
 7660SOL    HW134616   3.825   2.421   4.927  0.1830 -0.6938  2.4853
 7660SOL    HW234617   3.840   2.317   4.822 -0.2982  2.3440 -0.5970
 7661SOL     OW34618   2.904   4.385  14.643 -0.1389  0.2743 -0.4590
 7661SOL    HW134619   2.936   4.403  14.731 -1.0498 -2.7336  0.5160
 7661SOL    HW234620   2.857   4.302  14.657 -0.3966  0.0268 -2.6753
 7662SOL     OW34621   2.272   2.784   7.775  0.1277 -0.1787  0.0445
 7662SOL    HW134622   2.304   2.839   7.703  0.4997  1.5638  1.5322
 7662SOL    HW234623   2.234   2.853   7.830 -0.7553  0.2008 -1.0285
 7663SOL     OW34624   2.006   4.021  10.396  0.0545 -0.2576 -0.4758
 7663SOL    HW134625   1.972   3.967  10.467  0.1302 -0.7246 -0.7867
 7663SOL    HW234626   2.093   4.047  10.427 -0.3717 -1.1096  1.4328
 7664SOL     OW34627   3.366   4.709   6.314 -0.0022  0.1011  0.2131
 7664SOL    HW134628   3.414   4.665   6.244  1.1296  0.9308  0.4598
 7664SOL    HW234629   3.425   4.693   6.389 -1.3905  0.9378  1.4819
 7665SOL     OW34630   0.365   2.650   7.598 -0.3415  0.5794  0.5381
 7665SOL    HW134631   0.344   2.614   7.684 -1.9060 -0.1368 -0.1504
 7665SOL    HW234632   0.299   2.719   7.599  1.3359  2.2169  0.3509
 7666SOL     OW34633   1.570   3.442  12.819  0.0937 -1.1769  0.4544
 7666SOL    HW134634   1.650   3.397  12.846 -0.1430 -1.4222  0.7368
 7666SOL    HW234635   1.596   3.534  12.813  0.3159 -1.1351  2.1116
 7667SOL     OW34636   3.764   2.406  10.895 -0.4156 -0.3378  0.1796
 7667SOL    HW134637   3.805   2.398  10.981  2.2006 -0.0600 -1.0488
 7667SOL    HW234638   3.835   2.413  10.832  0.6315 -3.6478  1.0229
 7668SOL     OW34639   3.384   0.589  13.657 -0.9349 -0.2584  0.6002
 7668SOL    HW134640   3.320   0.580  13.727 -1.2142 -0.3083  0.3362
 7668SOL    HW234641   3.444   0.515  13.667 -2.1747 -1.6082 -2.0284
 7669SOL     OW34642   0.586   0.623  17.010 -0.1630 -0.0397  0.3396
 7669SOL    HW134643   0.505   0.572  17.018  0.1669 -0.1778  3.0050
 7669SOL    HW234644   0.610   0.626  17.103  0.1056 -0.1279  0.2717
 7670SOL     OW34645   1.893   0.513   5.962  0.2628  0.2313  0.0738
 7670SOL    HW134646   1.808   0.511   5.917 -1.4062 -0.3932  3.2505
 7670SOL    HW234647   1.940   0.586   5.921  2.1191 -2.4728 -2.6029
 7671SOL     OW34648   0.897   2.582   6.315  0.2386 -0.1526  0.3965
 7671SOL    HW134649   0.981   2.570   6.359  0.1245 -1.7704  0.1836
 7671SOL    HW234650   0.852   2.503   6.345  0.3818 -0.0395  0.8946
 7672SOL     OW34651   0.626   3.731   3.316  0.4497 -0.1207  0.0662
 7672SOL    HW134652   0.590   3.820   3.313  0.8461  0.0502  0.3270
 7672SOL    HW234653   0.682   3.745   3.240 -0.8947  2.1635 -0.4930
 7673SOL     OW34654   4.590   1.412   7.964  0.3153 -0.2676  0.6144
 7673SOL    HW134655   4.633   1.470   8.027 -1.4589 -0.8922  2.3983
 7673SOL    HW234656   4.520   1.370   8.014 -0.2058  0.2672  0.3337
 7674SOL     OW34657   2.156   2.358   8.465  0.1378 -0.3284  0.4504
 7674SOL    HW134658   2.222   2.325   8.526  0.4858 -0.0863  0.2054
 7674SOL    HW234659   2.194   2.446   8.458 -0.3316 -0.1246  0.5043
 7675SOL     OW34660   1.579   2.814   6.397  0.3537  0.5596 -0.1531
 7675SOL    HW134661   1.526   2.821   6.477  0.6732  0.2482  0.0843
 7675SOL    HW234662   1.509   2.805   6.333 -0.4146 -1.0875  0.9153
 7676SOL     OW34663   2.363   1.950   7.367 -0.4729 -0.5393 -0.0714
 7676SOL    HW134664   2.418   1.993   7.302  0.3832 -2.9020 -0.9181
 7676SOL    HW234665   2.341   2.028   7.417  3.0933  0.2755  0.2131
 7677SOL     OW34666   1.999   2.604   3.258 -0.3672 -0.2997  0.3749
 7677SOL    HW134667   2.004   2.625   3.351  1.2423  0.7515  0.0554
 7677SOL    HW234668   1.935   2.533   3.256 -0.4117 -0.2874  2.2494
 7678SOL     OW34669   1.862   3.731  10.912 -0.0776  0.0786  0.5891
 7678SOL    HW134670   1.767   3.739  10.921 -0.3937  0.2237 -2.8141
 7678SOL    HW234671   1.872   3.648  10.959 -0.4621  0.2864  1.0377
 7679SOL     OW34672   2.733   2.618   9.530  0.0737  0.3130  0.6448
 7679SOL    HW134673   2.726   2.542   9.473 -0.8207  1.8947 -1.3681
 7679SOL    HW234674   2.751   2.697   9.479 -0.6549 -0.3627 -0.6420
 7680SOL     OW34675   4.242   2.202   8.542 -0.1801  0.1429 -0.4993
 7680SOL    HW134676   4.243   2.250   8.625 -0.0750  0.7411 -0.8413
 7680SOL    HW234677   4.214   2.274   8.485  2.5491 -0.5050 -2.6791
 7681SOL     OW34678   1.991   0.356   2.482 -0.1538  0.0483  0.4823
 7681SOL    HW134679   2.016   0.306   2.559 -0.7764  1.1986  1.4261
 7681SOL    HW234680   1.902   0.381   2.508 -1.0393 -3.7721  1.1578
 7682SOL     OW34681   3.271   2.484   8.776  0.0111  0.3976  0.6525
 7682SOL    HW134682   3.326   2.426   8.827  1.8027  0.6255 -1.0440
 7682SOL    HW234683   3.220   2.527   8.845  0.6452  1.9096  0.1861
 7683SOL     OW34684   3.829   3.502  11.375  0.4292  0.1547 -0.8620
 7683SOL    HW134685   3.907   3.464  11.414 -0.1129  0.5829  0.6195
 7683SOL    HW234686   3.801   3.419  11.337  0.7017  0.8371 -2.5639
 7684SOL     OW34687   3.216   4.060   2.958 -0.5254 -0.0631 -0.0214
 7684SOL    HW134688   3.278   4.101   3.019 -0.2164  0.5484 -0.7444
 7684SOL    HW234689   3.268   4.077   2.879 -0.4366 -0.2022  0.0064
 7685SOL     OW34690   1.773   3.372   3.260 -0.0532 -0.3326 -0.2944
 7685SOL    HW134691   1.730   3.383   3.175  1.0606  0.2926 -0.7783
 7685SOL    HW234692   1.864   3.348   3.246 -0.2127 -0.2464 -1.5124
 7686SOL     OW34693   1.678   2.181   0.099  0.0027  0.4588  0.0350
 7686SOL    HW134694   1.590   2.210   0.076  0.8998  0.9551 -2.7174
 7686SOL    HW234695   1.735   2.224   0.036  0.9011  1.9118  1.8525
 7687SOL     OW34696   2.945   2.063   5.782 -0.6357 -0.3321  0.4648
 7687SOL    HW134697   3.027   2.102   5.751 -2.2571  2.9245  0.2471
 7687SOL    HW234698   2.973   1.986   5.830  0.9341  1.4055  2.3489
 7688SOL     OW34699   0.869   0.704   7.592  0.4290  0.5495 -0.0736
 7688SOL    HW134700   0.839   0.624   7.548 -0.1054  0.2863  0.7837
 7688SOL    HW234701   0.917   0.675   7.670  0.6945  0.2462 -0.3468
 7689SOL     OW34702   0.309   4.134   7.463 -0.3581  0.2285 -0.6171
 7689SOL    HW134703   0.387   4.120   7.516 -1.9128 -1.4353  1.2360
 7689SOL    HW234704   0.268   4.048   7.471  1.7367 -0.7936 -0.9142
 7690SOL     OW34705   1.780   4.277  15.082  0.0668  0.2400  0.1243
 7690SOL    HW134706   1.689   4.280  15.113 -0.3767 -1.4257 -1.0365
 7690SOL    HW234707   1.827   4.298  15.163 -2.7234  2.0974  1.2977
 7691SOL     OW34708   0.877   1.671  10.481 -0.4034  0.1350 -0.1747
 7691SOL    HW134709   0.846   1.638  10.397 -1.0804 -0.0713  0.1538
 7691SOL    HW234710   0.944   1.733  10.451  0.5887 -0.2393  1.2509
 7692SOL     OW34711   2.486   3.004   4.819 -0.3311  0.1199 -0.6313
 7692SOL    HW134712   2.540   2.973   4.892 -0.1629  3.7109  0.7550
 7692SOL    HW234713   2.547   3.062   4.773 -1.7635 -0.6230 -3.4552
 7693SOL     OW34714   0.378   3.090   5.132  0.4023 -0.0189  0.5713
 7693SOL    HW134715   0.365   3.068   5.040 -1.4767  1.2669  0.5090
 7693SOL    HW234716   0.336   3.176   5.135  0.4281 -0.0310  1.2795
 7694SOL     OW34717   1.391   3.984   4.696 -0.6233 -0.2326  0.4451
 7694SOL    HW134718   1.400   3.896   4.733 -0.2557 -0.5534 -0.3955
 7694SOL    HW234719   1.371   3.964   4.604  1.9980  0.5628 -0.2880
 7695SOL     OW34720   3.813   2.229  17.696 -0.6929  0.4391 -0.0036
 7695SOL    HW134721   3.856   2.191   0.055 -0.6297 -2.1161 -1.3183
 7695SOL    HW234722   3.734   2.268   0.017 -1.7863 -1.4167 -0.3356
 7696SOL     OW34723   2.211   3.999   3.932 -0.0813  0.4711 -0.3475
 7696SOL    HW134724   2.177   3.962   4.014  0.1037 -0.7861 -0.8337
 7696SOL    HW234725   2.251   3.927   3.882  2.2730  0.1339  1.9910
 7697SOL     OW34726   2.103   0.225  14.011 -0.0341  0.4221 -0.1251
 7697SOL    HW134727   2.095   0.246  14.103  1.7339  2.4027 -0.4420
 7697SOL    HW234728   2.163   0.150  14.011 -0.4889  0.0412 -1.5151
 7698SOL     OW34729   1.831   0.281  15.740  0.0012  0.4610  0.0578
 7698SOL    HW134730   1.865   0.287  15.651 -1.4135 -0.8558 -0.5612
 7698SOL    HW234731   1.736   0.280  15.727 -0.5380  0.3137  4.0300
 7699SOL     OW34732   2.724   2.087   3.409 -1.0083 -0.5388 -0.2576
 7699SOL    HW134733   2.704   2.034   3.486 -0.2385 -2.0689 -1.1114
 7699SOL    HW234734   2.742   2.024   3.339 -0.2043 -1.4638  0.7988
 7700SOL     OW34735   2.467   1.708  13.323  0.5137 -0.1697  0.1340
 7700SOL    HW134736   2.373   1.722  13.312  0.7103  0.0803 -1.1844
 7700SOL    HW234737   2.466   1.612  13.328 -2.3508 -0.1970 -1.0684
 7701SOL     OW34738   4.319   1.514   5.268 -0.1168  0.3502 -0.0844
 7701SOL    HW134739   4.333   1.545   5.358  1.3888 -0.1467 -0.1528
 7701SOL    HW234740   4.384   1.445   5.263 -1.5719 -0.8907 -1.7914
 7702SOL     OW34741   2.713   3.109   9.783  0.4492 -0.2348 -0.0518
 7702SOL    HW134742   2.777   3.066   9.726  0.2772 -1.6160  0.7994
 7702SOL    HW234743   2.742   3.070   9.866 -0.7576 -2.1576 -0.5225
 7703SOL     OW34744   3.876   4.558   8.859 -0.1912 -0.8072  0.6720
 7703SOL    HW134745   3.852   4.611   8.935 -0.3478  1.5746 -1.0366
 7703SOL    HW234746   3.954   4.516   8.894 -1.5944 -2.8119  1.3667
 7704SOL     OW34747   2.006   1.724   3.582  0.4100  0.5908  0.6134
 7704SOL    HW134748   2.003   1.647   3.526  1.5147  0.1785  1.1226
 7704SOL    HW234749   2.064   1.699   3.654 -0.7507 -1.0135  0.9915
 7705SOL     OW34750   2.805   0.069   6.715  0.3584 -0.0545  0.5803
 7705SOL    HW134751   2.720   0.045   6.753  0.7700  0.3826  1.7741
 7705SOL    HW234752   2.856   4.719   6.734 -1.0773 -1.1256  0.0005
 7706SOL     OW34753   3.357   3.912   4.731 -0.1375 -0.0837  0.1405
 7706SOL    HW134754   3.331   3.960   4.653  2.1758  1.8967  0.5999
 7706SOL    HW234755   3.400   3.985   4.776  0.1187 -0.1670  0.0304
 7707SOL     OW34756   2.166   1.914   3.098  0.3217  0.1567  0.0234
 7707SOL    HW134757   2.217   1.871   3.167  0.0419 -0.3374 -0.0816
 7707SOL    HW234758   2.239   1.919   3.036 -0.2501 -0.5836 -0.7019
 7708SOL     OW34759   0.486   0.913  14.649  0.3052 -0.1038 -0.1919
 7708SOL    HW134760   0.429   0.960  14.708  0.7867 -0.8221  0.8523
 7708SOL    HW234761   0.469   0.821  14.669 -1.2659  0.6454  1.9046
 7709SOL     OW34762   4.209   0.607   2.571 -0.3118 -0.2750 -0.0174
 7709SOL    HW134763   4.284   0.629   2.516 -0.1533  1.1820  0.7720
 7709SOL    HW234764   4.206   0.514   2.551  0.6523 -1.1701  3.9160
 7710SOL     OW34765   0.608   0.896   7.724  0.3687  0.3612 -0.0069
 7710SOL    HW134766   0.632   0.961   7.657 -0.6701  0.6550 -0.0964
 7710SOL    HW234767   0.632   0.815   7.679  1.7502  1.2261 -0.8369
 7711SOL     OW34768   0.202   0.431   1.762  0.2732  0.0319 -0.2346
 7711SOL    HW134769   0.190   0.337   1.773 -2.4421  0.5641  1.2315
 7711SOL    HW234770   0.228   0.454   1.673  3.1953  0.0847  0.6122
 7712SOL     OW34771   4.105   4.570   8.027  0.4864  0.0019  0.0335
 7712SOL    HW134772   4.097   4.489   7.977 -0.4592  0.7913 -1.0967
 7712SOL    HW234773   4.050   4.642   7.996  2.5516  1.9335  0.8333
 7713SOL     OW34774   0.411   2.036   3.207 -0.1370 -0.3106 -0.2332
 7713SOL    HW134775   0.416   1.960   3.150 -1.4629 -0.7815  0.2836
 7713SOL    HW234776   0.318   2.045   3.188 -0.0835 -0.1241 -0.4036
 7714SOL     OW34777   4.269   4.494  11.193  0.0080  0.0962 -0.3851
 7714SOL    HW134778   4.277   4.398  11.188 -1.0858 -0.0223  0.2043
 7714SOL    HW234779   4.175   4.494  11.209  0.1034  0.8220  0.1668
 7715SOL     OW34780   4.606   2.282   4.948  0.0886 -0.6267  0.7212
 7715SOL    HW134781   4.571   2.348   5.006  0.5277  0.3122 -0.0850
 7715SOL    HW234782   4.590   2.339   4.873 -4.2791  0.1024  2.2147
 7716SOL     OW34783   2.404   3.991   0.363 -0.4207 -0.0228 -0.2073
 7716SOL    HW134784   2.497   3.979   0.383 -0.4001 -1.1305 -0.9595
 7716SOL    HW234785   2.382   4.067   0.416  2.0128 -0.2876  1.1928
 7717SOL     OW34786   1.811   4.581   2.050 -0.1443 -0.3583 -0.1196
 7717SOL    HW134787   1.874   4.650   2.025 -0.7516  0.4925  0.7078
 7717SOL    HW234788   1.732   4.633   2.063  0.0399  0.0587 -0.6219
 7718SOL     OW34789   4.300   0.128   5.001  0.6608  0.6368 -0.0514
 7718SOL    HW134790   4.361   0.120   5.074 -1.2617 -1.7230  1.2811
 7718SOL    HW234791   4.269   0.038   5.011  0.7276  0.5855 -0.2941
 7719SOL     OW34792   3.917   4.396   2.107  0.6609 -0.9684  0.1733
 7719SOL    HW134793   3.889   4.363   2.022  0.3823 -0.5747  0.1117
 7719SOL    HW234794   3.973   4.470   2.081  1.4598 -0.6428  2.7984
 7720SOL     OW34795   3.866   4.498   8.576 -0.4042 -0.1461  1.2502
 7720SOL    HW134796   3.866   4.476   8.669  0.8737  1.1036  1.5417
 7720SOL    HW234797   3.928   4.571   8.576 -0.0483 -0.4499  2.1024
 7721SOL     OW34798   3.471   2.990  17.484 -0.0818 -0.4347 -0.2386
 7721SOL    HW134799   3.552   3.005  17.534 -0.1293 -0.4102 -0.1692
 7721SOL    HW234800   3.454   2.902  17.517 -0.0210 -0.2869  0.1918
 7722SOL     OW34801   0.633   4.115   8.559  0.2132 -0.0863  0.4673
 7722SOL    HW134802   0.564   4.061   8.522  0.1388  0.8385 -0.7543
 7722SOL    HW234803   0.669   4.056   8.625  0.7287 -1.2456 -0.8437
 7723SOL     OW34804   3.386   4.502  12.945 -0.2111  0.4140  0.1666
 7723SOL    HW134805   3.416   4.593  12.944  0.7065  0.0974 -2.1133
 7723SOL    HW234806   3.294   4.510  12.971  0.2246  0.3869  1.6662
 7724SOL     OW34807   1.125   1.173   4.506 -0.5036 -0.1707  0.1460
 7724SOL    HW134808   1.084   1.245   4.458 -0.0671 -0.9311 -1.3942
 7724SOL    HW234809   1.046   1.140   4.549  0.5299 -1.4004  1.1128
 7725SOL     OW34810   1.968   2.245   8.948 -0.4722  0.2905  0.2574
 7725SOL    HW134811   2.053   2.286   8.929  0.6299 -2.5407 -0.9540
 7725SOL    HW234812   1.976   2.158   8.909  1.5211  0.1406  0.9809
 7726SOL     OW34813   0.985   4.679   8.357 -0.5390  0.2009  0.1350
 7726SOL    HW134814   0.973   0.010   8.430 -0.8346 -2.1076  1.9724
 7726SOL    HW234815   0.967   4.595   8.400 -1.6858  0.0244 -0.7021
 7727SOL     OW34816   1.986   4.640   7.850 -0.0039  0.3234  0.3429
 7727SOL    HW134817   2.016   4.619   7.762  0.7108  0.5216  0.5433
 7727SOL    HW234818   1.920   4.572   7.861  0.3797 -0.4130 -1.9624
 7728SOL     OW34819   0.104   2.616   6.418 -0.0278 -0.0720 -0.2113
 7728SOL    HW134820   0.129   2.537   6.466 -0.6939 -0.6036 -0.7363
 7728SOL    HW234821   0.161   2.680   6.461 -2.8736  1.6113  1.0800
 7729SOL     OW34822   0.369   4.548   6.282 -0.4128  0.1437  0.6831
 7729SOL    HW134823   0.412   4.475   6.326 -0.1710 -0.1653 -0.0863
 7729SOL    HW234824   0.358   4.501   6.200  1.2653 -0.7744  0.9874
 7730SOL     OW34825   4.075   2.801   3.447  0.4909  0.4473 -0.2794
 7730SOL    HW134826   4.041   2.817   3.535  0.5576 -3.8893  0.5193
 7730SOL    HW234827   4.161   2.767   3.472  0.7370 -0.1506 -1.8943
 7731SOL     OW34828   3.839   3.040   0.736 -0.0657 -0.3996 -0.0781
 7731SOL    HW134829   3.846   2.991   0.654 -0.0747  0.7159 -0.7537
 7731SOL    HW234830   3.871   3.125   0.704  0.9607 -0.8565 -0.2627
 7732SOL     OW34831   3.946   1.874   7.997  0.1618 -0.2726 -0.4884
 7732SOL    HW134832   3.983   1.807   8.055 -2.5229 -0.8120  0.6119
 7732SOL    HW234833   3.964   1.829   7.915 -1.0850  0.9834 -1.4450
 7733SOL     OW34834   1.336   3.997  16.809 -0.1691  0.1350  0.1806
 7733SOL    HW134835   1.284   4.073  16.783  2.0985  1.4655 -0.4411
 7733SOL    HW234836   1.296   3.924  16.761  0.5958  0.9027 -1.6306
 7734SOL     OW34837   0.270   3.090   4.625 -0.2111  0.0736 -0.8541
 7734SOL    HW134838   0.207   3.137   4.570 -0.0409 -0.2869 -1.3553
 7734SOL    HW234839   0.356   3.131   4.614 -0.5637  0.6331 -1.5546
 7735SOL     OW34840   3.059   2.432   6.013 -0.2781  0.3358 -0.6545
 7735SOL    HW134841   3.007   2.483   6.075  1.0919  1.4442 -0.4283
 7735SOL    HW234842   2.990   2.383   5.968  0.8757 -1.9296  0.0142
 7736SOL     OW34843   0.737   2.207  16.300  0.3605 -0.0999 -0.5299
 7736SOL    HW134844   0.693   2.133  16.257  1.7623 -2.1438  1.6272
 7736SOL    HW234845   0.772   2.171  16.381 -0.1118  0.6482 -0.0018
 7737SOL     OW34846   4.590   3.291  15.004  0.3693  0.2478 -0.3289
 7737SOL    HW134847   4.556   3.221  14.948  3.4925 -2.8703  1.5975
 7737SOL    HW234848   4.512   3.341  15.025 -0.2100  0.2907 -2.5667
 7738SOL     OW34849   4.334   3.850   4.154 -0.0081 -0.1190  0.2371
 7738SOL    HW134850   4.401   3.841   4.086  1.3471  0.1890  1.5246
 7738SOL    HW234851   4.288   3.768   4.137 -0.0243 -0.2715  0.9756
 7739SOL     OW34852   4.150   3.599   9.705  0.1138  0.2904 -0.0224
 7739SOL    HW134853   4.177   3.510   9.727  0.5702  0.1817 -1.0261
 7739SOL    HW234854   4.079   3.582   9.643 -0.9052 -0.0799  1.2282
 7740SOL     OW34855   0.723   3.753   7.749  0.0202  0.6513 -0.4035
 7740SOL    HW134856   0.769   3.830   7.782 -0.0452  0.6717 -0.3582
 7740SOL    HW234857   0.655   3.744   7.816  1.0589  0.7314  0.6627
 7741SOL     OW34858   0.917   0.422   1.488  0.0696 -0.4280  0.3943
 7741SOL    HW134859   0.946   0.492   1.430  2.6102 -3.6882 -2.2581
 7741SOL    HW234860   0.960   0.442   1.571  0.1150 -0.5330  0.3958
 7742SOL     OW34861   0.016   1.656   4.352 -0.5665 -0.0663 -0.0957
 7742SOL    HW134862   0.090   1.596   4.342  0.2850  1.2317 -1.5052
 7742SOL    HW234863   0.029   1.696   4.438  3.1558 -2.8959  0.6268
 7743SOL     OW34864   3.006   3.020   4.395  0.3594 -0.6294 -0.2233
 7743SOL    HW134865   2.962   3.046   4.315 -0.2123  1.4647  0.7832
 7743SOL    HW234866   2.997   2.924   4.391 -0.8428 -0.4684 -1.1960
 7744SOL     OW34867   1.489   3.287  15.446 -0.6532 -0.1851  0.1470
 7744SOL    HW134868   1.536   3.362  15.409 -1.1568 -0.0646 -0.2583
 7744SOL    HW234869   1.407   3.334  15.460 -2.3466 -2.9803 -0.3652
 7745SOL     OW34870   0.128   2.206   9.050 -0.2444 -0.2744 -0.0504
 7745SOL    HW134871   0.055   2.173   9.101  0.9619  0.3495  2.0621
 7745SOL    HW234872   0.176   2.130   9.017  0.9279 -0.7062  2.6616
 7746SOL     OW34873   1.385   4.530   4.038 -0.4521 -0.4031 -0.2959
 7746SOL    HW134874   1.352   4.442   4.021  1.5314 -1.3512  0.8273
 7746SOL    HW234875   1.374   4.571   3.952 -0.0257  2.7981  1.1448
 7747SOL     OW34876   3.724   4.724   7.087 -0.5550 -0.2536  0.0664
 7747SOL    HW134877   3.632   4.721   7.112 -0.2771 -0.9238  0.9980
 7747SOL    HW234878   3.723   0.082   7.046 -0.3739  0.4956  1.6625
 7748SOL     OW34879   1.288   1.845   2.687 -0.0688 -0.7532  0.5703
 7748SOL    HW134880   1.237   1.925   2.702 -0.6584 -0.6830 -1.7893
 7748SOL    HW234881   1.369   1.869   2.734 -2.1031  3.2677  2.0535
 7749SOL     OW34882   3.772   2.537   9.422  0.4387  0.6545  0.0490
 7749SOL    HW134883   3.679   2.519   9.414  0.7231 -1.2884  1.1416
 7749SOL    HW234884   3.783   2.484   9.501 -0.1984  2.4451  1.3264
 7750SOL     OW34885   1.635   1.503   7.917 -0.1027 -0.1011 -0.4433
 7750SOL    HW134886   1.590   1.578   7.956  2.3411  0.3174  1.5434
 7750SOL    HW234887   1.723   1.538   7.901  0.5033 -0.2909  2.4347
 7751SOL     OW34888   1.482   1.887  12.040  0.1799 -0.2565  0.4643
 7751SOL    HW134889   1.568   1.930  12.047 -0.0323  0.1654  0.5223
 7751SOL    HW234890   1.444   1.929  12.117 -0.8151  2.2157 -1.3685
 7752SOL     OW34891   1.316   1.472   3.436 -0.3866  0.2646  0.1508
 7752SOL    HW134892   1.364   1.450   3.517 -2.3988 -2.2576  0.6504
 7752SOL    HW234893   1.236   1.492   3.485 -0.2951 -0.5866  0.6483
 7753SOL     OW34894   2.460   4.662   1.765 -0.0774  0.2585  0.6356
 7753SOL    HW134895   2.460   0.026   1.788 -0.7771  0.5656 -0.5937
 7753SOL    HW234896   2.534   4.635   1.819 -0.2016  1.1986  1.2722
 7754SOL     OW34897   3.066   1.652  10.307  0.0037 -0.2851  0.3449
 7754SOL    HW134898   3.115   1.575  10.276 -0.4503 -0.6827  0.6019
 7754SOL    HW234899   3.090   1.670  10.397 -0.1770 -1.2339  0.5817
 7755SOL     OW34900   1.095   3.224  14.293 -0.3529 -0.3833 -0.4931
 7755SOL    HW134901   1.030   3.249  14.228  0.4268  1.8408 -0.4150
 7755SOL    HW234902   1.159   3.294  14.278  0.1197 -0.3273  1.8711
 7756SOL     OW34903   0.422   2.486   3.869  0.0497 -0.2671 -0.1183
 7756SOL    HW134904   0.501   2.520   3.912  0.0512 -2.2866  1.5201
 7756SOL    HW234905   0.461   2.416   3.817  1.7074  1.3677 -1.0557
 7757SOL     OW34906   2.336   2.689   5.392  0.5121  0.4912  0.3380
 7757SOL    HW134907   2.289   2.638   5.326  0.0749 -1.0975  1.9003
 7757SOL    HW234908   2.395   2.620   5.421 -0.6712 -0.7428 -0.1871
 7758SOL     OW34909   4.576   3.971   2.947 -0.5346 -0.1050 -0.1364
 7758SOL    HW134910   4.540   4.044   2.997  1.3725  0.9431 -0.2811
 7758SOL    HW234911   4.642   4.019   2.897 -0.4907  0.2418  0.2598
 7759SOL     OW34912   4.317   4.099   3.841  0.7099  0.2791  0.0429
 7759SOL    HW134913   4.266   4.099   3.923  0.6057 -1.8941 -0.0041
 7759SOL    HW234914   4.252   4.091   3.771  0.6521 -0.5160  0.1823
 7760SOL     OW34915   1.687   2.351   1.058 -0.0678 -0.3572  0.7145
 7760SOL    HW134916   1.696   2.273   1.003  1.1333  0.1402  0.2048
 7760SOL    HW234917   1.614   2.318   1.111  1.4561 -2.3487  1.5923
 7761SOL     OW34918   3.055   3.866  15.520  0.1800  0.4739  0.5723
 7761SOL    HW134919   3.148   3.886  15.509 -0.1810  2.0008  0.2746
 7761SOL    HW234920   3.035   3.896  15.608 -0.9146 -1.3919  0.9703
 7762SOL     OW34921   0.625   1.744   5.694 -0.5490 -0.4206 -0.2394
 7762SOL    HW134922   0.551   1.787   5.736  0.9916  2.0460 -0.0272
 7762SOL    HW234923   0.585   1.698   5.620 -0.0214 -1.1796 -0.0482
 7763SOL     OW34924   2.662   1.509   8.006  0.1875  0.1088  0.3813
 7763SOL    HW134925   2.605   1.566   8.057 -0.0936  1.1084 -1.0461
 7763SOL    HW234926   2.697   1.463   8.082  0.7394 -0.8663 -0.4553
 7764SOL     OW34927   1.474   2.456   3.715 -0.4626 -0.3411 -0.1237
 7764SOL    HW134928   1.556   2.464   3.666 -0.0660  0.5272  0.7029
 7764SOL    HW234929   1.419   2.505   3.654 -2.0491 -0.7334  0.9974
 7765SOL     OW34930   1.967   4.443   6.649 -0.5816  0.3752 -0.1859
 7765SOL    HW134931   2.039   4.473   6.704 -0.2039  1.4825 -1.2880
 7765SOL    HW234932   1.967   4.528   6.605 -0.3847 -0.0296 -0.9712
 7766SOL     OW34933   0.586   2.194   5.627 -0.4173  0.1100  0.4055
 7766SOL    HW134934   0.681   2.177   5.626 -0.8048 -2.0149 -0.7769
 7766SOL    HW234935   0.571   2.288   5.620  0.3472 -0.1498 -5.2966
 7767SOL     OW34936   1.271   3.288   0.634 -0.2710  0.0326 -0.0308
 7767SOL    HW134937   1.367   3.287   0.629 -0.2090 -2.1667  1.3205
 7767SOL    HW234938   1.251   3.358   0.696 -1.1564  0.1259 -0.4252
 7768SOL     OW34939   2.782   3.428   5.137  0.1014  0.5542 -0.1297
 7768SOL    HW134940   2.805   3.356   5.078  0.1184  0.2672  0.2289
 7768SOL    HW234941   2.872   3.437   5.169  0.7174 -2.5664 -0.9252
 7769SOL     OW34942   0.760   0.008   4.308  0.1285 -0.2568  0.3333
 7769SOL    HW134943   0.837   0.038   4.357 -0.1776 -0.3066  0.8526
 7769SOL    HW234944   0.767   0.058   4.227 -0.6675  0.5107  0.7424
 7770SOL     OW34945   4.282   2.784  15.952  0.0904  0.4938  0.3998
 7770SOL    HW134946   4.210   2.784  15.889  0.4506 -0.5910 -0.0211
 7770SOL    HW234947   4.347   2.728  15.910 -1.2472 -0.7052 -0.0741
 7771SOL     OW34948   2.989   1.199   9.259  0.0156  0.1249  0.2080
 7771SOL    HW134949   2.915   1.182   9.202  1.1574 -2.2443 -0.5702
 7771SOL    HW234950   3.033   1.275   9.219  0.5199  0.0673  0.6472
 7772SOL     OW34951   3.750   2.825   5.606  0.2338 -0.3551  0.9572
 7772SOL    HW134952   3.735   2.735   5.635  2.5574 -1.5209 -1.4300
 7772SOL    HW234953   3.697   2.859   5.677 -0.1601 -1.4350  1.1790
 7773SOL     OW34954   1.250   4.418   2.498 -0.2874  0.1977  0.4208
 7773SOL    HW134955   1.168   4.461   2.473  0.1344  0.4271 -0.5542
 7773SOL    HW234956   1.247   4.327   2.469 -2.5150  0.4168  0.0227
 7774SOL     OW34957   0.455   3.642   9.379  0.1914  0.1340  0.3401
 7774SOL    HW134958   0.471   3.559   9.334  1.3170 -0.3921  1.6931
 7774SOL    HW234959   0.451   3.701   9.305  2.7844  1.8415  1.5285
 7775SOL     OW34960   4.648   1.989   0.903  0.3929 -0.2254 -0.1152
 7775SOL    HW134961   4.721   2.028   0.855  0.3171  1.2692  0.9832
 7775SOL    HW234962   4.679   1.974   0.992 -1.5584 -3.5641  0.0237
 7776SOL     OW34963   0.291   1.225   8.454  0.5032  0.1196  0.4775
 7776SOL    HW134964   0.383   1.202   8.442  0.7197  0.5244  1.3966
 7776SOL    HW234965   0.266   1.192   8.540  0.7750 -1.6947 -0.1495
 7777SOL     OW34966   3.374   1.209   3.380  0.1230  0.4829  0.7552
 7777SOL    HW134967   3.468   1.225   3.383  0.7126 -2.4118 -1.4158
 7777SOL    HW234968   3.380   1.114   3.367  1.8795  0.6894  0.1199
 7778SOL     OW34969   2.103   1.050  12.945 -0.5904 -0.1715 -0.6555
 7778SOL    HW134970   2.140   0.993  13.013 -0.0678 -0.2929 -1.0430
 7778SOL    HW234971   2.147   1.130  12.977  1.0844 -0.5761 -1.9737
 7779SOL     OW34972   0.217   3.839   6.813 -0.1914  0.5594 -0.2097
 7779SOL    HW134973   0.225   3.841   6.908 -2.0097  1.2985 -0.0854
 7779SOL    HW234974   0.134   3.791   6.808  0.5941 -0.8376  0.0812
 7780SOL     OW34975   0.314   2.983   4.879  0.1592 -0.3143  0.4894
 7780SOL    HW134976   0.301   2.984   4.784 -2.6807 -1.8269  0.8520
 7780SOL    HW234977   0.333   2.890   4.891 -0.6214 -0.5036  0.2661
 7781SOL     OW34978   1.470   3.012  16.837 -0.0847 -0.4703  0.0044
 7781SOL    HW134979   1.504   2.992  16.749 -0.1403  2.4625 -0.6897
 7781SOL    HW234980   1.419   3.093  16.833 -0.1061 -0.4726  0.2500
 7782SOL     OW34981   2.944   0.272   6.246  0.5854  0.5400  0.0844
 7782SOL    HW134982   3.029   0.234   6.270 -0.6341  0.0049  3.5395
 7782SOL    HW234983   2.888   0.228   6.310  0.5824 -0.2719 -0.4710
 7783SOL     OW34984   3.615   4.719   3.955 -0.0433 -0.2454  0.1795
 7783SOL    HW134985   3.601   4.702   4.048 -1.0500  0.8781  0.2247
 7783SOL    HW234986   3.696   4.668   3.946  0.7498  1.2079 -0.8145
 7784SOL     OW34987   3.940   0.502  13.774 -0.5309  0.6413  0.5217
 7784SOL    HW134988   3.970   0.526  13.861 -0.0172  1.5253  0.1028
 7784SOL    HW234989   4.017   0.497  13.717 -1.7792  0.1344 -1.1510
 7785SOL     OW34990   4.423   0.852  15.181  0.1412 -0.0438  0.6789
 7785SOL    HW134991   4.422   0.903  15.099  0.0105  0.4207  0.9698
 7785SOL    HW234992   4.489   0.894  15.236 -0.5443  0.7294  0.9076
 7786SOL     OW34993   4.067   1.373   2.755 -0.3368  0.5356  0.0893
 7786SOL    HW134994   4.113   1.301   2.712 -0.9687 -0.2538  0.7181
 7786SOL    HW234995   4.127   1.432   2.800 -0.9127  1.6093 -0.5549
 7787SOL     OW34996   3.542   2.075  16.417 -0.7081  0.1172 -0.2071
 7787SOL    HW134997   3.539   2.133  16.341 -0.9545  3.0429  2.0170
 7787SOL    HW234998   3.457   2.032  16.422 -0.4107 -0.6077 -1.3644
 7788SOL     OW34999   3.997   3.633  11.073 -0.1412  0.0155  0.3474
 7788SOL    HW135000   4.035   3.704  11.021 -1.2483 -0.1039 -0.6354
 7788SOL    HW235001   4.078   3.587  11.094  0.7217  0.5232 -1.8011
 7789SOL     OW35002   0.073   4.536   8.742  0.0880  0.7409 -0.7437
 7789SOL    HW135003   0.053   4.627   8.719 -2.4220  0.4195  0.2174
 7789SOL    HW235004   4.715   4.503   8.720 -0.1519  1.7483 -1.3161
 7790SOL     OW35005   2.888   3.468  12.348  0.0366  0.3680  0.3702
 7790SOL    HW135006   2.976   3.464  12.310 -0.4829 -1.4859 -0.6273
 7790SOL    HW235007   2.836   3.484  12.269  1.2971  1.2667 -0.2673
 7791SOL     OW35008   0.282   3.286   8.375  0.4822 -0.1495 -1.2101
 7791SOL    HW135009   0.318   3.203   8.406  2.6635  0.9358 -0.8268
 7791SOL    HW235010   0.346   3.352   8.403  1.4708 -0.7331 -2.0875
 7792SOL     OW35011   0.670   0.544   9.254 -0.2833  0.0527 -0.4661
 7792SOL    HW135012   0.759   0.551   9.287 -0.1610  0.1463 -0.8132
 7792SOL    HW235013   0.609   0.571   9.322 -0.4163 -1.4414  0.0055
 7793SOL     OW35014   1.109   3.268   7.758 -0.5010 -0.4344 -0.2797
 7793SOL    HW135015   1.043   3.335   7.739 -0.4277 -0.8714 -2.1213
 7793SOL    HW235016   1.181   3.300   7.704 -1.6947 -0.0162 -1.6368
 7794SOL     OW35017   3.561   3.469   5.267 -0.3459 -0.5602  0.0149
 7794SOL    HW135018   3.532   3.465   5.358 -0.9686 -0.4486 -0.1753
 7794SOL    HW235019   3.588   3.379   5.251 -2.3174 -1.0281 -0.6790
 7795SOL     OW35020   4.264   2.300   3.971 -0.2262 -0.4993  0.0032
 7795SOL    HW135021   4.315   2.308   3.890 -2.2392  2.7283 -0.9359
 7795SOL    HW235022   4.223   2.386   3.963 -0.9344 -0.9066 -0.8359
 7796SOL     OW35023   4.620   2.705   8.586  0.5444  0.4092  0.0581
 7796SOL    HW135024   4.561   2.640   8.623  0.0546  0.8086 -0.0092
 7796SOL    HW235025   4.687   2.647   8.552  0.3385  0.1648  0.0702
 7797SOL     OW35026   1.556   2.008   6.433  0.1041  0.6493 -0.2174
 7797SOL    HW135027   1.599   1.929   6.465  0.3972  1.5583  1.6102
 7797SOL    HW235028   1.634   2.055   6.402 -0.1428  1.5235  0.4600
 7798SOL     OW35029   0.781   2.850   8.374  0.2294 -0.0250  0.1870
 7798SOL    HW135030   0.798   2.757   8.365 -0.6330 -0.4277  2.7802
 7798SOL    HW235031   0.699   2.852   8.326  0.3830 -0.9013 -0.1090
 7799SOL     OW35032   4.585   1.989   6.022 -0.5522  0.0111  0.0403
 7799SOL    HW135033   4.518   1.995   6.090  0.6034 -0.1066  1.2125
 7799SOL    HW235034   4.667   1.980   6.072 -1.2710  0.2817  1.2832
 7800SOL     OW35035   1.519   3.507   5.198 -0.4162 -0.7125 -0.4947
 7800SOL    HW135036   1.565   3.590   5.214 -1.0579 -0.4543 -0.0000
 7800SOL    HW235037   1.591   3.455   5.161 -1.2970 -2.0412 -0.3111
 7801SOL     OW35038   2.774   1.479  10.417 -0.3809  0.4155 -0.0984
 7801SOL    HW135039   2.760   1.545  10.485  3.2735  1.0064  0.1028
 7801SOL    HW235040   2.852   1.509  10.370  0.7156 -1.7631  0.3163
 7802SOL     OW35041   1.038   4.231  13.356 -0.1476 -0.0166 -0.3127
 7802SOL    HW135042   1.062   4.160  13.298  0.7782  0.5539 -0.6248
 7802SOL    HW235043   1.041   4.305  13.295  4.2003 -1.2365 -1.5709
 7803SOL     OW35044   3.849   3.722   4.960  0.4873  0.4067 -0.1961
 7803SOL    HW135045   3.787   3.789   4.932 -0.5196 -1.8247 -3.2536
 7803SOL    HW235046   3.785   3.656   4.986  1.6919 -0.4979  0.4766
 7804SOL     OW35047   3.759   3.065  14.809 -0.0908  0.7678  0.6355
 7804SOL    HW135048   3.706   3.098  14.736  1.0284  0.3659 -0.3421
 7804SOL    HW235049   3.814   3.141  14.827  0.4696  0.7741 -1.1003
 7805SOL     OW35050   3.698   1.289   9.870 -0.0762  0.0382  0.6165
 7805SOL    HW135051   3.741   1.205   9.886 -2.6597 -1.1119  1.4827
 7805SOL    HW235052   3.621   1.260   9.822  2.1769 -1.0070 -2.3682
 7806SOL     OW35053   0.139   0.035   3.222  0.4780  0.1430  0.0062
 7806SOL    HW135054   0.174   4.709   3.152 -0.0013 -1.9377  1.4356
 7806SOL    HW235055   0.064   4.707   3.237 -1.1380  2.4222  0.6021
 7807SOL     OW35056   4.607   1.056  15.328  0.2429  0.6569 -0.5788
 7807SOL    HW135057   4.586   1.104  15.248  1.7171  0.0613 -1.3171
 7807SOL    HW235058   4.691   1.012  15.316  1.5049  2.9663 -0.2924
 7808SOL     OW35059   1.992   0.453   4.203  1.0354 -0.5139 -0.3478
 7808SOL    HW135060   1.942   0.380   4.167  1.7387 -0.8407 -0.6660
 7808SOL    HW235061   1.973   0.448   4.297  1.6629  2.2202 -0.0717
 7809SOL     OW35062   2.779   4.470   5.881 -0.2124 -0.2687 -0.5038
 7809SOL    HW135063   2.847   4.522   5.838 -0.2137 -1.2117 -1.6307
 7809SOL    HW235064   2.727   4.540   5.921 -0.2179  0.2456 -1.4198
 7810SOL     OW35065   0.493   2.451   4.781 -0.4833  0.1557  0.6170
 7810SOL    HW135066   0.424   2.385   4.777  0.4259 -0.7607 -0.0151
 7810SOL    HW235067   0.562   2.401   4.824 -1.6611 -0.4438  1.7875
 7811SOL     OW35068   1.683   4.215   7.091  0.1237 -0.4842 -0.3499
 7811SOL    HW135069   1.756   4.264   7.053  0.1658 -0.0160  0.3377
 7811SOL    HW235070   1.723   4.171   7.166 -0.0218  2.1943  1.3054
 7812SOL     OW35071   1.984   2.661   8.496 -0.2406  0.0052  0.1743
 7812SOL    HW135072   2.054   2.681   8.434 -1.2639  0.2551 -0.9036
 7812SOL    HW235073   1.921   2.614   8.441 -0.6657 -0.6328  1.2179
 7813SOL     OW35074   1.103   2.039   2.751  0.5551  0.0991 -0.2849
 7813SOL    HW135075   1.070   2.127   2.769  0.4531  0.5036 -2.3810
 7813SOL    HW235076   1.126   2.012   2.840 -1.0206  0.4224  0.2323
 7814SOL     OW35077   2.647   3.012   8.304 -0.3271 -0.1192  0.1018
 7814SOL    HW135078   2.656   2.937   8.363 -0.6294  0.8251  1.3337
 7814SOL    HW235079   2.736   3.037   8.280 -1.5258  0.3841 -3.8255
 7815SOL     OW35080   4.677   0.289   5.036 -0.0333 -0.6769 -0.2034
 7815SOL    HW135081   4.667   0.382   5.013 -0.4927 -0.8284 -0.6185
 7815SOL    HW235082   4.672   0.246   4.951  1.8015 -1.4262  0.0747
 7816SOL     OW35083   1.915   0.806   7.384  0.2548  0.3184 -0.7364
 7816SOL    HW135084   1.887   0.744   7.317  1.1843 -1.1641  0.2663
 7816SOL    HW235085   1.840   0.863   7.400 -0.9208 -1.1113 -1.1755
 7817SOL     OW35086   1.619   0.638  10.671 -0.3771 -0.3048  0.7423
 7817SOL    HW135087   1.528   0.661  10.689 -1.0330 -2.5427  0.2985
 7817SOL    HW235088   1.658   0.698  10.734  1.3535  0.3740 -0.9791
 7818SOL     OW35089   1.803   1.436   4.917 -0.4315  0.3322 -0.2576
 7818SOL    HW135090   1.759   1.368   4.969  1.3128  0.1745  1.0043
 7818SOL    HW235091   1.857   1.485   4.980 -2.2602  0.9380  0.8533
 7819SOL     OW35092   4.678   4.226   2.523  0.4130 -0.0648 -0.3315
 7819SOL    HW135093   4.629   4.148   2.498 -1.8596  1.2680 -0.1138
 7819SOL    HW235094   4.621   4.259   2.592  0.0686 -1.4853  0.0493
 7820SOL     OW35095   0.889   0.581   8.122  0.4242  0.1778 -0.2372
 7820SOL    HW135096   0.813   0.633   8.093  1.0457  0.3333 -1.5721
 7820SOL    HW235097   0.954   0.602   8.056  0.3097 -1.7712 -0.9487
 7821SOL     OW35098   4.228   0.517  12.528 -0.2298  0.4647  0.0810
 7821SOL    HW135099   4.154   0.509  12.588  0.2596  0.3640  0.6629
 7821SOL    HW235100   4.184   0.535  12.445  0.0716 -1.1327 -0.4435
 7822SOL     OW35101   3.610   3.701   1.204  0.5995  0.5036 -0.1776
 7822SOL    HW135102   3.644   3.771   1.148  2.1427 -1.3354 -1.5329
 7822SOL    HW235103   3.666   3.628   1.179 -0.1352  1.0257 -3.3115
 7823SOL     OW35104   2.420   1.882  10.581  0.0520 -0.0538  0.1401
 7823SOL    HW135105   2.346   1.866  10.521 -0.2947 -1.4142  0.9314
 7823SOL    HW235106   2.481   1.820  10.541  1.3001  0.9633  0.4757
 7824SOL     OW35107   2.810   2.375   9.649 -0.2746  0.1722  0.0716
 7824SOL    HW135108   2.867   2.446   9.618  2.3323 -1.4992  1.0958
 7824SOL    HW235109   2.832   2.361   9.741  0.6307  0.3826 -0.1160
 7825SOL     OW35110   4.068   3.483  13.537  0.7888 -0.3210  0.6397
 7825SOL    HW135111   4.115   3.457  13.458  0.4559  2.9523 -0.6168
 7825SOL    HW235112   4.142   3.515  13.589  0.1976 -0.2097  1.4129
 7826SOL     OW35113   1.394   2.911   3.053  0.6369  0.7068  0.4905
 7826SOL    HW135114   1.335   2.839   3.077  1.4094 -0.0386  0.1722
 7826SOL    HW235115   1.463   2.892   3.116  0.0894  0.5923  1.0643
 7827SOL     OW35116   3.238   3.591  17.678 -0.3731  0.0661 -0.1149
 7827SOL    HW135117   3.256   3.505  17.715  0.2827 -0.0309 -0.6584
 7827SOL    HW235118   3.277   3.576  17.592  0.7290 -3.1757  0.9647
 7828SOL     OW35119   1.997   3.734  11.978 -0.1812 -0.2147  0.2697
 7828SOL    HW135120   1.999   3.642  11.951  2.0925  0.3633 -1.5092
 7828SOL    HW235121   1.905   3.758  11.968  0.5308  2.6949  0.6687
 7829SOL     OW35122   1.421   1.850   9.591 -0.5056  0.6136  0.3708
 7829SOL    HW135123   1.345   1.897   9.557  0.4246  1.1012 -1.0431
 7829SOL    HW235124   1.458   1.917   9.648 -0.2804  1.6319 -1.0073
 7830SOL     OW35125   1.255   3.814   8.727 -0.4943  0.2293 -0.1506
 7830SOL    HW135126   1.257   3.719   8.744  0.4465  0.4143  0.7214
 7830SOL    HW235127   1.311   3.855   8.792 -1.3332  1.2909 -0.0976
 7831SOL     OW35128   2.227   2.230   4.018  0.4499  0.5466  0.6692
 7831SOL    HW135129   2.285   2.299   3.985  0.3894 -0.0949 -0.7462
 7831SOL    HW235130   2.280   2.171   4.072 -0.6580 -0.0872  1.0680
 7832SOL     OW35131   2.411   0.065   2.831  0.1421  0.2330  0.0467
 7832SOL    HW135132   2.488   0.014   2.854  0.0456 -0.7423 -1.7573
 7832SOL    HW235133   2.382   0.096   2.917 -0.6571 -0.4393  0.0304
 7833SOL     OW35134   0.681   1.123  12.410 -0.5529  0.5632 -0.0838
 7833SOL    HW135135   0.704   1.200  12.357 -1.7434  1.4158  0.6243
 7833SOL    HW235136   0.763   1.097  12.450 -1.1859 -2.3877 -0.7609
 7834SOL     OW35137   3.507   3.950   4.203  0.2577 -0.4369 -0.0284
 7834SOL    HW135138   3.424   3.915   4.236  0.1251 -0.4534 -0.3792
 7834SOL    HW235139   3.565   3.931   4.276  0.3478  0.6126  0.1673
 7835SOL     OW35140   3.698   4.551  13.064  0.6551  0.4259  0.3147
 7835SOL    HW135141   3.766   4.552  12.996  0.8958  0.9363  0.5546
 7835SOL    HW235142   3.623   4.570  13.008 -0.6628 -4.0056  0.6142
 7836SOL     OW35143   1.600   3.862   7.198 -0.1845 -0.0165 -0.1245
 7836SOL    HW135144   1.514   3.863   7.240 -0.2538  1.9714 -0.2983
 7836SOL    HW235145   1.638   3.946   7.222 -2.0479  0.2186  1.9222
 7837SOL     OW35146   0.799   3.497   3.934  0.0751  0.2923  0.6393
 7837SOL    HW135147   0.740   3.428   3.964  0.1765  0.6429  1.6379
 7837SOL    HW235148   0.858   3.450   3.875 -0.1466  0.7178  0.0701
 7838SOL     OW35149   4.567   2.583  15.585  0.2474 -0.9001 -0.5523
 7838SOL    HW135150   4.583   2.489  15.574 -2.9479 -1.8886  3.1356
 7838SOL    HW235151   4.474   2.593  15.565 -0.1349 -0.3018  1.5094
 7839SOL     OW35152   1.759   4.112   1.632  0.4334  0.5587  0.2372
 7839SOL    HW135153   1.724   4.188   1.585  0.1912  0.5992  0.4831
 7839SOL    HW235154   1.853   4.124   1.618  0.2602  2.7944  0.9530
 7840SOL     OW35155   3.551   2.350   2.995 -0.2586 -0.1218 -0.9048
 7840SOL    HW135156   3.484   2.282   2.999  2.1705 -2.7013 -4.2713
 7840SOL    HW235157   3.611   2.328   2.923 -0.3460  3.8339 -2.2162
 7841SOL     OW35158   3.695   3.511   2.855 -0.4707 -0.5821 -0.1214
 7841SOL    HW135159   3.638   3.490   2.929  1.2028 -0.2185  1.2757
 7841SOL    HW235160   3.695   3.433   2.799 -0.1412 -0.2035 -0.6497
 7842SOL     OW35161   1.163   2.025   0.773 -0.5817  0.1111  0.1899
 7842SOL    HW135162   1.166   2.065   0.687 -1.1766 -2.3129 -0.9476
 7842SOL    HW235163   1.117   2.093   0.823 -1.3781  0.4939 -1.0780
 7843SOL     OW35164   1.344   0.683   6.545 -0.2495 -0.5112 -0.1289
 7843SOL    HW135165   1.333   0.588   6.533 -1.0276 -0.7787  2.7761
 7843SOL    HW235166   1.288   0.718   6.476 -0.5828  0.7886  0.7968
 7844SOL     OW35167   1.972   2.852   3.680  0.8107  0.1510  0.3696
 7844SOL    HW135168   1.881   2.822   3.689  0.4485  1.0960 -0.1410
 7844SOL    HW235169   1.952   2.945   3.672  1.8151  0.0621 -3.3190
 7845SOL     OW35170   2.849   0.694  11.438  0.8262  0.3989  0.2672
 7845SOL    HW135171   2.762   0.723  11.413  0.8528 -0.7266 -1.1473
 7845SOL    HW235172   2.855   0.702  11.534  0.8929 -2.8450  0.5546
 7846SOL     OW35173   0.427   0.315   7.243 -0.0034  0.2430  0.0425
 7846SOL    HW135174   0.338   0.287   7.261 -0.4786  1.4545 -0.3829
 7846SOL    HW235175   0.416   0.401   7.202 -0.7046  0.3847  0.5356
 7847SOL     OW35176   4.433   3.831  13.102  0.0477 -0.0634 -0.5372
 7847SOL    HW135177   4.374   3.906  13.095 -2.1290 -1.6454  0.9326
 7847SOL    HW235178   4.464   3.816  13.013 -0.3810 -1.2396 -0.4888
 7848SOL     OW35179   4.003   1.871  15.341 -0.2085  0.5874  0.6883
 7848SOL    HW135180   4.078   1.902  15.392  1.1322 -1.0766 -0.2894
 7848SOL    HW235181   3.971   1.799  15.395  0.4865 -1.7307 -2.0008
 7849SOL     OW35182   0.231   3.005   4.211 -0.3711  0.5194  0.0141
 7849SOL    HW135183   0.167   3.059   4.256  0.4903  1.6650 -0.1429
 7849SOL    HW235184   0.170   2.949   4.162 -0.3121 -0.0034  0.5343
 7850SOL     OW35185   3.005   0.381  10.314 -0.8896 -0.7589  0.0271
 7850SOL    HW135186   3.094   0.397  10.345 -0.2501 -0.0510 -2.1720
 7850SOL    HW235187   3.009   0.287  10.300  1.5873 -0.9899  2.4042
 7851SOL     OW35188   4.241   0.468   5.592 -0.4176 -0.5855  0.1868
 7851SOL    HW135189   4.275   0.408   5.525 -0.5615 -0.4783  0.0157
 7851SOL    HW235190   4.147   0.450   5.580 -0.6761  1.0847 -0.2789
 7852SOL     OW35191   3.144   3.797   7.549 -0.0724 -0.1087 -0.2695
 7852SOL    HW135192   3.073   3.733   7.560  0.4713 -0.8422 -0.9985
 7852SOL    HW235193   3.199   3.768   7.621 -0.0554 -0.5546 -0.4572
 7853SOL     OW35194   4.496   0.321  13.886  0.8721  0.2372  0.5866
 7853SOL    HW135195   4.517   0.283  13.971  0.8874  1.7917  1.2831
 7853SOL    HW235196   4.518   0.414  13.892  2.6881 -0.1116 -0.7187
 7854SOL     OW35197   1.548   3.001   5.713 -0.6217 -0.0704  0.1652
 7854SOL    HW135198   1.557   3.083   5.762 -0.3425  0.4164 -0.6929
 7854SOL    HW235199   1.558   3.025   5.620  0.6288  2.6128  0.9864
 7855SOL     OW35200   1.033   2.750   3.638  0.2555 -0.1223  0.4441
 7855SOL    HW135201   0.985   2.746   3.720 -0.7829  1.3588 -0.0853
 7855SOL    HW235202   1.117   2.775   3.677  0.1783  2.9373 -1.3314
 7856SOL     OW35203   0.584   0.517   2.630  0.5272  0.7208 -0.1690
 7856SOL    HW135204   0.578   0.473   2.545  0.4981 -0.6112  0.5139
 7856SOL    HW235205   0.578   0.445   2.694 -2.6317  2.2648  1.2557
 7857SOL     OW35206   3.417   2.499   4.700  0.0120  0.1093 -0.2601
 7857SOL    HW135207   3.450   2.431   4.758  0.0408  0.3087 -0.0456
 7857SOL    HW235208   3.323   2.482   4.706 -0.5336  3.3789  0.6300
 7858SOL     OW35209   4.317   1.389   8.083  0.0259 -0.5704  0.1900
 7858SOL    HW135210   4.224   1.396   8.059  0.1307  0.0674 -0.0290
 7858SOL    HW235211   4.347   1.478   8.066 -0.9518 -0.7878 -2.7011
 7859SOL     OW35212   2.438   0.372   8.297  0.3251 -0.2128  0.1413
 7859SOL    HW135213   2.503   0.382   8.228 -0.0062  0.0391 -0.1296
 7859SOL    HW235214   2.479   0.292   8.332 -0.8330 -0.7225  0.3415
 7860SOL     OW35215   2.357   1.934   3.474  0.1418 -0.0994  0.2654
 7860SOL    HW135216   2.331   1.976   3.556 -0.1942 -1.9018  1.0872
 7860SOL    HW235217   2.316   1.993   3.410  2.7769 -1.9747 -3.1199
 7861SOL     OW35218   3.687   3.204   8.778  0.3049  0.9573  0.0125
 7861SOL    HW135219   3.777   3.200   8.808 -0.0088 -0.2106  0.7880
 7861SOL    HW235220   3.680   3.145   8.703  1.8845 -0.4909  1.0175
 7862SOL     OW35221   1.937   1.462   5.865 -0.9080 -0.1535  0.4677
 7862SOL    HW135222   1.945   1.430   5.955  0.2558 -1.0453  0.0505
 7862SOL    HW235223   1.888   1.543   5.881  2.8345  2.4996 -1.6187
 7863SOL     OW35224   0.109   3.659  10.559 -0.5691  0.3946 -0.3864
 7863SOL    HW135225   0.083   3.733  10.613 -1.8845  1.3995 -2.4538
 7863SOL    HW235226   0.034   3.602  10.576  0.9734 -2.0735 -1.7421
 7864SOL     OW35227   3.367   1.603   7.271 -0.2820  0.2936  0.3202
 7864SOL    HW135228   3.348   1.518   7.230 -0.8825 -0.5272  2.2706
 7864SOL    HW235229   3.276   1.632   7.273 -0.1047  1.0266 -2.1092
 7865SOL     OW35230   1.115   1.140   6.285 -0.3773 -0.0519  0.4302
 7865SOL    HW135231   1.168   1.210   6.246 -1.7557 -0.1011 -1.5641
 7865SOL    HW235232   1.034   1.190   6.298  0.4842  1.7396 -1.0802
 7866SOL     OW35233   3.820   3.845   5.546  0.0638 -0.2258 -0.2330
 7866SOL    HW135234   3.909   3.825   5.574  0.5053  2.0097 -0.0545
 7866SOL    HW235235   3.801   3.771   5.487 -0.0341  0.3448 -0.9164
 7867SOL     OW35236   3.454   1.446   8.185 -0.4192  0.1819 -0.3808
 7867SOL    HW135237   3.420   1.383   8.249  1.4147  0.6666  1.0670
 7867SOL    HW235238   3.425   1.407   8.102 -0.2877  0.9480 -0.7793
 7868SOL     OW35239   4.328   0.121   2.735  0.8324 -0.2257 -0.3570
 7868SOL    HW135240   4.362   0.209   2.753  0.3793  0.1711 -1.4983
 7868SOL    HW235241   4.274   0.097   2.810  2.3474 -1.4881  0.3330
 7869SOL     OW35242   0.842   1.939  10.267  0.3120  0.5273 -0.1513
 7869SOL    HW135243   0.879   1.924  10.354 -0.4541  0.2099  0.1229
 7869SOL    HW235244   0.805   1.854  10.246  1.4030  0.8292 -3.2672
 7870SOL     OW35245   4.274   4.581  16.954 -0.3824 -0.6027 -0.6281
 7870SOL    HW135246   4.281   4.624  17.039  0.4120 -0.3929 -0.7985
 7870SOL    HW235247   4.249   4.491  16.976 -0.4691 -0.5654 -0.5719
 7871SOL     OW35248   3.751   1.744   7.482  0.5323 -0.0479 -0.4972
 7871SOL    HW135249   3.680   1.752   7.418  0.2381  0.5244 -0.1045
 7871SOL    HW235250   3.805   1.668   7.460  0.2872  0.4138 -2.6574
 7872SOL     OW35251   2.856   4.232  16.107  0.4595 -0.0259 -0.5767
 7872SOL    HW135252   2.864   4.309  16.163 -0.4560  0.5409 -1.2452
 7872SOL    HW235253   2.927   4.171  16.128  0.7181  0.8063  0.9593
 7873SOL     OW35254   1.440   0.730   5.073  0.3950  0.3921 -0.8069
 7873SOL    HW135255   1.392   0.668   5.129  2.1657 -0.1968  0.0813
 7873SOL    HW235256   1.527   0.727   5.113 -0.0150  0.4048  0.0947
 7874SOL     OW35257   2.889   3.924  11.391 -0.0055 -0.3673  0.3175
 7874SOL    HW135258   2.804   3.897  11.356 -0.8551  2.0736  0.4956
 7874SOL    HW235259   2.857   3.967  11.471  1.3301 -1.7623  1.5955
 7875SOL     OW35260   2.239   0.244   5.563  0.4457  0.8623 -0.0228
 7875SOL    HW135261   2.283   0.269   5.645  2.0131 -0.4861 -0.4416
 7875SOL    HW235262   2.177   0.185   5.606  0.9091  0.4847  0.1245
 7876SOL     OW35263   3.305   0.366   7.798  0.6811 -0.1707 -0.1517
 7876SOL    HW135264   3.356   0.368   7.717  1.7592  0.2086  0.5384
 7876SOL    HW235265   3.370   0.341   7.864 -1.3040  0.1947  1.9398
 7877SOL     OW35266   2.417   2.883   5.212 -0.3722  0.0943  0.5919
 7877SOL    HW135267   2.373   2.832   5.280 -1.0617  2.1640  1.6970
 7877SOL    HW235268   2.364   2.861   5.135 -0.3280  2.3178 -0.0733
 7878SOL     OW35269   4.374   0.287   5.421  0.3785 -0.1617  0.3484
 7878SOL    HW135270   4.376   0.192   5.433  3.1176 -0.0685  0.6522
 7878SOL    HW235271   4.449   0.303   5.365  0.9221 -3.5346  0.1197
 7879SOL     OW35272   2.084   1.112   8.629  0.4371  0.0735  0.0198
 7879SOL    HW135273   2.046   1.143   8.546 -0.1492 -0.3727  0.1175
 7879SOL    HW235274   2.008   1.073   8.673  1.2352 -1.0145  0.3939
 7880SOL     OW35275   1.489   3.721   4.414 -0.3469  0.3770  0.4273
 7880SOL    HW135276   1.450   3.719   4.326 -1.1516  2.1319  0.7358
 7880SOL    HW235277   1.493   3.628   4.435  1.4658  0.4670  0.4664
 7881SOL     OW35278   2.572   2.146  10.234 -0.4317  0.3344  0.1965
 7881SOL    HW135279   2.652   2.140  10.286 -1.4683 -2.1303  1.4932
 7881SOL    HW235280   2.528   2.221  10.274 -0.1005 -0.3069  1.7502
 7882SOL     OW35281   4.712   3.795   2.707  0.3525 -0.0314 -0.0440
 7882SOL    HW135282   0.055   3.817   2.766  0.0264  0.3699  0.1980
 7882SOL    HW235283   0.026   3.762   2.628  1.0312  0.4818  0.1169
 7883SOL     OW35284   0.789   2.142  15.893  0.2337 -0.4067  0.5774
 7883SOL    HW135285   0.856   2.086  15.855  1.1727  0.8472  0.3720
 7883SOL    HW235286   0.711   2.115  15.844  0.3911 -0.4179  0.3301
 7884SOL     OW35287   4.618   3.543  10.697  0.1319 -0.1067  0.0331
 7884SOL    HW135288   4.561   3.466  10.699  0.5394 -0.4330 -0.9810
 7884SOL    HW235289   4.629   3.549  10.792 -1.3571  2.0864  0.0653
 7885SOL     OW35290   3.344   3.745   2.857  0.5233  0.3983 -0.7404
 7885SOL    HW135291   3.393   3.741   2.939 -2.0778 -2.0497  0.7121
 7885SOL    HW235292   3.301   3.830   2.864 -0.8029 -0.1533 -2.1360
 7886SOL     OW35293   1.863   3.854   3.459 -0.2437 -0.4994  0.0120
 7886SOL    HW135294   1.823   3.784   3.510  0.7127 -0.1662  1.1957
 7886SOL    HW235295   1.859   3.805   3.376  0.0283 -1.2428  0.4378
 7887SOL     OW35296   0.408   3.328   2.714 -0.1281 -0.0472 -0.0764
 7887SOL    HW135297   0.441   3.390   2.779  2.4777 -1.5126  0.0131
 7887SOL    HW235298   0.401   3.254   2.775 -0.6321  0.6215  0.6657
 7888SOL     OW35299   2.913   2.466  15.827 -0.4439 -0.5241  0.1568
 7888SOL    HW135300   2.860   2.546  15.820  0.8224  0.3126  0.0559
 7888SOL    HW235301   2.961   2.496  15.904 -1.4007 -1.2933  1.0425
 7889SOL     OW35302   0.634   3.214   8.669 -0.5805  1.0042 -0.0999
 7889SOL    HW135303   0.697   3.283   8.648 -1.2975  2.8426  3.7980
 7889SOL    HW235304   0.684   3.158   8.729  0.4798 -0.9120 -2.7894
 7890SOL     OW35305   0.516   0.011   2.417  0.4068  0.5645  0.1298
 7890SOL    HW135306   0.506   4.711   2.508 -1.4653 -0.6515 -0.4744
 7890SOL    HW235307   0.603   4.716   2.386 -0.0579 -1.2702  0.2439
 7891SOL     OW35308   4.500   2.540   7.110 -0.1154  0.0630 -0.3100
 7891SOL    HW135309   4.530   2.450   7.115 -0.2315  0.1432  1.8719
 7891SOL    HW235310   4.406   2.526   7.098  0.2063 -0.4983 -2.1114
 7892SOL     OW35311   4.475   3.363   2.479  0.3189  0.1448  0.3425
 7892SOL    HW135312   4.481   3.387   2.572  1.8475 -3.1292  1.0977
 7892SOL    HW235313   4.500   3.270   2.486 -3.3716 -0.6615  2.7327
 7893SOL     OW35314   3.027   0.718  13.681 -0.0466 -0.2722  0.1146
 7893SOL    HW135315   3.042   0.756  13.594  0.8820 -0.4730  0.1881
 7893SOL    HW235316   2.990   0.632  13.659 -0.2689  0.3718 -2.0536
 7894SOL     OW35317   0.660   0.441   3.157  0.0933 -0.0779  0.4086
 7894SOL    HW135318   0.570   0.408   3.157 -0.3164  1.0163 -0.1993
 7894SOL    HW235319   0.708   0.363   3.184 -0.5221 -0.6252 -0.0817
 7895SOL     OW35320   3.565   3.578   7.535 -0.5353  0.6409  0.3368
 7895SOL    HW135321   3.541   3.504   7.480  0.8026  1.8050 -1.7990
 7895SOL    HW235322   3.660   3.569   7.521 -0.7109 -0.4472 -0.1706
 7896SOL     OW35323   3.581   3.543   3.908 -1.0885  0.2853 -0.0617
 7896SOL    HW135324   3.511   3.525   3.970 -0.8546  0.5140  0.2725
 7896SOL    HW235325   3.609   3.632   3.929  0.1046  0.0033 -0.4060
 7897SOL     OW35326   1.430   2.745   2.550 -0.0770 -0.1402 -0.9112
 7897SOL    HW135327   1.483   2.802   2.494  0.5133 -0.1698 -0.3805
 7897SOL    HW235328   1.418   2.789   2.635 -0.5447 -2.4082  0.1816
 7898SOL     OW35329   3.785   4.182   6.638  0.4464  0.2218 -0.4626
 7898SOL    HW135330   3.714   4.120   6.623 -0.6790  1.0045  1.5825
 7898SOL    HW235331   3.830   4.131   6.705 -1.3172  0.1696  0.7007
 7899SOL     OW35332   3.536   2.059  15.617 -0.3530  0.0881 -0.7198
 7899SOL    HW135333   3.622   2.070  15.656 -0.8660 -1.8819  0.9624
 7899SOL    HW235334   3.555   2.076  15.524 -1.9885 -0.3235 -1.1332
 7900SOL     OW35335   2.256   3.348   7.423  0.2423  0.1016 -0.1011
 7900SOL    HW135336   2.281   3.433   7.460  0.2812 -0.4470  1.1060
 7900SOL    HW235337   2.225   3.372   7.335 -1.7698  0.3902  0.6785
 7901SOL     OW35338   1.293   2.033   0.524  0.0503  0.4965 -0.4120
 7901SOL    HW135339   1.213   1.985   0.502  0.3151 -0.7224  1.3025
 7901SOL    HW235340   1.353   2.016   0.451 -0.4734 -1.9679 -0.2605
 7902SOL     OW35341   1.015   2.214   3.161  0.2137  0.2821 -0.0584
 7902SOL    HW135342   1.009   2.300   3.117  1.4717  0.1064 -0.5863
 7902SOL    HW235343   1.107   2.204   3.185  0.0224  1.4956  1.1810
 7903SOL     OW35344   2.307   2.149  11.755  0.0397 -0.0717 -0.4247
 7903SOL    HW135345   2.326   2.204  11.831 -0.3067 -1.0232  0.3394
 7903SOL    HW235346   2.269   2.070  11.793  1.7762 -0.2549  0.9156
 7904SOL     OW35347   0.001   2.548   2.180  0.5663 -0.3712 -0.0670
 7904SOL    HW135348   4.666   2.587   2.121  0.9149  0.4425  0.0963
 7904SOL    HW235349   4.665   2.494   2.226 -0.8948  0.9621 -0.5659
 7905SOL     OW35350   2.702   1.924  16.364 -0.2796  0.1089 -0.3111
 7905SOL    HW135351   2.663   1.883  16.441 -0.3147 -2.3381 -1.6557
 7905SOL    HW235352   2.678   2.015  16.384 -0.4857 -0.0845  0.3228
 7906SOL     OW35353   1.598   4.127   2.740 -0.3515 -0.4196 -0.0861
 7906SOL    HW135354   1.642   4.194   2.792  0.1727 -0.2087 -0.7955
 7906SOL    HW235355   1.529   4.185   2.709 -0.2215  0.4433  1.2849
 7907SOL     OW35356   3.411   2.772   6.768 -1.0288  0.2132 -0.1104
 7907SOL    HW135357   3.498   2.740   6.791 -0.1319  1.9843 -1.0228
 7907SOL    HW235358   3.355   2.695   6.777 -0.0308 -0.5609 -0.4592
 7908SOL     OW35359   0.826   3.018  11.582  0.1096 -0.6133  0.2997
 7908SOL    HW135360   0.756   3.013  11.648  0.1650 -0.5451  0.3645
 7908SOL    HW235361   0.783   3.054  11.505 -1.6071 -1.1456  1.0153
 7909SOL     OW35362   3.759   2.380  12.312 -0.4494 -0.2377 -0.1200
 7909SOL    HW135363   3.790   2.402  12.224  2.9446 -1.6203  0.7411
 7909SOL    HW235364   3.790   2.454  12.364  1.0941 -0.4210 -0.7706
 7910SOL     OW35365   1.608   0.284  10.276  0.2836 -0.0673 -0.2285
 7910SOL    HW135366   1.684   0.229  10.297  0.6171 -0.4403 -2.3428
 7910SOL    HW235367   1.637   0.364  10.319  0.7514 -0.8704  0.9384
 7911SOL     OW35368   0.423   0.289  15.996  0.3648  0.4201 -0.5956
 7911SOL    HW135369   0.327   0.291  15.992  0.4070  0.2193 -1.8767
 7911SOL    HW235370   0.448   0.198  15.980 -2.4781 -0.3448 -0.7773
 7912SOL     OW35371   4.293   4.185   5.184 -0.2965  0.4863 -0.1791
 7912SOL    HW135372   4.380   4.221   5.201  0.7910 -2.2504  0.0545
 7912SOL    HW235373   4.307   4.106   5.132  2.3309  0.1373  1.0374
 7913SOL     OW35374   3.634   3.524   1.990 -0.3731 -0.4270 -0.5119
 7913SOL    HW135375   3.602   3.593   1.932 -0.3224 -0.6230 -0.7689
 7913SOL    HW235376   3.680   3.574   2.058 -3.0794  1.4079 -0.0163
 7914SOL     OW35377   1.188   3.573   6.200 -0.0077 -0.4345 -0.8167
 7914SOL    HW135378   1.194   3.622   6.283 -1.0454  1.6096 -1.9301
 7914SOL    HW235379   1.102   3.533   6.212  0.3632 -0.5736  1.5095
 7915SOL     OW35380   2.511   0.173   3.637 -0.6361  0.0897 -0.3826
 7915SOL    HW135381   2.462   0.122   3.702 -1.5519 -0.0313 -1.1679
 7915SOL    HW235382   2.583   0.114   3.614  1.2664  1.5001  2.0084
 7916SOL     OW35383   1.236   3.006   0.729  0.0228  0.0045  0.0666
 7916SOL    HW135384   1.182   3.079   0.758 -2.0223 -1.8452  0.9660
 7916SOL    HW235385   1.240   3.030   0.637  1.2915  1.0779  0.4025
 7917SOL     OW35386   4.121   3.773   8.444 -0.4120  0.2063  0.0350
 7917SOL    HW135387   4.192   3.726   8.488 -1.0462 -1.4752 -0.7166
 7917SOL    HW235388   4.053   3.769   8.511  1.0676  0.6271  1.5734
 7918SOL     OW35389   1.514   0.466   6.115  0.3401  0.2403 -0.1575
 7918SOL    HW135390   1.484   0.391   6.167  1.1153  0.0784  0.0593
 7918SOL    HW235391   1.465   0.543   6.145  2.5157  1.7543 -0.4602
 7919SOL     OW35392   3.519   3.089  14.605 -0.1100 -0.4808 -0.6472
 7919SOL    HW135393   3.465   3.145  14.549  0.3571  1.8626  1.2891
 7919SOL    HW235394   3.480   3.094  14.692 -3.2402 -0.0755 -2.0837
 7920SOL     OW35395   3.124   1.555   6.188 -0.3506 -0.2919 -0.8992
 7920SOL    HW135396   3.082   1.497   6.251  1.2326  1.4504  1.7415
 7920SOL    HW235397   3.209   1.574   6.227 -1.1758 -1.4633  1.4679
 7921SOL     OW35398   2.261   3.718   1.988 -0.5678 -0.1013  0.3964
 7921SOL    HW135399   2.260   3.626   2.017 -1.4334 -0.6024 -1.2440
 7921SOL    HW235400   2.189   3.756   2.038  0.4418  0.6621  1.2649
 7922SOL     OW35401   4.458   3.605  15.008 -0.0841 -0.1471 -0.3218
 7922SOL    HW135402   4.420   3.518  15.017  0.0745 -0.1351  0.5036
 7922SOL    HW235403   4.414   3.648  15.082  0.3444 -2.3511  1.2013
 7923SOL     OW35404   1.824   1.286   9.647  0.0828  0.1565  0.4397
 7923SOL    HW135405   1.825   1.268   9.553 -0.6821  1.3631  0.1937
 7923SOL    HW235406   1.841   1.200   9.684 -2.3173 -0.5887 -0.2102
 7924SOL     OW35407   1.388   0.948   6.712  0.6666 -0.0531  0.0896
 7924SOL    HW135408   1.421   0.934   6.623 -2.7397  0.6415 -1.2647
 7924SOL    HW235409   1.298   0.977   6.706  0.4736 -0.4041  1.2537
 7925SOL     OW35410   0.169   2.167   3.952 -0.0594 -0.2815 -0.4399
 7925SOL    HW135411   0.116   2.193   3.877 -1.0109  0.4811  0.5031
 7925SOL    HW235412   0.165   2.072   3.945  0.2171 -0.5403  2.7766
 7926SOL     OW35413   3.835   0.908   5.049 -0.0017 -0.5123 -0.4237
 7926SOL    HW135414   3.875   0.872   4.970 -1.1289  0.5352 -1.4522
 7926SOL    HW235415   3.914   0.922   5.101 -0.5856  1.2596 -0.0286
 7927SOL     OW35416   0.462   2.747  14.243  0.1458  0.0283  0.7124
 7927SOL    HW135417   0.553   2.743  14.213  0.5912 -1.1904  2.1784
 7927SOL    HW235418   0.454   2.822  14.301 -0.4334  0.3906  0.1511
 7928SOL     OW35419   2.228   1.016   3.927 -0.0837  0.4269  0.1551
 7928SOL    HW135420   2.296   0.985   3.986 -1.9452 -2.0619  0.9617
 7928SOL    HW235421   2.284   1.056   3.860  1.3876  1.0578  1.7534
 7929SOL     OW35422   2.340   4.661   6.013  0.8442 -0.1877 -0.3363
 7929SOL    HW135423   2.325   4.645   5.920 -2.2766 -1.2020  0.3408
 7929SOL    HW235424   2.272   4.728   6.023  0.7286 -0.0451 -2.1816
 7930SOL     OW35425   4.453   3.151   6.241 -0.1267  0.3880 -0.3222
 7930SOL    HW135426   4.365   3.116   6.225  0.5611 -1.6762  0.4268
 7930SOL    HW235427   4.482   3.109   6.322  0.1085 -2.7430 -2.0443
 7931SOL     OW35428   2.119   0.472   8.495  0.3483  0.2168  0.5764
 7931SOL    HW135429   2.102   0.390   8.449  0.6308 -0.0025  0.8642
 7931SOL    HW235430   2.046   0.529   8.471 -0.4629 -1.0724  0.0060
 7932SOL     OW35431   0.172   4.577   2.483  0.1618  0.1001 -0.0051
 7932SOL    HW135432   0.090   4.608   2.444  2.7098  3.4861 -2.6417
 7932SOL    HW235433   0.242   4.619   2.434  0.2186 -0.1753 -0.1589
 7933SOL     OW35434   2.073   0.011  10.132  0.1034  0.5484 -0.3010
 7933SOL    HW135435   2.024   4.725  10.213  1.6134  1.8825  0.8454
 7933SOL    HW235436   2.164   0.012  10.160  0.2314 -0.0801 -0.7146
 7934SOL     OW35437   0.577   0.705  10.543 -0.4002 -0.1766 -0.6192
 7934SOL    HW135438   0.618   0.758  10.611 -0.5410 -1.3135  0.3512
 7934SOL    HW235439   0.597   0.616  10.573  1.2979 -0.0713 -1.4494
 7935SOL     OW35440   4.254   1.264   4.385 -0.2299  0.1265 -0.0722
 7935SOL    HW135441   4.186   1.287   4.447  0.1036 -1.3960  0.8711
 7935SOL    HW235442   4.227   1.292   4.297  1.8332  0.6006 -0.5646
 7936SOL     OW35443   2.380   3.494   8.798  0.2651 -0.4962 -0.2957
 7936SOL    HW135444   2.426   3.553   8.738 -0.2221  1.6094  1.4280
 7936SOL    HW235445   2.352   3.558   8.863  0.5762  0.3720 -1.0112
 7937SOL     OW35446   2.110   4.388   4.120  0.2840  0.0085 -0.5222
 7937SOL    HW135447   2.154   4.466   4.085  1.3163 -1.2313 -1.9535
 7937SOL    HW235448   2.123   4.330   4.045  0.1098  0.4726 -0.9124
 7938SOL     OW35449   2.944   0.642  13.367  0.4989  0.3016 -0.3239
 7938SOL    HW135450   2.985   0.728  13.366 -1.2463  1.1417  0.7332
 7938SOL    HW235451   2.871   0.658  13.308 -0.8187 -1.2273  0.8660
 7939SOL     OW35452   2.032   0.118   5.682 -0.0468  0.5824 -0.2104
 7939SOL    HW135453   1.949   0.101   5.728  1.3560 -0.5800  1.9080
 7939SOL    HW235454   2.017   0.067   5.603  1.4173  0.9683 -0.7265
 7940SOL     OW35455   3.794   0.379   1.826 -0.0827  0.9055 -0.2547
 7940SOL    HW135456   3.792   0.306   1.888 -0.7638 -0.8499 -2.3574
 7940SOL    HW235457   3.830   0.332   1.751 -1.4128 -0.4317 -0.0558
 7941SOL     OW35458   1.283   1.658   5.805 -0.5023  0.1890  0.1052
 7941SOL    HW135459   1.192   1.627   5.807 -0.3948  0.0411  3.4133
 7941SOL    HW235460   1.277   1.739   5.755  0.1203  0.8343  1.0867
 7942SOL     OW35461   2.303   2.225   9.163  0.3101  0.7521  0.5478
 7942SOL    HW135462   2.289   2.248   9.255 -0.6872  0.1549  0.5444
 7942SOL    HW235463   2.353   2.144   9.172  1.2420  1.0726 -1.7445
 7943SOL     OW35464   2.978   2.046   3.221  0.0813 -0.2120  0.1760
 7943SOL    HW135465   2.908   2.069   3.161  0.1414 -0.0383  0.1751
 7943SOL    HW235466   3.046   2.105   3.192  0.8236 -0.1207  2.0757
 7944SOL     OW35467   1.798   1.985   9.856 -0.2987  0.1501 -0.2540
 7944SOL    HW135468   1.703   1.972   9.863 -0.6373  1.8944 -1.5570
 7944SOL    HW235469   1.812   2.075   9.829 -0.8636  0.9762  2.2235
 7945SOL     OW35470   1.748   0.145   6.233  0.0680  0.1480  0.0945
 7945SOL    HW135471   1.663   0.109   6.205 -0.8120  1.5621  0.9341
 7945SOL    HW235472   1.735   0.240   6.231 -1.4918 -0.0970 -2.3374
 7946SOL     OW35473   1.021   3.709   3.301  0.7838 -0.1416 -0.3727
 7946SOL    HW135474   1.113   3.684   3.303  0.6198 -0.8712 -1.7634
 7946SOL    HW235475   1.016   3.776   3.369 -0.7787 -0.8275  0.1743
 7947SOL     OW35476   2.611   1.912   9.532  0.1671  0.2061  0.3463
 7947SOL    HW135477   2.637   1.825   9.562  0.0616 -0.0539 -0.3033
 7947SOL    HW235478   2.632   1.971   9.604  0.1528  0.4481  0.1555
 7948SOL     OW35479   3.165   3.336   7.059 -0.8910 -0.1891  0.1164
 7948SOL    HW135480   3.107   3.412   7.068  0.3146  0.5983  1.3450
 7948SOL    HW235481   3.179   3.301   7.146  0.8550 -0.9007 -0.4483
 7949SOL     OW35482   1.109   2.117   6.636 -0.2886 -0.2074  0.4757
 7949SOL    HW135483   1.200   2.142   6.654 -0.7703  2.6448 -1.1792
 7949SOL    HW235484   1.128   2.056   6.565  1.2551 -1.1715  1.7144
 7950SOL     OW35485   4.575   0.707   7.904 -0.5066 -0.4074 -0.5528
 7950SOL    HW135486   4.524   0.746   7.976 -0.4295  1.4550 -1.4996
 7950SOL    HW235487   4.662   0.746   7.915 -0.7839 -0.4977  2.0870
 7951SOL     OW35488   1.931   1.653   3.275  0.2112  0.0897 -0.0073
 7951SOL    HW135489   1.837   1.645   3.265  0.2878 -0.7301 -0.0666
 7951SOL    HW235490   1.935   1.737   3.321  0.4309  0.3060 -0.4197
 7952SOL     OW35491   0.879   4.627  13.360  0.1816 -0.0325 -0.6097
 7952SOL    HW135492   0.952   4.579  13.320  0.7157  0.2057  0.0714
 7952SOL    HW235493   0.912   4.643  13.448  0.5808  0.1423 -0.7889
 7953SOL     OW35494   1.024   1.175   8.446 -0.2299  0.1782 -0.2088
 7953SOL    HW135495   1.053   1.087   8.470 -1.2700  0.0186  0.4591
 7953SOL    HW235496   1.024   1.228   8.526 -0.3121  0.1637 -0.1999
 7954SOL     OW35497   2.711   2.867   7.249  0.2588 -0.1866 -0.5586
 7954SOL    HW135498   2.790   2.920   7.239 -0.7000  1.2479 -0.5022
 7954SOL    HW235499   2.648   2.939   7.254  0.3335 -0.0639 -1.3111
 7955SOL     OW35500   3.349   0.299   6.100  0.2529 -0.5758 -0.1364
 7955SOL    HW135501   3.330   0.244   6.176  0.5568 -1.4103 -0.6648
 7955SOL    HW235502   3.440   0.284   6.072  0.6525  0.6983  0.4742
 7956SOL     OW35503   0.051   0.175   6.069  0.5163  0.5530  0.0660
 7956SOL    HW135504   0.082   0.209   5.985 -1.2441 -1.4182 -1.3845
 7956SOL    HW235505   4.710   0.238   6.080  0.2483 -0.2699  2.8930
 7957SOL     OW35506   2.255   4.048  14.629  0.1262  0.3518  0.2557
 7957SOL    HW135507   2.287   3.959  14.637  0.2740  0.3004 -0.8073
 7957SOL    HW235508   2.331   4.087  14.585 -1.5710  0.3101 -2.6915
 7958SOL     OW35509   2.917   2.137   7.257  0.2246  0.0950 -0.3449
 7958SOL    HW135510   2.822   2.123   7.260  0.3651 -0.6765  0.3556
 7958SOL    HW235511   2.943   2.107   7.344  2.6142 -0.8884 -1.3792
 7959SOL     OW35512   3.540   1.000   2.636  0.6113 -0.2318  0.0756
 7959SOL    HW135513   3.591   0.976   2.559  3.4211 -0.6517  2.0701
 7959SOL    HW235514   3.601   0.966   2.702  1.1936  0.1646 -0.2601
 7960SOL     OW35515   3.107   3.555   8.238 -0.4355 -0.3330  0.0500
 7960SOL    HW135516   3.144   3.476   8.277 -0.6736  0.0371  1.0423
 7960SOL    HW235517   3.175   3.586   8.180  0.1273 -0.7126  0.5031
 7961SOL     OW35518   4.713   4.622   5.724 -0.0683  0.0459 -0.4636
 7961SOL    HW135519   4.665   4.552   5.680  1.1578 -0.4501 -0.9940
 7961SOL    HW235520   0.066   4.623   5.676  0.5643 -2.4332  0.5754
 7962SOL     OW35521   3.770   1.814   9.132  0.2847  0.3304 -0.0914
 7962SOL    HW135522   3.719   1.895   9.129  0.6037  0.5366 -0.0625
 7962SOL    HW235523   3.835   1.846   9.195 -0.0518 -0.2099  0.5323
 7963SOL     OW35524   1.968   2.941   4.167 -0.1958  0.1278  0.2668
 7963SOL    HW135525   1.994   2.906   4.253 -0.1159 -0.1598  0.1276
 7963SOL    HW235526   1.899   2.878   4.143  0.9822 -1.2087  0.3572
 7964SOL     OW35527   0.332   4.573  14.168  0.2146 -0.0443  0.4051
 7964SOL    HW135528   0.341   4.667  14.186 -0.8865  0.3582 -1.1902
 7964SOL    HW235529   0.305   4.575  14.076 -0.3105  0.8979  0.5730
 7965SOL     OW35530   0.867   3.372   4.766 -0.2346 -0.2207 -0.0580
 7965SOL    HW135531   0.833   3.318   4.694 -0.1264  2.2734 -1.9752
 7965SOL    HW235532   0.923   3.433   4.718 -0.8085  0.6473  0.3676
 7966SOL     OW35533   4.342   2.907   1.850  0.3396 -0.5640  0.0533
 7966SOL    HW135534   4.291   2.883   1.772 -1.5334 -0.2860  1.1808
 7966SOL    HW235535   4.415   2.955   1.811 -1.0430  2.8150  1.5309
 7967SOL     OW35536   4.318   0.630  15.365 -0.8133 -0.3367  0.2782
 7967SOL    HW135537   4.351   0.669  15.284  3.1491 -3.1123  0.5346
 7967SOL    HW235538   4.350   0.540  15.358 -1.1775 -0.6681  2.7095
 7968SOL     OW35539   0.686   3.738   5.264 -0.1965  0.6437  0.5342
 7968SOL    HW135540   0.683   3.684   5.344 -0.6920  1.6468  1.1942
 7968SOL    HW235541   0.634   3.815   5.284  0.1602  1.4192 -1.5342
 7969SOL     OW35542   2.099   0.109  11.061 -0.0966  0.2202 -0.3571
 7969SOL    HW135543   2.053   0.161  10.995 -0.7397  1.0691  0.7568
 7969SOL    HW235544   2.189   0.119  11.031 -0.1542  1.8354 -0.0299
 7970SOL     OW35545   3.948   0.688   2.540 -0.5495  0.4378 -0.1958
 7970SOL    HW135546   4.033   0.678   2.584 -0.3506  2.1733 -0.1781
 7970SOL    HW235547   3.973   0.662   2.452  0.7708  3.1053 -0.6271
 7971SOL     OW35548   3.752   3.728  16.399 -0.5273 -0.9631 -0.2993
 7971SOL    HW135549   3.663   3.747  16.428 -0.2617  0.6147 -0.5436
 7971SOL    HW235550   3.801   3.778  16.463 -0.1624 -0.4649 -0.9726
 7972SOL     OW35551   1.903   2.425   7.446  0.3809  0.1218  0.0532
 7972SOL    HW135552   1.937   2.400   7.532  0.2549  0.3006  0.1544
 7972SOL    HW235553   1.909   2.520   7.451  0.9392 -0.0874  3.7830
 7973SOL     OW35554   1.458   4.470   9.217  0.1189 -0.8280  0.1027
 7973SOL    HW135555   1.482   4.407   9.285 -0.2701 -0.8935  0.1761
 7973SOL    HW235556   1.372   4.436   9.193  0.2145 -0.1657 -1.1559
 7974SOL     OW35557   0.303   0.823   2.146 -0.2456  0.6678  0.5300
 7974SOL    HW135558   0.281   0.740   2.103 -0.9570  1.0227  0.2083
 7974SOL    HW235559   0.370   0.802   2.212 -0.0622  1.6850  0.6635
 7975SOL     OW35560   2.837   1.208   4.933  0.4589 -0.0977 -0.0178
 7975SOL    HW135561   2.835   1.186   5.026  1.4233  0.9817  0.2627
 7975SOL    HW235562   2.883   1.292   4.926  1.1905 -0.6520 -1.9670
 7976SOL     OW35563   0.106   3.958   8.482  0.2408 -0.4390  0.2946
 7976SOL    HW135564   0.064   3.925   8.402 -1.0132  0.4015  0.5957
 7976SOL    HW235565   0.135   4.047   8.460 -3.9517  1.0596  0.7975
 7977SOL     OW35566   4.088   0.983   5.154  0.0616 -0.3350 -0.0837
 7977SOL    HW135567   4.175   0.945   5.162  1.1087  1.9449 -0.5603
 7977SOL    HW235568   4.099   1.030   5.072 -1.0827 -2.7768 -1.6131
 7978SOL     OW35569   3.518   1.111   1.321 -0.3414  0.1109 -0.0913
 7978SOL    HW135570   3.452   1.146   1.382  1.7325 -0.5613  2.5265
 7978SOL    HW235571   3.599   1.145   1.358 -1.6598  3.1986 -0.0364
 7979SOL     OW35572   1.471   1.175   8.521  0.6057  0.2582 -0.0736
 7979SOL    HW135573   1.395   1.152   8.574  0.5276  1.9193  0.5255
 7979SOL    HW235574   1.498   1.258   8.561 -0.0353  0.5316 -0.2142
 7980SOL     OW35575   3.315   1.552   3.039  0.2547  0.3889 -0.2135
 7980SOL    HW135576   3.224   1.572   3.062  0.2547  0.8319 -0.5822
 7980SOL    HW235577   3.311   1.457   3.029  1.4570  0.0935  2.1869
 7981SOL     OW35578   2.500   1.175  12.211  0.3785 -0.5172  0.3806
 7981SOL    HW135579   2.526   1.089  12.243  1.0755 -0.8669 -1.1188
 7981SOL    HW235580   2.409   1.183  12.239  0.3964  0.5132  0.1627
 7982SOL     OW35581   4.053   2.757   8.598 -0.5458 -0.4841  0.5678
 7982SOL    HW135582   4.002   2.776   8.520  1.7157  0.9915 -0.5614
 7982SOL    HW235583   4.126   2.819   8.588 -0.5690 -0.6368 -0.5708
 7983SOL     OW35584   0.594   4.662  11.552 -0.0803 -0.0057 -0.2331
 7983SOL    HW135585   0.593   0.027  11.569  0.8172 -0.3488  1.6993
 7983SOL    HW235586   0.593   4.629  11.642 -0.2713 -1.0331 -0.6161
 7984SOL     OW35587   4.147   1.027   3.757 -0.0055 -0.4474 -0.1015
 7984SOL    HW135588   4.219   1.056   3.813 -1.4638  2.0205  0.5181
 7984SOL    HW235589   4.081   0.980   3.809 -0.3304  3.1490  2.7830
 7985SOL     OW35590   1.774   4.162   3.941  0.0503 -0.4473 -0.0910
 7985SOL    HW135591   1.697   4.197   3.897 -0.0647 -0.0539  0.4162
 7985SOL    HW235592   1.808   4.114   3.866  0.7149  2.9147 -1.9274
 7986SOL     OW35593   1.031   1.056   3.709 -0.3962 -0.0946  0.0263
 7986SOL    HW135594   0.968   1.073   3.780 -1.0446 -0.1519 -0.5415
 7986SOL    HW235595   1.089   0.990   3.749  0.8552  0.7518 -0.3909
 7987SOL     OW35596   4.553   2.670   9.828 -0.2370  0.0126  0.3437
 7987SOL    HW135597   4.577   2.738   9.766  2.2419  0.1360  1.4200
 7987SOL    HW235598   4.582   2.709   9.911 -1.8639 -1.9993  1.8618
 7988SOL     OW35599   1.916   4.250   3.093 -0.1142 -0.2746  0.5560
 7988SOL    HW135600   1.868   4.227   3.013  0.2487 -1.7766  0.7750
 7988SOL    HW235601   1.914   4.345   3.084  0.6210 -0.0307  3.1100
 7989SOL     OW35602   4.402   1.966   0.087 -0.0893 -0.4691 -0.2150
 7989SOL    HW135603   4.443   2.002   0.008  0.6003 -2.1064 -0.6022
 7989SOL    HW235604   4.356   2.047   0.111 -1.7031 -1.5068  0.1959
 7990SOL     OW35605   2.736   1.471   6.359  0.2424  0.0765  0.2392
 7990SOL    HW135606   2.811   1.417   6.382  1.6689  1.9138 -0.0104
 7990SOL    HW235607   2.685   1.446   6.436 -0.8987  2.3672  0.2390
 7991SOL     OW35608   1.039   0.495   2.098 -0.1265  0.0654  0.1892
 7991SOL    HW135609   0.996   0.554   2.037  0.6282  1.1080  0.6642
 7991SOL    HW235610   1.132   0.511   2.080  0.5967  0.8306  4.5782
 7992SOL     OW35611   2.468   2.883  10.017 -0.3114  0.2847 -0.4102
 7992SOL    HW135612   2.547   2.868   9.965  0.6213 -0.6408  1.2500
 7992SOL    HW235613   2.491   2.948  10.084  1.4200  0.0048 -0.7430
 7993SOL     OW35614   3.708   3.138   2.555  0.3266 -0.0412 -0.1338
 7993SOL    HW135615   3.628   3.191   2.551 -0.7087 -1.3229  3.7965
 7993SOL    HW235616   3.777   3.204   2.549  0.2895  0.1465  1.3917
 7994SOL     OW35617   1.925   3.030   3.027 -0.8486 -0.0709  0.0527
 7994SOL    HW135618   1.979   3.105   3.051  2.3008 -1.9456 -1.1301
 7994SOL    HW235619   1.987   2.993   2.964  2.4688  1.5114  2.3584
 7995SOL     OW35620   3.920   1.406   9.625  0.0324  0.3000 -0.1563
 7995SOL    HW135621   3.870   1.473   9.672 -1.1179 -1.1752  0.7334
 7995SOL    HW235622   3.867   1.410   9.545  1.4902  0.6695 -1.0971
 7996SOL     OW35623   0.737   3.406   2.772  0.1560  0.3719  0.6561
 7996SOL    HW135624   0.710   3.455   2.695  0.3468 -0.2393  0.1997
 7996SOL    HW235625   0.747   3.320   2.732 -2.2245 -1.4476  3.9896
 7997SOL     OW35626   1.585   1.148   6.908 -0.0330 -0.1278 -0.5849
 7997SOL    HW135627   1.639   1.199   6.847 -1.5855 -0.0119 -1.8529
 7997SOL    HW235628   1.512   1.120   6.853 -0.4475  3.0181 -1.6387
 7998SOL     OW35629   3.896   3.748   1.682 -0.5897  0.3164 -0.3252
 7998SOL    HW135630   3.860   3.829   1.644  0.1262  0.8601  0.1612
 7998SOL    HW235631   3.866   3.764   1.771 -2.0837  1.6880 -1.0630
 7999SOL     OW35632   1.905   0.270   0.487 -0.0350  0.3079 -0.3753
 7999SOL    HW135633   1.924   0.279   0.580  2.2481  3.7489 -1.1574
 7999SOL    HW235634   1.812   0.250   0.481 -0.3287  1.4479  0.3613
 8000SOL     OW35635   1.975   1.883   1.818 -0.1109 -0.0219  0.2025
 8000SOL    HW135636   1.903   1.820   1.828 -0.5811  0.1179 -2.1947
 8000SOL    HW235637   2.042   1.850   1.877 -0.4627  0.0856  0.6589
 8001SOL     OW35638   3.291   0.824  13.085  0.3768  0.5561  0.2035
 8001SOL    HW135639   3.354   0.813  13.156  0.9966  0.0342 -0.4258
 8001SOL    HW235640   3.337   0.810  13.002  0.4467 -0.8234  0.4689
 8002SOL     OW35641   0.889   3.141  15.917  0.1805 -0.3285 -0.4149
 8002SOL    HW135642   0.966   3.197  15.923 -0.5969  0.5850  1.2160
 8002SOL    HW235643   0.901   3.078  15.846  0.5150  0.5110 -1.0954
 8003SOL     OW35644   0.269   1.198   8.992 -0.2383  0.5084  0.4054
 8003SOL    HW135645   0.186   1.221   9.034  1.2728  3.5344  1.7711
 8003SOL    HW235646   0.266   1.103   8.993  2.1285  0.4473  1.3684
 8004SOL     OW35647   3.095   4.021   6.993 -0.1618  0.0192  0.6169
 8004SOL    HW135648   3.131   3.938   7.026 -1.5037  0.3886  3.0433
 8004SOL    HW235649   3.156   4.087   7.025  1.6719 -1.2868 -0.1598
 8005SOL     OW35650   0.666   2.276   4.018  0.0640 -0.2681 -0.5049
 8005SOL    HW135651   0.648   2.299   3.926 -0.6832  0.5588 -0.1648
 8005SOL    HW235652   0.581   2.234   4.030  0.3199 -0.5873  0.1218
 8006SOL     OW35653   3.552   1.699   3.015  0.2892  0.0887  0.5011
 8006SOL    HW135654   3.473   1.645   3.013  0.5048 -0.2000 -0.3356
 8006SOL    HW235655   3.599   1.654   3.085  0.5526 -3.4271 -1.9226
 8007SOL     OW35656   4.328   2.790   2.240 -0.0686 -0.0384 -0.3798
 8007SOL    HW135657   4.356   2.712   2.191 -1.1010 -0.4742 -0.2704
 8007SOL    HW235658   4.382   2.859   2.203 -0.0242  0.8245  1.2961
 8008SOL     OW35659   4.710   3.157   2.382  0.6151  0.1192  0.1080
 8008SOL    HW135660   4.689   3.169   2.475  0.7326 -1.1462  0.3001
 8008SOL    HW235661   4.720   3.062   2.369  1.9873  0.2843 -0.1198
 8009SOL     OW35662   3.003   2.056   4.684  0.0212  0.2416  0.1267
 8009SOL    HW135663   3.005   2.059   4.589 -1.7954  0.5723  0.1058
 8009SOL    HW235664   2.908   2.067   4.685 -0.1487 -1.1160 -1.9016
 8010SOL     OW35665   0.242   4.698   6.453 -0.0438  0.5477 -0.3159
 8010SOL    HW135666   0.287   4.639   6.393 -2.9442 -0.7696 -1.2019
 8010SOL    HW235667   0.220   0.043   6.396 -1.1815 -0.2976 -0.9912
 8011SOL     OW35668   2.060   1.276   4.478 -0.5486  0.4323 -0.0469
 8011SOL    HW135669   2.115   1.264   4.556 -0.4227 -1.8729 -0.4835
 8011SOL    HW235670   2.097   1.353   4.435 -0.5718  0.5883  0.2125
 8012SOL     OW35671   2.162   4.672   4.504 -0.4553 -0.0333  0.0382
 8012SOL    HW135672   2.125   4.707   4.584  3.1569  2.9309  0.4335
 8012SOL    HW235673   2.095   4.695   4.440 -0.3058  1.4862  0.4331
 8013SOL     OW35674   3.143   0.987  17.253  0.3332  0.2199 -0.3181
 8013SOL    HW135675   3.105   1.038  17.182  0.5479 -0.4072 -0.8788
 8013SOL    HW235676   3.203   1.052  17.291 -0.1859  1.3651 -1.4639
 8014SOL     OW35677   2.225   0.133  16.386  0.3987 -0.3852 -0.0972
 8014SOL    HW135678   2.307   0.180  16.401  0.8087 -0.4704 -2.0805
 8014SOL    HW235679   2.239   0.097  16.299 -1.9161 -2.5736  0.4402
 8015SOL     OW35680   4.074   0.940  11.702 -0.3488 -0.2439 -0.1405
 8015SOL    HW135681   4.076   0.872  11.635  0.4892  2.4605 -2.8766
 8015SOL    HW235682   4.089   0.879  11.774 -0.5874 -0.1850 -0.0413
 8016SOL     OW35683   4.392   4.678   4.341  0.6310  0.6481 -0.4806
 8016SOL    HW135684   4.349   0.034   4.328  0.3293  0.5783  0.0667
 8016SOL    HW235685   4.330   4.630   4.395 -0.2559 -0.3024 -2.3303
 8017SOL     OW35686   2.615   4.116  12.890 -0.8287 -0.7102  0.3203
 8017SOL    HW135687   2.562   4.180  12.936  1.1380  0.8373  0.4071
 8017SOL    HW235688   2.699   4.159  12.874 -0.3739 -1.5161  0.5145
 8018SOL     OW35689   2.601   4.037  11.959  0.2451 -0.2119  0.2928
 8018SOL    HW135690   2.520   4.081  11.934 -0.6091 -1.1683  1.3574
 8018SOL    HW235691   2.584   4.024  12.053 -1.1828  0.0392  0.0739
 8019SOL     OW35692   3.503   3.443  16.275 -0.4889 -0.1869  0.0278
 8019SOL    HW135693   3.422   3.426  16.227  1.0323 -4.5714 -1.0111
 8019SOL    HW235694   3.519   3.358  16.317  0.8039  0.1265  0.1569
 8020SOL     OW35695   4.228   3.694   6.922 -0.2733 -0.0851  0.3568
 8020SOL    HW135696   4.291   3.654   6.982  2.4631 -0.1746 -2.5650
 8020SOL    HW235697   4.283   3.749   6.867 -1.3338 -0.1396 -0.7448
 8021SOL     OW35698   0.135   2.668   4.133  0.1538  0.1221 -1.1554
 8021SOL    HW135699   0.158   2.611   4.059  0.2808 -1.4207  0.0805
 8021SOL    HW235700   0.110   2.746   4.083 -0.5757  1.5895  1.5264
 8022SOL     OW35701   3.772   4.405   2.486 -0.3675 -0.5112 -0.1907
 8022SOL    HW135702   3.786   4.395   2.580  2.3375 -2.5003 -0.8214
 8022SOL    HW235703   3.861   4.379   2.461  0.0749 -0.1256  0.9907
 8023SOL     OW35704   4.672   2.149   5.347  0.1452 -1.0839  0.1055
 8023SOL    HW135705   4.677   2.229   5.400 -1.6085 -1.2589  0.5334
 8023SOL    HW235706   4.591   2.117   5.386 -0.6277  1.6926  0.8204
 8024SOL     OW35707   3.365   0.232   4.344  0.6084  0.4947 -0.7839
 8024SOL    HW135708   3.444   0.283   4.326  1.7004 -0.9177  0.0193
 8024SOL    HW235709   3.311   0.281   4.282 -0.8440 -0.0318  0.0685
 8025SOL     OW35710   0.610   1.249   2.863 -0.0569  0.1726  0.8185
 8025SOL    HW135711   0.664   1.327   2.849 -2.2090  1.2976 -1.1962
 8025SOL    HW235712   0.621   1.202   2.781  1.2766  0.8079  0.6349
 8026SOL     OW35713   3.755   2.294  12.717  0.1067  0.0668  0.3056
 8026SOL    HW135714   3.688   2.320  12.654 -0.9497 -0.2496  1.2995
 8026SOL    HW235715   3.792   2.230  12.656  1.8102  1.0196  0.3367
 8027SOL     OW35716   3.738   2.366   4.113  0.3959 -0.3197 -0.3045
 8027SOL    HW135717   3.675   2.346   4.044 -1.3078 -1.5350  1.6041
 8027SOL    HW235718   3.791   2.287   4.104  0.4051 -0.4233  0.6166
 8028SOL     OW35719   3.377   3.380   7.933 -0.4677  0.4243 -0.4043
 8028SOL    HW135720   3.326   3.300   7.948  0.7331  0.0827  1.9670
 8028SOL    HW235721   3.463   3.349   7.959 -0.3811  0.6329 -0.4391
 8029SOL     OW35722   1.421   4.624  10.306  0.0906  0.3662  0.2412
 8029SOL    HW135723   1.466   4.572  10.373 -0.2990 -0.3950 -0.0790
 8029SOL    HW235724   1.330   4.630  10.337 -0.3799 -1.3767 -0.7496
 8030SOL     OW35725   3.169   3.007   8.230 -0.5426 -0.1006  0.0729
 8030SOL    HW135726   3.173   3.035   8.321 -0.1448  1.2806 -0.3593
 8030SOL    HW235727   3.262   2.982   8.230 -0.3445  0.6256 -1.7334
 8031SOL     OW35728   1.250   4.149  15.929 -0.4027 -0.1260 -0.0577
 8031SOL    HW135729   1.157   4.125  15.923 -0.0638 -1.1904 -1.1585
 8031SOL    HW235730   1.276   4.126  15.840 -1.9163  0.1538 -0.5814
 8032SOL     OW35731   2.054   1.120   1.588  0.1500  0.1110  0.1517
 8032SOL    HW135732   2.099   1.195   1.549  1.9811 -0.7112  0.6889
 8032SOL    HW235733   1.963   1.147   1.603 -0.0075 -1.0009  1.1719
 8033SOL     OW35734   3.565   3.707   2.691  0.3964 -0.1464  0.0402
 8033SOL    HW135735   3.615   3.656   2.754 -1.0455 -1.1798  0.3258
 8033SOL    HW235736   3.497   3.732   2.753  0.7965 -0.7867  0.7354
 8034SOL     OW35737   3.416   2.687  11.232  0.9545  0.1079  0.5069
 8034SOL    HW135738   3.476   2.615  11.217 -1.1416 -1.6455  0.5378
 8034SOL    HW235739   3.337   2.652  11.190  1.2869  0.2814 -0.2522
 8035SOL     OW35740   0.133   1.168   6.076  0.1198 -0.0428  0.2376
 8035SOL    HW135741   0.056   1.112   6.076  0.1858 -0.1416  1.0626
 8035SOL    HW235742   0.141   1.211   5.991  0.2634  0.8394  0.6940
 8036SOL     OW35743   1.745   1.159   2.531  0.0771 -0.7347  0.1410
 8036SOL    HW135744   1.744   1.063   2.530  0.3300 -0.7371  0.1352
 8036SOL    HW235745   1.825   1.187   2.576 -0.2079  1.4244 -0.6949
 8037SOL     OW35746   3.013   2.875   7.249  0.1304 -0.0744  0.6489
 8037SOL    HW135747   3.032   2.957   7.294 -1.2572  0.2508  0.6352
 8037SOL    HW235748   3.034   2.902   7.159  0.4650  0.5952  0.9313
 8038SOL     OW35749   0.875   4.136   8.038  0.1448 -0.4765  0.7136
 8038SOL    HW135750   0.955   4.120   8.088  1.8606 -0.8862 -2.1770
 8038SOL    HW235751   0.837   4.204   8.094  0.3534  0.9404 -0.8798
 8039SOL     OW35752   2.855   2.301   8.806 -0.3732  0.5244 -0.4899
 8039SOL    HW135753   2.936   2.329   8.763  0.3839 -0.2130  0.4706
 8039SOL    HW235754   2.851   2.208   8.783  1.1267  0.8542 -2.1166
 8040SOL     OW35755   0.880   1.789   5.614  0.0996 -0.4996 -0.5409
 8040SOL    HW135756   0.796   1.772   5.657  0.0134 -1.3200 -1.0416
 8040SOL    HW235757   0.905   1.698   5.601  0.3326 -0.6555  0.9398
 8041SOL     OW35758   3.340   3.383   2.138 -0.3804 -0.1177  0.4611
 8041SOL    HW135759   3.434   3.390   2.124 -0.6231 -2.9136 -2.4182
 8041SOL    HW235760   3.337   3.377   2.234 -2.6257  4.2128  0.6547
 8042SOL     OW35761   4.391   1.674   8.059 -0.0315 -0.3821 -0.6552
 8042SOL    HW135762   4.474   1.698   8.101 -1.0839  0.5521  0.9207
 8042SOL    HW235763   4.387   1.729   7.981  1.0713  0.1508 -0.3408
 8043SOL     OW35764   1.761   3.672   6.339 -0.1082  0.1401  0.0838
 8043SOL    HW135765   1.850   3.645   6.315 -0.3074 -1.6386  1.3281
 8043SOL    HW235766   1.773   3.729   6.415  1.7887 -1.8301  1.2813
 8044SOL     OW35767   3.698   3.340  14.546  0.3790 -0.0976 -0.2080
 8044SOL    HW135768   3.750   3.262  14.528  1.1994  0.0990  1.2817
 8044SOL    HW235769   3.770   3.397  14.575  0.1011  0.8961 -1.4706
 8045SOL     OW35770   1.246   3.167   1.597  0.0057  0.0537 -0.1218
 8045SOL    HW135771   1.230   3.102   1.666 -2.0888 -0.3916 -1.0069
 8045SOL    HW235772   1.281   3.110   1.530  2.4479  0.9420  0.4218
 8046SOL     OW35773   3.995   3.536   6.828 -0.0499 -0.1300  0.1261
 8046SOL    HW135774   4.039   3.590   6.895 -2.1950  0.8085  0.7832
 8046SOL    HW235775   3.998   3.609   6.766 -2.6437 -0.7158 -0.6773
 8047SOL     OW35776   2.752   1.807   3.993 -0.3634  0.2907 -0.3614
 8047SOL    HW135777   2.798   1.809   4.078 -0.0811  1.0546 -0.5262
 8047SOL    HW235778   2.683   1.742   3.996  1.1449 -1.1691  3.0919
 8048SOL     OW35779   2.381   0.739   1.665 -0.3810  0.0920 -0.4890
 8048SOL    HW135780   2.383   0.687   1.585  0.0669 -2.9598  1.5030
 8048SOL    HW235781   2.309   0.800   1.647  1.7998  2.4145 -1.3309
 8049SOL     OW35782   1.673   2.128  12.403 -0.0979  0.4420  0.2234
 8049SOL    HW135783   1.735   2.064  12.438 -0.4171 -0.5951 -1.1447
 8049SOL    HW235784   1.742   2.184  12.367  2.3827 -3.0043 -0.3945
 8050SOL     OW35785   3.001   4.200  12.752  0.5235  0.0624  0.6908
 8050SOL    HW135786   3.090   4.169  12.766  0.0431 -1.5368  0.1995
 8050SOL    HW235787   2.950   4.126  12.786 -1.1724  1.2341  0.7314
 8051SOL     OW35788   2.152   1.170   7.735  0.2830  0.2316 -0.3430
 8051SOL    HW135789   2.209   1.093   7.733 -0.0955  0.0432 -4.2260
 8051SOL    HW235790   2.181   1.204   7.820  0.9820  0.6417 -0.7402
 8052SOL     OW35791   2.040   3.842   9.998  0.3442  1.1577  0.1680
 8052SOL    HW135792   2.033   3.801   9.912  0.3376  0.3924  0.5327
 8052SOL    HW235793   2.100   3.913   9.975 -1.1632  2.2267 -0.4009
 8053SOL     OW35794   2.072   1.120   5.964 -0.3302  0.6023 -0.1761
 8053SOL    HW135795   2.132   1.093   5.894 -0.0824  2.7866 -0.8006
 8053SOL    HW235796   2.124   1.097   6.041  1.4417  0.8917 -1.2883
 8054SOL     OW35797   4.413   2.312   0.340  0.2185 -0.2629 -0.1042
 8054SOL    HW135798   4.361   2.302   0.260 -1.1699  0.0314  0.7479
 8054SOL    HW235799   4.489   2.261   0.312 -0.3223 -0.2670 -1.5622
 8055SOL     OW35800   0.689   1.867   4.768  0.0597 -0.1270 -0.0148
 8055SOL    HW135801   0.616   1.929   4.762 -0.3273 -0.3869  1.9363
 8055SOL    HW235802   0.676   1.826   4.854  3.4056  0.6539  0.8745
 8056SOL     OW35803   2.744   3.820   2.814 -0.5486  0.3602  0.5976
 8056SOL    HW135804   2.654   3.790   2.813 -0.0942 -0.9464 -1.0980
 8056SOL    HW235805   2.773   3.767   2.888 -0.0803 -0.3215 -0.0827
 8057SOL     OW35806   1.465   0.847   2.772 -0.1723 -0.0502 -0.3527
 8057SOL    HW135807   1.541   0.896   2.803 -0.8444  0.9598 -0.2902
 8057SOL    HW235808   1.391   0.870   2.828 -2.0092 -0.3582 -2.6898
 8058SOL     OW35809   2.674   0.946   6.383  0.3403  0.2104 -0.0084
 8058SOL    HW135810   2.760   0.926   6.420  0.4969 -0.1099 -0.5481
 8058SOL    HW235811   2.675   0.887   6.307  0.8665 -1.3353  1.2075
 8059SOL     OW35812   0.567   4.043   3.504 -0.0227  0.2083  0.7031
 8059SOL    HW135813   0.540   4.005   3.588  2.7102  0.8679  1.8833
 8059SOL    HW235814   0.573   4.132   3.537  1.3120 -0.1089  1.3085
 8060SOL     OW35815   0.044   2.250   3.311  0.1293  0.0528  0.2942
 8060SOL    HW135816   4.698   2.272   3.256 -0.6517  0.0060  1.3544
 8060SOL    HW235817   0.005   2.199   3.381 -0.7116  0.9670  0.4914
 8061SOL     OW35818   3.207   2.107   4.856 -0.3566 -0.0532 -0.1397
 8061SOL    HW135819   3.172   2.041   4.916  1.2617 -1.6992 -1.0170
 8061SOL    HW235820   3.142   2.098   4.786 -0.8501 -0.4094  0.3676
 8062SOL     OW35821   1.643   3.561   6.693 -0.1084  0.0500  0.0165
 8062SOL    HW135822   1.709   3.492   6.679  0.4708  1.0491 -2.1407
 8062SOL    HW235823   1.560   3.520   6.670 -0.4511  0.4108  0.5903
 8063SOL     OW35824   3.414   3.175   4.059  0.5055  0.4972 -0.0417
 8063SOL    HW135825   3.379   3.240   4.120 -3.3511 -0.0527 -1.6393
 8063SOL    HW235826   3.509   3.184   4.066  0.5651  1.2537 -1.8549
 8064SOL     OW35827   4.078   0.323   7.922 -0.2992 -0.4263  0.0029
 8064SOL    HW135828   4.002   0.324   7.863  0.8274  2.8112 -1.4269
 8064SOL    HW235829   4.086   0.416   7.943  1.2853 -0.1746 -1.7429
 8065SOL     OW35830   4.438   0.298   7.132  0.1739  0.0224 -0.4558
 8065SOL    HW135831   4.386   0.288   7.211  1.1596 -1.5493 -0.0151
 8065SOL    HW235832   4.397   0.228   7.081 -0.5810  0.8958 -1.0531
 8066SOL     OW35833   0.588   4.111  10.640  0.0762 -0.0616 -0.0621
 8066SOL    HW135834   0.502   4.127  10.600 -0.7508 -1.0619  1.3211
 8066SOL    HW235835   0.574   4.139  10.730  1.2177  1.1330 -0.2569
 8067SOL     OW35836   0.647   2.719   2.873  0.5791  0.0170 -0.5003
 8067SOL    HW135837   0.561   2.691   2.841  0.3358 -0.0205  0.1884
 8067SOL    HW235838   0.635   2.814   2.874  2.0293  0.1806  1.2477
 8068SOL     OW35839   0.425   2.684   6.521 -0.1822  0.6305  0.0981
 8068SOL    HW135840   0.369   2.760   6.512 -0.9479  0.2269  1.4143
 8068SOL    HW235841   0.404   2.657   6.610  1.7231 -1.7150 -0.1543
 8069SOL     OW35842   3.497   4.481   5.004  0.0158  0.0429  0.0446
 8069SOL    HW135843   3.439   4.552   5.031 -1.8925 -0.6552 -2.2535
 8069SOL    HW235844   3.451   4.407   5.045 -0.0218 -0.5686 -1.0995
 8070SOL     OW35845   0.033   0.356   9.350  0.3582  0.1006  0.1677
 8070SOL    HW135846   4.717   0.428   9.305  1.6453  0.4066 -0.6125
 8070SOL    HW235847   0.027   0.380   9.442 -0.7836  0.3939  0.0209
 8071SOL     OW35848   2.289   4.149  16.209 -0.1538  0.5023 -0.1909
 8071SOL    HW135849   2.299   4.190  16.295  0.5324 -0.3442  0.1326
 8071SOL    HW235850   2.220   4.204  16.171 -0.1198  0.5105 -0.2408
 8072SOL     OW35851   2.252   3.836  16.935  0.9478  0.1283  0.2350
 8072SOL    HW135852   2.200   3.758  16.952 -2.2674  2.6049  1.7801
 8072SOL    HW235853   2.332   3.801  16.898 -0.7518 -1.6052 -1.7697
 8073SOL     OW35854   3.456   1.309   7.633  1.0067 -0.5012  0.1619
 8073SOL    HW135855   3.365   1.287   7.612  1.4124 -2.5233  0.5920
 8073SOL    HW235856   3.455   1.403   7.612 -3.1941 -0.3963  0.8586
 8074SOL     OW35857   1.093   1.996  10.741  0.2708  0.2042  0.1239
 8074SOL    HW135858   1.105   1.907  10.709 -2.0200  0.0388 -0.2958
 8074SOL    HW235859   1.009   2.012  10.699  1.2464 -0.5828 -2.1501
 8075SOL     OW35860   3.501   3.072   1.891 -0.4763 -0.1610 -0.1691
 8075SOL    HW135861   3.534   2.989   1.856  0.9133 -0.2586  1.3984
 8075SOL    HW235862   3.581   3.124   1.884  0.6635 -1.6287  2.2304
 8076SOL     OW35863   2.383   0.490  15.207  0.2995 -0.0571 -0.0983
 8076SOL    HW135864   2.387   0.493  15.111  0.3537  1.6577 -0.0427
 8076SOL    HW235865   2.467   0.529  15.230  1.3003 -1.7306 -0.9696
 8077SOL     OW35866   2.565   0.539   0.510 -0.4336 -0.1007 -0.0614
 8077SOL    HW135867   2.506   0.586   0.452 -0.9008  1.3799  1.6091
 8077SOL    HW235868   2.648   0.586   0.501  0.0709 -0.6861  1.5419
 8078SOL     OW35869   1.437   3.000   9.132 -0.3439 -0.0746  0.0335
 8078SOL    HW135870   1.452   3.081   9.180  0.2981 -0.4759  0.5126
 8078SOL    HW235871   1.411   3.031   9.045 -2.3571  1.3032  1.1382
 8079SOL     OW35872   1.725   3.354   5.094 -0.9302  0.0643  0.2645
 8079SOL    HW135873   1.792   3.398   5.041  0.4772  0.3198  2.2705
 8079SOL    HW235874   1.740   3.260   5.082 -0.1897  0.1352  0.6226
 8080SOL     OW35875   1.805   1.374   3.775 -0.1395  0.4268 -0.1629
 8080SOL    HW135876   1.806   1.281   3.796  2.0583  0.4104 -0.3628
 8080SOL    HW235877   1.793   1.409   3.863  2.7613  2.2930 -0.5263
 8081SOL     OW35878   4.724   2.830  11.234 -0.0098 -1.0448 -0.2857
 8081SOL    HW135879   0.043   2.825  11.151  0.2824  2.2768 -0.2893
 8081SOL    HW235880   4.643   2.866  11.197  0.0573  0.1348  0.7490
 8082SOL     OW35881   1.209   2.846   4.954 -0.5450  1.3415 -0.1013
 8082SOL    HW135882   1.120   2.831   4.982 -0.3776  1.3000  0.4000
 8082SOL    HW235883   1.191   2.843   4.860 -0.9011  2.6357 -0.0753
 8083SOL     OW35884   1.029   0.853   9.562 -0.0532  0.2752 -0.4108
 8083SOL    HW135885   1.062   0.784   9.620 -0.8266 -0.0795 -0.3843
 8083SOL    HW235886   1.092   0.921   9.587 -0.6058  1.0919 -1.2473
 8084SOL     OW35887   2.138   0.604   6.809  0.1844  0.2148  0.2482
 8084SOL    HW135888   2.094   0.528   6.771 -0.3027  0.1033  1.0410
 8084SOL    HW235889   2.168   0.650   6.731 -0.7451 -1.2056 -0.9593
 8085SOL     OW35890   3.417   1.282  15.103  0.3942  0.2328 -0.2132
 8085SOL    HW135891   3.476   1.249  15.035  1.2124 -0.5430  0.8993
 8085SOL    HW235892   3.424   1.377  15.090  1.5595  0.2649  0.7152
 8086SOL     OW35893   0.852   3.106   6.671 -0.1909  0.6696  0.3837
 8086SOL    HW135894   0.894   3.182   6.632 -3.1359  0.5504 -3.0148
 8086SOL    HW235895   0.900   3.038   6.625 -2.5848 -0.4643 -0.4255
 8087SOL     OW35896   3.608   3.859  17.436 -0.7248 -0.2432 -0.4927
 8087SOL    HW135897   3.577   3.906  17.513  1.4570  1.6453 -0.7564
 8087SOL    HW235898   3.607   3.929  17.372 -0.2705  0.9094  0.7661
 8088SOL     OW35899   2.605   4.211  15.995  0.0425  0.3287 -0.3176
 8088SOL    HW135900   2.570   4.123  16.005  0.6138  0.1836  0.4978
 8088SOL    HW235901   2.691   4.188  16.033  0.7519  0.4103 -1.8862
 8089SOL     OW35902   1.770   0.663   3.532 -0.1299  0.5001  0.5019
 8089SOL    HW135903   1.701   0.726   3.511 -0.3830 -0.8133 -2.5913
 8089SOL    HW235904   1.846   0.705   3.493 -0.4356  0.2320 -0.3893
 8090SOL     OW35905   4.024   2.531  16.129  0.2403  0.0519  0.3614
 8090SOL    HW135906   4.082   2.575  16.191  0.5457  3.1529 -2.0942
 8090SOL    HW235907   4.081   2.514  16.054 -0.8781  1.5882 -0.8416
 8091SOL     OW35908   0.882   3.882  13.131 -0.1426 -0.4061  0.1766
 8091SOL    HW135909   0.788   3.865  13.122  0.0252 -2.2978  1.9930
 8091SOL    HW235910   0.883   3.877  13.227  1.4474  0.2681  0.1835
 8092SOL     OW35911   0.705   1.491   7.777 -0.4771 -1.2002  0.5751
 8092SOL    HW135912   0.688   1.541   7.857 -1.7013 -0.9885  0.1700
 8092SOL    HW235913   0.624   1.443   7.761 -0.3774 -1.4289  0.7607
 8093SOL     OW35914   4.343   2.498   6.243 -0.3485  0.5635 -0.0324
 8093SOL    HW135915   4.410   2.522   6.307 -1.4999 -1.0542  1.7919
 8093SOL    HW235916   4.295   2.581   6.237 -1.8756 -0.2237  1.0706
 8094SOL     OW35917   1.547   2.030   1.628  0.0288  0.0632  0.2222
 8094SOL    HW135918   1.505   2.091   1.567  1.2227  1.0036  0.3304
 8094SOL    HW235919   1.468   1.999   1.672 -0.0585  1.0367  0.7597
 8095SOL     OW35920   2.259   3.262   3.296 -0.0992 -0.2682  0.1377
 8095SOL    HW135921   2.331   3.212   3.258  1.1126  0.5026  1.4307
 8095SOL    HW235922   2.287   3.255   3.387 -1.5418 -0.8015  0.5558
 8096SOL     OW35923   0.762   4.316  16.053  0.1453  0.0750 -0.0782
 8096SOL    HW135924   0.819   4.387  16.082 -1.2806  1.6913 -1.2253
 8096SOL    HW235925   0.677   4.354  16.030  0.4675  1.1194  0.4331
 8097SOL     OW35926   4.369   1.755   2.413  0.7408 -0.7430 -0.2426
 8097SOL    HW135927   4.283   1.728   2.447  0.5376 -1.2038 -1.1130
 8097SOL    HW235928   4.365   1.728   2.322  0.7040 -1.1125 -0.1319
 8098SOL     OW35929   0.027   4.013  12.932  0.3620  0.3095 -0.0572
 8098SOL    HW135930   4.708   4.085  12.971  0.6424  0.2313  0.4409
 8098SOL    HW235931   4.685   3.957  12.901 -0.2866 -0.0628  2.1600
 8099SOL     OW35932   2.760   0.207  15.745  0.2631 -0.0339 -0.7381
 8099SOL    HW135933   2.717   0.200  15.830  1.8689  0.1771  0.0848
 8099SOL    HW235934   2.729   0.123  15.710 -0.9463  0.2551 -0.3767
 8100SOL     OW35935   2.799   1.360  17.625 -0.1348 -0.1110  0.3144
 8100SOL    HW135936   2.785   1.301  17.699 -0.4519  2.1699  2.0866
 8100SOL    HW235937   2.811   1.298  17.554  3.1391 -0.2487  0.9913
 8101SOL     OW35938   3.257   3.279  13.995  0.1950  0.8283 -0.3348
 8101SOL    HW135939   3.187   3.239  13.944 -0.0876  1.4162 -0.4164
 8101SOL    HW235940   3.334   3.229  13.967 -1.1727 -1.3024 -0.2753
 8102SOL     OW35941   1.386   1.114   3.366  0.0265  0.0271  0.3407
 8102SOL    HW135942   1.407   1.198   3.325  2.6943 -0.3413  0.9370
 8102SOL    HW235943   1.464   1.104   3.420  1.0664 -0.7342 -1.2864
 8103SOL     OW35944   4.235   2.268   6.131  0.0574 -0.2403 -0.1604
 8103SOL    HW135945   4.270   2.352   6.162 -1.9885  0.8235 -0.7420
 8103SOL    HW235946   4.303   2.212   6.168  0.4596 -0.1800 -0.8092
 8104SOL     OW35947   0.124   4.112   2.343 -0.2921 -0.6060  0.7429
 8104SOL    HW135948   0.054   4.077   2.289 -1.3077  2.9395 -0.2165
 8104SOL    HW235949   0.080   4.170   2.405  0.3469 -1.9343  2.4657
 8105SOL     OW35950   3.318   0.303  10.246 -0.0980  0.2641 -0.2248
 8105SOL    HW135951   3.302   0.365  10.175  0.7503  0.5172 -0.1948
 8105SOL    HW235952   3.318   0.216  10.208 -1.0698 -0.8889  2.4015
 8106SOL     OW35953   0.252   0.315   1.222  0.4144 -0.4554 -0.7610
 8106SOL    HW135954   0.276   0.276   1.137  0.7471 -3.7734  0.8432
 8106SOL    HW235955   0.291   0.251   1.282 -1.5445  0.8877  1.9323
 8107SOL     OW35956   3.595   0.245   7.000 -0.5928  0.5334  0.0662
 8107SOL    HW135957   3.548   0.244   7.084 -0.5364  0.3019  0.0957
 8107SOL    HW235958   3.668   0.302   7.024  0.8038  0.1712 -3.3206
 8108SOL     OW35959   3.226   1.167   9.395 -0.4858 -0.2017  0.0957
 8108SOL    HW135960   3.235   1.075   9.369  2.5220  0.1349 -0.0553
 8108SOL    HW235961   3.164   1.198   9.328 -1.1483  0.5763  1.0683
 8109SOL     OW35962   3.650   2.756  17.466  0.9529 -0.0598 -0.0993
 8109SOL    HW135963   3.677   2.665  17.472  2.2229  0.3504  0.3674
 8109SOL    HW235964   3.569   2.750  17.518 -0.8089 -0.2072 -2.8502
 8110SOL     OW35965   1.233   1.722   1.672  0.2665 -0.0025 -0.6814
 8110SOL    HW135966   1.162   1.743   1.610  2.2933  2.5642 -2.1529
 8110SOL    HW235967   1.177   1.669   1.729  0.0763  1.0034  0.0728
 8111SOL     OW35968   3.128   1.673   7.815 -0.1693 -0.0084 -0.0022
 8111SOL    HW135969   3.101   1.631   7.897  1.6783  0.7570  0.9972
 8111SOL    HW235970   3.223   1.673   7.828 -0.1957  0.0419  0.1986
 8112SOL     OW35971   4.169   3.116   3.344  0.3754  0.1572  1.2486
 8112SOL    HW135972   4.166   3.099   3.438 -1.9241  1.0295  1.3241
 8112SOL    HW235973   4.198   3.032   3.308  0.5095  1.2030 -1.0976
 8113SOL     OW35974   3.543   2.003   4.262 -0.5627  0.4398  0.1735
 8113SOL    HW135975   3.563   1.951   4.339 -0.7584 -0.6450 -0.5165
 8113SOL    HW235976   3.621   2.011   4.207 -1.1801 -2.0899 -1.0611
 8114SOL     OW35977   4.281   4.415  16.324 -0.4229 -0.7847  0.3693
 8114SOL    HW135978   4.265   4.495  16.273  1.4353 -0.0821  0.8968
 8114SOL    HW235979   4.199   4.427  16.371 -0.9334 -2.6868 -0.0557
 8115SOL     OW35980   1.721   4.657   2.922 -0.1549  0.3150 -0.0395
 8115SOL    HW135981   1.713   4.713   3.000 -1.9713  0.5615 -0.3960
 8115SOL    HW235982   1.648   4.598   2.938 -0.5406  0.2564 -2.0368
 8116SOL     OW35983   2.055   4.053   0.530 -0.3906 -0.2391 -0.1865
 8116SOL    HW135984   2.113   3.994   0.481 -2.0391 -1.7892 -0.2800
 8116SOL    HW235985   1.970   4.012   0.514  0.1170 -0.7724 -1.5576
 8117SOL     OW35986   4.307   3.873   6.577  0.5484 -0.2777 -1.1735
 8117SOL    HW135987   4.361   3.807   6.532 -2.1479 -3.8451  0.8742
 8117SOL    HW235988   4.223   3.836   6.550  0.3173 -2.2326  2.2121
 8118SOL     OW35989   4.206   2.873   4.673  0.3659  0.2935 -0.3788
 8118SOL    HW135990   4.176   2.839   4.758  0.0651  0.6954 -0.3223
 8118SOL    HW235991   4.123   2.880   4.626 -0.4424 -0.5113  0.9241
 8119SOL     OW35992   4.576   0.951   3.700  0.2604 -0.1734  0.9283
 8119SOL    HW135993   4.604   0.862   3.719  0.7097 -0.0704  0.7374
 8119SOL    HW235994   4.535   0.925   3.617  2.8161  1.6691 -0.9126
 8120SOL     OW35995   3.710   3.822   8.291 -0.1923  0.8243 -0.3354
 8120SOL    HW135996   3.762   3.899   8.313 -0.5290  1.3442 -1.3854
 8120SOL    HW235997   3.779   3.756   8.276 -0.6705  0.4633 -0.9198
 8121SOL     OW35998   4.161   4.366   3.097  0.1835  0.3729  0.0840
 8121SOL    HW135999   4.087   4.426   3.097 -0.7284 -0.7460 -0.1606
 8121SOL    HW236000   4.215   4.405   3.166 -1.4036  0.1125  1.4590
 8122SOL     OW36001   0.944   1.721   0.927 -0.3758  0.0273  0.1204
 8122SOL    HW136002   0.946   1.783   0.853 -0.7246  1.2972  1.1799
 8122SOL    HW236003   1.035   1.723   0.958 -0.6499  0.6485  0.8692
 8123SOL     OW36004   4.232   3.161   8.773 -0.1855 -0.3418  0.2485
 8123SOL    HW136005   4.289   3.097   8.815  2.2016  1.2330 -0.5119
 8123SOL    HW236006   4.216   3.115   8.691 -2.5482  0.7432  0.0954
 8124SOL     OW36007   2.430   3.035   5.418  0.0896 -0.4435  0.4796
 8124SOL    HW136008   2.402   3.121   5.389  0.5772 -0.2398  0.6103
 8124SOL    HW236009   2.452   2.991   5.336  2.9292  0.6079  0.7078
 8125SOL     OW36010   4.657   4.667   2.363 -0.1577 -0.2316  0.0296
 8125SOL    HW136011   4.577   4.700   2.322  0.1147  0.7803  0.3226
 8125SOL    HW236012   4.622   4.659   2.452  0.2138  0.6943  0.2581
 8126SOL     OW36013   0.821   0.120  13.113 -0.3761 -0.0361 -0.5061
 8126SOL    HW136014   0.781   0.064  13.179 -1.9755  1.2207 -0.4211
 8126SOL    HW236015   0.911   0.090  13.125 -0.5197 -0.9169 -1.6267
 8127SOL     OW36016   2.551   2.213   4.863 -0.6841 -0.7092  0.6738
 8127SOL    HW136017   2.504   2.136   4.895 -1.2135  0.9203  3.8021
 8127SOL    HW236018   2.582   2.256   4.943 -2.2378 -0.1513  0.9730
 8128SOL     OW36019   4.594   1.507   2.933  0.0310 -0.5982 -0.0363
 8128SOL    HW136020   4.631   1.556   2.860  0.0407  2.3258  1.9034
 8128SOL    HW236021   4.521   1.472   2.883  0.7099 -1.1307 -0.6443
 8129SOL     OW36022   1.597   1.467  12.912  0.0900 -0.1486  0.3284
 8129SOL    HW136023   1.606   1.435  12.822  1.8186  0.5875  0.2466
 8129SOL    HW236024   1.505   1.451  12.937  0.5168  0.7555  2.4782
 8130SOL     OW36025   0.507   3.916   4.204 -0.7232 -0.0687 -0.3898
 8130SOL    HW136026   0.565   3.989   4.225  1.7532 -1.7154 -1.5652
 8130SOL    HW236027   0.531   3.858   4.276 -2.8436 -1.0110 -0.4256
 8131SOL     OW36028   1.271   1.105  12.946 -0.2932  0.3032 -0.1624
 8131SOL    HW136029   1.339   1.038  12.938 -0.9193 -0.4811  1.0614
 8131SOL    HW236030   1.237   1.086  13.033  1.9292  0.0498  0.6617
 8132SOL     OW36031   1.426   1.707   3.711 -0.3337  0.3180 -0.2272
 8132SOL    HW136032   1.516   1.705   3.744 -0.8697  0.9556  1.2697
 8132SOL    HW236033   1.393   1.620   3.733  0.9466  0.0939  0.8610
 8133SOL     OW36034   3.330   2.171  13.691 -0.4021  0.1326 -0.5429
 8133SOL    HW136035   3.364   2.110  13.756  0.3803 -0.1731 -1.2469
 8133SOL    HW236036   3.278   2.216  13.758 -2.4250 -0.3101 -1.8048
 8134SOL     OW36037   4.556   2.770   3.859  0.0748 -0.3935 -0.2108
 8134SOL    HW136038   4.536   2.733   3.772 -2.5652  1.0448 -0.2176
 8134SOL    HW236039   4.529   2.699   3.917 -0.7438 -0.4863 -0.6993
 8135SOL     OW36040   3.880   2.060   1.579 -0.2881 -0.0828  0.1773
 8135SOL    HW136041   3.884   2.060   1.483 -4.1448 -0.8117  0.0254
 8135SOL    HW236042   3.786   2.072   1.587 -0.2942 -0.4559  0.6689
 8136SOL     OW36043   0.759   2.454   7.554 -0.3470 -0.0161 -0.2713
 8136SOL    HW136044   0.828   2.455   7.488  1.1850 -1.5072  1.2717
 8136SOL    HW236045   0.799   2.517   7.614 -3.2756  1.2146  0.3850
 8137SOL     OW36046   1.567   1.173  17.522  0.6533 -0.3662  0.1238
 8137SOL    HW136047   1.512   1.140  17.451  2.0856 -0.7572 -0.8092
 8137SOL    HW236048   1.524   1.256  17.544  1.6336  0.9993 -3.1112
 8138SOL     OW36049   1.089   2.178   6.033  0.8919  0.1191  0.6212
 8138SOL    HW136050   1.148   2.219   6.096 -0.3874 -0.2072  2.0490
 8138SOL    HW236051   1.064   2.107   6.092 -0.2224 -0.0598 -0.0540
 8139SOL     OW36052   1.721   3.676   3.583  0.1743 -0.5018 -0.2259
 8139SOL    HW136053   1.649   3.673   3.645  1.5621  1.9720  1.4687
 8139SOL    HW236054   1.733   3.581   3.571 -0.3327 -0.5237 -0.5864
 8140SOL     OW36055   2.538   1.946   0.490  0.1064  0.3902 -0.0087
 8140SOL    HW136056   2.587   2.029   0.494 -1.7557  1.4010  1.6442
 8140SOL    HW236057   2.456   1.985   0.459  0.9704  1.7996 -0.5328
 8141SOL     OW36058   3.251   1.814   5.190 -0.2856 -0.5622  0.1240
 8141SOL    HW136059   3.195   1.840   5.117  2.2716 -1.0058 -1.9592
 8141SOL    HW236060   3.182   1.765   5.237 -0.1411 -1.1548 -0.2838
 8142SOL     OW36061   4.482   3.531   5.625 -0.4156  0.1711  0.1228
 8142SOL    HW136062   4.404   3.480   5.648 -1.5682  1.3789 -1.0826
 8142SOL    HW236063   4.517   3.483   5.551 -2.1704  2.6433 -2.3199
 8143SOL     OW36064   1.709   2.281   7.333  0.0899  0.4057  0.1642
 8143SOL    HW136065   1.777   2.332   7.377 -0.8893  0.9240  1.1024
 8143SOL    HW236066   1.744   2.192   7.336  0.7351  0.7528  2.8586
 8144SOL     OW36067   2.709   2.162   1.544  0.4707 -0.0866  0.2206
 8144SOL    HW136068   2.655   2.111   1.604  2.4386 -1.2666  1.0103
 8144SOL    HW236069   2.721   2.239   1.599 -1.5505 -0.0682  0.6132
 8145SOL     OW36070   4.070   2.558   8.173 -0.0547 -0.2332 -0.1952
 8145SOL    HW136071   4.041   2.498   8.104 -1.4765  0.3738 -0.1081
 8145SOL    HW236072   4.158   2.588   8.147  0.1917 -0.3914  0.4576
 8146SOL     OW36073   3.595   2.291   7.576  0.4739  0.1294  0.0626
 8146SOL    HW136074   3.563   2.268   7.663 -0.9097 -1.5073 -0.8657
 8146SOL    HW236075   3.594   2.387   7.575  1.5368  0.1252 -0.8335
 8147SOL     OW36076   2.651   3.090   2.101  0.2404 -0.4738  0.5253
 8147SOL    HW136077   2.675   3.038   2.025  1.7298  0.1797  0.5475
 8147SOL    HW236078   2.574   3.130   2.059 -1.2221 -1.4240  2.2722
 8148SOL     OW36079   1.559   4.523   5.562  0.2835  0.0994  0.6563
 8148SOL    HW136080   1.596   4.587   5.501  0.0536 -1.0110 -0.6499
 8148SOL    HW236081   1.635   4.494   5.612  0.1578 -0.4045  0.5511
 8149SOL     OW36082   1.816   3.052  10.457  0.6147  0.1854 -0.1652
 8149SOL    HW136083   1.824   3.033  10.551  1.6617  3.0780  0.3410
 8149SOL    HW236084   1.771   3.136  10.464  1.0730  0.5109 -1.1772
 8150SOL     OW36085   0.682   1.374   6.705 -0.9114 -0.1689 -0.5072
 8150SOL    HW136086   0.617   1.426   6.751 -0.6897  0.1035 -0.5058
 8150SOL    HW236087   0.625   1.302   6.677  0.1438 -0.5175 -1.8149
 8151SOL     OW36088   3.374   3.544   1.172 -0.1691  0.0356 -0.2608
 8151SOL    HW136089   3.459   3.588   1.177  0.3346 -0.9746  0.0069
 8151SOL    HW236090   3.329   3.575   1.251 -0.9465 -0.6638 -0.4370
 8152SOL     OW36091   0.641   1.098  11.646 -0.4488 -0.1274  0.2520
 8152SOL    HW136092   0.596   1.074  11.727  1.3142 -2.1168  0.6350
 8152SOL    HW236093   0.598   1.182  11.628  0.7934 -0.2834 -3.3991
 8153SOL     OW36094   0.183   0.221  15.886  0.2794 -0.0981 -0.3925
 8153SOL    HW136095   0.228   0.230  15.802 -0.1696 -2.5858 -0.9020
 8153SOL    HW236096   0.214   0.133  15.904 -0.8820  0.0924  2.5516
 8154SOL     OW36097   4.147   3.074   4.422  0.4733 -0.3322  0.0085
 8154SOL    HW136098   4.120   2.982   4.421 -2.0953  0.3934  1.2672
 8154SOL    HW236099   4.062   3.108   4.394 -0.6716 -2.5995  0.7636
 8155SOL     OW36100   3.523   0.551   7.709 -0.1129 -0.2504  0.7129
 8155SOL    HW136101   3.548   0.627   7.762 -0.2174 -0.1410  0.6041
 8155SOL    HW236102   3.522   0.481   7.775  0.2886  0.0572  1.0495
 8156SOL     OW36103   0.769   3.900   6.607 -0.1983  0.4595  0.1445
 8156SOL    HW136104   0.725   3.955   6.672 -2.6215 -1.9331  0.5024
 8156SOL    HW236105   0.761   3.813   6.645  1.1895  0.2948  0.0466
 8157SOL     OW36106   0.666   3.865  15.317 -0.6345 -0.2934 -0.0586
 8157SOL    HW136107   0.634   3.819  15.395  1.4794 -0.7985  0.5347
 8157SOL    HW236108   0.587   3.902  15.279 -0.2766  1.4177  0.8613
 8158SOL     OW36109   4.392   1.503   8.775 -0.0622 -0.3235  0.0839
 8158SOL    HW136110   4.467   1.460   8.734 -0.0666  1.1835 -1.5207
 8158SOL    HW236111   4.322   1.447   8.740 -1.0747  1.1173 -0.1848
 8159SOL     OW36112   0.072   3.855  10.721 -0.3377  0.7530  0.5562
 8159SOL    HW136113   0.134   3.918  10.759 -1.4414  2.0630  0.1742
 8159SOL    HW236114   0.038   3.822  10.804  0.8978 -2.9654 -0.3963
 8160SOL     OW36115   0.029   1.673  16.064  0.8297 -0.1772 -0.2675
 8160SOL    HW136116   4.683   1.679  16.124  1.9023  1.2482  0.9322
 8160SOL    HW236117   0.053   1.580  16.066 -0.0573 -0.3683  2.1164
 8161SOL     OW36118   0.716   1.135   4.381  0.1157 -0.4620 -0.1683
 8161SOL    HW136119   0.711   1.120   4.476 -1.1177 -1.6053 -0.4008
 8161SOL    HW236120   0.626   1.115   4.354 -0.5133  1.7179  0.2842
 8162SOL     OW36121   2.133   1.163   2.389  0.3705  0.4963 -0.0573
 8162SOL    HW136122   2.048   1.202   2.410  0.7170  1.5322 -0.6178
 8162SOL    HW236123   2.141   1.097   2.458  0.4188 -0.2214 -0.7414
 8163SOL     OW36124   1.761   3.665   4.205 -0.0616 -0.4094  0.1284
 8163SOL    HW136125   1.692   3.630   4.261 -1.9382  0.0057 -1.8985
 8163SOL    HW236126   1.822   3.593   4.223  0.4070 -0.5647 -2.0991
 8164SOL     OW36127   3.915   0.448   7.535  0.2056 -0.3397  1.1853
 8164SOL    HW136128   3.901   0.532   7.577  1.1052  1.3922 -1.9492
 8164SOL    HW236129   3.824   0.420   7.533  0.1842 -0.1348 -0.8290
 8165SOL     OW36130   4.365   3.177   7.984 -0.4620 -0.1653  0.1596
 8165SOL    HW136131   4.404   3.118   7.920  2.2217  1.2315  0.4792
 8165SOL    HW236132   4.353   3.113   8.054  1.7700 -0.2886  0.4455
 8166SOL     OW36133   1.243   1.145   8.675  0.5724 -0.9463  0.1231
 8166SOL    HW136134   1.187   1.216   8.705  2.1897  0.2116  0.4011
 8166SOL    HW236135   1.177   1.076   8.672 -0.2993 -0.1136  0.2723
 8167SOL     OW36136   4.090   4.366  15.285 -0.1162 -0.2713  0.3734
 8167SOL    HW136137   4.113   4.340  15.196 -3.2463  0.3216 -0.6066
 8167SOL    HW236138   4.056   4.454  15.267  1.2235  0.1307 -0.2134
 8168SOL     OW36139   3.138   1.670   5.654  0.1789  0.3758  0.3822
 8168SOL    HW136140   3.112   1.604   5.590  0.4644  0.5429  0.0947
 8168SOL    HW236141   3.129   1.753   5.607  0.7603  1.3125  1.9176
 8169SOL     OW36142   3.349   3.341   4.307  0.2975  0.0253 -0.7170
 8169SOL    HW136143   3.399   3.308   4.382 -0.5809  0.8615  0.2541
 8169SOL    HW236144   3.258   3.314   4.322  0.2392  0.1583 -0.8284
 8170SOL     OW36145   1.928   1.493   4.674 -0.2376  0.1696 -0.1186
 8170SOL    HW136146   1.996   1.427   4.686 -1.2760 -1.3016 -2.2869
 8170SOL    HW236147   1.885   1.486   4.760 -1.5256  0.7380 -0.7062
 8171SOL     OW36148   1.582   4.547   0.902 -0.5473 -0.1073 -0.6950
 8171SOL    HW136149   1.618   4.589   0.824 -2.7120  0.3139 -1.4786
 8171SOL    HW236150   1.578   4.618   0.966  0.2908 -1.7954  1.2409
 8172SOL     OW36151   4.246   2.656  16.234 -0.2330 -0.3764  0.1814
 8172SOL    HW136152   4.251   2.741  16.190  1.7372 -1.9510 -2.6573
 8172SOL    HW236153   4.296   2.675  16.314  1.5216  1.3908 -1.3207
 8173SOL     OW36154   0.760   2.127   8.097 -0.6077  0.1297  0.3734
 8173SOL    HW136155   0.805   2.113   8.180 -0.1319  1.6626  0.3776
 8173SOL    HW236156   0.841   2.131   8.045  0.6473  0.7344  2.3876
 8174SOL     OW36157   1.661   3.310  11.119 -0.0567 -0.1959 -0.7265
 8174SOL    HW136158   1.702   3.246  11.176 -0.2220 -0.4306 -0.8711
 8174SOL    HW236159   1.569   3.306  11.143 -0.0902  1.0163 -0.6621
 8175SOL     OW36160   4.283   1.304   9.326  0.0551 -0.5767 -0.4705
 8175SOL    HW136161   4.289   1.309   9.421  0.4016  3.4028 -0.7338
 8175SOL    HW236162   4.214   1.238   9.326 -1.6423  1.2016 -0.9411
 8176SOL     OW36163   1.227   2.594  15.059 -0.6451 -0.3826 -0.1695
 8176SOL    HW136164   1.263   2.629  15.141 -0.9641 -1.2081  0.3208
 8176SOL    HW236165   1.257   2.659  14.995  1.0245  0.2401  1.2325
 8177SOL     OW36166   2.638   2.423   7.368 -0.1934 -0.5019 -0.4006
 8177SOL    HW136167   2.607   2.445   7.456  0.7618  1.2017 -0.4921
 8177SOL    HW236168   2.607   2.491   7.309  0.5446  0.0718 -0.1232
 8178SOL     OW36169   4.445   0.684  13.497  0.9601 -0.5482 -0.1405
 8178SOL    HW136170   4.527   0.639  13.479  1.7856  0.2819  1.5286
 8178SOL    HW236171   4.433   0.712  13.406  0.4291 -1.3490 -0.3135
 8179SOL     OW36172   4.536   0.496   5.620 -0.8076 -0.5161  0.3264
 8179SOL    HW136173   4.574   0.446   5.548 -2.2885 -1.8308  0.4618
 8179SOL    HW236174   4.442   0.502   5.605 -0.6945 -0.9559 -0.5359
 8180SOL     OW36175   2.163   4.566   2.553  0.1054  0.0522 -0.2580
 8180SOL    HW136176   2.159   4.630   2.624  0.3836 -0.4056  0.1724
 8180SOL    HW236177   2.163   4.623   2.476  2.1999 -0.0843 -0.3669
 8181SOL     OW36178   0.902   4.026  10.044 -0.4326 -0.0865 -0.1730
 8181SOL    HW136179   0.873   3.953   9.989 -1.0781  2.6384 -3.4616
 8181SOL    HW236180   0.841   4.015  10.117  0.8890  1.0520  1.1033
 8182SOL     OW36181   2.537   3.196   8.490 -0.7024 -0.3190  0.6950
 8182SOL    HW136182   2.593   3.153   8.425  1.5610  0.4062  2.2031
 8182SOL    HW236183   2.539   3.133   8.562  3.1201 -0.1545  0.7329
 8183SOL     OW36184   1.361   3.120   7.251  0.0407  0.1982 -0.1668
 8183SOL    HW136185   1.401   3.065   7.184  1.5744  0.0603  0.8611
 8183SOL    HW236186   1.444   3.147   7.292 -0.3534 -0.3345  0.9830
 8184SOL     OW36187   0.305   3.654   8.108  0.2068  0.0529 -0.2780
 8184SOL    HW136188   0.215   3.632   8.082 -0.3252  0.5046  1.1623
 8184SOL    HW236189   0.294   3.632   8.201 -0.3887  1.9823  0.0946
 8185SOL     OW36190   4.124   4.216  11.231 -0.4864  0.7448  0.7812
 8185SOL    HW136191   4.105   4.246  11.142  0.6553  0.9177  0.5958
 8185SOL    HW236192   4.085   4.290  11.277 -2.3773  0.1960  0.0652
 8186SOL     OW36193   2.506   2.331   6.380 -0.3901  0.2337  0.4640
 8186SOL    HW136194   2.512   2.243   6.341 -2.0624  1.5033 -2.6263
 8186SOL    HW236195   2.429   2.373   6.342 -0.9179 -0.8145  0.3582
 8187SOL     OW36196   2.645   2.923   5.051 -0.0392 -0.5572  0.2112
 8187SOL    HW136197   2.575   2.918   5.115  0.1209  0.1962  0.4537
 8187SOL    HW236198   2.687   2.843   5.081  0.5731 -0.7780 -1.2249
 8188SOL     OW36199   1.922   3.634  11.665 -0.0712 -0.0895  0.8050
 8188SOL    HW136200   1.919   3.557  11.721  1.1383  0.1379  1.1799
 8188SOL    HW236201   1.869   3.621  11.586 -1.0593 -1.4637  1.6890
 8189SOL     OW36202   3.647   2.174   5.691  0.1510  0.3022 -0.7568
 8189SOL    HW136203   3.561   2.196   5.727  1.0941  2.0024  0.4287
 8189SOL    HW236204   3.625   2.128   5.610  0.5026 -0.8941 -0.1750
 8190SOL     OW36205   3.988   1.646  14.799 -0.3048 -0.0302 -0.2669
 8190SOL    HW136206   4.064   1.695  14.771 -0.7477  0.5253 -0.5024
 8190SOL    HW236207   4.030   1.575  14.848  1.3891  1.1798  0.0127
 8191SOL     OW36208   3.284   3.027   2.672 -0.0378  0.3729 -0.0524
 8191SOL    HW136209   3.342   3.095   2.707 -0.3289  0.3477  0.4668
 8191SOL    HW236210   3.313   3.024   2.581  0.3191  1.8980  0.0054
 8192SOL     OW36211   2.164   2.880   9.589  0.4354 -0.0815 -0.3128
 8192SOL    HW136212   2.206   2.919   9.666 -2.4689  1.1309  0.6579
 8192SOL    HW236213   2.223   2.809   9.564  1.4785 -0.1234  2.2697
 8193SOL     OW36214   1.274   2.541   9.110 -0.1880 -0.2213 -0.1186
 8193SOL    HW136215   1.262   2.611   9.174  0.3432 -0.9499  0.7689
 8193SOL    HW236216   1.354   2.505   9.146  0.3208 -2.0806 -3.1152
 8194SOL     OW36217   4.441   0.388   4.071 -0.0555  0.3939  0.4992
 8194SOL    HW136218   4.367   0.372   4.129 -2.1559  0.1396 -2.2362
 8194SOL    HW236219   4.386   0.409   3.996  1.8672 -0.2208 -1.1068
 8195SOL     OW36220   4.086   0.499   6.946 -0.3757 -0.0905 -0.2372
 8195SOL    HW136221   4.174   0.511   6.910  0.6116 -1.1086  1.8457
 8195SOL    HW236222   4.074   0.405   6.943 -0.2638 -0.0116 -3.0428
 8196SOL     OW36223   1.056   3.107   4.659 -0.2965 -0.2974  0.2053
 8196SOL    HW136224   0.983   3.045   4.662 -0.6058  0.0384 -0.2713
 8196SOL    HW236225   1.013   3.181   4.614  0.6776 -0.2417 -0.6266
 8197SOL     OW36226   4.212   2.188   5.861  0.0466 -0.0090  0.7384
 8197SOL    HW136227   4.217   2.229   5.947  2.4294 -0.6136  0.8885
 8197SOL    HW236228   4.141   2.125   5.874 -0.8753  0.6845 -0.8681
 8198SOL     OW36229   1.508   2.911   4.771 -0.4986  0.3555 -0.4518
 8198SOL    HW136230   1.438   2.944   4.713 -0.2566 -0.7043 -1.3574
 8198SOL    HW236231   1.466   2.847   4.828  0.2205 -0.1982 -0.5408
 8199SOL     OW36232   1.441   0.886   8.243 -0.3112  0.0018 -0.6183
 8199SOL    HW136233   1.481   0.806   8.209 -2.7089 -1.6153  0.4110
 8199SOL    HW236234   1.450   0.876   8.338 -0.2283  0.6394 -0.5598
 8200SOL     OW36235   2.585   3.643   8.650  0.0672  0.4392 -0.2593
 8200SOL    HW136236   2.574   3.679   8.562  0.0314  3.2727  0.9226
 8200SOL    HW236237   2.530   3.703   8.700  0.4011  2.1622 -1.9559
 8201SOL     OW36238   1.198   0.181   3.246  0.1337  0.6935  0.3196
 8201SOL    HW136239   1.146   0.194   3.167 -0.5133 -0.2214  0.5942
 8201SOL    HW236240   1.210   0.273   3.270  0.0898  0.4482  1.3026
 8202SOL     OW36241   1.731   3.974  17.128 -0.3354  0.1197  0.5661
 8202SOL    HW136242   1.693   4.038  17.189 -1.0686 -0.9017  1.1762
 8202SOL    HW236243   1.674   3.988  17.053  0.7065 -1.2677 -0.4798
 8203SOL     OW36244   1.188   2.135  10.428  0.3965  0.7703 -0.0786
 8203SOL    HW136245   1.173   2.217  10.475  3.6525  0.7817  0.9499
 8203SOL    HW236246   1.250   2.172  10.365  1.2758  1.3526  1.1197
 8204SOL     OW36247   3.921   0.180   6.654  0.4257  0.0774  0.3812
 8204SOL    HW136248   3.851   0.237   6.625 -0.2540  0.2808  2.3829
 8204SOL    HW236249   3.983   0.180   6.582  0.0866 -2.7367  0.0670
 8205SOL     OW36250   1.692   1.017   4.587  0.2786 -0.7583 -0.0941
 8205SOL    HW136251   1.722   0.959   4.518  1.5647 -1.6753  1.2352
 8205SOL    HW236252   1.715   1.102   4.550  1.7677 -1.5748 -1.0680
 8206SOL     OW36253   0.440   4.497   8.268  0.2354 -0.0355 -0.2945
 8206SOL    HW136254   0.507   4.448   8.316  0.0683 -0.3615 -0.3896
 8206SOL    HW236255   0.392   4.519   8.347 -1.9945 -0.6370 -1.4799
 8207SOL     OW36256   4.573   4.356   8.647  0.1947 -0.2067 -0.2479
 8207SOL    HW136257   4.546   4.373   8.557 -0.9093 -2.1112 -0.2695
 8207SOL    HW236258   4.646   4.296   8.630  1.2910  0.8454  0.7296
 8208SOL     OW36259   0.956   4.391   7.835 -0.4126  0.2643  0.0001
 8208SOL    HW136260   0.996   4.470   7.799 -0.3834  0.0056 -0.5297
 8208SOL    HW236261   1.004   4.374   7.916 -0.4096 -0.8524 -0.2319
 8209SOL     OW36262   2.001   2.856   5.134  0.6406  0.5710 -0.6774
 8209SOL    HW136263   1.926   2.902   5.096 -0.1199 -0.3469 -0.2580
 8209SOL    HW236264   2.062   2.851   5.060  1.9042  0.0891  0.4043
 8210SOL     OW36265   1.564   1.487   5.151  0.3929 -0.1192 -0.0095
 8210SOL    HW136266   1.512   1.466   5.228 -1.4286 -2.1923 -1.8147
 8210SOL    HW236267   1.605   1.402   5.136 -1.0593 -0.8732  0.3117
 8211SOL     OW36268   3.532   0.697   0.339 -0.0724  0.0261  0.3994
 8211SOL    HW136269   3.621   0.708   0.307 -0.5933  1.5145 -0.5255
 8211SOL    HW236270   3.494   0.783   0.323 -0.5340 -0.3294 -0.3986
 8212SOL     OW36271   4.368   3.311   1.934  0.6618  0.0212  0.3456
 8212SOL    HW136272   4.440   3.273   1.883  1.3611  1.2194  0.4314
 8212SOL    HW236273   4.384   3.268   2.018  0.2699 -2.3408 -0.8010
 8213SOL     OW36274   0.064   2.487   8.533  0.5842  0.0790 -0.1935
 8213SOL    HW136275   0.107   2.456   8.453 -0.9600 -0.0650 -0.9693
 8213SOL    HW236276   0.115   2.565   8.557 -0.2016  0.4039  0.4171
 8214SOL     OW36277   1.523   4.378  17.473  0.0069 -0.3351 -0.0915
 8214SOL    HW136278   1.483   4.312  17.530 -0.0042  1.4314  1.9419
 8214SOL    HW236279   1.446   4.433  17.464  0.9447  0.8433 -0.8776
 8215SOL     OW36280   2.102   3.375  13.070 -0.1372 -0.3303  0.3926
 8215SOL    HW136281   2.186   3.335  13.094 -0.2623 -1.4577 -1.0633
 8215SOL    HW236282   2.066   3.383  13.159  0.4190 -0.2664  0.6100
 8216SOL     OW36283   3.563   3.601   8.151 -0.6052 -0.2610  0.0374
 8216SOL    HW136284   3.626   3.537   8.120  1.0938  1.4376 -0.0022
 8216SOL    HW236285   3.596   3.684   8.117  1.1947  0.1528  2.7860
 8217SOL     OW36286   0.037   3.827   8.237 -0.2001  0.4800  0.0571
 8217SOL    HW136287   0.017   3.749   8.185 -0.5998 -0.6602  1.9194
 8217SOL    HW236288   0.082   3.878   8.170 -3.0391  3.1953  0.2032
 8218SOL     OW36289   2.998   1.266   4.117  0.0023 -0.0666  0.2955
 8218SOL    HW136290   2.970   1.251   4.026 -0.0763  0.4603  0.2351
 8218SOL    HW236291   3.060   1.197   4.139  0.4170  0.2913  0.2392
 8219SOL     OW36292   0.048   0.659   0.380 -0.2332  0.2334 -0.2421
 8219SOL    HW136293   0.002   0.744   0.379 -0.2854  0.2198  1.0106
 8219SOL    HW236294   0.023   0.636   0.291 -2.3024  0.7404  0.1948
 8220SOL     OW36295   3.371   0.586   8.629  0.1098 -0.4222 -0.7059
 8220SOL    HW136296   3.392   0.632   8.710 -1.6204  1.9582 -1.6255
 8220SOL    HW236297   3.309   0.647   8.589 -1.1481 -1.3903 -0.2434
 8221SOL     OW36298   2.876   0.040   5.131 -0.0484 -0.2244 -0.4871
 8221SOL    HW136299   2.806   0.073   5.188  0.4457 -1.8038  1.0408
 8221SOL    HW236300   2.915   0.123   5.103 -0.9997  0.4236  0.0814
 8222SOL     OW36301   0.529   1.716   1.695  0.6820  0.4847  0.1292
 8222SOL    HW136302   0.545   1.653   1.765  0.9505  1.1009  0.6217
 8222SOL    HW236303   0.539   1.793   1.750  0.9339  0.9226 -0.5289
 8223SOL     OW36304   4.455   2.038   5.792 -0.1089 -0.6922 -0.6603
 8223SOL    HW136305   4.378   2.095   5.796  0.0813 -0.5123  0.4596
 8223SOL    HW236306   4.514   2.065   5.863 -0.5764 -0.8178 -0.2234
 8224SOL     OW36307   2.290   0.890  14.636  0.2963  0.2712  0.3311
 8224SOL    HW136308   2.233   0.814  14.626  0.0883  0.3409  1.0024
 8224SOL    HW236309   2.333   0.911  14.552 -1.5377 -1.5321 -1.0618
 8225SOL     OW36310   3.381   0.237   2.655  0.2208 -0.2621  0.1404
 8225SOL    HW136311   3.392   0.151   2.695 -2.9326 -1.3002 -1.2476
 8225SOL    HW236312   3.413   0.221   2.566  0.2423  0.1764  0.0703
 8226SOL     OW36313   4.632   2.143   9.168  0.7724  0.4682 -0.0364
 8226SOL    HW136314   4.583   2.135   9.250  0.0587  0.8078 -0.4332
 8226SOL    HW236315   4.552   2.151   9.115  1.6500 -1.5450 -1.6853
 8227SOL     OW36316   0.009   2.893   6.968 -0.0301 -0.2932 -0.8438
 8227SOL    HW136317   0.063   2.815   6.984  0.6400  0.2340 -0.5579
 8227SOL    HW236318   4.650   2.858   6.957  0.0903 -1.4886  2.0027
 8228SOL     OW36319   1.670   1.241   7.136 -0.4686 -0.0857 -0.4241
 8228SOL    HW136320   1.653   1.232   7.042 -0.8468  0.0595 -0.3676
 8228SOL    HW236321   1.631   1.160   7.168  0.9154 -1.0410 -1.1332
 8229SOL     OW36322   1.594   2.391   3.944  0.3231  0.6578  0.0872
 8229SOL    HW136323   1.541   2.369   4.021  0.7945  0.3311  0.3185
 8229SOL    HW236324   1.522   2.427   3.892  0.1708 -0.9132 -0.7723
 8230SOL     OW36325   2.218   2.138   8.757 -0.3200  0.3440  0.3114
 8230SOL    HW136326   2.240   2.108   8.668 -0.9433 -0.6164  0.4843
 8230SOL    HW236327   2.139   2.086   8.768 -0.7797  1.2070  1.0410
 8231SOL     OW36328   1.123   1.754   4.920  0.1183 -0.2319 -0.6990
 8231SOL    HW136329   1.039   1.746   4.966  1.7437 -3.4045  1.7404
 8231SOL    HW236330   1.153   1.829   4.971 -0.0233 -1.1309  0.7142
 8232SOL     OW36331   2.185   4.242   6.644  0.1994  0.1128 -0.4029
 8232SOL    HW136332   2.230   4.176   6.592  0.5354  0.2342 -0.2650
 8232SOL    HW236333   2.254   4.264   6.706  0.2198 -3.3252  0.8294
 8233SOL     OW36334   3.494   4.558  15.296 -0.1019  0.1335 -0.6360
 8233SOL    HW136335   3.443   4.619  15.350 -0.2693 -0.4536 -0.1342
 8233SOL    HW236336   3.421   4.527  15.243 -0.3056  0.0242 -0.2935
 8234SOL     OW36337   3.421   3.717  16.192 -1.0956  0.0151 -0.1270
 8234SOL    HW136338   3.361   3.703  16.266  0.4924 -1.7335  0.8304
 8234SOL    HW236339   3.492   3.655  16.208 -0.2079  0.8453 -0.8196
 8235SOL     OW36340   4.413   2.751   2.699 -0.4489  0.5675 -0.1964
 8235SOL    HW136341   4.347   2.747   2.767 -1.9834 -2.9321 -1.8976
 8235SOL    HW236342   4.360   2.725   2.623 -0.7973  0.2602  0.1538
 8236SOL     OW36343   1.939   1.757   8.666 -0.4083 -0.4435 -0.2103
 8236SOL    HW136344   1.866   1.695   8.670 -0.3806 -0.4565  0.1292
 8236SOL    HW236345   2.019   1.714   8.638  1.4832  0.7057  3.3576
 8237SOL     OW36346   3.556   4.701  10.334  0.3162  0.2604 -0.0141
 8237SOL    HW136347   3.551   4.606  10.342  3.0373  0.3614  2.9895
 8237SOL    HW236348   3.482   4.716  10.275  0.0217 -1.7864 -0.1467
 8238SOL     OW36349   1.991   0.534   8.029  0.0273  0.5951  0.4470
 8238SOL    HW136350   1.963   0.625   8.031 -1.7671  0.0195  1.4038
 8238SOL    HW236351   2.054   0.541   7.957  0.3242  0.7727  0.7275
 8239SOL     OW36352   1.106   1.815   6.816 -0.1639 -0.1076  0.3384
 8239SOL    HW136353   1.069   1.903   6.812  1.6376  0.5597 -1.3297
 8239SOL    HW236354   1.191   1.824   6.772  0.3788 -2.3967  0.8820
 8240SOL     OW36355   3.627   1.027   2.090  0.0134 -0.2269 -0.2421
 8240SOL    HW136356   3.647   1.117   2.116 -1.6936  0.1621 -0.2853
 8240SOL    HW236357   3.533   1.020   2.106 -0.0289 -0.6240 -0.6439
 8241SOL     OW36358   4.648   4.617   5.300  0.1900 -0.0362 -0.6412
 8241SOL    HW136359   4.576   4.555   5.301  0.0845  0.0781 -1.8435
 8241SOL    HW236360   4.716   4.564   5.259 -1.0161  0.0141 -2.6819
 8242SOL     OW36361   3.609   4.049  15.631  0.5873 -0.0344 -0.2139
 8242SOL    HW136362   3.658   4.027  15.710  1.6445 -0.9602 -1.1287
 8242SOL    HW236363   3.527   4.066  15.677  1.1384  3.0810 -0.3983
 8243SOL     OW36364   2.078   0.110   4.164 -0.4141 -0.7460 -0.0603
 8243SOL    HW136365   2.026   0.165   4.106 -2.8767  0.1474  2.9814
 8243SOL    HW236366   2.006   0.053   4.192 -0.0568 -0.5039  1.3609
 8244SOL     OW36367   4.504   2.891   1.282 -0.0482  0.5839 -0.0151
 8244SOL    HW136368   4.544   2.885   1.369  0.7383  1.3496 -0.3321
 8244SOL    HW236369   4.436   2.956   1.304  0.4931  1.0876  0.1689
 8245SOL     OW36370   0.115   0.174   8.345  0.3399  0.2719  0.2788
 8245SOL    HW136371   0.040   0.233   8.357 -0.0934 -0.2529  0.1676
 8245SOL    HW236372   0.079   0.125   8.271  0.5506  3.8260 -2.2016
 8246SOL     OW36373   3.244   3.535   7.360 -0.2619 -0.8430  0.1473
 8246SOL    HW136374   3.204   3.567   7.279  2.0437 -3.7731 -2.1449
 8246SOL    HW236375   3.181   3.465   7.377 -0.6198 -1.0066 -1.8795
 8247SOL     OW36376   0.926   0.691   1.922  0.3657 -0.6334 -0.4596
 8247SOL    HW136377   0.991   0.655   1.863  1.7386 -1.2218  1.4081
 8247SOL    HW236378   0.885   0.760   1.870 -1.4415 -1.5720 -0.3061
 8248SOL     OW36379   2.789   1.185  11.341  0.2923 -0.0048  0.2249
 8248SOL    HW136380   2.746   1.249  11.398  0.2834 -0.4308  0.6984
 8248SOL    HW236381   2.878   1.220  11.336  0.2832 -0.2884 -1.6195
 8249SOL     OW36382   2.104   2.871   7.964 -0.1597  0.1921  0.0878
 8249SOL    HW136383   2.088   2.824   8.045  1.2393  0.7148  0.6583
 8249SOL    HW236384   2.048   2.948   7.973 -1.3647 -1.1091  3.6618
 8250SOL     OW36385   4.511   1.839   6.937 -0.2531 -0.5269  0.5703
 8250SOL    HW136386   4.418   1.859   6.940 -0.3927 -0.7662 -2.0712
 8250SOL    HW236387   4.541   1.904   7.000 -3.0203 -0.9236  2.2827
 8251SOL     OW36388   1.591   3.293   8.474 -0.3065 -0.3690  0.0847
 8251SOL    HW136389   1.538   3.267   8.399  0.6324 -0.1833 -0.6336
 8251SOL    HW236390   1.547   3.250   8.547  0.8479 -1.1292  0.3363
 8252SOL     OW36391   4.171   4.480   3.363 -0.4098 -0.1490  0.1514
 8252SOL    HW136392   4.087   4.525   3.360 -0.1188  0.5037  1.6076
 8252SOL    HW236393   4.150   4.394   3.400  0.0009 -0.1850  0.3013
 8253SOL     OW36394   0.614   1.477  13.468  0.3260  0.3025  0.1342
 8253SOL    HW136395   0.523   1.486  13.495  1.0168  2.1411  1.8873
 8253SOL    HW236396   0.611   1.411  13.398 -3.2989  0.9698 -0.3562
 8254SOL     OW36397   2.906   4.128  17.080  0.3108  0.4007  0.4306
 8254SOL    HW136398   2.872   4.039  17.077 -0.8786  0.9143 -1.0365
 8254SOL    HW236399   2.844   4.166  17.143 -1.0765 -2.2867  0.6834
 8255SOL     OW36400   3.338   4.298  16.469  0.3519 -0.6026  0.3264
 8255SOL    HW136401   3.278   4.226  16.487 -0.9478  0.4344  0.1869
 8255SOL    HW236402   3.351   4.351  16.547  0.4356 -0.3039  0.1102
 8256SOL     OW36403   2.670   0.323   6.437 -0.0257  0.3364 -0.3644
 8256SOL    HW136404   2.612   0.378   6.385 -3.2785 -3.1615 -0.3818
 8256SOL    HW236405   2.670   0.246   6.381 -0.8975  1.0675 -1.3603
 8257SOL     OW36406   0.916   2.684   5.276 -0.4492  0.2684  0.1572
 8257SOL    HW136407   1.012   2.683   5.279 -0.3909  0.1410 -1.6508
 8257SOL    HW236408   0.902   2.777   5.296  0.5355  0.4653 -0.0521
 8258SOL     OW36409   1.556   3.680  10.766  0.2556  0.5402 -0.2109
 8258SOL    HW136410   1.574   3.753  10.706 -0.6576  2.2152  1.5573
 8258SOL    HW236411   1.517   3.616  10.707  0.0801  0.0055  0.4956
 8259SOL     OW36412   0.559   3.226   8.250  0.0324 -0.0751  0.3233
 8259SOL    HW136413   0.526   3.303   8.296  2.4242  0.5182  1.0180
 8259SOL    HW236414   0.528   3.237   8.160  0.8832 -1.1394 -0.0989
 8260SOL     OW36415   0.676   0.521   6.492  0.2147  0.3754 -0.3061
 8260SOL    HW136416   0.645   0.570   6.567  0.4313  0.2520 -0.1376
 8260SOL    HW236417   0.653   0.585   6.424 -1.3806 -0.3024 -0.4284
 8261SOL     OW36418   1.873   3.458   7.758  0.1093 -0.0033 -0.1151
 8261SOL    HW136419   1.851   3.414   7.840 -2.0247  0.4393 -0.4568
 8261SOL    HW236420   1.969   3.460   7.767  0.2440 -1.0197 -1.2429
 8262SOL     OW36421   0.676   2.367   6.257  0.1826  0.5734  0.6711
 8262SOL    HW136422   0.626   2.328   6.186  1.2730  1.0659 -0.3776
 8262SOL    HW236423   0.733   2.291   6.272 -2.6801 -1.5252  0.7510
 8263SOL     OW36424   2.393   4.445   7.083  0.0222 -0.0114  0.2897
 8263SOL    HW136425   2.465   4.501   7.111  0.3601 -0.1199 -0.3718
 8263SOL    HW236426   2.436   4.361   7.099 -0.3916 -0.5219 -1.2770
 8264SOL     OW36427   0.573   0.918  14.120 -0.5372  0.3993  0.6133
 8264SOL    HW136428   0.619   0.837  14.141 -1.4031 -0.0865  0.6506
 8264SOL    HW236429   0.544   0.952  14.205 -2.1435 -2.4454  1.1797
 8265SOL     OW36430   0.351   3.490  16.540 -0.1015 -0.0888  0.2072
 8265SOL    HW136431   0.287   3.500  16.611  0.7472  0.2537  0.9176
 8265SOL    HW236432   0.380   3.581  16.549  1.5963 -0.7216  1.0791
 8266SOL     OW36433   3.870   0.637  12.701 -0.8737 -0.1112 -0.5581
 8266SOL    HW136434   3.926   0.697  12.750 -1.7142 -1.0020  1.5046
 8266SOL    HW236435   3.908   0.549  12.705 -0.1299  0.1633 -1.7431
 8267SOL     OW36436   3.755   4.497  11.816  0.0694  0.2242 -0.1891
 8267SOL    HW136437   3.691   4.558  11.851 -1.0894 -1.6386  0.9303
 8267SOL    HW236438   3.737   4.426  11.878 -1.2224  0.5344 -0.2245
 8268SOL     OW36439   4.185   2.853   6.864  0.2247  0.1850  0.7442
 8268SOL    HW136440   4.162   2.890   6.949  0.7808 -1.1353  1.4769
 8268SOL    HW236441   4.114   2.897   6.817  1.4278  0.0174 -1.2008
 8269SOL     OW36442   3.752   4.594  16.333  0.3791  0.5218 -0.0434
 8269SOL    HW136443   3.688   4.550  16.277 -1.7198  0.4942  2.3956
 8269SOL    HW236444   3.720   4.559  16.416  0.1041 -2.3622 -1.3342
 8270SOL     OW36445   0.062   0.435  14.630 -0.4292  0.4068 -0.2691
 8270SOL    HW136446   0.089   0.468  14.544  2.5390  0.9202  0.8433
 8270SOL    HW236447   4.705   0.477  14.627 -0.8082 -0.1950  2.2570
 8271SOL     OW36448   0.505   2.355   9.027 -0.0629 -0.2674  0.2711
 8271SOL    HW136449   0.536   2.337   8.938 -1.2707  2.1343 -0.6180
 8271SOL    HW236450   0.427   2.402   9.000  0.3226 -0.5762 -1.3611
 8272SOL     OW36451   1.127   4.263  17.419  0.0049  0.2072  0.5576
 8272SOL    HW136452   1.189   4.335  17.416 -0.5025  0.6088 -0.1550
 8272SOL    HW236453   1.082   4.259  17.334 -0.1627  2.4472  0.5435
 8273SOL     OW36454   1.301   2.204   2.237  0.1293 -0.3502  0.0920
 8273SOL    HW136455   1.333   2.125   2.281 -2.5992 -1.6272 -0.1892
 8273SOL    HW236456   1.306   2.272   2.304 -0.5520 -0.3494  0.1444
 8274SOL     OW36457   2.456   0.603   5.340  0.3439  0.0690  0.1137
 8274SOL    HW136458   2.377   0.627   5.389  0.3491 -1.0523  0.6721
 8274SOL    HW236459   2.519   0.564   5.400  2.2581 -0.3223 -2.1417
 8275SOL     OW36460   2.698   3.544  15.453 -0.0424 -0.1096  0.2001
 8275SOL    HW136461   2.613   3.565  15.413 -0.1702  0.8628  0.9724
 8275SOL    HW236462   2.735   3.631  15.471  0.2367 -0.4691  1.4188
 8276SOL     OW36463   3.142   1.901   3.000 -0.2859  0.0302  0.6732
 8276SOL    HW136464   3.090   1.838   3.049  0.6007 -0.8660  0.4456
 8276SOL    HW236465   3.222   1.905   3.051 -0.0235  1.0810  0.1869
 8277SOL     OW36466   1.102   1.487   4.542  0.3765 -0.1341  0.3732
 8277SOL    HW136467   1.042   1.452   4.608 -1.3683  2.2532  0.0402
 8277SOL    HW236468   1.049   1.561   4.511 -0.1689 -0.3751  0.7313
 8278SOL     OW36469   3.782   2.715  16.875  0.5716  0.2210 -0.3898
 8278SOL    HW136470   3.750   2.628  16.852  1.0268  0.1022 -0.5789
 8278SOL    HW236471   3.749   2.723  16.964 -0.7914 -0.0938 -0.8554
 8279SOL     OW36472   3.075   0.142   2.076  0.3713 -0.0354  0.5241
 8279SOL    HW136473   3.158   0.099   2.094  0.6639  1.0373  1.7443
 8279SOL    HW236474   3.052   0.163   2.167  0.7941  0.0147  0.6179
 8280SOL     OW36475   4.438   2.235   7.044  0.2708  0.5167  0.2215
 8280SOL    HW136476   4.469   2.150   7.075 -2.6153 -1.5595 -2.7152
 8280SOL    HW236477   4.346   2.225   7.068  0.1388 -1.5630 -1.2291
 8281SOL     OW36478   0.662   1.292   8.884 -0.2670  0.0402 -0.0591
 8281SOL    HW136479   0.648   1.321   8.794 -0.2769 -1.4606 -0.5451
 8281SOL    HW236480   0.733   1.227   8.878 -1.5201 -1.2528 -0.9017
 8282SOL     OW36481   2.719   3.722   3.355  0.3271  0.7785 -0.1128
 8282SOL    HW136482   2.783   3.721   3.284  0.3646 -0.4223 -0.0633
 8282SOL    HW236483   2.756   3.666   3.423 -1.5771 -0.9194 -0.4474
 8283SOL     OW36484   3.333   2.531   3.179  0.4791 -0.2771  0.1443
 8283SOL    HW136485   3.281   2.517   3.258 -0.6092 -0.8852 -0.6800
 8283SOL    HW236486   3.264   2.543   3.114  1.2938 -0.2653 -0.7256
 8284SOL     OW36487   3.493   0.969  15.920  0.3343 -0.0417 -0.2946
 8284SOL    HW136488   3.481   0.903  15.989 -2.1526 -0.9604 -1.6395
 8284SOL    HW236489   3.417   0.945  15.868 -0.9417 -0.2415  1.6473
 8285SOL     OW36490   3.918   3.058  12.197 -0.3968  0.3790  0.4159
 8285SOL    HW136491   3.827   3.074  12.171 -0.5908 -1.1348  0.1956
 8285SOL    HW236492   3.916   2.964  12.213  1.1219  0.0577 -1.1847
 8286SOL     OW36493   4.040   4.393  16.653 -0.0998 -0.0201  0.3759
 8286SOL    HW136494   4.117   4.344  16.621  0.0282 -1.1444  2.4163
 8286SOL    HW236495   3.973   4.335  16.618 -0.7852  0.7078  0.5028
 8287SOL     OW36496   4.434   2.520   0.512 -0.7164 -0.2587  0.1758
 8287SOL    HW136497   4.414   2.452   0.448  0.9474 -1.3851  0.8277
 8287SOL    HW236498   4.396   2.594   0.465 -0.7006  0.4826  1.3442
 8288SOL     OW36499   2.107   2.937   2.314  0.1608  0.3877  0.1490
 8288SOL    HW136500   2.187   2.941   2.367 -0.5855 -0.9301  1.3621
 8288SOL    HW236501   2.143   2.972   2.232  1.3071  0.0757  0.5066
 8289SOL     OW36502   0.949   2.860   5.009 -0.1729  0.5700  0.2527
 8289SOL    HW136503   0.897   2.816   4.942 -0.1801  1.0715 -0.0676
 8289SOL    HW236504   0.887   2.920   5.049 -1.4639  1.0496 -2.4722
 8290SOL     OW36505   0.334   1.688   3.918 -0.0800 -0.2953  0.2977
 8290SOL    HW136506   0.330   1.779   3.887  1.9246 -0.6618 -1.0452
 8290SOL    HW236507   0.365   1.644   3.839  1.9928 -2.1680  2.1675
 8291SOL     OW36508   2.992   0.946  10.386  0.3046 -0.3999 -0.3661
 8291SOL    HW136509   3.069   0.968  10.333  1.0856 -0.5215  0.7161
 8291SOL    HW236510   2.975   1.030  10.429  7.3214  0.6433  0.3448
 8292SOL     OW36511   3.053   0.522   7.245 -0.1459  0.3978 -0.7903
 8292SOL    HW136512   3.047   0.441   7.195  0.7154 -0.8822  1.1653
 8292SOL    HW236513   3.115   0.581   7.201 -1.1745  1.4297 -0.8680
 8293SOL     OW36514   3.773   2.102   9.647 -0.3390  0.4393 -0.3948
 8293SOL    HW136515   3.807   2.105   9.736 -1.1844 -0.6238 -0.0417
 8293SOL    HW236516   3.694   2.050   9.658  1.1614 -1.8151 -0.1763
 8294SOL     OW36517   2.083   0.788   8.595  0.3250  0.5222  0.1510
 8294SOL    HW136518   2.097   0.742   8.678 -2.4503 -0.0838  0.3081
 8294SOL    HW236519   2.003   0.838   8.614 -1.4485 -1.4600 -1.9999
 8295SOL     OW36520   3.840   0.443   2.712 -0.0355 -0.1116 -0.0702
 8295SOL    HW136521   3.841   0.388   2.634  0.5742  0.5543 -0.5421
 8295SOL    HW236522   3.848   0.530   2.672 -0.7522  0.4193  0.9534
 8296SOL     OW36523   1.048   3.127   8.007 -0.6089 -0.6152  0.0566
 8296SOL    HW136524   1.006   3.188   7.946 -0.3787 -1.5629 -1.0532
 8296SOL    HW236525   1.041   3.184   8.083 -1.5773 -0.5408 -0.0822
 8297SOL     OW36526   0.887   2.394   5.691  0.6019 -0.1009 -0.6310
 8297SOL    HW136527   0.966   2.350   5.661 -0.8932 -0.2835 -4.2677
 8297SOL    HW236528   0.881   2.360   5.780  1.9864  1.2508 -0.0118
 8298SOL     OW36529   0.119   1.572  14.324 -0.5048 -0.5224 -0.6114
 8298SOL    HW136530   0.135   1.625  14.246  0.7137 -0.8089 -0.5597
 8298SOL    HW236531   0.024   1.583  14.325 -0.6079 -1.3993 -0.4972
 8299SOL     OW36532   3.155   0.798   4.736 -0.1152 -0.2866  0.0984
 8299SOL    HW136533   3.090   0.812   4.805 -0.2182 -0.6345  0.0732
 8299SOL    HW236534   3.230   0.782   4.793  0.8052  1.3962 -0.6533
 8300SOL     OW36535   4.011   1.942  11.005  0.6421 -0.4318  0.6520
 8300SOL    HW136536   3.917   1.929  10.991  0.1839  1.7164  1.6882
 8300SOL    HW236537   4.015   1.926  11.099 -1.5913  2.6493  1.2634
 8301SOL     OW36538   3.724   1.222   1.423 -0.4083 -0.4939  0.3278
 8301SOL    HW136539   3.787   1.290   1.450 -0.3215 -1.3482  2.2938
 8301SOL    HW236540   3.774   1.185   1.350 -2.1696  0.4159 -1.3220
 8302SOL     OW36541   4.001   2.614   6.075 -0.1804  0.0737 -1.0015
 8302SOL    HW136542   4.071   2.661   6.121  0.1400 -0.7113 -0.7012
 8302SOL    HW236543   3.925   2.649   6.123 -0.6120 -1.5141 -0.5327
 8303SOL     OW36544   0.227   4.236   3.431  0.0556 -0.9337  0.3936
 8303SOL    HW136545   0.236   4.142   3.447  0.1778 -1.3034 -1.8609
 8303SOL    HW236546   0.152   4.236   3.372  0.9872  0.0130 -0.7582
 8304SOL     OW36547   0.691   0.473   4.060  0.2368 -0.3023  0.2045
 8304SOL    HW136548   0.745   0.440   4.132 -0.3783 -1.4316  0.1447
 8304SOL    HW236549   0.635   0.539   4.101  0.1330  0.4645 -1.1725
 8305SOL     OW36550   0.142   1.255   3.840  0.2741 -0.1537  0.3528
 8305SOL    HW136551   0.068   1.234   3.784 -2.2069  3.4156  2.2970
 8305SOL    HW236552   0.193   1.174   3.833  0.5617 -0.0192  0.8454
 8306SOL     OW36553   1.351   2.944   5.187  0.1906 -0.2139  0.1468
 8306SOL    HW136554   1.351   3.040   5.184  1.5294 -0.2033  0.4093
 8306SOL    HW236555   1.297   2.934   5.109 -0.3229 -0.5804  0.5436
 8307SOL     OW36556   4.099   4.333  10.986 -0.0821 -0.1709 -0.4329
 8307SOL    HW136557   4.150   4.288  10.918 -0.9232 -0.3921 -0.9117
 8307SOL    HW236558   4.070   4.403  10.927  0.0532 -0.2738 -0.6251
 8308SOL     OW36559   1.116   1.512  10.865 -0.4569  0.3804 -0.0837
 8308SOL    HW136560   1.146   1.437  10.814 -0.9279  1.3157 -1.7052
 8308SOL    HW236561   1.200   1.550  10.893 -0.7801  0.7258  0.4195
 8309SOL     OW36562   3.903   3.727   6.037 -0.0655 -0.0991  0.3841
 8309SOL    HW136563   3.846   3.699   6.108  1.2135 -3.6798  0.0214
 8309SOL    HW236564   3.982   3.679   6.065 -0.1391 -0.6324 -0.3259
 8310SOL     OW36565   0.434   4.048   6.523 -0.7725 -0.2266  0.1949
 8310SOL    HW136566   0.393   4.106   6.587  0.6955  0.7658  0.2445
 8310SOL    HW236567   0.524   4.080   6.522 -0.3992 -1.2744 -0.6114
 8311SOL     OW36568   0.270   1.409   4.026  0.2582 -0.3296 -0.1128
 8311SOL    HW136569   0.227   1.369   3.951 -3.0134  2.1735  0.3650
 8311SOL    HW236570   0.271   1.499   3.994 -0.0274 -0.2190  0.1796
 8312SOL     OW36571   3.923   3.611   2.442 -0.2290  0.3480 -0.1171
 8312SOL    HW136572   3.884   3.698   2.451 -2.1099 -0.4846 -0.2366
 8312SOL    HW236573   3.976   3.644   2.370 -0.1310  0.8289  0.1761
 8313SOL     OW36574   0.291   0.928   4.805  0.3344  0.0479 -0.6444
 8313SOL    HW136575   0.343   0.950   4.882 -4.5451 -0.4994  2.8223
 8313SOL    HW236576   0.293   0.833   4.808 -1.9753 -0.0056 -0.7784
 8314SOL     OW36577   0.630   1.228  11.969  0.6710  0.1418  0.1491
 8314SOL    HW136578   0.659   1.263  12.053  0.2056  0.1823  0.2971
 8314SOL    HW236579   0.678   1.152  11.939 -0.2311 -0.4550  0.2130
 8315SOL     OW36580   2.666   1.529   4.649  0.7816  0.1858  0.4502
 8315SOL    HW136581   2.750   1.567   4.622 -0.0672  1.3280 -0.5444
 8315SOL    HW236582   2.642   1.466   4.581  0.1170  1.2211 -0.2805
 8316SOL     OW36583   1.603   1.747   1.580  0.3989 -0.0638  0.2935
 8316SOL    HW136584   1.668   1.732   1.649 -1.7660 -0.8978  2.1480
 8316SOL    HW236585   1.615   1.839   1.555 -0.7774  0.2054  0.7249
 8317SOL     OW36586   2.335   3.814  13.528 -0.6925 -0.2677 -0.1096
 8317SOL    HW136587   2.312   3.735  13.479 -1.4519  0.2558 -0.5736
 8317SOL    HW236588   2.377   3.769  13.602  0.9743 -0.5568 -1.2325
 8318SOL     OW36589   3.049   4.693   8.527  0.1962 -0.2924 -0.5553
 8318SOL    HW136590   3.003   0.018   8.591  1.3907  1.9227 -1.5571
 8318SOL    HW236591   3.107   4.642   8.583  1.5772  2.1281  0.2211
 8319SOL     OW36592   4.190   2.015   3.003 -0.1264  0.7204  0.4861
 8319SOL    HW136593   4.192   1.934   3.055 -0.8382  1.3152  1.4396
 8319SOL    HW236594   4.206   1.982   2.915  1.6761  1.2916  0.5987
 8320SOL     OW36595   0.453   0.938  16.900 -0.0157 -0.3545  0.6662
 8320SOL    HW136596   0.463   0.958  16.807  1.9960  0.0405  0.9637
 8320SOL    HW236597   0.449   0.842  16.909 -0.1661 -0.3833  0.2645
 8321SOL     OW36598   1.385   3.107  11.084  0.1205  0.8007 -0.7663
 8321SOL    HW136599   1.400   3.152  11.167  1.0310 -0.1922 -0.3868
 8321SOL    HW236600   1.319   3.158  11.037  1.1032  2.0958 -0.7569
 8322SOL     OW36601   4.035   1.806  16.095 -0.2585 -0.2791  0.2623
 8322SOL    HW136602   4.049   1.791  16.002  0.8331 -2.2019  0.7381
 8322SOL    HW236603   4.030   1.902  16.090  2.2266 -0.1313  0.5092
 8323SOL     OW36604   4.605   2.407   6.095 -0.5341 -0.3478  0.4732
 8323SOL    HW136605   4.522   2.417   6.048  0.2241  0.2322 -0.7696
 8323SOL    HW236606   4.588   2.411   6.189 -1.7190 -2.0434  0.3149
 8324SOL     OW36607   4.587   0.043   1.808  0.0614  0.1303  0.0805
 8324SOL    HW136608   4.592   4.702   1.873  3.0978  0.2965  0.0372
 8324SOL    HW236609   4.495   0.068   1.815  0.6034  2.9729 -2.8624
 8325SOL     OW36610   4.699   0.525  14.275  0.8188  0.1240  0.4015
 8325SOL    HW136611   4.622   0.469  14.279 -0.2361  1.6113  1.1660
 8325SOL    HW236612   4.710   0.527  14.180 -0.3360  0.7525  0.2844
 8326SOL     OW36613   2.897   2.062  17.456  0.1286  0.1564 -0.4806
 8326SOL    HW136614   2.937   2.085  17.540 -1.5072 -0.1498  0.3859
 8326SOL    HW236615   2.851   1.983  17.482 -1.3552  2.0669  2.7704
 8327SOL     OW36616   0.672   2.803   7.412  0.2336  0.0793 -0.1267
 8327SOL    HW136617   0.661   2.825   7.319 -3.5149 -2.2594 -0.2479
 8327SOL    HW236618   0.616   2.725   7.413 -0.6720  0.7427  0.0692
 8328SOL     OW36619   3.298   2.295   4.359 -0.3349 -1.1032  0.1535
 8328SOL    HW136620   3.355   2.287   4.282  0.2936  0.0135  0.5062
 8328SOL    HW236621   3.352   2.266   4.432  1.8590  1.3484 -0.5049
 8329SOL     OW36622   0.958   0.702   7.862  0.1693  0.2450  0.3934
 8329SOL    HW136623   0.869   0.733   7.879 -0.7435 -3.1773  1.8216
 8329SOL    HW236624   0.998   0.789   7.856  1.7586 -0.2720  3.1422
 8330SOL     OW36625   4.422   2.155   6.277  0.3438  0.4708  0.1318
 8330SOL    HW136626   4.379   2.176   6.360 -1.8078 -1.2592 -0.5470
 8330SOL    HW236627   4.501   2.205   6.299  0.7896 -0.3599  0.4435
 8331SOL     OW36628   2.848   1.949   9.390 -0.0075 -0.1956 -0.4822
 8331SOL    HW136629   2.839   1.858   9.361 -1.2949 -0.2402  0.0650
 8331SOL    HW236630   2.764   1.966   9.433  0.9564  0.3726  1.1829
 8332SOL     OW36631   3.749   3.306   7.068 -0.5431  0.0847 -0.2350
 8332SOL    HW136632   3.787   3.226   7.106  0.7606  0.8292  0.0480
 8332SOL    HW236633   3.810   3.316   6.994 -2.5507  1.9494 -1.6318
 8333SOL     OW36634   0.418   1.951   8.520 -0.7568  0.1390 -0.0251
 8333SOL    HW136635   0.387   1.879   8.465 -0.0135 -0.4455  0.3202
 8333SOL    HW236636   0.345   1.978   8.576 -0.8035 -1.9022  0.8835
 8334SOL     OW36637   1.741   2.363  14.851  0.7143 -0.5005 -0.2578
 8334SOL    HW136638   1.798   2.338  14.779  1.5567  3.6779 -1.0442
 8334SOL    HW236639   1.657   2.375  14.807 -0.5667 -0.8331  2.0704
 8335SOL     OW36640   0.967   0.926   3.447  0.4124 -0.5774 -0.0984
 8335SOL    HW136641   0.994   0.960   3.533  1.6097  0.8703 -1.0421
 8335SOL    HW236642   1.048   0.925   3.395  0.4316 -0.7782 -0.0672
 8336SOL     OW36643   0.907   3.999   1.368 -0.1479  0.0548  0.8442
 8336SOL    HW136644   0.990   3.954   1.388 -0.0560  0.2950  1.0115
 8336SOL    HW236645   0.859   4.004   1.451 -0.8590 -2.4345  0.5611
 8337SOL     OW36646   0.091   0.107   6.730 -0.4480 -0.4274 -0.1249
 8337SOL    HW136647   0.145   0.034   6.699  0.5377 -0.0409  0.7014
 8337SOL    HW236648   0.035   0.136   6.658  1.4740 -1.1402 -1.9078
 8338SOL     OW36649   2.442   4.365   3.095  0.3043  0.4658  0.4726
 8338SOL    HW136650   2.433   4.449   3.139 -1.8506 -0.0158  0.9174
 8338SOL    HW236651   2.362   4.319   3.117 -0.9399  2.3744 -0.0789
 8339SOL     OW36652   4.625   1.235   3.707 -0.4076 -0.1153 -0.2562
 8339SOL    HW136653   4.657   1.226   3.617  0.2843  2.0412 -0.2258
 8339SOL    HW236654   4.600   1.144   3.724 -0.9995  0.1666  0.3887
 8340SOL     OW36655   1.171   3.102   6.351 -0.2971 -0.3315  0.4286
 8340SOL    HW136656   1.081   3.091   6.380 -0.3517  1.0499  0.7455
 8340SOL    HW236657   1.214   3.141   6.427 -0.9291 -0.8845  1.0778
 8341SOL     OW36658   1.114   3.336  15.885  0.4462  0.1504  0.7441
 8341SOL    HW136659   1.050   3.390  15.931  0.2787  0.5408  0.0602
 8341SOL    HW236660   1.173   3.312  15.956 -0.8337 -0.1283  1.7261
 8342SOL     OW36661   4.182   4.624  16.680 -0.2543  0.1502  0.4769
 8342SOL    HW136662   4.214   4.622  16.770 -0.9677 -0.0023  0.7252
 8342SOL    HW236663   4.128   4.545  16.683  1.6676 -1.2311 -1.5615
 8343SOL     OW36664   2.793   1.024   9.086  0.1821 -0.2324 -0.4816
 8343SOL    HW136665   2.750   1.086   9.027  0.6956  1.1525  0.6225
 8343SOL    HW236666   2.724   1.005   9.150  1.4338 -0.3741  0.8298
 8344SOL     OW36667   1.330   2.969  15.748 -0.5536 -0.3906  0.0704
 8344SOL    HW136668   1.372   2.989  15.665  0.0800  0.5244  0.6141
 8344SOL    HW236669   1.407   2.985  15.802  0.4474  0.3033 -1.5506
 8345SOL     OW36670   4.320   3.304   3.004 -0.6291 -0.0816  0.0068
 8345SOL    HW136671   4.245   3.338   3.053 -0.1379  0.8424  0.1139
 8345SOL    HW236672   4.383   3.361   3.049  1.8873 -1.6918 -1.4819
 8346SOL     OW36673   2.215   3.892   4.186 -0.9166 -0.0106 -0.0017
 8346SOL    HW136674   2.287   3.937   4.231  0.9389  0.0063 -2.9838
 8346SOL    HW236675   2.250   3.803   4.190  1.0378  0.6549 -1.8167
 8347SOL     OW36676   2.770   0.464  10.255 -0.3977  0.2844  0.0217
 8347SOL    HW136677   2.770   0.531  10.324  0.1344  0.5616 -0.2461
 8347SOL    HW236678   2.857   0.428  10.275  0.9407  1.9454 -2.8236
 8348SOL     OW36679   1.277   1.275   7.922 -0.1769  0.1619 -0.0614
 8348SOL    HW136680   1.339   1.243   7.987  0.9037  0.0843 -1.1437
 8348SOL    HW236681   1.318   1.358   7.899  1.8933  0.1288  3.5111
 8349SOL     OW36682   3.043   3.550  15.132 -0.0701 -0.0568 -0.5230
 8349SOL    HW136683   3.011   3.608  15.064 -2.0111  0.4945  0.8693
 8349SOL    HW236684   3.001   3.469  15.102 -1.1860  1.3898 -2.8872
 8350SOL     OW36685   3.213   2.321  15.109  0.0823 -0.5622  0.2979
 8350SOL    HW136686   3.199   2.235  15.068 -0.4000 -0.7964  0.9509
 8350SOL    HW236687   3.304   2.326  15.138  0.3642 -0.5691 -0.5794
 8351SOL     OW36688   0.444   1.732   5.905 -0.1364  0.0988 -0.0208
 8351SOL    HW136689   0.379   1.664   5.887  0.7102 -0.7128 -0.0359
 8351SOL    HW236690   0.501   1.697   5.974 -0.3823 -1.5490 -0.6641
 8352SOL     OW36691   1.913   1.906   3.356 -0.3174  0.3501  0.0827
 8352SOL    HW136692   1.970   1.983   3.353  2.5259 -1.8362 -2.3813
 8352SOL    HW236693   1.914   1.896   3.451  1.7105  0.1355  0.0523
 8353SOL     OW36694   4.014   3.961  14.558 -0.4256 -0.2624 -0.0871
 8353SOL    HW136695   3.971   3.876  14.570  1.8481 -1.5521 -1.1024
 8353SOL    HW236696   4.083   3.953  14.624 -0.0488 -0.5880 -0.5220
 8354SOL     OW36697   1.764   2.990   2.803  0.0759 -0.2693 -0.3700
 8354SOL    HW136698   1.792   2.983   2.894 -3.9829 -0.3197  0.9009
 8354SOL    HW236699   1.789   2.909   2.757  4.8994  1.4314 -0.6837
 8355SOL     OW36700   0.211   0.487   8.572  0.4344 -0.2843 -0.1266
 8355SOL    HW136701   0.239   0.444   8.653  2.6794  1.1350 -0.1373
 8355SOL    HW236702   0.296   0.522   8.545  1.1588 -1.5456  0.4826
 8356SOL     OW36703   2.255   0.854   9.121 -0.4002 -0.2861 -0.1803
 8356SOL    HW136704   2.228   0.941   9.151 -0.9867  0.1766 -2.0275
 8356SOL    HW236705   2.265   0.805   9.203 -0.7688 -0.0171  0.0221
 8357SOL     OW36706   2.216   1.112   6.215  0.0190 -0.9331 -0.2716
 8357SOL    HW136707   2.209   1.156   6.300  2.1745  0.4934 -0.8403
 8357SOL    HW236708   2.292   1.159   6.180 -0.4950  0.2411  0.2009
 8358SOL     OW36709   1.172   0.276   1.615 -0.0711 -0.6642 -0.4251
 8358SOL    HW136710   1.141   0.216   1.548 -0.9133  0.9719 -1.4962
 8358SOL    HW236711   1.224   0.218   1.670  0.1455 -0.7187 -0.6858
 8359SOL     OW36712   4.056   1.192  13.750 -0.0547  0.3285  0.1681
 8359SOL    HW136713   4.028   1.101  13.761  0.7301  0.1381  0.5932
 8359SOL    HW236714   3.974   1.238  13.728 -1.2556 -2.1979 -0.6981
 8360SOL     OW36715   2.103   2.452   9.400 -0.1104  0.2097 -0.1911
 8360SOL    HW136716   2.171   2.500   9.449  1.1703  0.2983 -2.0795
 8360SOL    HW236717   2.151   2.371   9.379 -1.0421  0.1128 -1.9188
 8361SOL     OW36718   1.491   3.454  11.634 -0.1161  0.3460  0.0385
 8361SOL    HW136719   1.468   3.509  11.709  2.4867 -0.1861  1.1890
 8361SOL    HW236720   1.523   3.380  11.685 -0.8183 -1.2286 -1.8115
 8362SOL     OW36721   4.677   1.219  14.885  0.5780  0.7456  0.0092
 8362SOL    HW136722   4.689   1.188  14.795 -1.6247  0.3878 -0.1602
 8362SOL    HW236723   4.714   1.144  14.931  2.0346  2.2136  1.2171
 8363SOL     OW36724   1.662   0.055   2.295 -0.0202  0.1935  0.1403
 8363SOL    HW136725   1.742   0.105   2.277  0.2817 -0.9104 -1.5576
 8363SOL    HW236726   1.598   0.125   2.282  0.6464  0.5459 -1.1911
 8364SOL     OW36727   3.510   0.297   4.936 -0.7791  0.0097 -0.0611
 8364SOL    HW136728   3.516   0.331   4.846  0.1631 -0.0637 -0.0317
 8364SOL    HW236729   3.478   0.376   4.979  0.2922  0.3382  0.1395
 8365SOL     OW36730   4.720   0.429   8.169 -0.2705 -0.1871  0.4307
 8365SOL    HW136731   0.053   0.446   8.098 -0.9885 -0.3154 -0.2259
 8365SOL    HW236732   0.012   0.501   8.229 -0.8173  0.3598 -0.0365
 8366SOL     OW36733   3.899   2.171  10.080 -0.2551  0.1097 -0.1815
 8366SOL    HW136734   3.876   2.079  10.088  0.6544 -0.1892 -1.0064
 8366SOL    HW236735   3.995   2.175  10.074 -0.1992  3.1866  2.6001
 8367SOL     OW36736   3.816   0.055  15.518 -0.6003 -0.3027 -0.3721
 8367SOL    HW136737   3.753   0.123  15.496 -0.4152  0.9341  2.9180
 8367SOL    HW236738   3.796   4.718  15.452 -2.4716 -1.4278  1.3303
 8368SOL     OW36739   3.803   1.637   7.103 -0.1559 -0.1194 -0.0138
 8368SOL    HW136740   3.821   1.581   7.179 -1.7725  1.4175  1.5019
 8368SOL    HW236741   3.856   1.612   7.027  1.3413 -0.2278  1.0655
 8369SOL     OW36742   2.824   4.164  11.861  0.1596  0.5320 -0.7760
 8369SOL    HW136743   2.755   4.110  11.901 -0.5826  0.6951 -1.8558
 8369SOL    HW236744   2.803   4.169  11.768  0.2510 -1.4180 -0.9157
 8370SOL     OW36745   1.706   3.243   9.017  0.1164 -0.0596  0.4085
 8370SOL    HW136746   1.630   3.269   9.068  0.3033 -1.1897  1.2704
 8370SOL    HW236747   1.677   3.159   8.981 -0.5740 -0.4074  1.7807
 8371SOL     OW36748   4.107   2.492   1.807 -0.3123  0.3396  0.3872
 8371SOL    HW136749   4.142   2.490   1.718 -1.5470  3.1965 -0.1672
 8371SOL    HW236750   4.121   2.402   1.838  0.7071  0.6054  0.7108
 8372SOL     OW36751   2.755   2.555   8.881 -0.6620 -0.3832 -0.3470
 8372SOL    HW136752   2.766   2.469   8.840  0.7723  0.7170 -2.2186
 8372SOL    HW236753   2.691   2.544   8.952 -0.9838 -0.1667 -0.6026
 8373SOL     OW36754   1.490   3.679   8.603  0.3342  0.4405  0.2185
 8373SOL    HW136755   1.505   3.687   8.697  2.8951 -0.7710 -0.0861
 8373SOL    HW236756   1.474   3.768   8.570 -0.0012  0.2114 -0.2397
 8374SOL     OW36757   2.009   2.315   8.217  0.4411 -0.1079 -0.1275
 8374SOL    HW136758   2.077   2.257   8.185  0.8021  0.7092 -0.8363
 8374SOL    HW236759   2.041   2.351   8.300 -1.0113 -0.1717  0.4678
 8375SOL     OW36760   0.291   3.561  10.738 -0.0035 -0.6331  0.7419
 8375SOL    HW136761   0.361   3.626  10.743 -0.3644 -0.1948  0.0830
 8375SOL    HW236762   0.213   3.611  10.716 -0.7706 -1.8308  0.7649
 8376SOL     OW36763   4.380   3.077   7.077 -0.0968  0.4602 -0.2166
 8376SOL    HW136764   4.405   2.987   7.059  0.6114  0.7252 -0.5692
 8376SOL    HW236765   4.347   3.076   7.167  1.0717 -0.1105  0.2069
 8377SOL     OW36766   0.417   2.258  17.006 -0.2002 -0.1670 -0.1192
 8377SOL    HW136767   0.437   2.333  17.061 -0.3968 -0.4286  0.3107
 8377SOL    HW236768   0.333   2.289  16.973 -1.1330 -1.3434  1.1083
 8378SOL     OW36769   4.515   4.031   6.020 -0.2984  0.3691 -0.0460
 8378SOL    HW136770   4.429   4.060   6.051  0.0949  0.2711  1.1568
 8378SOL    HW236771   4.487   3.944   5.991  2.1518 -0.2822 -0.4618
 8379SOL     OW36772   2.300   0.230   2.645 -0.1603  0.0361  0.3283
 8379SOL    HW136773   2.347   0.164   2.697 -1.9006 -0.4084  1.3304
 8379SOL    HW236774   2.210   0.201   2.652  0.9892 -3.8350 -0.8852
 8380SOL     OW36775   2.079   1.502   4.128  0.0242  0.1043  0.4425
 8380SOL    HW136776   2.127   1.430   4.087  0.1534 -0.7629  2.1138
 8380SOL    HW236777   2.023   1.537   4.058  0.3249 -1.9950 -0.8695
 8381SOL     OW36778   2.623   0.169   8.443  0.2467  0.6845  0.4893
 8381SOL    HW136779   2.679   0.228   8.493  1.8361  0.5934 -1.1883
 8381SOL    HW236780   2.680   0.142   8.371 -2.2423 -2.2447 -0.3895
 8382SOL     OW36781   3.017   0.218   6.834 -0.2520 -0.1261  0.1594
 8382SOL    HW136782   3.001   0.294   6.779  0.5124  0.4431  0.7312
 8382SOL    HW236783   2.948   0.169   6.789 -1.5916  1.3265  0.6605
 8383SOL     OW36784   0.800   2.716  15.859  0.6784 -0.6199  0.1636
 8383SOL    HW136785   0.851   2.770  15.798  1.2931 -0.3625  0.8980
 8383SOL    HW236786   0.828   2.748  15.945  1.6638 -0.0727 -0.3554
 8384SOL     OW36787   2.517   4.023  13.270  0.0661 -0.9588  0.1354
 8384SOL    HW136788   2.551   3.950  13.322 -0.7373 -1.3401  0.1223
 8384SOL    HW236789   2.539   3.987  13.184 -0.3573 -0.3721 -0.2176
 8385SOL     OW36790   4.718   4.033   6.392  0.0454 -1.1016 -0.1026
 8385SOL    HW136791   0.061   3.974   6.413 -0.7997 -0.9103  3.3873
 8385SOL    HW236792   4.697   4.074   6.476  1.4560  3.9728 -2.2451
 8386SOL     OW36793   0.499   1.866   4.397 -0.3290  0.0124  0.3361
 8386SOL    HW136794   0.429   1.917   4.440  1.2307  0.8809  1.8237
 8386SOL    HW236795   0.454   1.795   4.351 -1.0924 -0.4850  1.8700
 8387SOL     OW36796   0.002   1.503   9.395 -0.0687 -0.0865  0.1375
 8387SOL    HW136797   4.659   1.566   9.386  0.6251  0.8004  0.7532
 8387SOL    HW236798   4.689   1.446   9.459 -0.8830  1.3470  0.9008
 8388SOL     OW36799   0.435   0.065  12.259 -0.0772 -0.2642 -0.8928
 8388SOL    HW136800   0.378   0.124  12.208 -0.3340 -0.3016 -0.6447
 8388SOL    HW236801   0.374   0.007  12.303  0.2466  1.6164  1.9970
 8389SOL     OW36802   0.870   3.464   5.026  0.8619  0.9575 -0.0489
 8389SOL    HW136803   0.865   3.421   4.941  0.8794  2.8012 -0.9784
 8389SOL    HW236804   0.777   3.460   5.050  0.3040 -1.2652 -2.5348
 8390SOL     OW36805   4.137   0.605   6.101  0.0884  0.0275  0.0802
 8390SOL    HW136806   4.135   0.622   6.007 -1.7215  0.9320  0.2845
 8390SOL    HW236807   4.138   0.692   6.141 -1.1648  0.0951 -0.0294
 8391SOL     OW36808   0.570   1.410   7.147 -0.3612  0.4035  0.0936
 8391SOL    HW136809   0.526   1.417   7.063  0.8894 -0.1891 -0.6063
 8391SOL    HW236810   0.652   1.457   7.131  0.9691 -1.3003  1.9177
 8392SOL     OW36811   0.427   0.305   5.299 -0.0513  0.0484  0.3028
 8392SOL    HW136812   0.403   0.225   5.346  1.7655 -0.9267 -0.4052
 8392SOL    HW236813   0.355   0.303   5.237  0.9152  1.6755 -0.8737
 8393SOL     OW36814   2.098   4.433   6.256 -0.1480 -0.0522  0.0447
 8393SOL    HW136815   2.128   4.408   6.168 -2.8324 -3.9833  0.2189
 8393SOL    HW236816   2.047   4.512   6.239 -0.0523  0.2584  1.2556
 8394SOL     OW36817   2.452   1.374   7.643 -0.4415 -0.0852  0.7651
 8394SOL    HW136818   2.369   1.405   7.682 -0.6526 -1.3061  1.2806
 8394SOL    HW236819   2.520   1.406   7.702 -1.5678  0.1745  1.9249
 8395SOL     OW36820   2.671   0.734   6.209  0.1913  0.0402  0.1517
 8395SOL    HW136821   2.749   0.678   6.212 -0.0387 -0.2687  0.4918
 8395SOL    HW236822   2.636   0.709   6.123  0.8249  0.3164 -0.1770
 8396SOL     OW36823   3.079   1.264   9.661 -0.4422  0.5326  0.0072
 8396SOL    HW136824   3.162   1.239   9.702 -2.0205 -1.7724  1.7360
 8396SOL    HW236825   3.101   1.251   9.569  1.1377  1.6770  0.2166
 8397SOL     OW36826   2.636   3.367   2.709  0.4821 -0.1901  0.1429
 8397SOL    HW136827   2.668   3.299   2.769 -3.4102 -1.9445  0.2643
 8397SOL    HW236828   2.603   3.430   2.773  0.1468 -0.5942  0.3717
 8398SOL     OW36829   0.535   4.241   2.634  0.1044 -0.2010  0.5121
 8398SOL    HW136830   0.573   4.154   2.618  0.9241  0.5841 -1.7329
 8398SOL    HW236831   0.441   4.226   2.633 -0.0175  0.5086  1.1811
 8399SOL     OW36832   0.921   4.626   9.605  0.1764 -0.0943  0.0383
 8399SOL    HW136833   0.953   4.592   9.521 -2.5163  1.7126 -1.7371
 8399SOL    HW236834   0.966   4.575   9.671 -0.4982  0.4879  0.9481
 8400SOL     OW36835   1.116   1.739   8.864  0.2049 -0.0037 -0.0745
 8400SOL    HW136836   1.159   1.728   8.949 -0.6019  2.0052  0.5889
 8400SOL    HW236837   1.029   1.768   8.892 -1.2281 -3.5645 -0.7848
 8401SOL     OW36838   4.170   2.318   3.653 -0.0379  0.3938  0.1356
 8401SOL    HW136839   4.104   2.251   3.671  0.5623 -0.4042 -0.6730
 8401SOL    HW236840   4.146   2.379   3.723  0.7704 -1.1069  1.7426
 8402SOL     OW36841   2.227   2.438   5.975  0.7931  0.1803 -0.0276
 8402SOL    HW136842   2.253   2.471   5.889 -0.4986 -0.4908 -0.6709
 8402SOL    HW236843   2.183   2.361   5.940 -2.7047  1.8089  0.7391
 8403SOL     OW36844   4.463   4.120   3.167  0.4328 -0.2612  0.1714
 8403SOL    HW136845   4.392   4.061   3.192  1.1448 -0.0753  2.5873
 8403SOL    HW236846   4.531   4.057   3.191 -0.2193 -0.7199  0.7747
 8404SOL     OW36847   3.664   3.683   0.272 -0.4346  0.0525 -0.4361
 8404SOL    HW136848   3.588   3.644   0.231 -1.0973 -1.0290  1.8257
 8404SOL    HW236849   3.716   3.608   0.302  1.2325  0.1368 -3.0842
 8405SOL     OW36850   0.948   1.199   2.829 -0.1471 -0.5535  0.5333
 8405SOL    HW136851   0.892   1.130   2.863  1.8419 -0.4148  4.0182
 8405SOL    HW236852   0.959   1.181   2.735  0.5248  0.5829  0.3907
 8406SOL     OW36853   3.250   3.336   2.427  0.4878  0.4440 -0.6409
 8406SOL    HW136854   3.176   3.281   2.452  0.1266  1.2837  0.1198
 8406SOL    HW236855   3.216   3.421   2.453  1.1349  0.4927  0.0414
 8407SOL     OW36856   4.263   3.316  17.184 -0.1687  0.0215 -0.4402
 8407SOL    HW136857   4.258   3.221  17.197  0.4374  0.2439  1.4220
 8407SOL    HW236858   4.358   3.327  17.187 -0.3213  1.5087 -1.1013
 8408SOL     OW36859   2.968   2.625   9.202 -0.2563  0.2403  0.2588
 8408SOL    HW136860   3.000   2.669   9.281  1.0376  1.4525 -0.9265
 8408SOL    HW236861   2.879   2.659   9.204  0.5584  2.5544 -1.6768
 8409SOL     OW36862   4.587   1.513   7.693 -0.1227  0.1083 -0.1280
 8409SOL    HW136863   4.584   1.525   7.788 -0.6638  2.0881 -0.3868
 8409SOL    HW236864   4.560   1.421   7.693 -0.6455  0.2594 -0.1697
 8410SOL     OW36865   2.178   4.122   2.770  0.3522  0.2420 -0.3607
 8410SOL    HW136866   2.209   4.060   2.705  0.3435 -0.8111  0.6416
 8410SOL    HW236867   2.259   4.170   2.789 -0.4230  1.9492 -1.3317
 8411SOL     OW36868   3.618   0.307  11.883  0.6854 -0.2353  0.0362
 8411SOL    HW136869   3.654   0.378  11.937  0.9744 -0.9084  0.7354
 8411SOL    HW236870   3.673   0.231  11.902 -1.5932 -1.9925 -0.3418
 8412SOL     OW36871   3.652   2.595   4.686 -0.2631 -0.1173  0.1224
 8412SOL    HW136872   3.689   2.526   4.631 -0.4156  1.0894 -1.4982
 8412SOL    HW236873   3.564   2.562   4.702  0.1424 -0.3089  1.8858
 8413SOL     OW36874   0.862   4.231   5.552 -0.1037 -0.2119  0.2862
 8413SOL    HW136875   0.941   4.178   5.565 -1.1219 -1.8311 -0.1573
 8413SOL    HW236876   0.859   4.234   5.456  0.3778 -1.9244  0.2076
 8414SOL     OW36877   2.731   0.166   8.174  0.4692  0.1185 -0.4790
 8414SOL    HW136878   2.737   0.075   8.145 -1.3307  0.2799 -1.3601
 8414SOL    HW236879   2.821   0.179   8.205 -0.2695 -0.8094  2.0812
 8415SOL     OW36880   2.907   4.463  12.664 -0.1893 -0.0466  0.0577
 8415SOL    HW136881   2.960   4.419  12.598 -0.1490 -2.8070  1.9602
 8415SOL    HW236882   2.899   4.394  12.730 -0.2309  0.4785  0.6017
 8416SOL     OW36883   3.975   1.930  16.615 -0.2855  0.2875 -0.6691
 8416SOL    HW136884   3.953   1.875  16.540 -2.1453 -0.2369  0.2675
 8416SOL    HW236885   4.023   2.006  16.582  1.4424 -0.5597 -0.1207
 8417SOL     OW36886   1.112   0.020   6.280  0.3678 -0.2794  0.7692
 8417SOL    HW136887   1.020   0.006   6.302  0.4453  0.1236  1.3215
 8417SOL    HW236888   1.154   4.702   6.351 -0.2819 -0.8739  0.7536
 8418SOL     OW36889   4.286   2.149  15.100  0.5215 -0.3091 -0.5990
 8418SOL    HW136890   4.208   2.191  15.137  0.8161  0.2953 -0.6642
 8418SOL    HW236891   4.329   2.144  15.186  1.3026 -0.6633 -1.0117
 8419SOL     OW36892   2.305   1.794  16.916 -0.0925 -0.9962  0.0781
 8419SOL    HW136893   2.346   1.708  16.924  2.2929  0.3140  2.2900
 8419SOL    HW236894   2.348   1.830  16.839 -0.3351 -2.0366 -0.5343
 8420SOL     OW36895   1.582   0.871   1.971  0.0737  0.1449  0.0002
 8420SOL    HW136896   1.493   0.847   1.943  0.8648 -1.4973 -1.1428
 8420SOL    HW236897   1.608   0.802   2.032  0.3905 -1.3987 -1.8702
 8421SOL     OW36898   2.829   0.534   5.796  0.2215 -0.0194 -0.3785
 8421SOL    HW136899   2.907   0.511   5.745  0.4958 -0.8991  0.4294
 8421SOL    HW236900   2.849   0.496   5.882  2.0244 -1.5914 -1.4788
 8422SOL     OW36901   2.255   3.427   2.085  0.1920 -0.3141 -0.2956
 8422SOL    HW136902   2.171   3.420   2.130 -0.3314  1.2642 -1.0247
 8422SOL    HW236903   2.292   3.349   2.126  0.4300 -1.0681 -1.9460
 8423SOL     OW36904   4.519   3.607   2.735  0.3049  0.4413 -0.3591
 8423SOL    HW136905   4.573   3.681   2.764 -0.6542  0.9730  0.0431
 8423SOL    HW236906   4.436   3.641   2.767  0.6997  0.6905  0.3919
 8424SOL     OW36907   2.256   1.724  10.386 -0.1574  0.0190  0.2857
 8424SOL    HW136908   2.348   1.707  10.369 -0.0987 -0.3027  0.9149
 8424SOL    HW236909   2.227   1.642  10.427  1.3796 -1.1040 -0.8550
 8425SOL     OW36910   1.954   4.508   2.976 -0.3070 -0.2722 -0.2846
 8425SOL    HW136911   1.862   4.531   2.964 -0.2837  1.4509  2.7487
 8425SOL    HW236912   1.996   4.586   2.940 -0.4771  0.1361  0.3932
 8426SOL     OW36913   0.463   0.710   3.595  0.2688 -0.1764  0.4737
 8426SOL    HW136914   0.448   0.794   3.552 -0.2551 -1.1371 -1.1997
 8426SOL    HW236915   0.542   0.736   3.643  0.1671 -0.3993  0.7602
 8427SOL     OW36916   1.776   1.840   4.301 -0.0904  0.1078 -0.6143
 8427SOL    HW136917   1.757   1.761   4.352  1.2206  1.1534  1.4697
 8427SOL    HW236918   1.870   1.839   4.283 -0.0120 -0.2023 -0.1977
 8428SOL     OW36919   3.236   4.072  16.550 -0.1341  0.3687 -0.2461
 8428SOL    HW136920   3.311   4.036  16.599 -0.2755  0.0917 -0.2309
 8428SOL    HW236921   3.176   4.105  16.617 -0.4533 -1.9809  0.6478
 8429SOL     OW36922   1.538   2.562   6.776  0.0609 -0.3868 -0.6314
 8429SOL    HW136923   1.565   2.546   6.686 -0.6681  2.1591 -1.2907
 8429SOL    HW236924   1.615   2.529   6.822 -0.5984  2.1217  2.3079
 8430SOL     OW36925   3.481   4.285  10.528  0.0405  0.1801 -0.2435
 8430SOL    HW136926   3.510   4.197  10.504 -0.7452  0.0142 -0.5671
 8430SOL    HW236927   3.480   4.282  10.623  2.9069 -0.5617 -0.2437
 8431SOL     OW36928   4.161   3.900  14.763  0.1030 -0.1851  0.3468
 8431SOL    HW136929   4.242   3.952  14.763  0.8383 -1.2844 -2.1488
 8431SOL    HW236930   4.148   3.866  14.851  0.7561 -0.6207  0.2757
 8432SOL     OW36931   2.847   1.347  16.313  0.1462 -0.4623 -0.5036
 8432SOL    HW136932   2.771   1.302  16.349 -0.1253 -1.7633 -2.7074
 8432SOL    HW236933   2.815   1.425  16.268  1.0026  1.4417  2.1881
 8433SOL     OW36934   1.299   1.107  13.286  0.4482 -0.1229  0.3190
 8433SOL    HW136935   1.287   1.064  13.371  0.0521 -1.3824 -0.3799
 8433SOL    HW236936   1.222   1.079  13.238  0.0600  0.1246  0.7913
 8434SOL     OW36937   3.524   2.973   3.893  0.3074  0.1286  0.0327
 8434SOL    HW136938   3.454   2.947   3.833 -0.2894  1.5606  0.1227
 8434SOL    HW236939   3.461   2.998   3.961  0.4939  1.3191 -0.2393
 8435SOL     OW36940   1.980   1.456   7.365  0.3077 -0.1895 -0.1312
 8435SOL    HW136941   1.958   1.363   7.357 -1.2831 -0.0046  2.1032
 8435SOL    HW236942   2.026   1.457   7.449 -1.6896  0.1961  0.9539
 8436SOL     OW36943   1.074   1.122   2.546  0.0354  0.3500 -0.6451
 8436SOL    HW136944   1.008   1.060   2.578  1.5351 -2.4323 -2.9892
 8436SOL    HW236945   1.140   1.067   2.504 -1.9639 -2.0520 -0.6738
 8437SOL     OW36946   0.954   2.681   5.707 -0.3866  0.4600 -0.0455
 8437SOL    HW136947   0.957   2.660   5.800 -3.0095  0.9350  0.1640
 8437SOL    HW236948   0.904   2.610   5.667  1.2975 -0.0343 -1.2550
 8438SOL     OW36949   3.455   3.227   2.780  0.1703 -0.3096  0.2597
 8438SOL    HW136950   3.466   3.272   2.695  0.5801  0.4565  0.7117
 8438SOL    HW236951   3.545   3.216   2.810 -0.0805 -1.1001  0.6997
 8439SOL     OW36952   1.234   3.149  11.900 -0.0179  0.1898 -0.0387
 8439SOL    HW136953   1.208   3.241  11.901  0.6163  0.3488  1.2123
 8439SOL    HW236954   1.160   3.118  11.847  0.5228  0.1552 -0.7591
 8440SOL     OW36955   1.572   0.317   5.548  0.4025  0.4922  0.1414
 8440SOL    HW136956   1.546   0.248   5.487 -0.5212  0.6502  0.3557
 8440SOL    HW236957   1.493   0.332   5.599 -0.2380  0.0091 -0.6938
 8441SOL     OW36958   4.686   3.162   7.415 -0.7057 -0.8249  0.4620
 8441SOL    HW136959   4.728   3.235   7.460 -0.1333 -1.5790  1.1388
 8441SOL    HW236960   4.628   3.127   7.483  0.3250 -2.6867  0.3930
 8442SOL     OW36961   2.729   3.854   2.195  0.4215  0.5347  0.3101
 8442SOL    HW136962   2.802   3.841   2.134 -0.5110  0.4792 -0.8017
 8442SOL    HW236963   2.778   3.849   2.277 -0.0242  0.4760  0.5748
 8443SOL     OW36964   3.331   1.616   6.942 -0.5296 -0.3697  0.1087
 8443SOL    HW136965   3.330   1.525   6.969 -2.3469 -0.4235 -0.1910
 8443SOL    HW236966   3.422   1.635   6.965 -1.2566  1.4578  1.5339
 8444SOL     OW36967   3.745   2.416  15.425  0.8019  0.1438  0.3318
 8444SOL    HW136968   3.784   2.333  15.399  0.4731  0.2828 -0.6090
 8444SOL    HW236969   3.675   2.439  15.363  0.5246 -1.2144  0.1419
 8445SOL     OW36970   0.285   1.824   4.682 -0.3660  0.1587  0.2189
 8445SOL    HW136971   0.249   1.830   4.770  2.0265 -0.2039  1.2207
 8445SOL    HW236972   0.251   1.737   4.662  0.3733  0.2258 -1.4053
 8446SOL     OW36973   0.001   3.234  16.760  0.2649  0.1924 -0.0540
 8446SOL    HW136974   4.657   3.288  16.730  0.2771  0.8920  1.1388
 8446SOL    HW236975   0.077   3.270  16.714 -1.7860  2.4529 -1.6236
 8447SOL     OW36976   1.748   0.291   6.712 -0.2030 -0.7696 -0.1614
 8447SOL    HW136977   1.728   0.246   6.794 -1.4082  2.3081  1.2062
 8447SOL    HW236978   1.820   0.237   6.678  0.0492  1.0008 -2.4580
 8448SOL     OW36979   3.963   4.619  15.217  0.1683  0.0775  0.4785
 8448SOL    HW136980   3.877   4.586  15.242 -0.1601  1.7754  1.6241
 8448SOL    HW236981   3.938   4.697  15.168 -0.0906 -1.5103 -1.9325
 8449SOL     OW36982   1.644   2.508   6.130 -0.2247 -0.1703  0.3320
 8449SOL    HW136983   1.735   2.497   6.101 -0.7103 -0.7126 -0.9590
 8449SOL    HW236984   1.613   2.576   6.070  2.1176 -0.6899 -1.5043
 8450SOL     OW36985   2.947   4.579   3.842  0.6114  0.1931 -0.2311
 8450SOL    HW136986   2.984   4.601   3.928  0.1287  0.5834 -0.1194
 8450SOL    HW236987   2.922   4.488   3.851  0.0296  0.2719 -1.0582
 8451SOL     OW36988   2.059   4.256  16.656 -0.4528 -0.1339  0.0902
 8451SOL    HW136989   2.135   4.231  16.709  0.2004  0.5711 -0.5090
 8451SOL    HW236990   2.055   4.349  16.678 -2.6188  0.5673 -3.3804
 8452SOL     OW36991   0.066   1.616  15.425  0.1047 -0.0335  0.6764
 8452SOL    HW136992   4.713   1.589  15.383 -0.3840  1.7067  0.4919
 8452SOL    HW236993   0.034   1.658  15.505  0.1117 -0.5476  0.9472
 8453SOL     OW36994   0.092   1.746   6.039  0.0686  0.1458 -0.1654
 8453SOL    HW136995   0.088   1.748   5.943  0.7952 -1.0029 -0.2186
 8453SOL    HW236996   0.149   1.823   6.049  0.5216  0.0617 -1.9699
 8454SOL     OW36997   4.039   2.801  14.098 -0.1499  0.4658 -0.4588
 8454SOL    HW136998   4.107   2.764  14.156 -2.6829 -3.4942 -0.0322
 8454SOL    HW236999   3.974   2.731  14.099 -0.1960  0.4986 -0.9911
 8455SOL     OW37000   0.266   0.178   6.933 -0.4458  0.4047  0.4619
 8455SOL    HW137001   0.235   0.244   6.995  0.1628 -0.0935  1.3057
 8455SOL    HW237002   0.191   0.155   6.878 -0.5794 -0.7888  1.1379
 8456SOL     OW37003   3.415   3.784   6.311  0.5000 -0.0682 -0.5574
 8456SOL    HW137004   3.498   3.831   6.307  1.2733 -1.4521 -0.8120
 8456SOL    HW237005   3.364   3.816   6.236 -1.5311 -0.8566  0.4923
 8457SOL     OW37006   4.598   3.261   6.047  0.2281  0.6703 -0.0024
 8457SOL    HW137007   4.553   3.343   6.067  1.4282  1.3544 -0.0828
 8457SOL    HW237008   4.544   3.198   6.094 -0.3343  0.2769 -1.1598
 8458SOL     OW37009   3.424   0.695   4.512 -0.1268 -0.4353  0.6685
 8458SOL    HW137010   3.490   0.627   4.519  1.1254  0.7160 -0.0021
 8458SOL    HW237011   3.348   0.639   4.528  1.1111 -2.3425 -0.2511
 8459SOL     OW37012   2.799   1.880   8.051  0.7273  0.1954 -0.1336
 8459SOL    HW137013   2.714   1.836   8.062  0.8068  0.3605  1.0554
 8459SOL    HW237014   2.781   1.934   7.974 -0.4009 -0.3561 -0.2656
 8460SOL     OW37015   2.438   1.279  11.254 -0.4281 -0.5276 -0.0302
 8460SOL    HW137016   2.496   1.302  11.326 -1.9982  1.1881  0.6887
 8460SOL    HW237017   2.415   1.361  11.210 -0.8909  0.6404  2.4262
 8461SOL     OW37018   1.651   3.629   7.703 -0.1516 -0.3854  0.5293
 8461SOL    HW137019   1.649   3.683   7.782  1.8708 -1.3247  1.2135
 8461SOL    HW237020   1.743   3.601   7.703  0.7091  2.4464  0.2784
 8462SOL     OW37021   2.654   4.339  11.395  0.2499  0.3139  0.4527
 8462SOL    HW137022   2.697   4.308  11.475 -1.2080 -1.2616  0.6260
 8462SOL    HW237023   2.568   4.371  11.423  0.4667  2.0812 -0.9036
 8463SOL     OW37024   4.416   2.660  16.458 -0.3207 -0.1408 -0.2705
 8463SOL    HW137025   4.477   2.588  16.468 -0.7133 -0.1296  2.1803
 8463SOL    HW237026   4.479   2.727  16.482  0.0354 -0.8326  0.6983
 8464SOL     OW37027   1.124   1.555  16.099  0.9466  0.5874 -0.1424
 8464SOL    HW137028   1.152   1.626  16.156 -1.8620 -0.2052  2.2854
 8464SOL    HW237029   1.209   1.513  16.093 -0.4809 -2.5135  0.9763
 8465SOL     OW37030   3.454   4.184   8.448  0.2548  0.5461 -0.1510
 8465SOL    HW137031   3.421   4.095   8.435  1.1353  0.0974  0.6988
 8465SOL    HW237032   3.535   4.182   8.396  1.0768  1.6107  1.1169
 8466SOL     OW37033   1.447   4.096   5.019 -0.7179 -0.6816 -0.3051
 8466SOL    HW137034   1.517   4.041   5.056 -0.0846  0.7028  0.5301
 8466SOL    HW237035   1.489   4.130   4.940  1.1675 -2.4061 -0.0324
 8467SOL     OW37036   1.812   0.972   5.032  0.0628 -0.2140 -0.2529
 8467SOL    HW137037   1.877   0.995   5.099  0.2097  0.3106 -0.5805
 8467SOL    HW237038   1.772   0.895   5.072 -0.0453  0.5213  1.0704
 8468SOL     OW37039   2.518   2.199  14.335 -0.1073  0.4302 -0.2887
 8468SOL    HW137040   2.556   2.143  14.403 -1.3098 -0.8769 -0.6734
 8468SOL    HW237041   2.457   2.134  14.298  0.5938 -0.0159 -0.6591
 8469SOL     OW37042   0.988   1.726   9.179  0.0559  0.3735  0.0536
 8469SOL    HW137043   1.076   1.695   9.157 -0.4559 -1.1828  0.2282
 8469SOL    HW237044   0.929   1.681   9.118  1.8275  1.3942 -2.4066
 8470SOL     OW37045   4.234   0.282   5.971  0.0612  0.0771  0.1558
 8470SOL    HW137046   4.271   0.279   6.059  2.0174 -2.3216 -0.7394
 8470SOL    HW237047   4.193   0.195   5.968  0.3484  0.0305 -2.4366
 8471SOL     OW37048   0.461   3.000   6.045 -0.0884  0.1435  0.2425
 8471SOL    HW137049   0.538   2.975   5.994 -0.2766  1.3476 -0.6057
 8471SOL    HW237050   0.407   2.923   6.027 -3.4380  2.5975 -0.1066
 8472SOL     OW37051   0.911   3.850  13.422  0.2645  0.0077 -0.0241
 8472SOL    HW137052   0.989   3.905  13.433  0.0402  0.4272 -0.5562
 8472SOL    HW237053   0.917   3.782  13.489 -1.2498 -0.8849 -0.7957
 8473SOL     OW37054   3.870   2.171   6.328  0.0309  0.0358 -0.2351
 8473SOL    HW137055   3.902   2.248   6.280  0.9447 -0.9776 -1.2436
 8473SOL    HW237056   3.803   2.211   6.384  1.1437  0.3422  0.8844
 8474SOL     OW37057   2.711   0.734   8.799 -0.1905  0.1030  0.5982
 8474SOL    HW137058   2.642   0.682   8.756 -1.4204  0.4449  2.1545
 8474SOL    HW237059   2.745   0.791   8.730 -2.1366 -0.8063 -1.1335
 8475SOL     OW37060   0.027   3.234   8.845 -0.0524 -0.1564 -0.2741
 8475SOL    HW137061   0.038   3.269   8.933 -0.3756  0.4930 -0.4855
 8475SOL    HW237062   4.667   3.267   8.832  0.1708  0.2364 -0.8310
 8476SOL     OW37063   0.519   2.606  13.366  0.1885  0.1158  0.4212
 8476SOL    HW137064   0.552   2.635  13.281  1.3939  1.2649  1.2717
 8476SOL    HW237065   0.544   2.687  13.411 -1.4253  0.6072  0.4114
 8477SOL     OW37066   2.801   4.168   1.704  0.2470 -0.5277 -0.1040
 8477SOL    HW137067   2.833   4.174   1.794 -0.5717  1.8272  0.0291
 8477SOL    HW237068   2.757   4.083   1.704  0.1173 -0.4749 -1.9422
 8478SOL     OW37069   3.120   1.047   4.610  0.1329  0.1907 -0.3503
 8478SOL    HW137070   3.115   0.967   4.663 -0.0826  1.1776  1.1262
 8478SOL    HW237071   3.189   1.025   4.547  0.1320  0.3620 -0.4116
 8479SOL     OW37072   4.406   4.615   5.772 -0.4848  0.0750  0.5625
 8479SOL    HW137073   4.489   4.572   5.792  0.1537 -0.1411 -2.5783
 8479SOL    HW237074   4.437   4.682   5.711  0.5101 -1.9744 -1.1720
 8480SOL     OW37075   1.028   1.752   4.541  0.4448  0.0531  0.5975
 8480SOL    HW137076   1.116   1.757   4.579  1.9393 -1.0580 -2.6589
 8480SOL    HW237077   0.976   1.785   4.614 -0.3936 -0.8309  0.4077
 8481SOL     OW37078   0.201   2.360   7.590  0.2774 -0.2241 -0.1791
 8481SOL    HW137079   0.184   2.406   7.671  2.5912  1.1369 -0.4729
 8481SOL    HW237080   0.297   2.362   7.583  0.2478 -2.5131 -1.5251
 8482SOL     OW37081   0.355   4.638   5.905 -0.4378  0.9042  0.6351
 8482SOL    HW137082   0.411   4.692   5.959 -0.4706  2.1134 -0.5500
 8482SOL    HW237083   0.368   4.559   5.959 -1.7081  0.7544  0.7279
 8483SOL     OW37084   3.022   3.771  12.610  0.0655 -0.0835  0.2151
 8483SOL    HW137085   2.970   3.799  12.534 -2.0907  0.4986  1.9233
 8483SOL    HW237086   3.095   3.833  12.606 -0.1165  0.1614  0.7433
 8484SOL     OW37087   0.273   4.627  12.400  0.1913 -0.4254 -0.5059
 8484SOL    HW137088   0.256   4.572  12.477  2.0475  0.0924  0.2636
 8484SOL    HW237089   0.234   4.577  12.328  0.3300 -1.9680  0.4937
 8485SOL     OW37090   2.358   4.085   6.922  0.2326 -0.4693  0.3014
 8485SOL    HW137091   2.304   4.162   6.905  1.7044  0.3929 -0.4639
 8485SOL    HW237092   2.297   4.012   6.910  2.0130 -1.2217 -4.3486
 8486SOL     OW37093   0.901   2.517  12.295 -0.2245  0.0278 -0.0569
 8486SOL    HW137094   0.919   2.432  12.255  0.3793  0.6378 -1.0887
 8486SOL    HW237095   0.884   2.579  12.224  0.7043  1.0263  0.5777
 8487SOL     OW37096   1.739   3.143  15.548 -0.1675  0.3781  0.0189
 8487SOL    HW137097   1.688   3.181  15.620 -0.1849  1.9435 -0.8360
 8487SOL    HW237098   1.675   3.122  15.480  1.1827 -1.3091 -0.7411
 8488SOL     OW37099   1.629   3.042   8.839  0.2104  0.5037 -0.3656
 8488SOL    HW137100   1.634   2.947   8.846 -2.1425  0.4959  1.2812
 8488SOL    HW237101   1.687   3.049   8.763  0.8684 -2.1685 -0.1104
 8489SOL     OW37102   2.616   4.063   2.912 -0.1613  0.2702 -0.6354
 8489SOL    HW137103   2.615   4.002   2.986  0.2316 -1.0578 -1.7416
 8489SOL    HW237104   2.673   4.020   2.849 -0.9283 -1.8432  0.1340
 8490SOL     OW37105   0.410   3.292  15.781 -0.1246 -0.7397  0.0474
 8490SOL    HW137106   0.459   3.266  15.859  0.4703 -0.3331 -0.1940
 8490SOL    HW237107   0.346   3.355  15.816  0.8456  0.6524 -0.6536
 8491SOL     OW37108   2.017   0.130   6.892 -0.2349  0.2417  0.0267
 8491SOL    HW137109   1.983   0.142   6.803 -2.3499  0.2411  0.8388
 8491SOL    HW237110   2.097   0.182   6.899 -1.8148  2.0314  4.8040
 8492SOL     OW37111   3.229   2.413  17.569  0.4205 -0.0647 -0.1990
 8492SOL    HW137112   3.314   2.371  17.576  0.3780 -0.5732 -2.6466
 8492SOL    HW237113   3.243   2.464  17.489  0.2861 -1.4256 -1.0898
 8493SOL     OW37114   4.659   0.520   2.355 -0.1484  0.2511 -0.1179
 8493SOL    HW137115   4.602   0.460   2.402  2.9420 -1.6711  1.1683
 8493SOL    HW237116   4.624   0.517   2.266  1.5582 -2.3694 -0.7269
 8494SOL     OW37117   4.401   2.928  17.399  0.3431  0.4711  0.0083
 8494SOL    HW137118   4.331   2.881  17.356 -0.9959  1.9830  0.5284
 8494SOL    HW237119   4.343   2.987  17.448  0.3852 -0.1900  0.8693
 8495SOL     OW37120   0.491   0.217  13.807 -0.1120  0.1520 -0.2823
 8495SOL    HW137121   0.563   0.183  13.754  0.1246 -3.0910  2.1047
 8495SOL    HW237122   0.477   0.142  13.865 -0.0182  0.4878  0.1669
 8496SOL     OW37123   3.003   1.211   6.260 -0.0574  0.0324  0.6119
 8496SOL    HW137124   3.040   1.123   6.260  2.2850  1.0270 -0.8308
 8496SOL    HW237125   3.018   1.234   6.168 -1.4990  1.0542  0.6325
 8497SOL     OW37126   1.871   3.374  12.661  0.3518 -0.3002 -0.2215
 8497SOL    HW137127   1.958   3.334  12.657  0.7977  0.8950 -2.8541
 8497SOL    HW237128   1.846   3.355  12.751  0.1607  3.2737  0.4975
 8498SOL     OW37129   4.538   0.574   2.086  0.2693 -0.2177 -0.1737
 8498SOL    HW137130   4.479   0.634   2.042 -0.3625  0.3485  1.4358
 8498SOL    HW237131   4.569   0.527   2.009  3.9305  0.0311  1.1233
 8499SOL     OW37132   1.124   0.572   9.158  0.6526 -0.1386 -0.1203
 8499SOL    HW137133   1.065   0.598   9.229 -1.8286 -1.4886 -1.7011
 8499SOL    HW237134   1.071   0.500   9.122  0.8078  0.0467 -0.7256
 8500SOL     OW37135   2.537   4.317  17.104  0.4263  0.3091 -0.0745
 8500SOL    HW137136   2.599   4.284  17.169  2.1206  0.1491 -1.7770
 8500SOL    HW237137   2.587   4.396  17.084  1.7323 -0.6827 -0.6980
 8501SOL     OW37138   4.420   0.963   7.642 -0.4212  0.3796  0.3770
 8501SOL    HW137139   4.395   0.943   7.733  1.5976  0.6203  0.9871
 8501SOL    HW237140   4.513   0.939   7.641 -0.7406 -0.8972  0.6508
 8502SOL     OW37141   1.916   0.443   7.637  0.2595  0.0653 -0.2294
 8502SOL    HW137142   1.828   0.465   7.606  0.0876 -0.8354 -0.3711
 8502SOL    HW237143   1.899   0.375   7.702 -3.9440  0.6706 -0.6920
 8503SOL     OW37144   1.337   1.867  16.081 -0.4570  0.0418  0.2465
 8503SOL    HW137145   1.378   1.918  16.010  0.7513  0.3826  1.1956
 8503SOL    HW237146   1.365   1.918  16.157 -0.2170  0.2015  0.0516
 8504SOL     OW37147   0.683   3.080   3.914 -0.4721  0.3044  0.1976
 8504SOL    HW137148   0.623   3.032   3.971  1.1158  0.1923  1.7461
 8504SOL    HW237149   0.698   3.161   3.963 -1.0228 -1.5165  3.3338
 8505SOL     OW37150   0.461   1.739   0.860 -0.3084  0.5547 -0.3199
 8505SOL    HW137151   0.373   1.717   0.888  0.3486  0.9458  2.0481
 8505SOL    HW237152   0.488   1.780   0.942  1.8195 -0.4731 -0.4974
 8506SOL     OW37153   0.205   1.172   6.341  0.2094  0.2302  0.3418
 8506SOL    HW137154   0.247   1.171   6.255  0.1985  2.5164  0.2943
 8506SOL    HW237155   0.125   1.223   6.324  1.2090  1.6322 -0.1505
 8507SOL     OW37156   1.619   0.257   4.127  0.2441  0.3093 -0.6187
 8507SOL    HW137157   1.629   0.343   4.167 -0.0767 -0.8827  2.0562
 8507SOL    HW237158   1.555   0.223   4.190  1.9361 -0.5359  0.6450
 8508SOL     OW37159   3.903   4.186   8.016 -0.6444  0.4987  0.7180
 8508SOL    HW137160   3.936   4.135   8.090 -0.9351 -1.8096 -0.7652
 8508SOL    HW237161   3.853   4.116   7.975  2.7009 -1.0566 -0.6713
 8509SOL     OW37162   3.158   1.562   4.499  0.5075 -0.0749 -0.2749
 8509SOL    HW137163   3.122   1.632   4.554 -1.3867 -0.5936 -0.8477
 8509SOL    HW237164   3.122   1.485   4.543 -1.0671 -0.9246 -3.0772
 8510SOL     OW37165   4.716   0.678   3.019  0.1970  0.0958 -0.0365
 8510SOL    HW137166   0.004   0.592   3.058  1.5834 -1.3076 -3.7089
 8510SOL    HW237167   0.077   0.689   2.987  0.0629  1.2413 -0.0103
 8511SOL     OW37168   2.877   0.178   7.920 -0.5043 -0.3861 -0.0741
 8511SOL    HW137169   2.914   0.265   7.920 -0.3636 -0.4389 -1.1057
 8511SOL    HW237170   2.817   0.175   7.995  0.4378  0.7256  0.7014
 8512SOL     OW37171   0.652   4.083   6.769 -0.1011 -0.2702 -0.4878
 8512SOL    HW137172   0.571   4.123   6.735 -0.5083 -1.8201 -1.3619
 8512SOL    HW237173   0.633   4.087   6.862  1.9844 -1.7516  0.0017
 8513SOL     OW37174   3.450   0.537   5.074 -0.2197 -0.2514 -0.0405
 8513SOL    HW137175   3.369   0.571   5.114 -0.2462 -0.1420 -0.1860
 8513SOL    HW237176   3.509   0.609   5.094 -1.2844 -0.0122  2.2554
 8514SOL     OW37177   3.114   2.629  15.014  0.6152 -0.3174 -0.0925
 8514SOL    HW137178   3.050   2.615  14.944  1.3052 -5.4937  0.3565
 8514SOL    HW237179   3.148   2.542  15.031 -0.0736 -0.8103 -1.1898
 8515SOL     OW37180   3.963   2.399  17.048  0.1777  0.4629 -0.0325
 8515SOL    HW137181   3.877   2.378  17.013  0.5401 -0.9083 -0.0697
 8515SOL    HW237182   3.942   2.486  17.084 -0.7742  0.4216 -0.4999
 8516SOL     OW37183   3.950   1.944   6.876 -0.0615  0.3739 -0.1728
 8516SOL    HW137184   3.950   1.849   6.892 -0.7145  0.3981 -0.0073
 8516SOL    HW237185   3.875   1.979   6.923  1.8855 -1.2081  4.0694
 8517SOL     OW37186   2.675   2.296   9.402  0.6551 -0.1249 -0.0780
 8517SOL    HW137187   2.683   2.245   9.321 -3.2948  2.0048 -1.8466
 8517SOL    HW237188   2.759   2.274   9.442  0.5294 -0.1366  0.1763
 8518SOL     OW37189   0.351   0.212   1.004  0.2688  0.5223 -0.0419
 8518SOL    HW137190   0.418   0.143   1.006 -0.0370  0.2816  1.5426
 8518SOL    HW237191   0.345   0.247   0.915 -0.0069 -1.5223 -0.8295
 8519SOL     OW37192   2.256   3.969  11.676  0.8177 -0.5474  0.1344
 8519SOL    HW137193   2.295   3.972  11.589  0.0590 -1.0463 -0.2226
 8519SOL    HW237194   2.211   3.885  11.685 -1.8389  0.9089  0.4531
 8520SOL     OW37195   1.007   0.108  17.429  0.3620 -0.1509  0.3600
 8520SOL    HW137196   0.971   0.181  17.378 -1.2900 -0.2316  1.4054
 8520SOL    HW237197   1.037   0.162  17.502 -1.0198  0.2918  0.6013
 8521SOL     OW37198   2.317   4.229  16.474 -0.0484 -0.2982  0.2120
 8521SOL    HW137199   2.309   4.320  16.502  3.0025 -0.0945  0.4386
 8521SOL    HW237200   2.279   4.194  16.555 -1.3281 -0.9539 -0.6856
 8522SOL     OW37201   1.053   1.939  16.232 -0.1266  0.1480 -0.5815
 8522SOL    HW137202   1.130   1.891  16.202  0.2227  0.2416  0.1541
 8522SOL    HW237203   1.002   1.939  16.152  0.6038 -0.4837 -1.0515
 8523SOL     OW37204   1.067   2.337  17.577  0.2764 -0.1730  0.2832
 8523SOL    HW137205   1.023   2.260  17.541 -0.3517  0.6907 -0.8143
 8523SOL    HW237206   1.136   2.283  17.615  2.0085  0.5971 -1.7496
 8524SOL     OW37207   0.099   0.096   2.102  0.3279  0.2048 -0.6814
 8524SOL    HW137208   0.097   0.144   2.184  0.6536  0.5116 -0.8507
 8524SOL    HW237209   0.019   0.127   2.060 -1.0071  0.0172  1.7720
 8525SOL     OW37210   0.248   0.344   4.851 -0.1018  0.2473  0.4126
 8525SOL    HW137211   0.176   0.292   4.887  0.5376 -1.4783 -0.8227
 8525SOL    HW237212   0.252   0.313   4.761  1.3401 -0.0548  0.5802
 8526SOL     OW37213   2.584   4.300   2.314 -0.5401  0.0028 -0.3995
 8526SOL    HW137214   2.538   4.219   2.336  2.1174 -1.1336  0.8986
 8526SOL    HW237215   2.661   4.262   2.272  0.5764  0.1974  1.4877
 8527SOL     OW37216   1.368   2.400   8.148 -0.3706 -0.4603 -0.6343
 8527SOL    HW137217   1.324   2.484   8.161 -0.4100 -0.5472 -0.2042
 8527SOL    HW237218   1.325   2.352   8.219 -1.5622  1.6392  0.0565
 8528SOL     OW37219   0.013   0.009   4.221  0.7028 -0.2170 -0.1170
 8528SOL    HW137220   4.704   0.077   4.277  0.7114  0.6127 -1.1173
 8528SOL    HW237221   0.102   0.010   4.257  1.4846  0.3460 -2.0681
 8529SOL     OW37222   2.776   0.763  13.760  0.5377 -0.5506  0.3067
 8529SOL    HW137223   2.726   0.716  13.693 -0.1511 -0.1846  0.5674
 8529SOL    HW237224   2.859   0.788  13.720  0.4245  1.1532  1.1455
 8530SOL     OW37225   0.952   2.621   6.040  0.4455  0.2268  0.0278
 8530SOL    HW137226   0.909   2.599   6.123  2.6006 -0.8966  0.8402
 8530SOL    HW237227   0.875   2.620   5.984  0.0169 -3.2635  0.7032
 8531SOL     OW37228   2.797   1.491   3.988  0.0554 -0.2121 -0.5964
 8531SOL    HW137229   2.799   1.533   4.074  1.6975 -1.1737 -0.1779
 8531SOL    HW237230   2.779   1.399   4.002  2.5931 -0.5399  0.5254
 8532SOL     OW37231   0.786   4.077   2.138 -0.3302 -0.1682  0.5582
 8532SOL    HW137232   0.789   4.172   2.130  2.8224 -0.4224 -1.2468
 8532SOL    HW237233   0.807   4.065   2.230 -2.0377 -2.2594  0.6927
 8533SOL     OW37234   0.973   0.249   5.519 -0.4401 -0.1644 -0.5136
 8533SOL    HW137235   1.068   0.240   5.532 -0.4028  1.8835  0.6905
 8533SOL    HW237236   0.939   0.166   5.551 -3.1778  1.0596 -0.2531
 8534SOL     OW37237   1.049   1.803   7.973 -0.0999  0.2913 -0.0437
 8534SOL    HW137238   1.103   1.881   7.986  0.7428 -0.2903 -0.0283
 8534SOL    HW237239   1.106   1.732   8.004  1.8677  1.2762 -1.3430
 8535SOL     OW37240   2.207   1.486   7.213  0.1181 -0.4289 -0.0673
 8535SOL    HW137241   2.122   1.469   7.252  0.0709 -0.0629 -0.0094
 8535SOL    HW237242   2.246   1.544   7.278 -0.3437 -0.1290 -0.0580
 8536SOL     OW37243   4.635   4.084   1.444  0.2923 -0.1925  0.4292
 8536SOL    HW137244   4.725   4.074   1.475 -0.1790 -0.3711  1.7163
 8536SOL    HW237245   4.639   4.050   1.354 -2.5441  0.1180  0.1933
 8537SOL     OW37246   4.443   4.548   7.527  0.3172  0.2754  0.5722
 8537SOL    HW137247   4.367   4.545   7.585 -0.2287  0.1131 -0.1547
 8537SOL    HW237248   4.411   4.616   7.467 -4.8434 -1.6356  1.1197
 8538SOL     OW37249   1.861   2.345   5.067  0.1686 -0.4751 -0.0435
 8538SOL    HW137250   1.859   2.280   4.997  0.8115 -1.3782  0.7820
 8538SOL    HW237251   1.776   2.333   5.109  1.4716  0.6309  2.8814
 8539SOL     OW37252   2.671   4.203  10.960 -0.3258  0.3311 -0.3749
 8539SOL    HW137253   2.725   4.194  11.039  0.0977 -3.1070 -1.0162
 8539SOL    HW237254   2.666   4.298  10.965  1.9660  0.3973  0.5310
 8540SOL     OW37255   3.195   3.818   5.191  0.1243 -0.3044 -0.0953
 8540SOL    HW137256   3.228   3.797   5.103  0.3312 -0.0540 -0.0743
 8540SOL    HW237257   3.228   3.741   5.238 -1.6111 -1.2873 -0.4709
 8541SOL     OW37258   1.187   3.063   1.968  0.6096 -0.1593 -0.1653
 8541SOL    HW137259   1.150   3.095   2.050  2.5596 -3.5937  2.0758
 8541SOL    HW237260   1.102   3.055   1.925  0.1925 -1.0215  0.8131
 8542SOL     OW37261   2.376   0.137   4.182  0.0326  0.1428 -0.5441
 8542SOL    HW137262   2.372   0.192   4.260 -0.8334  0.9252 -1.1333
 8542SOL    HW237263   2.288   0.099   4.184  0.4853 -0.8583  0.0849
 8543SOL     OW37264   2.485   0.674  10.655 -0.4227 -0.0816 -0.0451
 8543SOL    HW137265   2.516   0.625  10.578 -0.9261  0.3767 -0.5408
 8543SOL    HW237266   2.563   0.723  10.678 -1.7208  1.3082  1.3622
 8544SOL     OW37267   1.316   1.078   3.634 -0.1184 -0.4610 -0.0729
 8544SOL    HW137268   1.346   1.081   3.543 -0.0378  1.8090  0.0396
 8544SOL    HW237269   1.231   1.122   3.634 -0.1698 -0.5562  2.3641
 8545SOL     OW37270   2.775   3.153   3.570 -0.5877  0.1674 -0.4222
 8545SOL    HW137271   2.701   3.135   3.627  0.2751  0.7038  0.8705
 8545SOL    HW237272   2.852   3.125   3.620  0.5480 -1.8072 -3.2453
 8546SOL     OW37273   4.341   1.651  16.674  0.4510 -0.1444 -0.4118
 8546SOL    HW137274   4.371   1.599  16.599 -1.1015 -0.8205 -0.5640
 8546SOL    HW237275   4.295   1.580  16.719  0.3864  0.6346  0.7360
 8547SOL     OW37276   4.189   4.698   5.441 -0.4239  0.6156  0.7747
 8547SOL    HW137277   4.102   4.702   5.401 -0.5140 -1.1408  0.7794
 8547SOL    HW237278   4.175   0.011   5.526  2.6751  2.8514  0.1623
 8548SOL     OW37279   0.889   0.725   5.148 -0.2335  0.4294  0.1260
 8548SOL    HW137280   0.965   0.745   5.203 -0.6082 -1.4616  1.3285
 8548SOL    HW237281   0.929   0.698   5.066  0.9595 -0.7510  1.0897
 8549SOL     OW37282   2.758   3.044   1.634 -0.0378 -0.1496 -1.1533
 8549SOL    HW137283   2.799   3.076   1.553  1.0064 -0.2693 -0.6713
 8549SOL    HW237284   2.744   3.122   1.687  1.9947  1.4126 -2.8687
 8550SOL     OW37285   3.676   2.525   1.128 -0.0920  0.0106 -0.2544
 8550SOL    HW137286   3.640   2.488   1.047 -1.4691 -2.2575  1.3980
 8550SOL    HW237287   3.592   2.556   1.161 -0.4152 -2.2476  1.0983
 8551SOL     OW37288   1.380   4.145  12.501  0.0498  0.0993 -0.1313
 8551SOL    HW137289   1.298   4.166  12.545  0.1315  1.9516 -0.9082
 8551SOL    HW237290   1.439   4.189  12.562 -0.3790  0.1245  0.2631
 8552SOL     OW37291   3.272   3.972   3.555 -0.1964  0.0134  0.3382
 8552SOL    HW137292   3.253   4.059   3.520  0.1225 -0.7816 -1.8486
 8552SOL    HW237293   3.343   3.987   3.617  0.9244  1.5731 -1.3192
 8553SOL     OW37294   3.725   1.987   7.593  0.0378  0.2329 -0.6065
 8553SOL    HW137295   3.754   2.055   7.532  0.6309 -0.9790 -1.6734
 8553SOL    HW237296   3.731   1.909   7.538 -1.7473 -1.0858  1.0550
 8554SOL     OW37297   1.450   1.466   9.357 -0.2676  0.3532  0.2026
 8554SOL    HW137298   1.507   1.538   9.383  2.6657 -1.1540 -2.0128
 8554SOL    HW237299   1.476   1.398   9.418 -1.2683 -0.6542 -0.4934
 8555SOL     OW37300   3.127   2.078   3.568 -0.1127 -0.4364 -0.0374
 8555SOL    HW137301   3.086   2.049   3.649  1.1210 -3.1334 -0.3980
 8555SOL    HW237302   3.210   2.030   3.568 -0.8415 -1.6946  1.5290
 8556SOL     OW37303   2.192   1.576   6.160 -0.5081 -0.2141 -0.3853
 8556SOL    HW137304   2.198   1.546   6.251  0.6152  1.0974 -0.0359
 8556SOL    HW237305   2.157   1.497   6.118  1.8606 -1.5510  0.1669
 8557SOL     OW37306   2.967   2.107   7.537  0.6345  0.2253  0.1454
 8557SOL    HW137307   2.970   2.132   7.630 -2.0288 -0.2287  0.3450
 8557SOL    HW237308   3.017   2.026   7.549 -0.8361 -0.7468 -0.3653
 8558SOL     OW37309   0.117   3.943  15.674  0.2827  0.2781  0.3829
 8558SOL    HW137310   0.138   3.984  15.590  0.1670 -0.3130  0.0663
 8558SOL    HW237311   0.115   4.019  15.733 -0.7495  0.8800 -0.4161
 8559SOL     OW37312   2.453   2.772   1.666  0.3428 -0.7620  0.4110
 8559SOL    HW137313   2.456   2.677   1.673  1.3159 -0.8459 -1.3023
 8559SOL    HW237314   2.360   2.790   1.681  0.4515 -0.5937  0.8923
 8560SOL     OW37315   3.719   0.719  12.483  0.1597 -0.0414 -0.2543
 8560SOL    HW137316   3.743   0.811  12.499  1.3630 -0.0296 -2.1451
 8560SOL    HW237317   3.763   0.677  12.557  0.6044  1.9983  0.6701
 8561SOL     OW37318   0.321   0.340   2.536 -0.2245 -0.0857 -0.2423
 8561SOL    HW137319   0.401   0.385   2.507  1.0727 -0.8166  2.2270
 8561SOL    HW237320   0.292   0.294   2.457 -0.2446 -3.2220  1.5964
 8562SOL     OW37321   3.749   1.406  15.941 -0.4568  0.4502 -0.1197
 8562SOL    HW137322   3.709   1.492  15.923 -0.5977  0.8092  1.8812
 8562SOL    HW237323   3.710   1.355  15.870  0.2788  1.0421 -0.9450
 8563SOL     OW37324   4.487   2.134   2.607 -0.2057  0.2773 -0.2244
 8563SOL    HW137325   4.439   2.212   2.579  1.6165  1.2081 -0.7514
 8563SOL    HW237326   4.457   2.083   2.532 -1.0379  3.1759 -1.8782
 8564SOL     OW37327   1.939   1.216  12.658  0.5679 -0.2844  1.2301
 8564SOL    HW137328   1.898   1.187  12.740  2.4139 -0.5584  2.0537
 8564SOL    HW237329   1.883   1.290  12.632  0.0550 -0.5832  1.4707
 8565SOL     OW37330   1.976   4.625   4.737 -0.3175  0.5130 -0.3520
 8565SOL    HW137331   1.908   4.628   4.804  0.1785 -0.6348  0.1795
 8565SOL    HW237332   1.928   4.575   4.671 -1.1533 -1.9461  2.1578
 8566SOL     OW37333   0.309   2.321   3.215  0.0105 -1.0196 -0.0850
 8566SOL    HW137334   0.305   2.313   3.119  1.4869 -1.6269 -0.1004
 8566SOL    HW237335   0.220   2.293   3.237 -0.5966  1.7504  1.0813
 8567SOL     OW37336   3.802   0.500   3.790  0.2109 -0.5542  0.2915
 8567SOL    HW137337   3.810   0.507   3.695 -1.0679  4.0883  0.5181
 8567SOL    HW237338   3.708   0.482   3.798  0.4807 -1.7145  0.9335
 8568SOL     OW37339   4.514   3.595   7.452  0.5210 -0.1811  0.3979
 8568SOL    HW137340   4.474   3.641   7.526 -1.5631  0.5162 -1.1611
 8568SOL    HW237341   4.448   3.526   7.459  1.2038 -0.9798 -1.1135
 8569SOL     OW37342   1.216   1.512   8.749  0.2057 -0.5492 -0.2483
 8569SOL    HW137343   1.178   1.580   8.805 -0.5704 -3.1030  2.3457
 8569SOL    HW237344   1.154   1.440   8.762 -0.4820  0.3027  1.2331
 8570SOL     OW37345   4.226   4.107   8.625 -0.2009  0.1410  0.5284
 8570SOL    HW137346   4.147   4.087   8.675 -0.0787 -0.6183  0.4224
 8570SOL    HW237347   4.283   4.097   8.701  1.5406 -2.5589 -1.1377
 8571SOL     OW37348   2.292   3.441   1.819 -0.3692 -0.3901  0.4935
 8571SOL    HW137349   2.284   3.404   1.907  2.5541  0.3813  1.0776
 8571SOL    HW237350   2.205   3.479   1.810 -0.7130 -1.9734 -2.7537
 8572SOL     OW37351   0.503   0.994  11.064 -0.5252 -0.3557 -0.2873
 8572SOL    HW137352   0.586   1.023  11.102 -1.9169  1.5589  1.2564
 8572SOL    HW237353   0.520   1.003  10.970  0.5708 -0.7270 -0.1190
 8573SOL     OW37354   4.138   1.049   3.498  0.4658  0.0220  0.0443
 8573SOL    HW137355   4.212   0.997   3.466 -1.9616 -3.2270 -0.2808
 8573SOL    HW237356   4.153   1.048   3.593  2.5033  2.0282 -0.2553
 8574SOL     OW37357   1.328   3.918   6.549 -0.6991 -1.4796  0.9386
 8574SOL    HW137358   1.299   3.985   6.610  0.3279 -1.0723  0.9720
 8574SOL    HW237359   1.383   3.869   6.611  0.8075 -1.3695 -0.3122
 8575SOL     OW37360   0.813   0.973   5.732 -0.9498  0.6605 -0.0294
 8575SOL    HW137361   0.887   0.999   5.787  0.6746 -1.0794 -1.3650
 8575SOL    HW237362   0.741   1.007   5.784  0.4444  1.4156  1.3913
 8576SOL     OW37363   3.209   2.174   5.700 -0.0336 -0.4409 -0.3597
 8576SOL    HW137364   3.265   2.225   5.759  0.3251 -0.8873 -0.3185
 8576SOL    HW237365   3.222   2.214   5.614  0.0740  0.3244  0.0089
 8577SOL     OW37366   0.986   3.279   7.466  0.0720  0.1292  0.0601
 8577SOL    HW137367   0.930   3.221   7.414  1.8985 -0.7209 -0.9454
 8577SOL    HW237368   1.039   3.218   7.517 -0.3693 -0.2932  0.0174
 8578SOL     OW37369   2.712   3.658   7.466  0.1055 -0.3186  0.0761
 8578SOL    HW137370   2.630   3.646   7.418  0.3899  0.2095 -0.5456
 8578SOL    HW237371   2.727   3.741   7.421 -0.6684 -0.4080 -0.3651
 8579SOL     OW37372   2.790   3.147  12.277  0.2067 -0.4633  0.6080
 8579SOL    HW137373   2.704   3.190  12.285 -0.8931 -2.4928 -0.4071
 8579SOL    HW237374   2.773   3.059  12.244  0.4634  0.5846 -2.2839
 8580SOL     OW37375   0.468   1.267   4.127 -0.1858  0.1022 -0.1205
 8580SOL    HW137376   0.397   1.320   4.091 -1.6474 -1.9379 -0.2935
 8580SOL    HW237377   0.436   1.178   4.110  1.5262 -0.4192 -0.5750
 8581SOL     OW37378   4.488   0.802   9.125  0.2209 -0.1763  0.0944
 8581SOL    HW137379   4.530   0.887   9.142  1.3607 -0.5815 -0.7263
 8581SOL    HW237380   4.414   0.800   9.186 -0.0520  1.4311 -0.1607
 8582SOL     OW37381   4.176   0.748   4.690  0.4321  0.0461  0.4566
 8582SOL    HW137382   4.206   0.659   4.710 -1.0026 -0.3715  0.7228
 8582SOL    HW237383   4.263   0.787   4.701  0.7048 -1.0505  2.1751
 8583SOL     OW37384   3.098   0.216   3.591 -0.1055  0.3775  0.4584
 8583SOL    HW137385   3.031   0.269   3.548 -0.2683 -0.3750 -0.2073
 8583SOL    HW237386   3.081   0.238   3.683  0.7349  0.3523  0.6223
 8584SOL     OW37387   1.651   0.951   5.718 -0.4954 -0.0775 -0.1208
 8584SOL    HW137388   1.713   1.003   5.768  0.4534 -1.9738  0.6468
 8584SOL    HW237389   1.581   1.013   5.696 -0.7171 -0.6968 -1.1588
 8585SOL     OW37390   3.804   1.319  16.647  0.2830 -0.2151  0.6326
 8585SOL    HW137391   3.744   1.343  16.576  0.9188 -1.4161 -0.3255
 8585SOL    HW237392   3.818   1.408  16.679  0.8446 -0.2880  0.5930
 8586SOL     OW37393   3.744   3.875   9.630 -0.0332  0.3533  0.4930
 8586SOL    HW137394   3.783   3.800   9.675  1.6192 -1.0265 -3.3121
 8586SOL    HW237395   3.818   3.902   9.576 -1.0139  0.6474 -0.6832
 8587SOL     OW37396   3.612   2.456  13.387 -0.1520  0.0506  0.6369
 8587SOL    HW137397   3.677   2.525  13.378  0.0599 -0.6758 -3.2397
 8587SOL    HW237398   3.534   2.497  13.348 -0.3042 -1.5698 -0.7498
 8588SOL     OW37399   2.922   3.877   4.162 -0.5627  0.9070  0.6772
 8588SOL    HW137400   2.828   3.871   4.147 -0.6439 -0.4081  1.6434
 8588SOL    HW237401   2.955   3.909   4.078  0.1703  1.0524  1.0207
 8589SOL     OW37402   2.744   3.150   2.848  1.0590  0.3918 -0.5399
 8589SOL    HW137403   2.783   3.076   2.801  1.3731 -0.2648  0.7430
 8589SOL    HW237404   2.781   3.135   2.935 -1.7835  2.6683  1.0533
 8590SOL     OW37405   3.969   4.636   1.977  0.3553 -0.2106 -0.0731
 8590SOL    HW137406   4.041   4.623   1.915 -0.5855 -2.1510 -0.7282
 8590SOL    HW237407   3.897   4.627   1.915 -0.4087 -0.5336  0.8652
 8591SOL     OW37408   1.928   1.719   3.988 -0.0023 -0.6248 -0.2031
 8591SOL    HW137409   1.998   1.697   3.927  1.1119  3.6132 -0.3912
 8591SOL    HW237410   1.973   1.770   4.055 -1.3560  1.1387 -0.6311
 8592SOL     OW37411   3.306   2.766   6.101 -0.2737  0.2536  0.5588
 8592SOL    HW137412   3.229   2.819   6.121 -0.8123  0.2532 -1.5682
 8592SOL    HW237413   3.368   2.836   6.081 -1.3504  0.7422 -1.0330
 8593SOL     OW37414   0.831   4.634   6.973  0.3117  0.0552  0.1440
 8593SOL    HW137415   0.876   4.684   6.905 -0.3329  0.2882 -0.1152
 8593SOL    HW237416   0.880   4.658   7.051 -0.6425 -0.5363  0.9286
 8594SOL     OW37417   1.495   2.185  14.990 -0.0981 -0.2004 -0.3930
 8594SOL    HW137418   1.477   2.091  14.981  2.5264 -0.6995 -0.5065
 8594SOL    HW237419   1.568   2.198  14.929 -1.2191  0.3515 -1.6141
 8595SOL     OW37420   2.533   3.637   7.235 -0.0118  0.4356 -0.0064
 8595SOL    HW137421   2.439   3.635   7.218 -0.4006  1.5193  1.9770
 8595SOL    HW237422   2.566   3.725   7.215 -2.8100  1.7774  1.3210
 8596SOL     OW37423   4.535   2.785  12.843  0.1143  0.6517 -0.3070
 8596SOL    HW137424   4.629   2.803  12.850  0.5788 -1.8035 -0.2880
 8596SOL    HW237425   4.507   2.816  12.929 -1.4656  1.4293 -1.0971
 8597SOL     OW37426   1.009   4.551   8.789  0.0392  0.2587  0.1201
 8597SOL    HW137427   0.927   4.552   8.839 -0.8409 -1.0994 -1.3041
 8597SOL    HW237428   1.021   4.456   8.788 -2.5351 -0.0960  1.5147
 8598SOL     OW37429   4.716   2.795   7.891  0.1491  0.7963 -0.3651
 8598SOL    HW137430   0.027   2.796   7.977  0.7570  1.5917 -0.6659
 8598SOL    HW237431   4.647   2.733   7.919 -1.0473  1.8018 -1.0809
 8599SOL     OW37432   2.188   2.433   2.094  0.3939  0.8665 -0.0581
 8599SOL    HW137433   2.108   2.445   2.146 -2.1255  1.1269 -3.9294
 8599SOL    HW237434   2.151   2.384   2.020  0.4471 -0.3047  0.6846
 8600SOL     OW37435   1.589   1.225   2.101  0.0145 -0.5812  0.3446
 8600SOL    HW137436   1.596   1.278   2.181 -0.9611 -0.4415  0.3296
 8600SOL    HW237437   1.680   1.230   2.070 -1.2564 -1.8715 -3.5631
 8601SOL     OW37438   2.856   3.580   5.871  0.5923  0.8176 -0.0746
 8601SOL    HW137439   2.762   3.581   5.889  0.9904  0.4062  2.0645
 8601SOL    HW237440   2.864   3.536   5.787  0.0176 -0.8005  0.7214
 8602SOL     OW37441   0.994   1.038  12.781 -0.2111  0.1044  0.7013
 8602SOL    HW137442   0.980   0.953  12.823 -0.7732  0.0235  0.3511
 8602SOL    HW237443   0.939   1.095  12.835  1.1056  0.9158  1.1823
 8603SOL     OW37444   2.393   2.886   3.076 -0.2724  0.3411 -0.5842
 8603SOL    HW137445   2.304   2.863   3.050 -0.9565  1.3062  0.9271
 8603SOL    HW237446   2.434   2.800   3.084 -1.1332 -0.0088  0.1059
 8604SOL     OW37447   2.389   1.535   4.764  0.4715  0.2040  0.0269
 8604SOL    HW137448   2.380   1.462   4.826 -1.1630  0.3165 -0.0550
 8604SOL    HW237449   2.479   1.531   4.732  1.0924  3.4685  1.4477
 8605SOL     OW37450   1.858   4.136   2.289 -0.4106 -0.1750 -0.2899
 8605SOL    HW137451   1.950   4.156   2.308 -0.0230 -1.4857 -0.7802
 8605SOL    HW237452   1.850   4.043   2.267  1.8212 -1.4122  4.0258
 8606SOL     OW37453   1.613   4.338   7.437 -0.4341  0.4524  0.4672
 8606SOL    HW137454   1.672   4.281   7.487  0.7644  0.3301 -1.1041
 8606SOL    HW237455   1.574   4.392   7.506 -0.5809  0.2047  0.5810
 8607SOL     OW37456   2.866   1.691   6.030  0.1184 -0.4114  0.4262
 8607SOL    HW137457   2.943   1.712   5.978 -0.4967  0.6919 -0.0438
 8607SOL    HW237458   2.804   1.764   6.020  0.4843 -0.3580 -1.4173
 8608SOL     OW37459   2.775   0.380   9.713 -0.8386 -0.2912  0.6610
 8608SOL    HW137460   2.793   0.324   9.788 -1.2313  0.7009  1.5058
 8608SOL    HW237461   2.791   0.466   9.753  1.5149  0.8834 -2.7466
 8609SOL     OW37462   2.095   4.492   3.202  1.0484  0.1113 -1.0494
 8609SOL    HW137463   2.147   4.412   3.214  2.7313  1.2360 -0.8789
 8609SOL    HW237464   2.066   4.482   3.111 -1.5342  1.1257 -0.3158
 8610SOL     OW37465   0.367   4.219  13.109  0.0903  0.8492  0.2831
 8610SOL    HW137466   0.456   4.193  13.133 -0.1332 -0.0785  0.0809
 8610SOL    HW237467   0.379   4.314  13.114  1.3053  0.8089 -1.8324
 8611SOL     OW37468   1.468   3.273   9.244  0.3618 -0.1154  0.2061
 8611SOL    HW137469   1.546   3.276   9.300  1.2174 -0.2824 -0.9790
 8611SOL    HW237470   1.406   3.233   9.305 -0.7966  0.2447 -0.7420
 8612SOL     OW37471   4.521   1.263  13.214 -0.1628  0.1997 -0.4655
 8612SOL    HW137472   4.520   1.211  13.294 -1.2438  0.0191 -0.5938
 8612SOL    HW237473   4.610   1.263  13.180 -0.0498 -1.5518 -0.1576
 8613SOL     OW37474   3.837   2.210   9.406  0.3141  0.2996  0.0925
 8613SOL    HW137475   3.845   2.156   9.484 -2.9908 -1.4180 -0.7453
 8613SOL    HW237476   3.849   2.296   9.447  0.0420  1.9599 -3.2115
 8614SOL     OW37477   1.144   4.475   5.455  0.1353 -0.2640  0.7439
 8614SOL    HW137478   1.135   4.523   5.373 -1.1214 -0.6634  0.6463
 8614SOL    HW237479   1.123   4.544   5.519 -3.2670  0.5098 -1.2028
 8615SOL     OW37480   1.612   1.345   1.815 -1.0365 -0.3422 -0.5252
 8615SOL    HW137481   1.571   1.404   1.878 -1.2216  0.1612 -1.1196
 8615SOL    HW237482   1.576   1.260   1.840 -1.0129  0.1227  1.0912
 8616SOL     OW37483   2.818   1.416   8.216 -0.0235  0.2390 -0.3438
 8616SOL    HW137484   2.863   1.331   8.221 -1.0437 -0.3385 -0.8802
 8616SOL    HW237485   2.762   1.405   8.293 -0.9941  1.8472 -0.8089
 8617SOL     OW37486   1.931   4.692   8.791  0.2103  0.4083 -0.6669
 8617SOL    HW137487   1.889   0.003   8.714 -0.9149 -0.7940 -0.6734
 8617SOL    HW237488   1.970   0.038   8.835  2.0220 -0.1239 -1.3919
 8618SOL     OW37489   3.973   1.527   5.235 -0.1165  0.6249 -0.3924
 8618SOL    HW137490   4.068   1.536   5.242 -0.2480  1.5940  0.1551
 8618SOL    HW237491   3.963   1.592   5.166 -1.9948  0.3059 -0.4138
 8619SOL     OW37492   0.736   2.191   9.038  0.2481  0.1433  0.2216
 8619SOL    HW137493   0.647   2.197   9.072  0.2734  0.1411  0.2883
 8619SOL    HW237494   0.770   2.125   9.098 -0.0832 -0.8363 -0.6616
 8620SOL     OW37495   4.570   3.988  11.392  0.2114 -0.6876  0.1383
 8620SOL    HW137496   4.610   4.040  11.462  2.0124  0.1583 -1.5313
 8620SOL    HW237497   4.479   4.015  11.399  0.8528  1.2701  0.9337
 8621SOL     OW37498   4.458   1.266   4.671 -0.0899  0.5091  0.2101
 8621SOL    HW137499   4.393   1.198   4.650 -0.5308  1.2441 -0.8049
 8621SOL    HW237500   4.414   1.318   4.738 -1.5546 -1.2992  0.6691
 8622SOL     OW37501   1.614   4.575  12.895 -0.3749  0.0595 -0.1829
 8622SOL    HW137502   1.577   4.655  12.934  1.1534  0.0506  1.3014
 8622SOL    HW237503   1.573   4.577  12.809  0.5876 -1.2714 -0.6774
 8623SOL     OW37504   3.115   0.837   5.878  0.4271  0.3682  0.2387
 8623SOL    HW137505   3.144   0.873   5.963  0.6528  1.3335 -0.2414
 8623SOL    HW237506   3.030   0.881   5.870  0.6191  1.0499  1.8787
 8624SOL     OW37507   2.078   3.903  11.011 -0.6550 -0.0822 -0.6300
 8624SOL    HW137508   2.006   3.843  10.991 -0.1069 -0.4915 -1.3732
 8624SOL    HW237509   2.137   3.888  10.938  1.0283  1.1379  0.4694
 8625SOL     OW37510   1.059   2.614   7.573  0.0132  0.2019  0.7489
 8625SOL    HW137511   1.085   2.541   7.628 -0.3255 -0.7206 -0.3058
 8625SOL    HW237512   1.101   2.584   7.492  1.5416  3.4663  0.3328
 8626SOL     OW37513   0.729   4.429   6.843  0.1653  0.1334  0.1728
 8626SOL    HW137514   0.756   4.512   6.882  2.0491 -0.1178 -0.5850
 8626SOL    HW237515   0.692   4.378   6.915 -1.9358 -3.8390 -3.6939
 8627SOL     OW37516   0.909   1.755   5.084 -0.1204  0.4086  0.1183
 8627SOL    HW137517   0.825   1.709   5.089 -0.5545  1.3733  1.5821
 8627SOL    HW237518   0.950   1.742   5.169  0.8051 -0.7535 -0.5007
 8628SOL     OW37519   0.125   0.690   3.342 -0.1512  0.1515  0.4260
 8628SOL    HW137520   0.097   0.654   3.257  2.6377  1.1812 -0.9350
 8628SOL    HW237521   0.205   0.641   3.362 -1.5599 -3.1165 -1.9079
 8629SOL     OW37522   0.489   1.682   2.828  0.0783  0.1845 -0.0211
 8629SOL    HW137523   0.566   1.641   2.789  0.1038  0.0016  0.2205
 8629SOL    HW237524   0.431   1.610   2.849 -1.0076  2.0619  3.5298
 8630SOL     OW37525   2.195   4.727   7.549 -0.1434  0.0451 -0.4578
 8630SOL    HW137526   2.251   4.702   7.622  0.2587 -0.4492 -0.9423
 8630SOL    HW237527   2.256   0.048   7.495  1.4519  0.3086  1.5916
 8631SOL     OW37528   4.028   0.647  11.639  0.4034 -0.3631  0.3584
 8631SOL    HW137529   3.942   0.662  11.599  1.1352 -0.9245 -1.4542
 8631SOL    HW237530   4.071   0.609  11.562 -0.4638  1.0202 -0.8259
 8632SOL     OW37531   0.933   2.751   6.891 -0.5897  0.6367 -0.1132
 8632SOL    HW137532   0.962   2.799   6.968  1.0042  0.0101 -0.3188
 8632SOL    HW237533   1.014   2.704   6.872 -1.1327 -1.0916  1.8268
 8633SOL     OW37534   0.307   3.606   2.799 -0.0200  0.4022 -0.3602
 8633SOL    HW137535   0.228   3.551   2.798 -1.2386  2.2450 -3.9347
 8633SOL    HW237536   0.371   3.566   2.858  2.1253  2.5124 -1.2937
 8634SOL     OW37537   3.009   1.322   2.818 -0.2198  0.4507  0.3096
 8634SOL    HW137538   2.929   1.271   2.811 -0.5284  0.9508  0.2119
 8634SOL    HW237539   3.006   1.371   2.900 -0.8669  1.4591 -0.3200
 8635SOL     OW37540   4.119   1.896   3.456  0.1793 -0.2093  0.2935
 8635SOL    HW137541   4.165   1.940   3.527  1.9223 -1.1769 -0.2594
 8635SOL    HW237542   4.193   1.847   3.420  0.6910 -0.0963  1.2245
 8636SOL     OW37543   4.204   1.415   0.539 -0.2443  0.0478 -0.5775
 8636SOL    HW137544   4.232   1.499   0.501 -0.4288  0.3419 -0.0574
 8636SOL    HW237545   4.281   1.360   0.523  0.8123  1.5622 -0.8145
 8637SOL     OW37546   2.136   3.688  10.519  0.9103 -0.3670 -0.0548
 8637SOL    HW137547   2.124   3.686  10.424 -1.8373  2.9457  0.2187
 8637SOL    HW237548   2.222   3.647  10.527  0.8775 -0.5832 -0.7779
 8638SOL     OW37549   0.327   0.153   1.912  0.3398  0.5220  0.2329
 8638SOL    HW137550   0.303   0.127   1.823 -2.3167 -1.5119  1.5645
 8638SOL    HW237551   0.242   0.153   1.955  0.3517 -4.0933  0.2423
 8639SOL     OW37552   3.378   4.299   9.215 -0.3938  0.1391  0.2487
 8639SOL    HW137553   3.313   4.302   9.145  0.0838 -1.1010 -0.2639
 8639SOL    HW237554   3.326   4.262   9.287  0.5571  0.2275  0.9809
 8640SOL     OW37555   3.967   3.678   3.695 -0.7940 -0.2928 -0.1070
 8640SOL    HW137556   3.873   3.691   3.682 -0.4587  1.1045 -1.0975
 8640SOL    HW237557   4.012   3.745   3.643  1.0825 -1.1077  0.4484
 8641SOL     OW37558   4.479   1.260   7.623  0.4875  0.0001 -0.4457
 8641SOL    HW137559   4.446   1.178   7.660  0.6897  0.8560  1.6301
 8641SOL    HW237560   4.398   1.309   7.607  0.6178 -0.0583 -1.2632
 8642SOL     OW37561   1.644   0.825   6.680  0.5169  0.3248  0.0235
 8642SOL    HW137562   1.634   0.730   6.676  0.1508  0.3308  0.8084
 8642SOL    HW237563   1.560   0.856   6.714  0.2526 -0.2158 -0.1289
 8643SOL     OW37564   1.250   0.382   6.572  0.2917 -0.3247  0.4486
 8643SOL    HW137565   1.322   0.360   6.632  0.6266  0.2208  0.2460
 8643SOL    HW237566   1.173   0.371   6.627 -1.4736  0.1989 -1.9394
 8644SOL     OW37567   1.690   3.718   5.239  0.5283  0.1167 -0.1018
 8644SOL    HW137568   1.673   3.729   5.332 -3.7171 -0.5156 -0.8227
 8644SOL    HW237569   1.771   3.666   5.238  0.8475  0.5961  0.7728
 8645SOL     OW37570   1.619   2.532   8.121  0.0945  0.1090 -0.4562
 8645SOL    HW137571   1.598   2.506   8.210 -2.6359  2.4253 -0.4288
 8645SOL    HW237572   1.531   2.555   8.091  0.6019 -0.3998 -2.3415
 8646SOL     OW37573   2.234   4.666   2.008  0.4460  0.9235 -0.0296
 8646SOL    HW137574   2.307   4.613   2.041 -1.7957 -2.5262 -0.5942
 8646SOL    HW237575   2.273   0.024   2.000  0.0478  0.8232 -3.1213
 8647SOL     OW37576   1.287   1.578  13.446  0.4153 -0.0127  0.3922
 8647SOL    HW137577   1.296   1.674  13.448  0.3730 -0.0244  1.2334
 8647SOL    HW237578   1.246   1.552  13.364 -0.8469 -0.5089  1.1950
 8648SOL     OW37579   0.534   0.669  13.727 -0.0245  0.3464  0.3986
 8648SOL    HW137580   0.552   0.676  13.633  1.1754  0.6421  0.6462
 8648SOL    HW237581   0.495   0.582  13.726  1.2714 -0.2902  3.7610
 8649SOL     OW37582   2.321   2.625  10.430 -0.0862 -0.5681 -0.1688
 8649SOL    HW137583   2.416   2.641  10.429 -0.2026  0.2486  0.9572
 8649SOL    HW237584   2.301   2.660  10.343  0.3528  1.4685  0.5443
 8650SOL     OW37585   3.009   3.811   3.589  0.7442 -0.1866 -0.4440
 8650SOL    HW137586   3.096   3.848   3.603  0.3817  0.4349  0.1573
 8650SOL    HW237587   3.037   3.731   3.544 -2.3506 -0.0269 -2.6692
 8651SOL     OW37588   3.700   1.873  14.294 -0.6565  0.1466  0.2382
 8651SOL    HW137589   3.753   1.952  14.301 -0.5298  0.2269 -1.6541
 8651SOL    HW237590   3.760   1.811  14.335 -0.2726  0.8364  0.7227
 8652SOL     OW37591   2.828   4.214   2.230  0.0053  0.0784  0.0816
 8652SOL    HW137592   2.881   4.294   2.232 -1.3309  0.9608  0.3312
 8652SOL    HW237593   2.855   4.175   2.313 -0.4787 -1.0479 -0.2912
 8653SOL     OW37594   3.536   4.093   0.574  0.6035 -0.1712 -0.4564
 8653SOL    HW137595   3.572   4.040   0.502  1.1815  0.8561 -0.9256
 8653SOL    HW237596   3.605   4.094   0.640  0.7014  2.0760 -0.5741
 8654SOL     OW37597   4.173   3.347   4.046  0.5147 -0.5287  0.7631
 8654SOL    HW137598   4.226   3.274   4.079  2.0184  0.8200  1.3440
 8654SOL    HW237599   4.083   3.325   4.070  0.5482  0.6183  1.9074
 8655SOL     OW37600   1.416   4.257   8.838  0.5896  0.3690  0.5319
 8655SOL    HW137601   1.463   4.335   8.811  0.1734  0.4146 -0.0806
 8655SOL    HW237602   1.368   4.234   8.758  2.4982  0.4411 -0.6419
 8656SOL     OW37603   3.176   1.241   7.688  0.0211  0.0016 -0.3448
 8656SOL    HW137604   3.125   1.273   7.762 -1.7892  0.1283 -1.6407
 8656SOL    HW237605   3.118   1.266   7.616 -1.7964  2.4969  2.0064
 8657SOL     OW37606   0.933   2.119   8.860  0.0653  0.2571 -0.1098
 8657SOL    HW137607   0.852   2.152   8.899 -0.1462  1.3856 -1.5146
 8657SOL    HW237608   0.988   2.099   8.935 -2.1231  1.0164  1.7076
 8658SOL     OW37609   2.093   2.525   3.760 -0.6147  0.2198  0.0162
 8658SOL    HW137610   2.081   2.431   3.749 -0.6602  0.0657  1.3905
 8658SOL    HW237611   2.077   2.526   3.854 -2.3839 -0.2204 -0.2766
 8659SOL     OW37612   1.625   2.042   3.798  0.2005 -0.0266 -0.4084
 8659SOL    HW137613   1.634   1.947   3.787  2.1251  0.1594 -0.5187
 8659SOL    HW237614   1.572   2.052   3.877  0.4850  2.0099 -0.4727
 8660SOL     OW37615   3.484   3.898   8.444 -0.3284  0.0258  0.5645
 8660SOL    HW137616   3.454   3.807   8.447  1.8313 -0.7293 -0.9983
 8660SOL    HW237617   3.558   3.892   8.383  0.5443 -2.7293  1.8831
 8661SOL     OW37618   1.267   3.743   6.893 -0.0991  0.0622  0.2398
 8661SOL    HW137619   1.182   3.748   6.850 -0.3578 -0.0295  0.7498
 8661SOL    HW237620   1.289   3.835   6.907  1.0132 -0.2609  0.6783
 8662SOL     OW37621   1.688   3.953   2.538 -0.4099 -0.3100  0.1286
 8662SOL    HW137622   1.656   3.992   2.620  1.2772 -2.0291  1.6153
 8662SOL    HW237623   1.686   4.029   2.480  0.5184 -1.2998 -1.2009
 8663SOL     OW37624   4.259   4.029   3.456 -0.4251 -0.2525 -0.1276
 8663SOL    HW137625   4.303   4.114   3.457  1.1582 -1.0702 -0.1071
 8663SOL    HW237626   4.336   3.973   3.469 -0.3613 -0.3731 -1.0809
 8664SOL     OW37627   1.408   4.602   5.230 -0.0678  0.4457 -0.5382
 8664SOL    HW137628   1.317   4.574   5.238  0.0845  0.1543  0.0905
 8664SOL    HW237629   1.429   4.522   5.182  0.4177  0.5766 -0.5417
 8665SOL     OW37630   3.365   3.247  17.530  0.2087 -0.0904  0.3997
 8665SOL    HW137631   3.410   3.213  17.453 -3.0818 -3.1826 -0.1728
 8665SOL    HW237632   3.362   3.341  17.513  1.8429  0.1963  1.7230
 8666SOL     OW37633   1.337   0.592   1.598 -0.1664  0.2964 -0.3528
 8666SOL    HW137634   1.418   0.612   1.551 -0.8448  0.9604 -1.2384
 8666SOL    HW237635   1.369   0.558   1.681 -1.8494  1.0318  0.5970
 8667SOL     OW37636   2.686   3.496   0.703  0.3125 -0.1319 -0.0309
 8667SOL    HW137637   2.610   3.546   0.733  1.0823 -1.3503  3.9239
 8667SOL    HW237638   2.656   3.455   0.622 -1.8235  0.7919  0.3090
 8668SOL     OW37639   0.643   1.411   5.872  0.4445  0.1977  0.0594
 8668SOL    HW137640   0.550   1.403   5.849 -0.0558 -1.3200  2.5910
 8668SOL    HW237641   0.637   1.479   5.939  2.3506  0.0429  0.3825
 8669SOL     OW37642   4.673   0.412  11.064  0.1842 -0.0462 -0.2236
 8669SOL    HW137643   4.619   0.415  10.985  0.0131 -0.4067 -0.1180
 8669SOL    HW237644   4.637   0.333  11.104 -0.4018 -0.2553 -1.1527
 8670SOL     OW37645   3.704   0.944   3.140  0.1493 -0.3058 -0.1620
 8670SOL    HW137646   3.623   0.892   3.141  0.5643 -1.0035 -1.8713
 8670SOL    HW237647   3.742   0.910   3.059 -0.6716 -4.1104  1.0614
 8671SOL     OW37648   2.227   1.993   5.224  0.5564 -0.0744 -0.5579
 8671SOL    HW137649   2.134   2.013   5.215 -0.1111 -2.6103  0.6966
 8671SOL    HW237650   2.263   2.052   5.158  0.6953 -1.2456 -1.5306
 8672SOL     OW37651   2.672   3.753  13.147  0.4537  0.5382 -0.2491
 8672SOL    HW137652   2.725   3.779  13.223 -0.9305  0.6264  0.6990
 8672SOL    HW237653   2.722   3.799  13.080  0.5875 -0.6045 -0.9304
 8673SOL     OW37654   4.535   0.786   4.901  0.4508  0.1373  0.1190
 8673SOL    HW137655   4.525   0.786   4.806 -1.1337  0.4741  0.2720
 8673SOL    HW237656   4.567   0.876   4.908 -0.1284  0.4478 -1.1981
 8674SOL     OW37657   1.039   2.612   0.464 -0.1699 -0.2964  0.5664
 8674SOL    HW137658   1.065   2.523   0.488  1.0847 -0.0994 -0.0745
 8674SOL    HW237659   1.090   2.628   0.385 -0.7418 -1.0721  0.0423
 8675SOL     OW37660   2.721   4.628  14.369  0.0642  0.5872  0.2113
 8675SOL    HW137661   2.812   4.617  14.396  0.5879  3.2193 -0.5207
 8675SOL    HW237662   2.678   4.599  14.450 -1.7493  0.6525 -0.7159
 8676SOL     OW37663   1.835   4.724   1.459  0.5546 -0.3313 -0.2041
 8676SOL    HW137664   1.769   0.063   1.451  1.1711  0.2558 -0.3178
 8676SOL    HW237665   1.845   4.703   1.366  1.5038 -1.2114  0.0916
 8677SOL     OW37666   2.027   4.488   4.988  0.1839 -0.6531 -0.4373
 8677SOL    HW137667   2.031   4.472   4.893  1.7289  2.8474 -0.9473
 8677SOL    HW237668   2.099   4.547   5.012  0.0588 -1.6875  2.4129
 8678SOL     OW37669   2.487   4.300   9.049 -0.0946  0.2582 -0.1612
 8678SOL    HW137670   2.419   4.236   9.025  2.0019 -2.1417  0.3076
 8678SOL    HW237671   2.438   4.382   9.041  1.3664  1.3266  1.8698
 8679SOL     OW37672   3.088   0.262   5.103  0.0038  0.0986 -0.1629
 8679SOL    HW137673   3.158   0.253   5.167 -1.0630 -0.2533  0.9671
 8679SOL    HW237674   3.028   0.319   5.151  1.3904  1.5307 -0.1562
 8680SOL     OW37675   1.103   1.275   3.573 -0.6843  0.2561 -0.1186
 8680SOL    HW137676   1.096   1.343   3.639  2.0326 -1.5919  2.0688
 8680SOL    HW237677   1.067   1.204   3.626  2.1755 -1.9044 -1.1002
 8681SOL     OW37678   3.420   0.468   8.367  0.2359 -0.5691 -0.1522
 8681SOL    HW137679   3.411   0.495   8.458 -0.9129 -0.7892 -0.2066
 8681SOL    HW237680   3.451   0.379   8.386 -0.6157 -1.1005 -1.2331
 8682SOL     OW37681   1.264   0.161   7.476 -0.1330  0.2687 -0.4089
 8682SOL    HW137682   1.257   0.142   7.570 -2.2205  0.8886 -0.4420
 8682SOL    HW237683   1.337   0.107   7.447  0.4865 -0.3504  2.2905
 8683SOL     OW37684   1.604   2.675  15.696  0.2300 -0.2522 -0.3085
 8683SOL    HW137685   1.556   2.593  15.681 -0.1159 -0.1615  0.3153
 8683SOL    HW237686   1.600   2.675  15.792 -3.2633  0.7862 -0.4652
 8684SOL     OW37687   2.899   0.228  11.942  0.4324 -0.1318  0.0539
 8684SOL    HW137688   2.955   0.272  12.005 -0.2944 -0.5567  0.9929
 8684SOL    HW237689   2.919   0.135  11.952 -0.6668 -0.6667 -2.5050
 8685SOL     OW37690   2.937   4.197   7.204  0.6784  0.2977 -0.2954
 8685SOL    HW137691   2.966   4.150   7.126  0.9283  0.0458 -0.0505
 8685SOL    HW237692   3.008   4.260   7.211  2.3670 -1.6031 -0.3184
 8686SOL     OW37693   1.811   3.573  10.608  0.0359 -0.6797 -0.0311
 8686SOL    HW137694   1.859   3.494  10.633  1.3203  0.8928  2.4241
 8686SOL    HW237695   1.730   3.575  10.659  0.7697 -0.5914  1.1236
 8687SOL     OW37696   3.917   1.095   5.339 -0.4847  0.4194  0.0366
 8687SOL    HW137697   3.971   1.081   5.261  1.8627 -1.4326  1.9729
 8687SOL    HW237698   3.945   1.018   5.388  0.9175  1.5068  0.9668
 8688SOL     OW37699   0.842   0.071   0.697 -0.0717  0.3750  0.1757
 8688SOL    HW137700   0.887   0.152   0.673  0.0841  0.4002  0.5485
 8688SOL    HW237701   0.876   0.017   0.626  1.5050 -1.5246  2.4107
 8689SOL     OW37702   2.710   1.579   7.712 -0.3974 -0.6816  0.1586
 8689SOL    HW137703   2.689   1.655   7.658 -0.9393 -0.6636  0.3901
 8689SOL    HW237704   2.694   1.608   7.802 -2.7233 -1.9505  0.1438
 8690SOL     OW37705   0.058   3.213   4.788  0.1379  0.1651 -0.1031
 8690SOL    HW137706   0.089   3.304   4.790 -1.3619  0.6845 -0.6319
 8690SOL    HW237707   0.134   3.159   4.767  0.4990  0.4842  0.3667
 8691SOL     OW37708   1.691   1.976   2.882 -0.1222 -0.4060 -0.5355
 8691SOL    HW137709   1.761   1.931   2.929  0.6799  1.2405 -0.1396
 8691SOL    HW237710   1.722   2.066   2.866  0.0899 -0.6921 -1.7561
 8692SOL     OW37711   0.763   2.589   8.226 -0.0622 -0.0085 -0.4024
 8692SOL    HW137712   0.754   2.560   8.135 -0.7968  2.1036 -0.9851
 8692SOL    HW237713   0.671   2.589   8.252  0.1294  0.9284  0.2590
 8693SOL     OW37714   2.292   4.024   8.450  0.3440 -0.4454  0.1802
 8693SOL    HW137715   2.211   3.978   8.471  1.8091 -3.4637 -0.7715
 8693SOL    HW237716   2.255   4.077   8.380 -1.7279 -0.9251  0.9274
 8694SOL     OW37717   3.786   3.816  12.674  1.1534 -0.3491 -0.0216
 8694SOL    HW137718   3.691   3.827  12.686  1.5329  1.9798  0.7303
 8694SOL    HW237719   3.815   3.787  12.760  1.4249  1.4960  0.5032
 8695SOL     OW37720   3.236   2.769   2.664 -0.2222 -0.3300 -0.4539
 8695SOL    HW137721   3.248   2.864   2.672  1.5250 -0.8062  2.7354
 8695SOL    HW237722   3.270   2.750   2.576 -0.0299  2.4075 -0.9970
 8696SOL     OW37723   3.206   1.260   8.904  0.0379 -0.3805  0.3586
 8696SOL    HW137724   3.220   1.191   8.969  0.8816  0.9819  1.6168
 8696SOL    HW237725   3.123   1.231   8.866  0.4757  1.3831 -2.0033
 8697SOL     OW37726   2.920   0.486   5.187 -0.0707 -0.2991 -0.0477
 8697SOL    HW137727   2.886   0.566   5.147  2.1433  1.3187  1.3279
 8697SOL    HW237728   2.948   0.519   5.272 -0.3906  1.8366 -0.7723
 8698SOL     OW37729   1.050   2.740   1.827 -0.0959 -0.1670  0.0922
 8698SOL    HW137730   0.973   2.684   1.815 -0.6309  1.0619 -2.2043
 8698SOL    HW237731   1.009   2.826   1.825 -0.7133 -0.4131  2.1682
 8699SOL     OW37732   0.722   2.436   9.931 -0.1719 -0.0678  0.1803
 8699SOL    HW137733   0.629   2.427   9.912  0.2350  0.3770 -1.9958
 8699SOL    HW237734   0.717   2.446  10.026  1.4946 -2.4009  0.5215
 8700SOL     OW37735   4.495   0.267   2.046 -0.7342 -0.6328 -0.3077
 8700SOL    HW137736   4.428   0.322   2.087 -2.4783 -3.7446  1.0466
 8700SOL    HW237737   4.445   0.206   1.991  0.8839 -1.4506 -0.8712
 8701SOL     OW37738   3.281   1.823   4.061 -1.0643  0.2941 -0.8298
 8701SOL    HW137739   3.338   1.749   4.040  1.4248  0.9631  3.6586
 8701SOL    HW237740   3.211   1.794   4.003 -2.4213 -0.2890  1.0929
 8702SOL     OW37741   2.791   3.225   8.024 -0.5177  0.4590 -0.4148
 8702SOL    HW137742   2.748   3.299   8.067  0.6557  0.4148  0.8148
 8702SOL    HW237743   2.807   3.170   8.100  0.4506  0.0713 -0.9065
 8703SOL     OW37744   3.463   4.337   6.835 -0.5417  0.2376  0.2981
 8703SOL    HW137745   3.557   4.325   6.846 -0.4648  0.9693  0.4979
 8703SOL    HW237746   3.463   4.400   6.762  0.8583 -0.3043 -0.1798
 8704SOL     OW37747   1.473   0.423   7.559  0.0445 -0.1124  0.4246
 8704SOL    HW137748   1.396   0.466   7.521  0.4219 -0.0070 -0.2282
 8704SOL    HW237749   1.535   0.492   7.533 -1.0973  0.4914 -0.6860
 8705SOL     OW37750   0.718   2.028  14.912 -0.0572  0.2724  0.0875
 8705SOL    HW137751   0.739   2.068  14.828  0.6670 -2.1581 -0.8765
 8705SOL    HW237752   0.704   2.107  14.965 -2.2786  1.9831 -3.0674
 8706SOL     OW37753   1.585   3.135  10.900 -0.3223  0.3533  0.3553
 8706SOL    HW137754   1.533   3.135  10.980 -1.1669 -2.0580 -0.2015
 8706SOL    HW237755   1.652   3.072  10.927 -1.0982 -0.6224 -0.0188
 8707SOL     OW37756   1.332   3.979   8.228 -0.2382  0.2681 -0.3982
 8707SOL    HW137757   1.291   4.009   8.309 -0.5414  0.3907 -0.5958
 8707SOL    HW237758   1.255   3.970   8.171 -1.4617  1.5745  1.0612
 8708SOL     OW37759   3.237   0.720  10.302 -0.1171 -0.8732 -0.2881
 8708SOL    HW137760   3.156   0.734  10.350  0.2736  0.7790 -0.1172
 8708SOL    HW237761   3.239   0.800  10.250  1.1388 -1.2338 -0.8080
 8709SOL     OW37762   2.941   0.538   4.836 -0.2029 -0.3915  0.0200
 8709SOL    HW137763   2.938   0.442   4.834 -0.7682 -0.4058  1.4681
 8709SOL    HW237764   2.932   0.541   4.931 -1.0262  0.6084 -0.0886
 8710SOL     OW37765   3.518   4.644   3.673 -0.1165  0.0031  0.9477
 8710SOL    HW137766   3.441   4.667   3.725  0.6724  0.4240  1.9277
 8710SOL    HW237767   3.566   4.725   3.655  4.5393 -2.6309  1.5562
 8711SOL     OW37768   1.795   2.738   4.124  0.0361 -0.2385  0.0904
 8711SOL    HW137769   1.739   2.686   4.182 -1.5876  0.5219 -0.7947
 8711SOL    HW237770   1.738   2.757   4.049  1.3237  0.6610 -0.6562
 8712SOL     OW37771   2.703   3.376   9.686 -0.0795 -0.3256 -0.1453
 8712SOL    HW137772   2.731   3.301   9.739 -0.7635 -1.0927 -0.8625
 8712SOL    HW237773   2.613   3.357   9.657 -0.0961  0.2965 -0.4959
 8713SOL     OW37774   3.174   0.920  13.780  0.1534 -0.2974 -0.2187
 8713SOL    HW137775   3.106   0.854  13.772 -0.8036  0.7563 -0.8588
 8713SOL    HW237776   3.234   0.879  13.718  0.3218  0.8329 -0.8089
 8714SOL     OW37777   3.196   1.749   2.759  0.5993  0.0399  0.3264
 8714SOL    HW137778   3.167   1.780   2.845  1.2625  1.0464  0.1938
 8714SOL    HW237779   3.269   1.696   2.790  0.7512 -0.4040 -0.7799
 8715SOL     OW37780   3.553   0.895   1.159 -0.2731 -0.2223 -0.0382
 8715SOL    HW137781   3.628   0.862   1.207 -1.1312 -2.6802 -0.4029
 8715SOL    HW237782   3.553   0.987   1.188 -0.1932 -0.4825  0.7788
 8716SOL     OW37783   3.793   1.716   5.966 -0.5113 -0.0212  0.0548
 8716SOL    HW137784   3.706   1.676   5.963  0.4457 -2.1285  0.6272
 8716SOL    HW237785   3.834   1.679   5.887 -1.2608  0.3369 -0.5016
 8717SOL     OW37786   3.410   0.266   1.871 -0.2196  0.1412  0.5294
 8717SOL    HW137787   3.445   0.302   1.790 -0.2973 -2.2523 -0.5644
 8717SOL    HW237788   3.317   0.290   1.865  0.0892  0.9338 -1.0863
 8718SOL     OW37789   3.882   4.459   3.259  0.0722 -0.3996  0.2262
 8718SOL    HW137790   3.833   4.404   3.199 -1.6770  2.9399 -1.3761
 8718SOL    HW237791   3.903   4.399   3.331 -4.0819 -0.3289  1.5012
 8719SOL     OW37792   0.182   2.446   8.296 -0.0399  0.3564  0.0673
 8719SOL    HW137793   0.127   2.411   8.226 -1.1072 -0.6394  1.4177
 8719SOL    HW237794   0.260   2.392   8.290  0.0071  0.5305 -0.9741
 8720SOL     OW37795   3.351   2.806  11.472  0.3611  0.2431  0.5177
 8720SOL    HW137796   3.373   2.767  11.387 -0.2573 -1.1698  1.0048
 8720SOL    HW237797   3.281   2.864  11.441  0.1991 -0.7049 -0.8899
 8721SOL     OW37798   3.266   2.977   6.863  0.8971 -0.3032  0.5466
 8721SOL    HW137799   3.327   2.920   6.816 -0.1740 -0.4188 -0.7169
 8721SOL    HW237800   3.292   2.954   6.952 -0.5719  0.4382  1.1605
 8722SOL     OW37801   0.713   3.184   3.467  0.3610 -0.1219 -0.0802
 8722SOL    HW137802   0.632   3.193   3.415  0.2656 -1.5198 -0.1549
 8722SOL    HW237803   0.773   3.194   3.393 -0.9139 -0.9188 -1.2305
 8723SOL     OW37804   3.920   2.299   3.352  0.3220 -0.0782  0.0729
 8723SOL    HW137805   3.843   2.294   3.295  0.0503  0.7875  0.3616
 8723SOL    HW237806   3.896   2.381   3.395  0.6384 -0.1132  0.3151
 8724SOL     OW37807   3.595   2.690   7.438 -0.0049  0.6851  0.4177
 8724SOL    HW137808   3.550   2.628   7.495  0.8763 -1.0490 -0.7656
 8724SOL    HW237809   3.510   2.731   7.419  0.3863  1.0191 -0.6194
 8725SOL     OW37810   0.352   0.204   6.608 -0.4861  0.6883  0.1933
 8725SOL    HW137811   0.311   0.126   6.570  1.1430  1.2941 -2.8904
 8725SOL    HW237812   0.404   0.239   6.535 -1.1156 -2.4659 -1.7682
 8726SOL     OW37813   2.260   4.476  12.902  0.0712  0.1447 -0.0900
 8726SOL    HW137814   2.175   4.446  12.935  1.2976 -1.6972  1.3833
 8726SOL    HW237815   2.282   4.402  12.845 -2.5321 -0.1880 -0.6716
 8727SOL     OW37816   3.068   4.024   6.720  0.0120  0.2681  0.2868
 8727SOL    HW137817   3.108   4.064   6.798 -0.3729  3.5116 -1.2052
 8727SOL    HW237818   3.109   3.939   6.734 -0.6715 -0.4924 -2.3971
 8728SOL     OW37819   4.478   2.271  16.612 -0.1781  0.2583  0.5455
 8728SOL    HW137820   4.495   2.243  16.702 -3.4571  0.4984  1.2699
 8728SOL    HW237821   4.392   2.231  16.598  0.7318 -0.6211 -2.4854
 8729SOL     OW37822   1.598   4.047   3.546 -0.8989 -0.2114  0.1418
 8729SOL    HW137823   1.654   3.978   3.511 -0.4968  0.5349 -0.6976
 8729SOL    HW237824   1.665   4.113   3.562  0.8225 -1.3080 -2.3658
 8730SOL     OW37825   2.419   4.146  13.635 -0.0183  0.1141 -0.4093
 8730SOL    HW137826   2.424   4.127  13.728  2.2190  2.9480  0.0371
 8730SOL    HW237827   2.326   4.152  13.612  0.1892  0.9546 -1.0595
 8731SOL     OW37828   2.700   1.266   4.118 -0.0221  0.3413 -0.1329
 8731SOL    HW137829   2.757   1.192   4.097  1.9041  1.8604 -0.2452
 8731SOL    HW237830   2.715   1.277   4.212 -0.3874  0.5657 -0.0981
 8732SOL     OW37831   1.632   1.115   3.508  0.3267  0.1252  0.1886
 8732SOL    HW137832   1.614   1.147   3.597 -0.4781 -1.5059  0.5986
 8732SOL    HW237833   1.680   1.192   3.477 -0.3907  0.2332 -0.6444
 8733SOL     OW37834   4.156   1.038   7.872  0.3028 -0.5178 -0.2402
 8733SOL    HW137835   4.180   1.075   7.957 -1.9314  0.2742  0.0365
 8733SOL    HW237836   4.191   0.950   7.884  0.8874 -0.0396  1.5513
 8734SOL     OW37837   2.564   3.950   3.730 -0.0434 -0.3777  0.1749
 8734SOL    HW137838   2.501   3.887   3.695  0.9593 -0.4016 -1.5586
 8734SOL    HW237839   2.643   3.924   3.683  0.8723  0.7978  1.0401
 8735SOL     OW37840   0.013   2.416  16.742  0.5342  0.9503  0.0536
 8735SOL    HW137841   4.725   2.437  16.651  1.8281  0.3643 -0.3205
 8735SOL    HW237842   4.724   2.323  16.730 -2.4686  1.2464  2.1954
 8736SOL     OW37843   3.609   3.190   3.638  0.4357  0.4064  0.4049
 8736SOL    HW137844   3.593   3.109   3.589 -0.3548  0.5307  0.4469
 8736SOL    HW237845   3.703   3.204   3.627  0.3457  0.1904 -0.6609
 8737SOL     OW37846   4.152   1.222  15.280  0.3141 -0.2727  0.0109
 8737SOL    HW137847   4.111   1.306  15.262  0.0370 -0.2137  0.9133
 8737SOL    HW237848   4.203   1.235  15.360  1.7864 -0.0514 -0.9613
 8738SOL     OW37849   2.029   1.821   9.012  0.2835 -0.4364 -0.0785
 8738SOL    HW137850   1.992   1.788   9.093 -0.3166  1.0159  0.2525
 8738SOL    HW237851   2.123   1.813   9.027  0.9415  0.2076 -3.8845
 8739SOL     OW37852   2.068   2.264  11.687 -0.5097 -0.4232  0.1009
 8739SOL    HW137853   2.063   2.195  11.752 -0.1490 -1.5108 -1.0196
 8739SOL    HW237854   2.162   2.279  11.683 -0.3808 -1.2682  0.0838
 8740SOL     OW37855   0.260   0.202   3.409  0.0543  0.2305  0.1894
 8740SOL    HW137856   0.320   0.137   3.447 -1.8493 -2.2028 -0.9904
 8740SOL    HW237857   0.198   0.152   3.356 -0.8273  1.5821 -0.0625
 8741SOL     OW37858   1.596   3.996  16.896  0.0504  0.3284  0.1770
 8741SOL    HW137859   1.604   4.034  16.808  1.3208  4.3970  2.0971
 8741SOL    HW237860   1.503   3.991  16.875  0.0734  0.8265 -0.0511
 8742SOL     OW37861   0.696   2.259   5.358  0.0575 -0.4305 -0.1914
 8742SOL    HW137862   0.605   2.237   5.338 -1.2208  2.0646  2.8964
 8742SOL    HW237863   0.725   2.172   5.385  0.0769 -0.9574 -1.9075
 8743SOL     OW37864   4.336   1.610   5.516  0.4594 -0.0498 -0.2849
 8743SOL    HW137865   4.251   1.587   5.554  0.1274  2.0338  0.2573
 8743SOL    HW237866   4.339   1.694   5.562  0.5548 -1.7327  2.7427
 8744SOL     OW37867   0.558   3.282   6.489 -0.0660  0.1636  0.2107
 8744SOL    HW137868   0.647   3.293   6.454  0.4070  1.2434  1.7297
 8744SOL    HW237869   0.511   3.364   6.471 -1.3376 -0.2697  1.5524
 8745SOL     OW37870   2.200   3.608   4.171 -0.5085  0.4207  0.2205
 8745SOL    HW137871   2.107   3.588   4.182 -0.1695  0.6359  3.6435
 8745SOL    HW237872   2.239   3.529   4.209 -1.8695 -0.8714 -1.0496
 8746SOL     OW37873   1.400   0.459   3.535 -0.1364  0.2210  0.3057
 8746SOL    HW137874   1.379   0.550   3.554  1.2478  0.3235  1.3519
 8746SOL    HW237875   1.337   0.441   3.465 -1.0973 -0.9719  1.4618
 8747SOL     OW37876   4.185   3.838  15.025  0.1091  0.3189  0.9948
 8747SOL    HW137877   4.253   3.898  15.056  0.0409  0.6274  0.5521
 8747SOL    HW237878   4.175   3.770  15.091 -1.4475 -1.2133 -0.8411
 8748SOL     OW37879   1.475   2.628   5.505 -0.8986  0.1216 -0.1496
 8748SOL    HW137880   1.530   2.704   5.521  1.4793 -1.4647 -0.7463
 8748SOL    HW237881   1.388   2.667   5.516 -0.5411 -0.0209  3.0334
 8749SOL     OW37882   4.478   2.531  12.810  0.6861 -0.3037 -0.0247
 8749SOL    HW137883   4.514   2.619  12.826 -0.0655  0.0175 -0.0806
 8749SOL    HW237884   4.393   2.555  12.772  1.0598 -0.1627 -0.7828
 8750SOL     OW37885   0.497   1.087  13.146 -0.2703 -0.0879  0.1416
 8750SOL    HW137886   0.431   1.021  13.169 -0.3965  0.0881  0.2818
 8750SOL    HW237887   0.565   1.029  13.112  0.9021  0.3108  1.8003
 8751SOL     OW37888   4.678   3.524   6.376  0.2858  0.0575  0.1281
 8751SOL    HW137889   4.705   3.436   6.351 -0.8512 -0.2044 -0.1727
 8751SOL    HW237890   4.586   3.515   6.353  0.5632 -1.2627 -0.4698
 8752SOL     OW37891   4.055   0.883   6.689  0.4643 -0.2185 -0.4082
 8752SOL    HW137892   4.137   0.911   6.728 -0.5100  1.3836  0.4650
 8752SOL    HW237893   4.036   0.823   6.761  0.4748 -0.8436 -0.9220
 8753SOL     OW37894   1.832   2.131   2.506  0.4059 -0.2109  0.3640
 8753SOL    HW137895   1.884   2.211   2.517 -1.1559  1.1184 -1.9349
 8753SOL    HW237896   1.871   2.077   2.575 -0.7964 -0.1330  1.1008
 8754SOL     OW37897   0.823   0.009  11.390  0.4344  0.5016 -0.2502
 8754SOL    HW137898   0.877   4.669  11.428 -0.5561  0.6475  1.4322
 8754SOL    HW237899   0.783   0.035  11.473 -1.4140 -2.8113 -0.1262
 8755SOL     OW37900   3.949   1.219   9.325 -0.4973  0.5917 -0.8823
 8755SOL    HW137901   3.875   1.275   9.350 -0.6854  0.0260 -0.1826
 8755SOL    HW237902   3.929   1.183   9.238  0.5091 -0.7149 -0.5701
 8756SOL     OW37903   0.870   1.237   6.172 -0.1463  0.7939  0.6132
 8756SOL    HW137904   0.879   1.143   6.154 -1.0244  0.8610 -0.1970
 8756SOL    HW237905   0.778   1.245   6.197 -0.3657 -1.7722  0.6449
 8757SOL     OW37906   0.275   2.488   8.913  0.2895 -0.3998  0.0967
 8757SOL    HW137907   0.230   2.565   8.878  0.9994  0.8548  1.9045
 8757SOL    HW237908   0.224   2.415   8.878  0.8213 -0.7288 -0.0049
 8758SOL     OW37909   2.653   0.226   5.892  0.1694 -0.1140 -0.1690
 8758SOL    HW137910   2.643   0.140   5.932 -2.0546  2.3717  4.6117
 8758SOL    HW237911   2.712   0.261   5.959  1.3129 -1.5656 -0.4311
 8759SOL     OW37912   3.366   0.810   3.746  0.6514  0.0931 -0.2860
 8759SOL    HW137913   3.322   0.739   3.700 -0.7179  1.1851 -0.6535
 8759SOL    HW237914   3.396   0.754   3.818 -2.0738  0.2975  0.9795
 8760SOL     OW37915   1.359   2.503   0.483 -0.3307 -0.1156  0.0319
 8760SOL    HW137916   1.336   2.512   0.575  0.6285 -3.4466  0.6104
 8760SOL    HW237917   1.388   2.593   0.467  0.5448  0.2227  3.6639
 8761SOL     OW37918   2.342   2.841   8.302 -0.0729  0.2973 -0.1500
 8761SOL    HW137919   2.285   2.883   8.366  0.4809  1.8701 -0.6853
 8761SOL    HW237920   2.424   2.860   8.348  0.3938 -1.3423 -0.2941
 8762SOL     OW37921   2.177   1.337  12.691 -0.2751 -0.7799 -0.5027
 8762SOL    HW137922   2.093   1.298  12.667  0.6177 -0.6516 -3.7364
 8762SOL    HW237923   2.222   1.255  12.710 -1.5527 -1.5441 -0.7414
 8763SOL     OW37924   3.950   4.576   7.553  0.1200  1.3392 -0.3685
 8763SOL    HW137925   3.867   4.542   7.588  1.2162 -1.7380 -0.7191
 8763SOL    HW237926   3.923   4.637   7.485 -0.0389 -0.1484 -1.6487
 8764SOL     OW37927   3.638   4.249   3.380 -0.0507  0.5938 -0.4244
 8764SOL    HW137928   3.570   4.307   3.414 -1.7354 -0.6777 -1.6149
 8764SOL    HW237929   3.641   4.274   3.288 -0.6433  1.6347 -0.1634
 8765SOL     OW37930   2.466   2.275   6.851  0.1675  0.6197 -0.3254
 8765SOL    HW137931   2.424   2.357   6.876  0.2150  0.7089 -0.5347
 8765SOL    HW237932   2.392   2.227   6.815  1.1188 -0.0587 -1.3997
 8766SOL     OW37933   4.410   3.441   7.980 -0.0104 -0.4910 -0.2036
 8766SOL    HW137934   4.397   3.346   7.988 -1.8199 -0.1482  0.8213
 8766SOL    HW237935   4.455   3.441   7.896 -0.6795 -0.3125 -0.5557
 8767SOL     OW37936   1.116   0.328   6.245  0.4951 -0.2005  0.0341
 8767SOL    HW137937   1.174   0.257   6.271  0.9506  0.4681  0.8109
 8767SOL    HW237938   1.066   0.351   6.323  0.7100 -2.5533  0.8589
 8768SOL     OW37939   2.074   3.382   8.717 -0.1918 -0.2665  0.0461
 8768SOL    HW137940   1.993   3.345   8.683  0.1056 -1.6815  0.8746
 8768SOL    HW237941   2.128   3.303   8.712 -1.9989 -1.5211  0.5044
 8769SOL     OW37942   4.536   4.443   6.458  0.4245  0.2859 -0.5021
 8769SOL    HW137943   4.522   4.370   6.397 -1.9365 -0.1731  0.5889
 8769SOL    HW237944   4.612   4.479   6.412  1.9385 -2.1116  0.1119
 8770SOL     OW37945   4.697   3.948   9.581  0.1086 -0.1545 -0.3349
 8770SOL    HW137946   4.720   3.870   9.532 -2.8769 -3.3984  3.4647
 8770SOL    HW237947   0.021   4.015   9.539  0.7199  0.1254  0.8788
 8771SOL     OW37948   2.599   2.686  11.098 -0.1728 -0.0882  0.0798
 8771SOL    HW137949   2.506   2.682  11.120 -0.3456 -0.9025 -0.7740
 8771SOL    HW237950   2.639   2.641  11.172 -1.4469  0.6335  1.2025
 8772SOL     OW37951   0.620   2.199   3.072  0.3830  0.5054 -0.4740
 8772SOL    HW137952   0.553   2.149   3.117  3.1975 -0.9182  2.1606
 8772SOL    HW237953   0.568   2.277   3.052 -0.4413  0.2207  0.5833
 8773SOL     OW37954   1.576   0.671   8.135 -0.3209  0.4611  0.5807
 8773SOL    HW137955   1.499   0.619   8.156 -0.7775  0.5782 -0.8052
 8773SOL    HW237956   1.635   0.617   8.083  0.4697 -0.2529  2.2324
 8774SOL     OW37957   2.760   0.978  11.151 -0.3266 -0.1594  0.5795
 8774SOL    HW137958   2.747   1.041  11.223 -2.0516  0.1167  0.0201
 8774SOL    HW237959   2.848   0.944  11.165 -0.4675 -1.7240 -2.5550
 8775SOL     OW37960   0.773   2.916   6.096  0.0123  0.2006 -0.5310
 8775SOL    HW137961   0.688   2.877   6.115 -0.5570  0.8729 -1.6886
 8775SOL    HW237962   0.791   2.885   6.007 -0.7057  0.3205 -0.7143
 8776SOL     OW37963   3.848   2.585  13.347 -0.2019  0.0805 -0.0923
 8776SOL    HW137964   3.932   2.562  13.308  0.3210 -0.2766  1.2595
 8776SOL    HW237965   3.888   2.636  13.419  1.4898 -0.7239 -0.4618
 8777SOL     OW37966   2.665   3.512  13.387  0.0086  0.1913 -0.0624
 8777SOL    HW137967   2.693   3.603  13.376  1.4650 -0.6582 -3.5861
 8777SOL    HW237968   2.748   3.466  13.370 -0.2536 -0.9112  1.5937
 8778SOL     OW37969   2.619   0.872   4.876 -0.5381  0.0979  0.2147
 8778SOL    HW137970   2.592   0.823   4.953  1.9549  0.8978  1.6033
 8778SOL    HW237971   2.659   0.799   4.828  1.1769  0.2504  1.4170
 8779SOL     OW37972   1.325   0.253   5.997  0.1504  0.6098  0.2295
 8779SOL    HW137973   1.418   0.237   6.006  0.1502  0.1038 -0.6450
 8779SOL    HW237974   1.299   0.271   6.087 -0.9836 -0.3364  0.0976
 8780SOL     OW37975   2.687   4.573  11.259  0.0441  0.4137 -0.7398
 8780SOL    HW137976   2.735   4.615  11.331 -0.3367  0.8371 -0.7335
 8780SOL    HW237977   2.672   4.486  11.295 -0.9550  1.0823  0.4600
 8781SOL     OW37978   1.504   1.956   4.888 -0.1660 -0.1527  0.5324
 8781SOL    HW137979   1.575   1.941   4.826 -2.0867 -2.0957 -1.1740
 8781SOL    HW237980   1.495   1.872   4.933 -1.1909 -0.3231 -0.0046
 8782SOL     OW37981   1.213   3.704  15.399  0.1913 -0.2280 -0.3652
 8782SOL    HW137982   1.248   3.617  15.383  0.6217 -0.1722  0.2737
 8782SOL    HW237983   1.256   3.715  15.484  2.5169 -0.5762 -1.4821
 8783SOL     OW37984   0.794   2.440   8.899  0.5600 -0.3420 -0.3815
 8783SOL    HW137985   0.802   2.355   8.943  4.2248  0.8750  1.3594
 8783SOL    HW237986   0.881   2.478   8.888  0.7621 -0.3775  1.0344
 8784SOL     OW37987   1.499   0.461   8.710 -0.0232  0.2194  0.7446
 8784SOL    HW137988   1.562   0.528   8.686 -3.6644  4.3338  2.5183
 8784SOL    HW237989   1.517   0.401   8.638  0.1338 -0.9593  1.7495
 8785SOL     OW37990   2.871   3.532   8.590  0.4616  0.3384 -0.5871
 8785SOL    HW137991   2.778   3.544   8.610 -0.1476 -2.6372 -1.7333
 8785SOL    HW237992   2.905   3.533   8.680  0.7610  2.2689 -0.7192
 8786SOL     OW37993   2.091   0.810   1.929 -0.1413 -0.3245  0.0957
 8786SOL    HW137994   2.115   0.885   1.875  0.4473  0.5595  1.5771
 8786SOL    HW237995   2.032   0.855   1.989  0.5645  1.8786 -0.8716
 8787SOL     OW37996   0.588   1.115  10.578 -0.2288 -0.2400  0.4157
 8787SOL    HW137997   0.639   1.180  10.626  0.5598  0.0243 -0.7881
 8787SOL    HW237998   0.560   1.155  10.496  1.7178  0.3812  0.0621
 8788SOL     OW37999   0.277   2.131   8.327  0.6410  0.6064  0.6805
 8788SOL    HW138000   0.287   2.061   8.392  1.1862 -0.8029 -0.9120
 8788SOL    HW238001   0.351   2.109   8.271 -0.3115 -0.0816 -0.3294
 8789SOL     OW38002   4.583   2.014   7.127  0.4826  0.2238 -0.1707
 8789SOL    HW138003   4.610   2.024   7.218 -1.3636 -2.1665  0.6384
 8789SOL    HW238004   4.668   2.037   7.091 -0.2422  2.0161 -0.7295
 8790SOL     OW38005   2.289   0.528  12.194  0.4410 -0.0170  0.5187
 8790SOL    HW138006   2.361   0.466  12.207 -0.4676 -1.3625 -0.9135
 8790SOL    HW238007   2.248   0.499  12.112 -0.0968  1.3858  0.2965
 8791SOL     OW38008   0.008   2.767   5.945 -0.2409 -0.1106 -0.4160
 8791SOL    HW138009   0.027   2.740   5.855 -0.2141  0.6112 -0.6284
 8791SOL    HW238010   4.703   2.855   5.926 -0.1591 -0.0599 -0.3314
 8792SOL     OW38011   0.652   1.695   6.516  0.2919  0.1118 -0.6686
 8792SOL    HW138012   0.572   1.695   6.568 -0.0661 -0.2784 -1.2289
 8792SOL    HW238013   0.707   1.622   6.544 -2.5501 -1.6139  0.3033
 8793SOL     OW38014   2.530   0.069   8.698 -0.4575 -0.3902  0.2990
 8793SOL    HW138015   2.454   0.128   8.694  0.2532  0.3923 -1.7101
 8793SOL    HW238016   2.578   0.099   8.620  1.2291  1.6800  2.1038
 8794SOL     OW38017   4.103   1.978   7.612 -0.1200 -0.0404  0.0455
 8794SOL    HW138018   4.173   1.973   7.547  0.3304  1.1449  0.4437
 8794SOL    HW238019   4.114   1.886   7.636 -1.9035 -0.7146 -1.6720
 8795SOL     OW38020   0.943   1.179  12.538  0.0527 -0.0744  0.6976
 8795SOL    HW138021   0.909   1.266  12.559  1.4738  0.2395  1.7674
 8795SOL    HW238022   0.966   1.143  12.624  0.0429  1.0892  1.1871
 8796SOL     OW38023   3.713   3.796   3.661 -0.6334 -0.3855 -0.3086
 8796SOL    HW138024   3.646   3.792   3.728 -2.1456  2.7354 -1.6363
 8796SOL    HW238025   3.697   3.885   3.630 -1.7191 -1.0645 -1.7044
 8797SOL     OW38026   4.404   0.830   8.157 -0.0600  0.3558  0.2547
 8797SOL    HW138027   4.350   0.906   8.137 -1.0827 -0.8277 -1.4539
 8797SOL    HW238028   4.488   0.871   8.179  0.2963  0.9402 -2.1991
 8798SOL     OW38029   4.296   2.483  15.549 -0.2016 -0.7438 -0.6631
 8798SOL    HW138030   4.318   2.424  15.477  1.3226 -0.9042 -0.0592
 8798SOL    HW238031   4.237   2.420  15.591 -1.8478 -0.3252 -2.3565
 8799SOL     OW38032   2.154   2.238   9.774  0.1051 -0.4858  0.2788
 8799SOL    HW138033   2.075   2.228   9.721  1.3760 -0.1908 -1.6821
 8799SOL    HW238034   2.174   2.145   9.778 -0.4769 -0.7162 -2.1921
 8800SOL     OW38035   3.642   2.437   0.861  0.0711 -0.1103  0.4689
 8800SOL    HW138036   3.599   2.517   0.831 -0.4472  0.0999  1.7466
 8800SOL    HW238037   3.642   2.381   0.784 -1.1111  0.6426 -0.0664
 8801SOL     OW38038   3.477   4.524   7.190 -0.7118 -0.5828  0.1758
 8801SOL    HW138039   3.430   4.466   7.251  0.5076 -2.6101 -0.8215
 8801SOL    HW238040   3.421   4.523   7.113  0.4202  0.8288 -0.6597
 8802SOL     OW38041   2.645   3.069   6.294 -0.2759 -0.5946 -0.1346
 8802SOL    HW138042   2.595   3.074   6.376  0.6021 -3.1112  0.5443
 8802SOL    HW238043   2.722   3.115   6.328 -0.3341  0.0699 -0.9057
 8803SOL     OW38044   3.151   2.184   6.052  0.1623 -0.3784  0.3015
 8803SOL    HW138045   3.246   2.192   6.038 -0.1224 -1.3890 -2.1257
 8803SOL    HW238046   3.135   2.278   6.060  3.0782  0.0505  1.0666
 8804SOL     OW38047   3.813   0.856   4.355  0.0498 -0.3621  0.0237
 8804SOL    HW138048   3.812   0.788   4.423  0.9301  1.6021  1.9799
 8804SOL    HW238049   3.809   0.934   4.410  0.2970 -0.3962  0.0909
 8805SOL     OW38050   2.613   3.163   4.631 -0.5084 -0.7116  0.1014
 8805SOL    HW138051   2.633   3.256   4.631 -1.4085 -0.5237  0.7041
 8805SOL    HW238052   2.529   3.154   4.587  0.1973  1.8498 -1.7696
 8806SOL     OW38053   0.007   0.775   7.656 -0.2911  0.2112 -0.7101
 8806SOL    HW138054   0.061   0.742   7.728 -0.7780 -0.2200 -0.5436
 8806SOL    HW238055   4.701   0.857   7.691 -2.0782 -0.2503 -1.4355
 8807SOL     OW38056   1.417   1.850  17.222  0.3734 -0.9370 -0.2132
 8807SOL    HW138057   1.493   1.875  17.276 -0.6139  0.6261  0.4487
 8807SOL    HW238058   1.397   1.771  17.272 -0.7399 -0.1942  0.5197
 8808SOL     OW38059   1.192   4.469   1.937  0.0253  0.2376  0.2118
 8808SOL    HW138060   1.179   4.528   2.012 -3.2887 -1.1764  0.7450
 8808SOL    HW238061   1.286   4.488   1.932  0.4740 -2.0560 -0.0313
 8809SOL     OW38062   2.904   0.470   4.560 -0.2408 -0.0223 -0.5503
 8809SOL    HW138063   2.913   0.470   4.656 -0.5172 -0.1449 -0.5235
 8809SOL    HW238064   2.885   0.377   4.550  2.8102 -0.9986  2.7867
 8810SOL     OW38065   0.527   4.379   6.420 -0.3363  0.0088  0.5879
 8810SOL    HW138066   0.570   4.294   6.431 -2.4445 -0.9766  1.2334
 8810SOL    HW238067   0.491   4.395   6.507 -1.4141  2.1246 -0.2261
 8811SOL     OW38068   1.668   0.960   2.892  0.1226 -0.1029 -0.4378
 8811SOL    HW138069   1.758   0.935   2.913  0.4703  2.0122  0.6357
 8811SOL    HW238070   1.659   1.050   2.923  0.4705  0.0665 -0.8227
 8812SOL     OW38071   1.416   4.485   5.893 -0.1656  0.2499 -0.3348
 8812SOL    HW138072   1.388   4.437   5.816 -1.3803 -0.7032  0.7102
 8812SOL    HW238073   1.405   4.571   5.853 -1.4793 -0.0895 -0.6983
 8813SOL     OW38074   4.642   2.276   0.594 -0.0260 -0.0391 -0.0871
 8813SOL    HW138075   4.668   2.363   0.565  2.1035 -1.3221 -2.0210
 8813SOL    HW238076   4.724   2.230   0.611 -0.0199 -0.4004 -1.1145
 8814SOL     OW38077   4.113   1.216  17.005  0.2477  0.0921 -0.2760
 8814SOL    HW138078   4.098   1.246  17.095  2.0984 -0.0114  0.0613
 8814SOL    HW238079   4.059   1.138  17.006  0.7260 -0.2473 -1.6238
 8815SOL     OW38080   0.617   2.169   4.537  0.3977  0.4952  0.2716
 8815SOL    HW138081   0.552   2.236   4.519  0.7420  0.5887 -0.6201
 8815SOL    HW238082   0.581   2.129   4.616 -2.3940 -0.6600 -1.5907
 8816SOL     OW38083   0.558   4.192   7.289 -0.2832  0.0944 -0.0438
 8816SOL    HW138084   0.512   4.213   7.370 -0.2833 -2.3516  0.5898
 8816SOL    HW238085   0.595   4.109   7.317 -1.3970 -0.7529 -1.0437
 8817SOL     OW38086   3.170   1.199   2.619  0.0047 -0.2213  0.4842
 8817SOL    HW138087   3.120   1.238   2.691 -3.4272 -0.3465 -1.8083
 8817SOL    HW238088   3.220   1.131   2.662  3.2980  1.8419 -0.0534
 8818SOL     OW38089   1.795   0.347   5.391  0.2387 -0.1030 -0.1692
 8818SOL    HW138090   1.792   0.260   5.349 -0.4558 -0.4085  0.5290
 8818SOL    HW238091   1.714   0.337   5.441 -0.1793  0.0472 -0.8159
 8819SOL     OW38092   1.757   4.233  14.559  0.1560 -0.0237 -0.2311
 8819SOL    HW138093   1.801   4.162  14.511  0.1823 -0.2442  0.1175
 8819SOL    HW238094   1.680   4.185  14.589 -0.8725  0.6651 -1.8227
 8820SOL     OW38095   4.323   0.365   7.394 -0.2525 -0.4274 -0.1531
 8820SOL    HW138096   4.270   0.388   7.471  0.1389  2.4761 -0.7563
 8820SOL    HW238097   4.280   0.420   7.329  0.8861 -0.4194 -0.9002
 8821SOL     OW38098   2.665   0.501   5.497 -0.0850  0.4028  0.1519
 8821SOL    HW138099   2.643   0.502   5.590  0.8736 -0.1717  0.3893
 8821SOL    HW238100   2.691   0.408   5.493  1.2166  0.7472  0.5225
 8822SOL     OW38101   3.627   3.605  14.658 -0.1852 -0.0607  0.3948
 8822SOL    HW138102   3.699   3.668  14.659 -0.7626  0.6047  0.6166
 8822SOL    HW238103   3.681   3.530  14.682 -0.3975 -0.5864 -0.7480
 8823SOL     OW38104   4.246   4.594   4.706  0.3151 -0.5116  0.1194
 8823SOL    HW138105   4.172   4.654   4.704  1.9339  1.4381 -0.9295
 8823SOL    HW238106   4.271   4.585   4.614  2.7443  0.5149  0.6622
 8824SOL     OW38107   4.534   4.414   2.687  0.1591 -0.1958  0.2449
 8824SOL    HW138108   4.461   4.383   2.741 -0.0674  2.0720  1.2518
 8824SOL    HW238109   4.579   4.472   2.748  1.0503 -1.2995  0.6474
 8825SOL     OW38110   2.512   2.670   2.098 -0.1128  0.2519  0.0094
 8825SOL    HW138111   2.439   2.666   2.037 -1.3575  2.5520  1.3632
 8825SOL    HW238112   2.547   2.582   2.083 -1.9563 -0.3775 -0.5252
 8826SOL     OW38113   3.673   4.095   2.918 -0.0394  0.0726  0.2094
 8826SOL    HW138114   3.658   4.023   2.980 -0.0886  1.3537  1.7042
 8826SOL    HW238115   3.764   4.086   2.892 -0.6279 -0.6805 -1.5487
 8827SOL     OW38116   3.786   1.851   0.446 -0.3996 -0.0475  0.1429
 8827SOL    HW138117   3.785   1.939   0.484 -0.2651 -0.0657  0.1890
 8827SOL    HW238118   3.867   1.823   0.490 -0.0322  2.0563  0.8062
 8828SOL     OW38119   1.106   3.980   6.163 -0.5256 -0.1183 -0.7030
 8828SOL    HW138120   1.198   3.996   6.185 -0.9784 -0.2347  1.2073
 8828SOL    HW238121   1.073   3.946   6.246 -1.7552  1.4532 -0.5301
 8829SOL     OW38122   2.461   4.143   2.509  0.5141 -0.2136  0.3399
 8829SOL    HW138123   2.371   4.122   2.485  0.6680  1.3890 -1.5628
 8829SOL    HW238124   2.461   4.234   2.539 -2.0729 -0.2814  0.5523
 8830SOL     OW38125   3.427   4.720   4.736 -0.7337  0.5435 -0.0168
 8830SOL    HW138126   3.404   0.084   4.739 -0.0150  0.6565  2.1259
 8830SOL    HW238127   3.344   4.687   4.703 -0.4004 -1.4454  1.1418
 8831SOL     OW38128   2.510   2.317   9.659  0.3872  0.0526  0.3585
 8831SOL    HW138129   2.580   2.355   9.606 -0.8429 -1.1377 -2.0894
 8831SOL    HW238130   2.498   2.395   9.713  0.0895 -1.3474  2.3045
 8832SOL     OW38131   0.292   3.262   5.425 -0.3865  0.2576 -0.2546
 8832SOL    HW138132   0.279   3.343   5.375  0.2617  0.3120 -0.3252
 8832SOL    HW238133   0.279   3.301   5.511 -2.7386 -1.3561  0.1255
 8833SOL     OW38134   3.674   3.100   4.166  0.7669 -0.0321 -0.0143
 8833SOL    HW138135   3.716   3.094   4.252  0.9400  2.2568  0.0729
 8833SOL    HW238136   3.606   3.032   4.170  0.0700  0.5930 -1.2992
 8834SOL     OW38137   0.904   1.400   6.570 -0.2725 -0.1784  0.8108
 8834SOL    HW138138   0.885   1.358   6.486 -0.7010  1.2842  0.1829
 8834SOL    HW238139   0.832   1.368   6.623 -1.3012 -0.8334 -1.0058
 8835SOL     OW38140   3.448   0.401  10.459  0.0588  0.0545  0.0933
 8835SOL    HW138141   3.408   0.362  10.381  1.2303  0.1984 -0.5870
 8835SOL    HW238142   3.522   0.340  10.454 -0.7572 -0.9530  0.4270
 8836SOL     OW38143   4.493   3.258  17.576  0.3286  0.0425 -0.1676
 8836SOL    HW138144   4.511   3.217  17.491  0.6601  0.3149 -0.2267
 8836SOL    HW238145   4.579   3.245  17.615  0.5130 -3.5993 -1.7235
 8837SOL     OW38146   1.387   3.169  17.681 -0.4240  0.1719  0.0248
 8837SOL    HW138147   1.380   3.225   0.042  2.7800  0.5485  0.0065
 8837SOL    HW238148   1.414   3.234  17.617 -1.1082  1.1855  0.7655
 8838SOL     OW38149   0.022   3.094   7.144  1.0724  0.2377 -0.3389
 8838SOL    HW138150   0.018   3.055   7.231 -1.9489  0.6558 -0.3027
 8838SOL    HW238151   0.003   3.020   7.087 -1.0568 -0.6014  1.5164
 8839SOL     OW38152   4.060   3.849   3.506  0.0868 -0.4258  0.2259
 8839SOL    HW138153   4.115   3.909   3.457 -1.2329 -0.3950 -1.2209
 8839SOL    HW238154   3.981   3.861   3.454 -0.9313  1.7652  2.2546
 8840SOL     OW38155   1.154   2.160   9.039  0.2250 -0.9506 -0.5178
 8840SOL    HW138156   1.110   2.244   9.054  0.7039 -0.7525 -0.2244
 8840SOL    HW238157   1.232   2.176   9.092  0.8534 -4.1902 -0.4836
 8841SOL     OW38158   0.739   0.312   1.096  0.5232 -0.1999  0.1416
 8841SOL    HW138159   0.679   0.354   1.157  1.3039 -0.6810  1.2285
 8841SOL    HW238160   0.822   0.298   1.141 -0.1437 -1.6688  0.8851
 8842SOL     OW38161   1.053   3.121   2.195 -0.3115  0.0708 -0.1318
 8842SOL    HW138162   1.117   3.176   2.239 -0.1123 -1.4704  1.5187
 8842SOL    HW238163   1.056   3.042   2.248 -1.0284  0.4754  0.5197
 8843SOL     OW38164   3.869   2.648   3.220  0.1148 -0.2600 -0.1969
 8843SOL    HW138165   3.845   2.733   3.258 -0.1295 -0.1414 -0.6130
 8843SOL    HW238166   3.796   2.623   3.163 -0.1497 -1.9158  0.8628
 8844SOL     OW38167   1.556   0.145   8.436 -1.2883 -0.3487 -0.0831
 8844SOL    HW138168   1.643   0.111   8.455 -0.5016  1.0577 -1.2016
 8844SOL    HW238169   1.580   0.235   8.456 -1.2772 -0.1620 -0.9230
 8845SOL     OW38170   1.688   2.103   5.528  0.0097 -0.1612 -0.0505
 8845SOL    HW138171   1.597   2.119   5.551  0.9890  1.4083  2.7855
 8845SOL    HW238172   1.686   2.011   5.501 -2.1883  0.0202 -0.4750
 8846SOL     OW38173   3.337   0.392   6.552  0.5978 -0.0693  0.0791
 8846SOL    HW138174   3.330   0.345   6.635 -3.4731  0.7206  0.1762
 8846SOL    HW238175   3.430   0.415   6.547  0.2146  0.7705 -3.2517
 8847SOL     OW38176   3.181   3.979  16.294 -0.9201 -0.4228  0.2882
 8847SOL    HW138177   3.194   4.037  16.369 -1.8306  0.5342 -0.2976
 8847SOL    HW238178   3.232   3.903  16.320  0.8706  0.2827 -1.1408
 8848SOL     OW38179   0.442   2.055   2.733  0.1599 -0.1110  0.3635
 8848SOL    HW138180   0.469   1.988   2.670 -0.2891  1.0114 -1.0408
 8848SOL    HW238181   0.357   2.023   2.762  0.4748 -1.4734 -0.2267
 8849SOL     OW38182   1.856   3.308  12.918  0.3098 -0.1839  0.0379
 8849SOL    HW138183   1.944   3.331  12.949  0.7511  1.2548 -2.3207
 8849SOL    HW238184   1.845   3.216  12.945 -0.8465  0.2469  1.0424
 8850SOL     OW38185   3.395   2.422  15.757 -0.2075  0.0437  0.6059
 8850SOL    HW138186   3.304   2.432  15.729  0.4113  1.2554 -1.0051
 8850SOL    HW238187   3.399   2.336  15.797  0.5044  0.5301  1.5941
 8851SOL     OW38188   0.202   3.095  15.095 -0.1577 -0.2591 -0.3990
 8851SOL    HW138189   0.221   3.048  15.176 -0.6227 -0.6281 -0.5055
 8851SOL    HW238190   0.155   3.174  15.121  1.3741  1.1127 -1.7305
 8852SOL     OW38191   1.924   3.866   3.158 -0.5142 -0.0701 -0.5028
 8852SOL    HW138192   1.994   3.902   3.103 -0.2767  0.3199  0.0640
 8852SOL    HW238193   1.931   3.771   3.145  0.3492  0.1667 -1.8240
 8853SOL     OW38194   1.998   1.446  12.250 -0.3422  0.1917 -0.0117
 8853SOL    HW138195   1.927   1.457  12.187 -1.7465 -1.8450  1.1889
 8853SOL    HW238196   1.977   1.361  12.290  0.2371  0.3708  0.6719
 8854SOL     OW38197   0.068   4.009   4.436 -0.0633  0.2136 -0.2783
 8854SOL    HW138198   0.101   4.081   4.382  3.9763  0.5078  2.5475
 8854SOL    HW238199   4.708   4.040   4.449 -0.1663 -0.1043 -0.2294
 8855SOL     OW38200   2.367   2.550   8.742  0.6994 -1.2710  0.2025
 8855SOL    HW138201   2.371   2.515   8.831 -2.2140 -0.7574  0.5329
 8855SOL    HW238202   2.279   2.587   8.747  1.2772  0.2831 -0.9373
 8856SOL     OW38203   3.850   3.372   5.863 -0.8305 -0.5868  0.0162
 8856SOL    HW138204   3.905   3.294   5.863 -1.2592 -0.9065 -4.4485
 8856SOL    HW238205   3.781   3.345   5.924 -0.3628  1.1283  1.3166
 8857SOL     OW38206   3.400   1.918  14.293  0.2438  0.0941  0.4571
 8857SOL    HW138207   3.375   1.838  14.340  2.5985 -0.5527  0.5922
 8857SOL    HW238208   3.494   1.904  14.288  0.1617 -0.6815  1.0732
 8858SOL     OW38209   0.784   0.182   9.129  0.2539 -0.0908  1.0278
 8858SOL    HW138210   0.869   0.225   9.143  0.1433 -0.3075  2.3040
 8858SOL    HW238211   0.807   0.090   9.136  0.5664 -0.3530 -3.4076
 8859SOL     OW38212   0.536   3.503   6.900  0.4758 -0.2808  0.2993
 8859SOL    HW138213   0.453   3.465   6.873  1.4067 -2.7194  0.9432
 8859SOL    HW238214   0.511   3.530   6.989 -2.0082  1.8353 -1.0356
 8860SOL     OW38215   4.191   4.510   7.633  0.4501 -0.0497  0.3996
 8860SOL    HW138216   4.153   4.452   7.699 -0.7277  0.0273 -0.1890
 8860SOL    HW238217   4.109   4.547   7.599 -0.4908 -2.6290 -0.1736
 8861SOL     OW38218   2.944   3.607   7.604 -0.5489  0.0301  0.0887
 8861SOL    HW138219   2.909   3.573   7.687  0.9947  3.6562  2.2280
 8861SOL    HW238220   2.863   3.612   7.554  0.3490  2.3823 -1.1337
 8862SOL     OW38221   1.970   0.767   6.287 -0.2299 -0.0280 -0.0331
 8862SOL    HW138222   1.901   0.825   6.254  0.8493  1.3740  0.1636
 8862SOL    HW238223   2.052   0.806   6.257 -0.8709  1.3033 -0.0468
 8863SOL     OW38224   2.884   4.182  15.660  0.4900  0.1526  0.3463
 8863SOL    HW138225   2.919   4.266  15.629  2.7200 -0.3649  1.4726
 8863SOL    HW238226   2.793   4.184  15.630  0.3408 -1.4503  0.7155
 8864SOL     OW38227   0.962   4.662  16.512  0.3401  0.0064  0.3829
 8864SOL    HW138228   0.920   4.587  16.470 -0.9385 -0.0537  1.7542
 8864SOL    HW238229   0.915   4.655  16.596 -0.4496  2.6668  0.1670
 8865SOL     OW38230   3.404   1.440   9.389  0.2892  0.0196 -0.0763
 8865SOL    HW138231   3.466   1.497   9.343 -0.6273  1.2784  0.2483
 8865SOL    HW238232   3.451   1.414   9.468 -1.7304  2.7494  2.0351
 8866SOL     OW38233   0.956   1.526   3.304  0.1320  0.5365 -0.6346
 8866SOL    HW138234   0.895   1.560   3.369  1.0511  1.0570 -0.0360
 8866SOL    HW238235   0.902   1.472   3.247  1.0978 -2.3189  1.0932
 8867SOL     OW38236   4.051   1.389   8.072 -0.0893  0.1637 -0.1801
 8867SOL    HW138237   4.011   1.365   7.989 -0.9054  1.2683 -0.1065
 8867SOL    HW238238   4.004   1.329   8.130  0.3969 -0.9168 -0.9066
 8868SOL     OW38239   4.582   3.892   5.193 -0.6222  0.2380 -0.5942
 8868SOL    HW138240   4.542   3.961   5.246  0.6728  1.4480 -1.1708
 8868SOL    HW238241   4.581   3.816   5.251 -1.9118 -0.3603 -1.4125
 8869SOL     OW38242   1.869   1.706   4.515  0.3046 -0.3995  0.0536
 8869SOL    HW138243   1.917   1.773   4.563  1.3125 -1.1590  0.1081
 8869SOL    HW238244   1.868   1.630   4.573  0.3338  0.3151  0.9788
 8870SOL     OW38245   0.878   2.151   8.369  0.2230  0.1068 -0.0541
 8870SOL    HW138246   0.798   2.203   8.375  1.5899  2.1455  0.5251
 8870SOL    HW238247   0.924   2.191   8.443  0.5176 -1.5960  0.6863
 8871SOL     OW38248   2.822   0.333   3.429  0.0389  0.2260 -0.9390
 8871SOL    HW138249   2.809   0.255   3.376  2.0288  0.6770 -2.0930
 8871SOL    HW238250   2.794   0.299   3.514 -0.2554  4.3490  0.5952
 8872SOL     OW38251   4.549   3.770   8.866 -0.0624 -0.1462 -0.0212
 8872SOL    HW138252   4.606   3.800   8.795  2.5913 -0.8542  1.8446
 8872SOL    HW238253   4.599   3.801   8.941  0.2497 -0.6038 -0.0450
 8873SOL     OW38254   0.652   4.009   9.572  0.1574  0.2040  0.0987
 8873SOL    HW138255   0.640   3.915   9.559  0.3781  0.2705 -0.6160
 8873SOL    HW238256   0.744   4.011   9.599 -0.1460 -2.3012  1.2977
 8874SOL     OW38257   3.366   3.799  15.728  0.2149 -0.4324 -0.5124
 8874SOL    HW138258   3.328   3.879  15.691 -1.3238 -0.5780  0.7248
 8874SOL    HW238259   3.323   3.788  15.813 -1.9122  2.9258 -1.1511
 8875SOL     OW38260   2.540   1.743   2.775  0.2701 -0.1544  0.3239
 8875SOL    HW138261   2.487   1.688   2.716  0.8149 -0.5030  0.1584
 8875SOL    HW238262   2.625   1.759   2.733  0.4796 -1.1352  0.3856
 8876SOL     OW38263   0.578   2.380   8.774 -0.0856  0.8905  0.1309
 8876SOL    HW138264   0.664   2.398   8.812  1.4327 -3.0690 -1.3996
 8876SOL    HW238265   0.586   2.409   8.683 -0.9289 -0.6887 -0.4587
 8877SOL     OW38266   2.712   3.899  11.187 -0.4489 -0.3751 -0.1156
 8877SOL    HW138267   2.664   3.844  11.124  0.7499 -1.4608 -0.0676
 8877SOL    HW238268   2.639   3.953  11.218 -0.2844  0.0385 -0.4529
 8878SOL     OW38269   3.551   0.283   7.902 -0.3326  0.3910  0.4222
 8878SOL    HW138270   3.606   0.311   7.975 -2.0535 -0.7284  2.1631
 8878SOL    HW238271   3.568   0.189   7.906 -0.3640  0.4430  1.7767
 8879SOL     OW38272   2.518   1.511   6.544 -0.1801  0.0068 -0.2511
 8879SOL    HW138273   2.544   1.595   6.507  2.1053 -0.7689 -0.4116
 8879SOL    HW238274   2.510   1.538   6.635 -0.7587 -0.5075 -0.1550
 8880SOL     OW38275   2.145   4.006   3.017 -0.3251  0.0979 -0.6074
 8880SOL    HW138276   2.215   3.940   3.022 -0.8419 -0.3855  0.2808
 8880SOL    HW238277   2.155   4.032   2.926 -0.3095  0.5598 -0.4720
 8881SOL     OW38278   3.747   2.622  15.934 -0.1058  0.1313  0.2613
 8881SOL    HW138279   3.708   2.543  15.970  1.2835 -0.1083  1.2729
 8881SOL    HW238280   3.835   2.589  15.917 -0.8438 -1.8027  0.2566
 8882SOL     OW38281   1.775   4.158  17.487  0.3343 -0.5470 -0.2255
 8882SOL    HW138282   1.709   4.212  17.442  1.0333 -1.4926 -2.3486
 8882SOL    HW238283   1.754   4.188  17.576 -0.2935 -2.2451  0.1882
 8883SOL     OW38284   1.879   2.777   2.649  0.0885 -0.1446 -0.4345
 8883SOL    HW138285   1.868   2.740   2.562 -0.6187 -0.5875 -0.1574
 8883SOL    HW238286   1.963   2.736   2.671  1.5987  3.0006 -0.4475
 8884SOL     OW38287   2.201   1.167   2.117  0.2312  0.0333 -0.2581
 8884SOL    HW138288   2.257   1.090   2.126 -0.7223 -0.5559  0.6701
 8884SOL    HW238289   2.195   1.190   2.210 -0.1132 -1.2438  0.0444
 8885SOL     OW38290   3.003   3.102   3.672  0.0549  0.2652  0.8308
 8885SOL    HW138291   2.998   3.087   3.766  0.8809 -3.0029  0.3630
 8885SOL    HW238292   3.078   3.158   3.654  0.5495 -0.1185  1.7100
 8886SOL     OW38293   3.124   0.431   7.493  0.8223 -0.0068 -0.4675
 8886SOL    HW138294   3.083   0.345   7.490 -1.8264  1.2489  0.3308
 8886SOL    HW238295   3.102   0.476   7.411  0.0529  0.4923  0.0114
 8887SOL     OW38296   1.598   2.139  17.193 -0.0443  0.8011  0.1411
 8887SOL    HW138297   1.632   2.200  17.127 -0.5231  1.0127  0.0942
 8887SOL    HW238298   1.508   2.138  17.160  0.3115  1.0636 -0.8505
 8888SOL     OW38299   0.833   0.335  13.310  0.0511  0.1804 -0.3101
 8888SOL    HW138300   0.781   0.280  13.251 -1.1904 -0.0950  1.0368
 8888SOL    HW238301   0.912   0.347  13.258  0.5562 -0.4628  0.2984
 8889SOL     OW38302   1.327   1.383   2.024 -0.5463 -0.3366  0.5232
 8889SOL    HW138303   1.404   1.439   2.029 -0.5126 -0.3627  0.2770
 8889SOL    HW238304   1.296   1.394   1.934  0.1680  0.8693  0.4146
 8890SOL     OW38305   2.331   2.986   9.789  0.4027  0.3957  0.7729
 8890SOL    HW138306   2.271   3.050   9.827 -0.5056 -1.5452  2.6055
 8890SOL    HW238307   2.378   2.955   9.866 -1.3791 -1.0793  1.2670
 8891SOL     OW38308   3.119   3.640  12.054  0.3804 -0.0373 -0.8689
 8891SOL    HW138309   3.058   3.644  11.980  1.8383  1.8012 -1.9514
 8891SOL    HW238310   3.206   3.660  12.021  0.6370  0.8265  0.3776
 8892SOL     OW38311   1.314   2.177   3.770 -0.8171 -0.0331 -0.0324
 8892SOL    HW138312   1.388   2.239   3.768 -0.7398 -0.1488 -0.9205
 8892SOL    HW238313   1.279   2.203   3.855  2.2477  0.3707  1.1087
 8893SOL     OW38314   4.374   0.587   2.342 -0.3039  0.6114 -0.2944
 8893SOL    HW138315   4.410   0.545   2.264 -1.6876 -1.3998  0.1522
 8893SOL    HW238316   4.389   0.674   2.305  0.8005  0.9314  0.9041
 8894SOL     OW38317   3.556   1.833   6.478  0.2948 -0.3339  0.0899
 8894SOL    HW138318   3.638   1.857   6.436 -0.1478  0.9915 -0.0085
 8894SOL    HW238319   3.571   1.739   6.487  0.7805 -0.4415 -1.6905
 8895SOL     OW38320   3.657   0.487  14.838  0.0478 -0.2686  0.1049
 8895SOL    HW138321   3.577   0.471  14.887 -0.7406  1.7951 -0.5071
 8895SOL    HW238322   3.636   0.578  14.817 -1.1634 -0.5262  0.2247
 8896SOL     OW38323   2.581   4.416  16.184 -0.6529  0.2647 -0.2156
 8896SOL    HW138324   2.601   4.342  16.126 -2.0455  1.2068 -1.9081
 8896SOL    HW238325   2.643   4.484  16.156  1.1077 -1.8335 -1.4397
 8897SOL     OW38326   4.221   0.469   7.603  0.5689  0.4537 -0.0648
 8897SOL    HW138327   4.132   0.434   7.611  1.3719 -1.5304  0.2555
 8897SOL    HW238328   4.198   0.561   7.590  0.9012  0.6090  0.4770
 8898SOL     OW38329   0.495   3.931   5.865 -0.1113  0.4056 -0.6109
 8898SOL    HW138330   0.583   3.952   5.896 -0.1916 -0.5169  0.2340
 8898SOL    HW238331   0.520   3.905   5.776  0.1593 -0.0342 -0.4063
 8899SOL     OW38332   2.372   3.596   4.373 -0.0734  0.5475  0.0827
 8899SOL    HW138333   2.396   3.607   4.465  0.2412  1.7988 -0.1525
 8899SOL    HW238334   2.279   3.617   4.383 -0.4800 -0.8058 -0.8851
 8900SOL     OW38335   4.458   0.394  14.222 -0.7932  0.3885 -0.1355
 8900SOL    HW138336   4.367   0.409  14.197 -0.4339  0.6958 -1.2458
 8900SOL    HW238337   4.454   0.345  14.304  0.2401  1.0540  0.3236
 8901SOL     OW38338   1.303   2.341  11.104  0.1354 -0.1970  0.2575
 8901SOL    HW138339   1.267   2.291  11.031 -1.3867  1.4656 -0.1038
 8901SOL    HW238340   1.222   2.368  11.147  0.2389 -2.6063  1.9322
 8902SOL     OW38341   2.850   0.745   5.509  0.2212 -0.0405 -0.0985
 8902SOL    HW138342   2.927   0.721   5.560  1.3414 -1.1098 -2.2622
 8902SOL    HW238343   2.814   0.662   5.477 -2.0534 -0.4471  3.4893
 8903SOL     OW38344   3.597   3.094   5.000 -0.1978 -0.0958  0.0972
 8903SOL    HW138345   3.624   3.041   4.925  0.0073  0.5358 -0.2798
 8903SOL    HW238346   3.609   3.183   4.965 -0.7457 -0.4581 -1.0083
 8904SOL     OW38347   4.425   4.595   7.019 -0.1574  0.0069  0.2082
 8904SOL    HW138348   4.421   4.688   6.996 -0.1776 -0.7451 -2.8708
 8904SOL    HW238349   4.474   4.554   6.947  1.1564  1.6319  0.1870
 8905SOL     OW38350   0.307   4.080   3.808  0.0729  0.3162  0.4040
 8905SOL    HW138351   0.314   3.989   3.780 -2.6335  0.4160 -0.6258
 8905SOL    HW238352   0.213   4.082   3.823  0.0768 -0.6152  0.5595
 8906SOL     OW38353   3.890   1.407   7.834 -0.3115 -0.4026  0.4168
 8906SOL    HW138354   3.929   1.341   7.776 -1.7460 -1.3552  0.5287
 8906SOL    HW238355   3.814   1.429   7.780  0.8112  1.1075 -0.5471
 8907SOL     OW38356   2.400   1.369   1.669  0.6730  0.1109 -0.5372
 8907SOL    HW138357   2.355   1.354   1.586  1.5627 -1.0871 -0.7948
 8907SOL    HW238358   2.333   1.427   1.707  0.6667  0.3672 -0.9387
 8908SOL     OW38359   3.713   4.383  16.718  0.1725 -0.0696 -0.5450
 8908SOL    HW138360   3.738   4.353  16.806  1.5778  1.2429 -0.4859
 8908SOL    HW238361   3.799   4.414  16.688  0.0914  0.6785  0.0001
 8909SOL     OW38362   1.683   1.159   1.305 -0.2569 -0.1394 -0.5748
 8909SOL    HW138363   1.645   1.213   1.375 -1.1475 -0.2620 -0.9565
 8909SOL    HW238364   1.649   1.075   1.336  0.4717 -0.2604 -0.1157
 8910SOL     OW38365   4.207   2.245  17.200 -0.4520 -0.4160 -0.6074
 8910SOL    HW138366   4.299   2.232  17.175  0.2351  1.6283  0.8884
 8910SOL    HW238367   4.157   2.226  17.120 -0.4783 -1.4372 -0.3355
 8911SOL     OW38368   1.111   3.740  15.151  0.3129 -0.1303 -0.1120
 8911SOL    HW138369   1.141   3.729  15.242 -0.0532  1.0429  0.1449
 8911SOL    HW238370   1.016   3.740  15.161  0.4339  1.7034  1.0364
 8912SOL     OW38371   4.068   3.484  14.040 -0.2207 -0.0932  0.2754
 8912SOL    HW138372   4.013   3.416  14.078 -0.8974  0.5413  0.4301
 8912SOL    HW238373   4.031   3.495  13.952 -0.4113 -1.4670  0.1907
 8913SOL     OW38374   3.077   4.487   4.475 -0.0125  0.7257 -0.4964
 8913SOL    HW138375   2.992   4.487   4.432  0.8844  2.3115 -2.3489
 8913SOL    HW238376   3.130   4.461   4.399 -0.6629  2.4762 -1.5637
 8914SOL     OW38377   0.697   4.696   1.174 -0.4986  0.1756  0.1486
 8914SOL    HW138378   0.753   4.638   1.124  0.2718  0.8982  0.1800
 8914SOL    HW238379   0.742   0.049   1.155 -0.1922 -0.4186 -1.6356
 8915SOL     OW38380   1.126   1.123   3.035  0.2436 -0.3962 -0.2083
 8915SOL    HW138381   1.150   1.199   3.088  0.1105  0.2859 -1.1130
 8915SOL    HW238382   1.085   1.164   2.959 -0.0013  2.0013  1.2259
 8916SOL     OW38383   0.849   2.971   4.368  0.2066 -0.5673  0.2684
 8916SOL    HW138384   0.830   2.877   4.366 -1.4766 -0.2119 -0.9389
 8916SOL    HW238385   0.936   2.965   4.330  1.3771  0.1126  2.8304
 8917SOL     OW38386   2.366   3.276   2.294  0.7939  0.8427 -0.0312
 8917SOL    HW138387   2.358   3.189   2.256  0.4134  0.9925 -0.2921
 8917SOL    HW238388   2.438   3.257   2.354  1.1294  0.1189 -0.6751
 8918SOL     OW38389   2.342   2.305   7.203  0.3013  0.1172  0.4226
 8918SOL    HW138390   2.330   2.370   7.134 -0.5892  0.4648  0.9081
 8918SOL    HW238391   2.249   2.284   7.210  0.3498 -0.1174  0.3789
 8919SOL     OW38392   3.187   4.612  14.001  0.3308 -0.3814 -0.3247
 8919SOL    HW138393   3.205   4.661  14.081  0.8555 -0.7088 -0.2389
 8919SOL    HW238394   3.112   4.663  13.972  0.9811 -0.3851 -1.9862
 8920SOL     OW38395   3.167   1.549   4.996  0.0517  0.0093 -0.7309
 8920SOL    HW138396   3.218   1.627   5.017  0.1244 -0.7156  1.7747
 8920SOL    HW238397   3.084   1.564   5.040  0.5943  0.9924 -0.0470
 8921SOL     OW38398   4.561   1.045   0.859 -0.1720  0.4010 -0.0563
 8921SOL    HW138399   4.523   0.957   0.861  1.9372 -0.5033  0.1853
 8921SOL    HW238400   4.480   1.091   0.882  0.0813  1.7314 -1.8746
 8922SOL     OW38401   3.499   3.324   2.532 -0.1477  0.2649 -0.3024
 8922SOL    HW138402   3.413   3.335   2.490 -0.9871  1.7030  1.7775
 8922SOL    HW238403   3.534   3.411   2.515  3.2444 -0.3680  3.4769
 8923SOL     OW38404   0.799   1.310   1.309  0.1067 -0.1343 -0.1665
 8923SOL    HW138405   0.783   1.375   1.241  1.5872  2.2298  1.7223
 8923SOL    HW238406   0.811   1.235   1.252 -2.2545 -0.3980 -0.3286
 8924SOL     OW38407   1.980   1.502   6.355  0.2030  0.4491  0.1514
 8924SOL    HW138408   2.001   1.451   6.277 -4.2850 -0.1765 -0.6107
 8924SOL    HW238409   1.909   1.445   6.385 -0.7943 -0.0018 -3.0494
 8925SOL     OW38410   3.734   1.927   6.292  0.2920  0.8584  0.1923
 8925SOL    HW138411   3.755   2.020   6.285 -0.1001  0.8334 -1.3295
 8925SOL    HW238412   3.659   1.926   6.232  0.0599  2.4417  0.4659
 8926SOL     OW38413   3.109   3.011   2.934  0.2967 -0.5266  0.0524
 8926SOL    HW138414   3.154   3.016   2.849  1.7246 -0.1429  0.8339
 8926SOL    HW238415   3.022   2.998   2.895 -0.4508  0.8778  1.2596
 8927SOL     OW38416   0.103   1.268   0.316  0.2167 -0.2762  0.2232
 8927SOL    HW138417   0.041   1.195   0.311 -0.2995  0.2667 -1.3154
 8927SOL    HW238418   0.189   1.232   0.296  0.8253 -0.3783  2.9478
 8928SOL     OW38419   0.432   2.596   6.777  0.5348  0.2619  0.2919
 8928SOL    HW138420   0.515   2.619   6.818  0.2805 -0.5743  1.2941
 8928SOL    HW238421   0.442   2.501   6.774 -0.3716  0.1214  1.3976
 8929SOL     OW38422   1.743   4.181   8.077  0.5161 -0.4303  0.9473
 8929SOL    HW138423   1.682   4.110   8.094  0.3319 -0.5693 -0.3064
 8929SOL    HW238424   1.694   4.241   8.021  2.7487 -0.0559 -0.6201
 8930SOL     OW38425   0.300   0.633   7.726 -0.0380  0.3236  0.1821
 8930SOL    HW138426   0.382   0.621   7.678 -0.2679  0.9755 -0.3775
 8930SOL    HW238427   0.320   0.726   7.737  0.5342  0.2359 -0.1463
 8931SOL     OW38428   0.800   3.132   8.162 -0.3423  0.9415  0.4772
 8931SOL    HW138429   0.787   3.053   8.110 -0.1205 -0.0343  1.9017
 8931SOL    HW238430   0.714   3.161   8.189 -0.7353 -0.0091  0.2583
 8932SOL     OW38431   3.898   1.325  10.592 -0.2422 -0.2721  0.1646
 8932SOL    HW138432   3.838   1.356  10.659  0.8932 -0.7431  1.3955
 8932SOL    HW238433   3.912   1.406  10.543 -1.0632 -0.0059  0.3745
 8933SOL     OW38434   2.591   3.366  16.487  0.0085 -0.6501  0.2484
 8933SOL    HW138435   2.549   3.281  16.474 -0.9231 -0.1989  0.2765
 8933SOL    HW238436   2.523   3.413  16.535  0.7695  0.4125  0.3039
 8934SOL     OW38437   3.008   0.154   9.765  0.0396  0.2150  0.1565
 8934SOL    HW138438   2.957   0.074   9.757 -0.8341  0.8776 -1.0612
 8934SOL    HW238439   3.042   0.165   9.676 -0.9451  2.2239  0.0272
 8935SOL     OW38440   3.922   1.779  16.415  0.0028 -0.4579  0.4354
 8935SOL    HW138441   3.950   1.698  16.372  0.1640 -0.9245  1.4309
 8935SOL    HW238442   3.827   1.773  16.420 -0.0669  0.8527  0.6576
 8936SOL     OW38443   2.272   4.369  17.002  0.3880 -0.3925  0.7529
 8936SOL    HW138444   2.272   4.274  17.011  0.7495 -0.2428  2.4659
 8936SOL    HW238445   2.364   4.378  17.028  0.3951  2.8794 -0.4138
 8937SOL     OW38446   4.266   3.756   2.467  0.7429  0.7847 -0.2674
 8937SOL    HW138447   4.217   3.813   2.407  0.9242  1.5949  0.3476
 8937SOL    HW238448   4.358   3.762   2.442  0.9111 -0.1077  0.1513
 8938SOL     OW38449   4.153   2.130   1.385 -1.1048 -0.0403 -0.5109
 8938SOL    HW138450   4.149   2.185   1.307  1.1136  0.8130 -0.0388
 8938SOL    HW238451   4.069   2.085   1.378 -1.2888  0.0107  1.4399
 8939SOL     OW38452   1.868   4.241  12.182 -0.2634  0.1868  0.4664
 8939SOL    HW138453   1.868   4.170  12.246 -1.2728 -1.4314 -1.3163
 8939SOL    HW238454   1.819   4.310  12.226  0.1805 -1.6602  3.8806
 8940SOL     OW38455   1.812   1.677   2.772  0.0704  1.1478 -0.2290
 8940SOL    HW138456   1.842   1.652   2.860 -3.1313 -2.0822 -0.0587
 8940SOL    HW238457   1.719   1.676   2.792  0.5295 -1.4007  1.7973
 8941SOL     OW38458   3.660   2.849   2.373  0.1177 -0.0095 -0.0100
 8941SOL    HW138459   3.630   2.858   2.282  0.2481 -0.6775 -0.1170
 8941SOL    HW238460   3.665   2.756   2.395  1.7778  0.3867  1.2902
 8942SOL     OW38461   0.146   4.391   1.579 -0.1591  0.2347 -0.5198
 8942SOL    HW138462   0.056   4.380   1.611 -0.8237  1.6744 -1.9016
 8942SOL    HW238463   0.144   4.327   1.508  0.4862 -3.6539  2.9163
 8943SOL     OW38464   2.209   2.572   0.881  0.3384  0.1562 -0.0803
 8943SOL    HW138465   2.189   2.576   0.788 -0.4880  1.4857  0.1432
 8943SOL    HW238466   2.127   2.539   0.916 -0.2842  2.2976  0.5183
 8944SOL     OW38467   3.753   2.656   5.883 -0.3513 -0.5743  0.0774
 8944SOL    HW138468   3.750   2.619   5.971  1.1837  0.7804  0.6746
 8944SOL    HW238469   3.833   2.617   5.847 -0.8974 -2.2099  0.5967
 8945SOL     OW38470   2.971   2.360   6.305  0.4560 -0.1827  0.7059
 8945SOL    HW138471   3.003   2.449   6.316 -0.0060  0.1526 -0.6806
 8945SOL    HW238472   2.915   2.357   6.383 -0.7406  0.1116 -0.1509
 8946SOL     OW38473   0.115   2.777   7.646  0.2485  0.0533 -0.1550
 8946SOL    HW138474   0.039   2.780   7.704 -0.7904 -0.0155 -1.5292
 8946SOL    HW238475   0.161   2.855   7.677  2.2256 -1.7786  1.4834
 8947SOL     OW38476   1.107   2.961   4.223 -0.2908  0.0294 -0.2008
 8947SOL    HW138477   1.148   3.039   4.187 -1.5532  0.7459 -0.0796
 8947SOL    HW238478   1.183   2.921   4.266 -0.8660 -0.1935  0.6215
 8948SOL     OW38479   4.044   0.017  11.007 -0.0085 -0.4234  0.2703
 8948SOL    HW138480   4.057   0.026  11.102 -0.4531 -1.7363  0.4575
 8948SOL    HW238481   3.956   0.055  11.003 -0.0154 -0.6038 -1.0247
 8949SOL     OW38482   1.460   1.828   1.952 -0.3356  0.2461 -0.2203
 8949SOL    HW138483   1.369   1.813   1.978  1.2031 -2.7557  3.4996
 8949SOL    HW238484   1.442   1.859   1.864  1.9579  0.6210 -0.5711
 8950SOL     OW38485   3.661   2.584   6.676 -0.1007 -0.9024  0.0702
 8950SOL    HW138486   3.644   2.578   6.770  1.8009 -0.4496  0.4465
 8950SOL    HW238487   3.717   2.506   6.669  3.2578  1.3701  1.4783
 8951SOL     OW38488   2.458   3.747  11.637 -0.6261  0.0280  0.5234
 8951SOL    HW138489   2.434   3.785  11.553 -1.0746  0.6210  0.9215
 8951SOL    HW238490   2.373   3.735  11.679 -1.0568  3.2712  0.5481
 8952SOL     OW38491   3.991   2.556  15.804  0.4341  0.5933 -0.3888
 8952SOL    HW138492   4.009   2.548  15.710  0.1010  1.2198 -0.5011
 8952SOL    HW238493   4.005   2.650  15.814 -2.1485  0.7370  1.6338
 8953SOL     OW38494   3.442   2.062  17.079  0.9290  0.5406 -0.1256
 8953SOL    HW138495   3.461   2.135  17.020 -0.1273  1.1389  0.2724
 8953SOL    HW238496   3.442   1.983  17.026  0.0607  0.2743  0.2744
 8954SOL     OW38497   0.100   1.370   9.146 -0.0983  0.3828  0.0902
 8954SOL    HW138498   0.157   1.446   9.128  1.0087 -0.3387  0.5395
 8954SOL    HW238499   0.058   1.414   9.219  2.1453  0.7559  1.1590
 8955SOL     OW38500   0.073   1.852  11.035  0.3272 -0.0713 -0.2157
 8955SOL    HW138501   0.164   1.830  11.052  0.2471 -1.5903 -1.7089
 8955SOL    HW238502   0.040   1.776  11.082 -0.2475  0.7943  0.7690
 8956SOL     OW38503   2.533   1.052   9.802 -0.2900 -0.0943  0.1175
 8956SOL    HW138504   2.544   1.100   9.884  1.6311 -0.8494  0.3013
 8956SOL    HW238505   2.624   1.041   9.775  0.5746  0.8802  2.6559
 8957SOL     OW38506   0.501   3.453   8.399 -0.2693  0.3537  0.1263
 8957SOL    HW138507   0.487   3.547   8.405  1.9384  0.7808 -1.4108
 8957SOL    HW238508   0.595   3.453   8.416 -0.3734  0.0378  0.6961
 8958SOL     OW38509   0.148   0.591   4.125 -0.0452  0.5057 -0.7142
 8958SOL    HW138510   0.053   0.589   4.136  0.0440 -4.2275 -0.8356
 8958SOL    HW238511   0.152   0.592   4.030  0.6938  0.7117 -0.6811
 8959SOL     OW38512   4.595   2.937   2.889  0.4217  0.3035 -0.5697
 8959SOL    HW138513   4.508   2.977   2.894  0.6087  0.6726 -0.2835
 8959SOL    HW238514   4.569   2.845   2.894  0.1504  0.4051 -0.0759
 8960SOL     OW38515   4.515   2.705   6.821 -0.5138 -0.3194  0.4438
 8960SOL    HW138516   4.591   2.676   6.771 -0.0250 -0.8365  1.4772
 8960SOL    HW238517   4.471   2.620   6.829  3.2809 -2.4588 -1.5494
 8961SOL     OW38518   3.188   3.665   7.831 -0.0654  0.3272 -0.9081
 8961SOL    HW138519   3.216   3.639   7.919  0.1360  1.7896 -0.5485
 8961SOL    HW238520   3.273   3.668   7.788 -0.0217  0.6084 -0.7974
 8962SOL     OW38521   0.317   0.559   5.075  0.2745  0.6006 -0.1841
 8962SOL    HW138522   0.411   0.556   5.089  0.4662  1.1251 -1.3619
 8962SOL    HW238523   0.319   0.592   4.985 -1.1134 -2.3831 -1.3190
 8963SOL     OW38524   1.773   0.381   0.847 -0.1490 -0.5093 -0.0086
 8963SOL    HW138525   1.864   0.369   0.820 -0.2817 -0.1087 -0.6367
 8963SOL    HW238526   1.775   0.348   0.937 -0.1489 -2.6020 -0.7999
 8964SOL     OW38527   2.980   3.569   3.823 -0.2781  0.4058 -0.1739
 8964SOL    HW138528   2.952   3.520   3.746  2.0157 -0.6654 -0.3264
 8964SOL    HW238529   3.051   3.511   3.851 -0.3394 -0.2920 -1.4619
 8965SOL     OW38530   0.502   2.344  15.369  1.1484  0.0404 -0.1169
 8965SOL    HW138531   0.483   2.437  15.358  0.2385  0.3770  4.3245
 8965SOL    HW238532   0.521   2.324  15.461 -1.8462 -0.5082  0.3907
 8966SOL     OW38533   3.839   4.217   8.544  0.3089 -0.1784  0.1597
 8966SOL    HW138534   3.816   4.309   8.558 -0.9902 -0.4944  0.1458
 8966SOL    HW238535   3.769   4.175   8.594 -0.5738  0.4063 -0.5849
 8967SOL     OW38536   0.315   1.786   7.644 -0.5420 -0.2057 -0.3954
 8967SOL    HW138537   0.244   1.724   7.629 -2.4377  1.1644  2.9816
 8967SOL    HW238538   0.389   1.733   7.616 -1.3064 -1.0796 -0.7630
 8968SOL     OW38539   3.143   1.882   6.320 -0.5495 -0.0827  0.4060
 8968SOL    HW138540   3.076   1.821   6.291 -0.7091  0.5756 -0.6104
 8968SOL    HW238541   3.090   1.962   6.319  0.1063  0.3603  1.0725
 8969SOL     OW38542   1.119   2.303   6.281 -0.3766  0.3077  0.1268
 8969SOL    HW138543   1.143   2.385   6.238 -0.5690  0.3212  0.0465
 8969SOL    HW238544   1.181   2.295   6.353  0.2910  1.3134 -0.3297
 8970SOL     OW38545   2.320   2.598   8.423 -0.6955 -0.1173 -0.1326
 8970SOL    HW138546   2.355   2.622   8.509 -1.0036 -0.4968  0.1009
 8970SOL    HW238547   2.303   2.686   8.390  1.1273  0.2171 -0.2002
 8971SOL     OW38548   0.681   0.531  13.466  0.4631 -0.1719  0.1610
 8971SOL    HW138549   0.607   0.585  13.438  0.2105 -1.2609 -1.2909
 8971SOL    HW238550   0.713   0.491  13.385 -0.8200 -0.8572 -0.0091
 8972SOL     OW38551   4.396   1.990   5.379 -0.0307  0.1763 -0.7273
 8972SOL    HW138552   4.367   1.933   5.450 -0.0013  0.4880 -0.4674
 8972SOL    HW238553   4.334   2.063   5.375 -1.7527 -1.3111 -1.7161
 8973SOL     OW38554   1.339   2.077   6.258 -0.3885 -0.2562 -0.4843
 8973SOL    HW138555   1.266   2.021   6.284 -0.1094 -1.2824 -1.9124
 8973SOL    HW238556   1.403   2.041   6.318 -0.5041 -1.6493 -1.2012
 8974SOL     OW38557   1.829   3.005   8.269  0.0373  0.2217  0.1260
 8974SOL    HW138558   1.766   3.034   8.204  1.8181  0.3331 -1.5508
 8974SOL    HW238559   1.781   2.928   8.299  1.2970 -1.3114 -1.7892
 8975SOL     OW38560   2.898   2.192   5.322  0.3242 -0.9779 -0.0564
 8975SOL    HW138561   2.958   2.252   5.367 -1.1002 -1.1011  2.0244
 8975SOL    HW238562   2.819   2.220   5.368  1.0909  0.5457  0.3655
 8976SOL     OW38563   4.275   1.446  16.826 -0.0181 -0.3332 -0.2581
 8976SOL    HW138564   4.305   1.490  16.906  1.3880  0.6330 -1.3120
 8976SOL    HW238565   4.253   1.362  16.868 -1.0789  1.8287  3.5097
 8977SOL     OW38566   2.783   0.544   2.202 -0.3850 -0.0325  0.1712
 8977SOL    HW138567   2.862   0.571   2.155 -1.3652  0.7559 -1.0066
 8977SOL    HW238568   2.806   0.545   2.295  0.1738  1.0958  0.0222
 8978SOL     OW38569   0.178   0.767   6.873 -0.2134 -1.0433 -0.6205
 8978SOL    HW138570   0.131   0.823   6.936  0.3351 -0.0992 -1.0419
 8978SOL    HW238571   0.263   0.807   6.893 -0.0794 -0.0620 -3.1848
 8979SOL     OW38572   3.579   3.337   6.676  0.2302  0.1553 -0.0647
 8979SOL    HW138573   3.543   3.258   6.716 -2.9179  1.4038 -0.3638
 8979SOL    HW238574   3.513   3.352   6.607  0.5528  1.0860 -0.1757
 8980SOL     OW38575   4.332   2.606   5.272  0.0363 -0.5187  0.0101
 8980SOL    HW138576   4.365   2.583   5.359 -1.7594  1.3851  1.2009
 8980SOL    HW238577   4.284   2.687   5.286  1.0587 -0.3437  2.5277
 8981SOL     OW38578   3.530   2.188   8.130 -0.9011 -0.2280  0.0291
 8981SOL    HW138579   3.491   2.217   8.212 -0.5268 -1.2581  0.5646
 8981SOL    HW238580   3.540   2.269   8.079  0.2101 -1.5681 -1.8949
 8982SOL     OW38581   0.557   4.704   8.778  0.2894 -0.1542 -0.3106
 8982SOL    HW138582   0.501   4.722   8.701  0.1815 -3.0796 -0.9013
 8982SOL    HW238583   0.589   4.615   8.771 -2.2379 -1.1349  0.6637
 8983SOL     OW38584   2.761   4.458   3.022 -0.4215  0.4659 -0.1647
 8983SOL    HW138585   2.814   4.413   2.956  0.8933  0.3907  0.9521
 8983SOL    HW238586   2.723   4.391   3.079 -0.6141  0.4618 -0.2988
 8984SOL     OW38587   1.950   1.821   5.536  0.5121 -1.0173 -0.0804
 8984SOL    HW138588   1.944   1.837   5.630  0.5425 -0.1215 -0.2316
 8984SOL    HW238589   2.017   1.752   5.530 -0.0395 -1.4864 -0.9122
 8985SOL     OW38590   3.817   1.834  14.039 -0.0942 -0.7094  0.5073
 8985SOL    HW138591   3.766   1.827  14.119  0.6730 -3.1168  0.7768
 8985SOL    HW238592   3.891   1.879  14.078 -1.2461  2.3085 -0.7516
 8986SOL     OW38593   3.205   4.197   4.880  0.7146 -0.1497  0.0382
 8986SOL    HW138594   3.135   4.236   4.827  0.6342 -1.1588 -0.5989
 8986SOL    HW238595   3.150   4.148   4.941  0.0807  1.7604  0.9943
 8987SOL     OW38596   1.559   3.590   9.531 -0.1765  0.6717  0.2592
 8987SOL    HW138597   1.632   3.540   9.569 -0.7307 -0.9701 -0.8263
 8987SOL    HW238598   1.499   3.584   9.605 -0.3752 -0.1974  0.0364
 8988SOL     OW38599   3.872   2.259  15.871 -0.1824  0.2854 -0.2429
 8988SOL    HW138600   3.939   2.325  15.854  1.4164 -0.7051  2.1660
 8988SOL    HW238601   3.794   2.310  15.847  2.1364  3.8032 -0.2872
 8989SOL     OW38602   4.363   2.536  13.094  0.4168  0.1727  0.2462
 8989SOL    HW138603   4.322   2.452  13.111  0.4930  0.3729  1.4411
 8989SOL    HW238604   4.354   2.542  12.999 -3.9233 -0.8448  0.6101
 8990SOL     OW38605   1.853   2.733   5.690  0.4258 -0.4117  0.5780
 8990SOL    HW138606   1.799   2.781   5.628 -1.6741 -3.5703 -0.0259
 8990SOL    HW238607   1.890   2.809   5.736  1.9227 -0.3021 -0.7965
 8991SOL     OW38608   0.653   4.597   6.109 -0.5623 -0.2909  0.1737
 8991SOL    HW138609   0.722   4.561   6.053 -0.5711  3.8818 -2.5253
 8991SOL    HW238610   0.675   4.552   6.190 -0.2034  0.3896  0.4565
 8992SOL     OW38611   4.385   2.757   4.272  0.6767  0.3224  0.0521
 8992SOL    HW138612   4.330   2.683   4.298  1.0276  0.4225  1.0861
 8992SOL    HW238613   4.420   2.723   4.190  2.7496 -0.3523  1.2131
 8993SOL     OW38614   1.530   1.344   2.873 -0.2221 -0.0830 -0.8890
 8993SOL    HW138615   1.502   1.434   2.885  0.4915 -0.2836  2.3677
 8993SOL    HW238616   1.499   1.332   2.783 -0.2949  0.4417 -0.9314
 8994SOL     OW38617   1.970   3.971  12.679  0.9537  0.0857 -0.2982
 8994SOL    HW138618   2.051   3.956  12.729  1.1782  1.6242 -0.1956
 8994SOL    HW238619   1.917   3.895  12.701  0.4233  0.1671 -1.3004
 8995SOL     OW38620   0.325   3.621   9.612  0.0302 -0.2843  0.0957
 8995SOL    HW138621   0.355   3.645   9.523 -0.3921 -0.0554  0.0161
 8995SOL    HW238622   0.407   3.602   9.657  1.0866  1.7808 -0.9659
 8996SOL     OW38623   2.665   0.193  15.988 -0.3893 -0.1155 -0.0396
 8996SOL    HW138624   2.602   0.122  15.996 -0.1855 -0.0807  1.8834
 8996SOL    HW238625   2.634   0.249  16.060 -0.7624 -2.9087  1.9358
 8997SOL     OW38626   2.033   1.223  13.748  0.1342  0.0815  0.7241
 8997SOL    HW138627   1.997   1.285  13.811  0.5896  0.7924  0.2804
 8997SOL    HW238628   2.128   1.222  13.759  0.5573  0.2165 -2.8204
 8998SOL     OW38629   3.242   1.370  17.544 -0.8274  0.3784  0.5010
 8998SOL    HW138630   3.293   1.370  17.625 -0.3881 -0.1841  0.2262
 8998SOL    HW238631   3.234   1.275  17.530 -0.7820  0.5029 -0.3848
 8999SOL     OW38632   0.572   3.765  10.286  0.1881 -0.5480  0.2320
 8999SOL    HW138633   0.627   3.722  10.221  1.8046 -0.7280  1.7184
 8999SOL    HW238634   0.587   3.858  10.270 -2.5827 -0.1159  0.1092
 9000SOL     OW38635   2.099   2.145   6.988 -0.3780 -0.5496 -0.3435
 9000SOL    HW138636   2.116   2.136   7.082  0.7956  0.5733 -0.4479
 9000SOL    HW238637   2.061   2.059   6.969  1.7658 -1.6329  0.1993
 9001SOL     OW38638   2.241   0.545   4.212 -0.0914 -0.2485  0.1206
 9001SOL    HW138639   2.165   0.492   4.188  0.0753 -0.6352  0.4548
 9001SOL    HW238640   2.237   0.542   4.308 -0.2734  3.6933  0.2171
 9002SOL     OW38641   2.356   3.070   7.184  0.0181  0.0252  0.6652
 9002SOL    HW138642   2.422   3.088   7.251 -0.5580 -1.8132  1.7107
 9002SOL    HW238643   2.404   3.084   7.103 -1.4429  0.2751 -0.1682
 9003SOL     OW38644   1.022   1.946  16.508  0.0394 -0.2068  0.6026
 9003SOL    HW138645   0.991   1.858  16.531  0.3556 -0.4600  0.0330
 9003SOL    HW238646   1.036   1.944  16.414  4.2909  0.3654  1.2269
 9004SOL     OW38647   4.490   1.216   8.260  0.4747  0.1510 -0.3336
 9004SOL    HW138648   4.445   1.173   8.333  2.6348 -0.2215  0.7906
 9004SOL    HW238649   4.429   1.277   8.219 -0.1925  0.5941  1.3145
 9005SOL     OW38650   1.706   0.328   5.014 -0.6608 -0.1128  0.3455
 9005SOL    HW138651   1.731   0.277   5.090  1.1146 -0.3307 -0.3787
 9005SOL    HW238652   1.786   0.378   4.998 -0.6707 -0.5511 -1.0823
 9006SOL     OW38653   1.174   1.195   3.964 -0.6056  0.0125  0.1793
 9006SOL    HW138654   1.255   1.157   3.998 -1.6583 -0.4889  2.1118
 9006SOL    HW238655   1.110   1.124   3.960 -0.8225  0.2526 -0.6730
 9007SOL     OW38656   4.423   0.752   5.952 -0.2714  0.1629 -0.1916
 9007SOL    HW138657   4.394   0.669   5.912 -0.3259 -0.2854  0.7782
 9007SOL    HW238658   4.473   0.733   6.032  1.5353  0.5421 -1.2315
 9008SOL     OW38659   2.704   4.248   8.255  0.6159 -0.2710 -0.2639
 9008SOL    HW138660   2.743   4.161   8.247  0.1512 -0.4917 -0.1218
 9008SOL    HW238661   2.779   4.300   8.286  0.7295 -1.6269  1.7136
 9009SOL     OW38662   4.024   3.915   6.476  0.9921  0.2366 -0.0842
 9009SOL    HW138663   4.006   3.989   6.534 -1.3192 -1.6152  1.5367
 9009SOL    HW238664   3.987   3.947   6.394  1.9091 -1.3723 -1.1020
 9010SOL     OW38665   0.039   1.928   3.805 -0.6799 -0.2825 -0.0444
 9010SOL    HW138666   0.083   1.928   3.720  0.9870  1.9135  0.8144
 9010SOL    HW238667   0.030   1.834   3.817 -0.1683 -0.0724  2.0125
 9011SOL     OW38668   2.181   3.223   4.401 -0.3467  0.2879  0.2079
 9011SOL    HW138669   2.102   3.243   4.451 -0.7306  0.1453 -0.3432
 9011SOL    HW238670   2.156   3.149   4.346  0.7498  0.1875 -0.1738
 9012SOL     OW38671   2.598   4.632  14.683  0.2393 -0.4549  0.2588
 9012SOL    HW138672   2.538   4.579  14.631  1.3070  0.4673 -1.9148
 9012SOL    HW238673   2.618   4.558  14.741  0.7370  0.9581  1.8996
 9013SOL     OW38674   2.590   3.558   6.367  0.3730 -0.3482  0.3850
 9013SOL    HW138675   2.521   3.604   6.319  0.5005 -0.9440 -0.3692
 9013SOL    HW238676   2.663   3.564   6.305 -1.4724  0.2875 -1.7391
 9014SOL     OW38677   4.294   4.587   6.506 -0.2723  0.2883 -0.5332
 9014SOL    HW138678   4.362   4.533   6.466 -2.4795 -1.8281 -1.4577
 9014SOL    HW238679   4.301   4.660   6.444 -1.4734  1.8424  1.1548
 9015SOL     OW38680   2.829   0.320   7.151 -0.3756  0.4509 -0.2202
 9015SOL    HW138681   2.909   0.352   7.110 -1.1610  2.2680 -0.3739
 9015SOL    HW238682   2.773   0.397   7.164  0.6250  1.2355 -0.6081
 9016SOL     OW38683   1.856   3.329   6.088  0.6156  0.6887 -0.3824
 9016SOL    HW138684   1.793   3.399   6.071  0.9981  0.7343 -1.6145
 9016SOL    HW238685   1.904   3.339   6.006 -0.7437 -1.1708 -1.3940
 9017SOL     OW38686   0.575   2.877   7.162  0.1528 -0.3784  0.0652
 9017SOL    HW138687   0.594   2.903   7.072  0.0048  1.6063  0.6049
 9017SOL    HW238688   0.542   2.788   7.151  0.2206 -0.3185 -0.6351
 9018SOL     OW38689   0.887   3.419   8.580 -0.4943  0.4915 -0.2865
 9018SOL    HW138690   0.976   3.454   8.578 -0.4845  0.5736  1.3752
 9018SOL    HW238691   0.890   3.341   8.526  1.6190  0.0338  0.4774
 9019SOL     OW38692   3.604   1.704   4.362  0.5773 -0.0031 -0.0201
 9019SOL    HW138693   3.517   1.664   4.358 -0.0057  1.3916 -1.5409
 9019SOL    HW238694   3.625   1.717   4.269  1.3964  0.2083  0.1953
 9020SOL     OW38695   3.662   4.221  14.459 -0.0877 -0.0306  0.4470
 9020SOL    HW138696   3.610   4.233  14.379  0.0387  0.2609  0.4077
 9020SOL    HW238697   3.597   4.223  14.529  0.7053  0.9339  1.1511
 9021SOL     OW38698   1.768   2.417   9.063  0.1727 -0.0170  0.5513
 9021SOL    HW138699   1.750   2.350   9.129  1.6326  0.0026  0.9895
 9021SOL    HW238700   1.849   2.389   9.020 -1.5159  3.2419 -4.7491
 9022SOL     OW38701   3.653   3.305   7.428 -0.5886 -0.2391 -0.6191
 9022SOL    HW138702   3.630   3.344   7.343 -1.1292  1.5896  0.3749
 9022SOL    HW238703   3.563   3.287   7.454 -1.2585 -0.3625 -2.9546
 9023SOL     OW38704   4.033   4.086   8.810  0.0774 -0.0968 -0.8245
 9023SOL    HW138705   4.071   4.143   8.877 -0.6864 -0.6133  0.0531
 9023SOL    HW238706   3.956   4.074   8.865 -0.0467 -0.2957 -1.0438
 9024SOL     OW38707   2.087   4.356   4.735  0.3836 -0.7289 -0.1616
 9024SOL    HW138708   2.022   4.414   4.696  1.0007 -0.3913 -0.6791
 9024SOL    HW238709   2.034   4.292   4.783 -0.1854  0.9411  1.4694
 9025SOL     OW38710   2.074   1.313  15.424  0.1556 -0.2316 -0.4439
 9025SOL    HW138711   1.979   1.324  15.427  0.1535 -0.2619 -0.3904
 9025SOL    HW238712   2.069   1.244  15.358  0.4815  2.4572 -3.2757
 9026SOL     OW38713   0.124   3.981   8.963 -0.1084 -0.4048  0.2673
 9026SOL    HW138714   0.207   4.021   8.989 -0.1395  0.2755 -0.6724
 9026SOL    HW238715   0.095   3.965   9.053  0.6378 -0.0571  0.5758
 9027SOL     OW38716   2.618   0.485   7.229  0.1253 -0.2152 -0.1201
 9027SOL    HW138717   2.594   0.573   7.201 -0.8717 -0.4572 -0.0248
 9027SOL    HW238718   2.580   0.491   7.317 -1.5785  2.9306 -1.1090
 9028SOL     OW38719   1.837   3.169   2.078  0.2805  0.2467  0.0982
 9028SOL    HW138720   1.803   3.184   2.166  0.5708  0.2462  0.2119
 9028SOL    HW238721   1.860   3.259   2.055  3.0167 -0.3425  0.4402
 9029SOL     OW38722   2.525   3.112   9.588  0.3511  0.7707 -0.4666
 9029SOL    HW138723   2.456   3.167   9.624  0.5202 -0.2006  1.3511
 9029SOL    HW238724   2.578   3.093   9.666 -0.6053  0.2098  0.0390
 9030SOL     OW38725   3.682   0.338   5.472 -0.4657  0.1413  0.1666
 9030SOL    HW138726   3.693   0.364   5.380  1.4558  1.4486  0.7584
 9030SOL    HW238727   3.630   0.258   5.468  1.0273 -0.8476  0.1532
 9031SOL     OW38728   1.477   2.430   9.242 -0.0790  0.4150  0.4817
 9031SOL    HW138729   1.485   2.480   9.323 -0.7875 -0.3829  1.0496
 9031SOL    HW238730   1.567   2.426   9.210 -0.1403  1.2713  0.2017
 9032SOL     OW38731   2.593   0.410   9.367  0.1619 -0.5104  0.1920
 9032SOL    HW138732   2.568   0.318   9.358 -2.6035  0.3627 -1.2764
 9032SOL    HW238733   2.688   0.404   9.358  0.3048  0.8713  0.7560
 9033SOL     OW38734   0.296   4.481  10.102  0.1393 -0.2472 -0.4906
 9033SOL    HW138735   0.312   4.544  10.031  0.1039  2.3331  1.7998
 9033SOL    HW238736   0.284   4.402  10.050 -0.0723  0.4207 -1.4561
 9034SOL     OW38737   2.724   2.226   8.054  0.3889 -0.1245 -0.3980
 9034SOL    HW138738   2.706   2.311   8.095  0.5484 -0.2975  0.0283
 9034SOL    HW238739   2.820   2.220   8.049  0.7036  2.5993  2.0018
 9035SOL     OW38740   1.923   2.816  17.546  0.2182 -0.4309  0.3541
 9035SOL    HW138741   2.014   2.826  17.520  0.0357  1.0887  0.3276
 9035SOL    HW238742   1.909   2.902  17.584  2.7875 -0.2946  0.9975
 9036SOL     OW38743   4.114   1.398   7.014  0.0883 -0.2227 -0.1727
 9036SOL    HW138744   4.063   1.454   6.956  0.1366  1.1268  1.0699
 9036SOL    HW238745   4.196   1.448   7.008 -0.7054  1.2234  0.9679
 9037SOL     OW38746   3.644   2.067  17.274  0.6719 -0.0576 -0.2357
 9037SOL    HW138747   3.710   2.085  17.207  2.1489 -0.5595  1.0953
 9037SOL    HW238748   3.562   2.050  17.227 -0.5752  3.0737  0.8000
 9038SOL     OW38749   2.697   1.253   1.380 -0.1951  0.5416  0.2578
 9038SOL    HW138750   2.658   1.287   1.299  1.5840 -2.2076 -1.7633
 9038SOL    HW238751   2.708   1.330   1.435 -1.5503  0.3363  0.8299
 9039SOL     OW38752   2.522   3.161   3.743  0.0227 -0.5560  0.3734
 9039SOL    HW138753   2.485   3.123   3.823 -0.6348 -0.0662  0.3027
 9039SOL    HW238754   2.572   3.227   3.791  1.5682 -1.3046 -0.2091
 9040SOL     OW38755   0.446   0.820   3.956 -0.2296 -0.4099 -0.0312
 9040SOL    HW138756   0.388   0.749   3.931 -0.4172 -0.8882  1.7520
 9040SOL    HW238757   0.444   0.800   4.049 -0.1017  2.3625  0.5639
 9041SOL     OW38758   1.321   4.514   7.920  0.4877 -0.1014 -0.5109
 9041SOL    HW138759   1.249   4.548   7.867 -0.2133 -1.3893 -0.3891
 9041SOL    HW238760   1.279   4.516   8.005 -0.0693  0.0907 -0.7923
 9042SOL     OW38761   3.691   3.713   2.239 -0.7172 -0.3778 -0.3478
 9042SOL    HW138762   3.672   3.803   2.268  0.6166 -0.1580 -0.1364
 9042SOL    HW238763   3.650   3.668   2.313 -1.1936  2.4109  1.0793
 9043SOL     OW38764   1.376   4.124   3.963  0.2441  0.1584 -0.0682
 9043SOL    HW138765   1.399   4.033   3.981  0.7992 -0.1534 -2.3098
 9043SOL    HW238766   1.356   4.150   4.053  1.2532 -0.1762  0.2601
 9044SOL     OW38767   0.380   2.733   4.492  0.1405  0.0189 -0.0718
 9044SOL    HW138768   0.379   2.711   4.586 -0.8121  1.0349  0.1539
 9044SOL    HW238769   0.317   2.665   4.468  0.1991  0.2345 -0.8194
 9045SOL     OW38770   2.549   2.539  11.940 -0.1913 -0.6780  0.6778
 9045SOL    HW138771   2.638   2.525  11.973 -0.3242 -0.7239  1.0200
 9045SOL    HW238772   2.558   2.495  11.855  2.5335  1.3750 -0.1069
 9046SOL     OW38773   0.061   1.523   0.206  0.1644  0.1869 -0.3225
 9046SOL    HW138774   0.072   1.435   0.241 -1.3616  0.5523  1.0670
 9046SOL    HW238775   0.127   1.526   0.137  1.1025  0.5324  0.6014
 9047SOL     OW38776   1.942   4.338   5.479  0.3205  0.3991 -0.1204
 9047SOL    HW138777   1.877   4.335   5.409 -0.8614 -0.0950  0.9944
 9047SOL    HW238778   2.012   4.386   5.436  2.3709  0.4349  3.2601
 9048SOL     OW38779   1.558   1.491   8.853  0.1403 -0.6025 -0.1182
 9048SOL    HW138780   1.627   1.538   8.899 -1.7274  1.9807  0.0219
 9048SOL    HW238781   1.482   1.511   8.908  2.3558  0.7635  2.4062
 9049SOL     OW38782   3.045   2.995   7.013  1.0703 -0.2583 -0.3483
 9049SOL    HW138783   3.021   3.087   7.012  2.6160  0.1289 -0.5921
 9049SOL    HW238784   3.099   2.988   6.934  0.4826 -1.7750 -0.6300
 9050SOL     OW38785   2.323   0.048  10.228 -0.3688  0.0741  0.2242
 9050SOL    HW138786   2.400   0.094  10.262 -1.3396 -0.0913  2.6664
 9050SOL    HW238787   2.333   4.700  10.283 -1.1120 -0.1332  0.0598
 9051SOL     OW38788   0.406   2.887   6.880  0.7724 -0.5442  0.0618
 9051SOL    HW138789   0.360   2.803   6.879  0.4381 -0.3380 -2.1552
 9051SOL    HW238790   0.336   2.945   6.910  1.1040 -0.7285  1.1691
 9052SOL     OW38791   1.082   1.131   4.923  0.3660 -0.0534 -0.0343
 9052SOL    HW138792   1.112   1.201   4.865 -0.0610  1.0903  1.1300
 9052SOL    HW238793   1.140   1.123   4.999  1.5219 -1.1290 -1.0172
 9053SOL     OW38794   0.265   4.093   6.311 -0.1341 -0.3351  0.4559
 9053SOL    HW138795   0.302   4.052   6.390 -0.5310  0.0194  0.8246
 9053SOL    HW238796   0.204   4.153   6.353 -0.3344  0.0727 -0.4281
 9054SOL     OW38797   4.455   3.269   6.834 -0.1275 -0.5350  0.3424
 9054SOL    HW138798   4.485   3.181   6.808 -0.6151 -0.7048  0.3645
 9054SOL    HW238799   4.539   3.311   6.854 -1.3956  1.8464  0.6521
 9055SOL     OW38800   4.110   0.602  14.803  0.0180 -0.0200 -0.6897
 9055SOL    HW138801   4.052   0.532  14.775 -0.0556 -0.0046 -0.5750
 9055SOL    HW238802   4.045   0.661  14.841  1.5666  2.3218 -1.6483
 9056SOL     OW38803   2.615   0.409  16.197  0.2615  0.7250 -0.7272
 9056SOL    HW138804   2.584   0.474  16.135 -1.5207 -0.5360 -1.1762
 9056SOL    HW238805   2.701   0.436  16.228 -0.1496  0.8107  0.3415
 9057SOL     OW38806   3.807   1.758  17.528  0.5073  0.1541  0.0898
 9057SOL    HW138807   3.728   1.779  17.578  0.0562  2.4403 -1.5523
 9057SOL    HW238808   3.856   1.707  17.592 -0.4990 -0.0239  0.7277
 9058SOL     OW38809   3.223   2.040  13.443  0.7944  0.1222 -0.4495
 9058SOL    HW138810   3.226   2.021  13.536  1.4804 -1.7739 -0.8545
 9058SOL    HW238811   3.312   2.064  13.417  0.6459  2.5660  1.3190
 9059SOL     OW38812   2.666   4.450   6.646  0.0576  0.2664  0.1053
 9059SOL    HW138813   2.631   4.362   6.637  0.0345  0.0606  2.3006
 9059SOL    HW238814   2.664   4.458   6.741  2.0163 -1.0738  0.2642
 9060SOL     OW38815   2.853   2.655   1.751  0.3685 -0.5017 -0.6666
 9060SOL    HW138816   2.815   2.697   1.673 -2.4114 -3.2207 -0.7400
 9060SOL    HW238817   2.941   2.695   1.748  0.0262  0.4586  2.0204
 9061SOL     OW38818   2.142   3.165   1.726 -0.1522  0.7064 -0.3406
 9061SOL    HW138819   2.229   3.201   1.707 -0.2330  1.8481  1.4952
 9061SOL    HW238820   2.092   3.167   1.645 -0.2908 -0.4019 -0.2851
 9062SOL     OW38821   2.978   1.112   8.833  0.4319  0.1028  0.0599
 9062SOL    HW138822   2.917   1.069   8.775  1.1921 -0.9210  0.0102
 9062SOL    HW238823   3.007   1.038   8.887 -3.1518 -1.7128 -0.5122
 9063SOL     OW38824   1.675   1.930   0.685  0.0339 -0.0810  0.0118
 9063SOL    HW138825   1.737   1.930   0.612  0.3606  1.2191  0.2760
 9063SOL    HW238826   1.696   1.841   0.712  1.7147  0.7207  1.3923
 9064SOL     OW38827   2.956   2.142  11.069 -0.1654  0.2466  0.4129
 9064SOL    HW138828   3.051   2.139  11.058 -0.0538 -0.4855  1.6203
 9064SOL    HW238829   2.931   2.053  11.092 -1.2040  0.3893 -0.1419
 9065SOL     OW38830   4.582   4.147   4.168 -0.2039  0.0939 -0.1438
 9065SOL    HW138831   4.487   4.137   4.174 -0.0090 -2.2700 -0.9860
 9065SOL    HW238832   4.611   4.121   4.256 -0.3099  1.3029  0.2588
 9066SOL     OW38833   0.261   1.938  14.323  0.1131 -0.1510  0.0858
 9066SOL    HW138834   0.233   1.882  14.395 -0.0135  1.1343  1.0136
 9066SOL    HW238835   0.183   1.938  14.267  0.3236  1.6116 -0.2008
 9067SOL     OW38836   2.608   3.904  16.059  0.2755 -0.4788 -0.0617
 9067SOL    HW138837   2.680   3.911  16.122  1.8514  0.3616 -1.9618
 9067SOL    HW238838   2.654   3.859  15.988 -0.6319  0.2342 -1.0860
 9068SOL     OW38839   2.320   1.291  16.893 -0.3284 -0.7793 -0.1853
 9068SOL    HW138840   2.363   1.294  16.978 -0.2507 -1.1075 -0.2131
 9068SOL    HW238841   2.317   1.200  16.864 -1.1214 -0.9733  0.5018
 9069SOL     OW38842   4.529   3.572   8.181 -0.6651  0.7699 -0.2223
 9069SOL    HW138843   4.470   3.528   8.120 -1.6030  2.2089 -0.3573
 9069SOL    HW238844   4.495   3.542   8.265 -1.3104  0.5367 -0.5706
 9070SOL     OW38845   0.516   3.193   4.619 -0.0036 -0.5557  0.4265
 9070SOL    HW138846   0.512   3.201   4.523 -0.6208 -2.3797  0.3020
 9070SOL    HW238847   0.529   3.279   4.657 -0.4671 -0.7257  0.9558
 9071SOL     OW38848   3.873   3.690  13.520  0.0122  0.0008 -0.0019
 9071SOL    HW138849   3.878   3.710  13.426 -0.9963  0.8063  0.1086
 9071SOL    HW238850   3.940   3.622  13.517  1.3768  1.3459  0.0797
 9072SOL     OW38851   2.761   0.021  16.668  0.5554 -0.2492 -0.0623
 9072SOL    HW138852   2.839   0.040  16.616  0.0143 -1.7679 -1.4441
 9072SOL    HW238853   2.797   0.059  16.748  2.2221 -0.9988 -0.4461
 9073SOL     OW38854   3.760   1.917  16.026  0.0199 -0.0072  0.1227
 9073SOL    HW138855   3.830   1.968  16.067 -0.4700 -0.3867  1.4417
 9073SOL    HW238856   3.688   1.981  16.023  1.7338  1.8932 -0.7438
 9074SOL     OW38857   4.083   3.306   1.892  0.3934  0.1840  0.5911
 9074SOL    HW138858   4.044   3.250   1.959  0.2171 -0.4234 -0.0173
 9074SOL    HW238859   4.175   3.313   1.916  0.4970 -1.1456  0.5977
 9075SOL     OW38860   2.746   0.959   6.839 -0.0857 -0.5819  0.5888
 9075SOL    HW138861   2.691   0.984   6.764 -0.6835 -0.4011  1.0865
 9075SOL    HW238862   2.686   0.967   6.913  1.3130  0.2760  1.6467
 9076SOL     OW38863   0.277   2.264   2.780 -0.8364 -0.4772  0.6913
 9076SOL    HW138864   0.277   2.252   2.686 -2.7987 -1.2806  0.7923
 9076SOL    HW238865   0.356   2.214   2.801 -0.7040 -0.2290  0.7930
 9077SOL     OW38866   3.704   1.301   2.116  0.0794 -0.0391  0.1639
 9077SOL    HW138867   3.745   1.361   2.177 -1.5979 -0.8713  2.0958
 9077SOL    HW238868   3.611   1.324   2.119  0.2686  1.0036 -1.8871
 9078SOL     OW38869   2.061   0.115   1.075 -0.2948  0.1598  0.3412
 9078SOL    HW138870   2.138   0.126   1.020 -1.8813 -0.6698 -2.0579
 9078SOL    HW238871   2.095   0.071   1.153 -1.0507 -1.7390 -0.3834
 9079SOL     OW38872   1.121   2.864   9.485 -0.0703  0.2492  0.0200
 9079SOL    HW138873   1.107   2.812   9.565 -0.3543  0.4603  0.1089
 9079SOL    HW238874   1.216   2.875   9.493 -0.3810  2.0125  1.1890
 9080SOL     OW38875   2.057   2.099   5.484  0.8159 -0.0515  0.5876
 9080SOL    HW138876   2.107   2.103   5.403 -0.7679 -0.0247 -0.3777
 9080SOL    HW238877   2.009   2.017   5.488  0.1444  0.3159  0.0266
 9081SOL     OW38878   2.539   2.435   5.735  0.5263 -0.0738  0.2318
 9081SOL    HW138879   2.548   2.346   5.767  1.2025 -0.9262 -2.2971
 9081SOL    HW238880   2.454   2.429   5.691 -0.0264  3.3318  0.8723
 9082SOL     OW38881   2.393   2.554   7.838  0.6413  0.0533 -0.2214
 9082SOL    HW138882   2.331   2.627   7.830 -0.3938 -0.7530  0.4491
 9082SOL    HW238883   2.391   2.536   7.932  1.0960 -1.3040 -0.4703
 9083SOL     OW38884   3.120   1.696   9.140  0.5076 -0.0511  0.4326
 9083SOL    HW138885   3.129   1.671   9.048  1.0363  1.2827  0.1208
 9083SOL    HW238886   3.079   1.613   9.163 -1.1986  0.8583  0.6260
 9084SOL     OW38887   1.103   3.383   5.163  0.2885 -0.0190  0.1628
 9084SOL    HW138888   1.035   3.427   5.111 -1.0247 -0.9216  1.1056
 9084SOL    HW238889   1.121   3.311   5.102 -0.0571 -0.0355  0.0792
 9085SOL     OW38890   3.773   1.710  10.767 -0.2499  0.3450 -0.1975
 9085SOL    HW138891   3.834   1.687  10.838  0.3328  0.5448 -0.6331
 9085SOL    HW238892   3.740   1.797  10.793  0.1583  0.6928 -0.8584
 9086SOL     OW38893   1.021   1.810   1.500 -0.0286 -0.2425 -1.1197
 9086SOL    HW138894   0.994   1.837   1.412 -0.3431  0.4383 -0.8105
 9086SOL    HW238895   0.954   1.745   1.523 -0.4240  0.6626  0.3155
 9087SOL     OW38896   4.060   0.081   8.778 -0.8414  0.4566  0.4580
 9087SOL    HW138897   4.048   0.015   8.710 -2.6520  2.1425 -0.8787
 9087SOL    HW238898   4.045   0.028   8.856 -0.1525 -1.4356 -0.6990
 9088SOL     OW38899   1.274   3.875   4.301 -0.1526 -0.0194  0.3824
 9088SOL    HW138900   1.241   3.837   4.382  1.0018 -1.5466  0.1298
 9088SOL    HW238901   1.260   3.806   4.236 -1.7319  0.8700 -0.2342
 9089SOL     OW38902   3.322   0.337   9.874 -0.3608  0.2754 -0.0585
 9089SOL    HW138903   3.321   0.273   9.803  0.1975 -0.5422  0.6602
 9089SOL    HW238904   3.401   0.308   9.921 -0.6764 -1.8380 -0.8386
 9090SOL     OW38905   3.482   4.393   8.633  0.2781 -0.2965  0.0985
 9090SOL    HW138906   3.494   4.318   8.576  2.4195 -0.0629  0.2297
 9090SOL    HW238907   3.403   4.366   8.679  0.4723  1.2167  1.3515
 9091SOL     OW38908   2.682   0.307   1.112 -0.4595  0.0899 -0.0648
 9091SOL    HW138909   2.675   0.330   1.205  1.1975 -0.8706  0.2876
 9091SOL    HW238910   2.715   0.386   1.069 -1.0734  0.1703 -0.3949
 9092SOL     OW38911   4.082   0.401   4.465  0.9520  0.1997  0.0196
 9092SOL    HW138912   4.066   0.404   4.559  0.2526 -0.7434 -0.0699
 9092SOL    HW238913   4.130   0.481   4.446  0.0671  1.1485  1.7262
 9093SOL     OW38914   3.042   1.673   6.619  0.2312 -0.0868  0.0367
 9093SOL    HW138915   3.113   1.737   6.607  1.2978 -1.4218 -0.7557
 9093SOL    HW238916   2.998   1.670   6.534 -0.7946 -2.1431  0.6364
 9094SOL     OW38917   0.871   3.496   7.923  0.2738  0.2398 -0.1258
 9094SOL    HW138918   0.869   3.521   7.831 -1.5974 -4.4925 -1.3754
 9094SOL    HW238919   0.829   3.410   7.915 -0.5683  0.6190  0.1731
 9095SOL     OW38920   2.230   0.875   7.270 -0.4411  0.1973 -0.2987
 9095SOL    HW138921   2.252   0.968   7.273 -1.4747  0.5402 -2.6498
 9095SOL    HW238922   2.192   0.872   7.182  0.1514  1.2399 -0.5956
 9096SOL     OW38923   4.444   0.812   4.646  0.0707 -0.5368 -0.1880
 9096SOL    HW138924   4.453   0.889   4.588  2.6927 -0.6126  0.0886
 9096SOL    HW238925   4.463   0.737   4.590 -2.4582  0.9408 -2.9987
 9097SOL     OW38926   0.001   1.836   8.309 -0.3629 -0.1241 -0.3855
 9097SOL    HW138927   4.659   1.799   8.362 -0.3379  1.0440  0.4619
 9097SOL    HW238928   4.672   1.906   8.281 -0.6200  0.0004  0.4719
 9098SOL     OW38929   3.999   2.147   6.635 -0.6228  0.1885 -0.5511
 9098SOL    HW138930   4.060   2.219   6.619 -2.1399  1.5875 -0.0302
 9098SOL    HW238931   4.031   2.119   6.721  0.6936  1.0027 -0.7690
 9099SOL     OW38932   3.623   0.568   5.639  0.5500  0.4753 -0.5643
 9099SOL    HW138933   3.618   0.476   5.663 -0.4662  0.8590  0.6627
 9099SOL    HW238934   3.647   0.557   5.547 -2.0209 -0.1235 -1.1738
 9100SOL     OW38935   0.913   2.244   4.114 -0.3902  0.2255 -0.3218
 9100SOL    HW138936   0.936   2.239   4.207  0.3168  0.3782 -0.4899
 9100SOL    HW238937   0.817   2.250   4.110 -0.3824  0.8375  0.3742
 9101SOL     OW38938   1.197   1.189   1.778  0.2990  0.1943  0.2798
 9101SOL    HW138939   1.247   1.151   1.849 -1.3677  1.1443  1.9797
 9101SOL    HW238940   1.119   1.210   1.830  0.6393  0.0638  0.8437
 9102SOL     OW38941   4.640   2.848  10.024  0.0007  0.1932 -0.1996
 9102SOL    HW138942   4.677   2.936  10.015  1.0821 -0.2026  0.4135
 9102SOL    HW238943   4.717   2.793  10.040  0.9495  0.9444 -2.1314
 9103SOL     OW38944   3.638   4.073   8.692  0.2382  0.0710 -0.0555
 9103SOL    HW138945   3.556   4.103   8.731  0.6403  1.9649 -0.6979
 9103SOL    HW238946   3.608   3.991   8.653 -1.3751  0.8790 -0.4885
 9104SOL     OW38947   1.341   4.373   5.667  0.1050 -0.2513 -0.0319
 9104SOL    HW138948   1.420   4.412   5.629  0.6511  1.2902  2.6791
 9104SOL    HW238949   1.275   4.417   5.614 -1.2510 -3.1847 -0.7422
 9105SOL     OW38950   1.718   2.910   2.107  0.5004  0.4223  0.4458
 9105SOL    HW138951   1.723   2.856   2.028  1.0595  0.4386  0.4743
 9105SOL    HW238952   1.784   2.978   2.093 -0.0262  0.9200  0.3833
 9106SOL     OW38953   2.484   4.296   8.566  0.1745 -0.2675 -0.4567
 9106SOL    HW138954   2.537   4.328   8.493  2.0851 -0.8404  0.6717
 9106SOL    HW238955   2.448   4.376   8.603  1.6666  0.5514 -0.7455
 9107SOL     OW38956   3.254   4.517  15.586 -0.7477 -0.4726 -0.1134
 9107SOL    HW138957   3.213   4.554  15.664 -0.3098  1.2230 -0.6837
 9107SOL    HW238958   3.286   4.598  15.546  0.6273 -0.1656  1.6301
 9108SOL     OW38959   1.175   4.521   4.291  0.3225 -0.2133  0.2061
 9108SOL    HW138960   1.139   4.582   4.227  0.5976  1.0571  1.2516
 9108SOL    HW238961   1.268   4.520   4.269  0.3092  2.6371  0.0396
 9109SOL     OW38962   0.934   2.780   4.077 -0.2665 -0.1537  0.4945
 9109SOL    HW138963   0.888   2.735   4.148 -1.1514  0.1186  0.0929
 9109SOL    HW238964   1.006   2.818   4.128  0.2198 -1.3301  0.6774
 9110SOL     OW38965   1.593   1.385  10.064 -0.2363  0.1289 -0.6542
 9110SOL    HW138966   1.516   1.415  10.015 -1.3250 -2.2135 -0.3916
 9110SOL    HW238967   1.651   1.461  10.069  0.8182 -0.8128  1.2892
 9111SOL     OW38968   3.939   0.401   5.975  0.2241 -0.1130 -0.7859
 9111SOL    HW138969   4.031   0.387   5.952  0.4207 -1.4477  0.8064
 9111SOL    HW238970   3.929   0.489   5.938  0.4920  0.2333 -0.0416
 9112SOL     OW38971   2.237   4.648  15.028  0.1146 -0.1697  0.2343
 9112SOL    HW138972   2.236   4.701  15.108  0.1273 -0.3824  0.3732
 9112SOL    HW238973   2.171   4.583  15.050 -1.5015  0.3459 -3.0301
 9113SOL     OW38974   1.407   0.394  17.407 -0.2292 -0.1654  0.0399
 9113SOL    HW138975   1.378   0.401  17.498  1.9307  2.5432  0.5040
 9113SOL    HW238976   1.493   0.436  17.414 -0.5726  0.5796 -0.1395
 9114SOL     OW38977   2.241   3.342  14.006 -0.3017 -0.1630 -0.1282
 9114SOL    HW138978   2.173   3.356  13.941 -0.8472 -0.4315  0.3796
 9114SOL    HW238979   2.205   3.345  14.095 -2.6739 -1.8913 -1.0413
 9115SOL     OW38980   4.290   1.796   3.879  0.4039 -0.3033  0.0269
 9115SOL    HW138981   4.204   1.788   3.838 -0.8523 -0.4310  2.7162
 9115SOL    HW238982   4.341   1.814   3.800  1.1275 -0.9111  0.3542
 9116SOL     OW38983   4.096   0.938  17.212  0.4714  0.2523 -0.3932
 9116SOL    HW138984   4.045   0.982  17.144 -0.6699 -0.5290 -0.0336
 9116SOL    HW238985   4.178   0.987  17.206  0.3277  0.4842 -0.4354
 9117SOL     OW38986   3.598   2.211   0.720  0.2508  0.6717  0.1326
 9117SOL    HW138987   3.541   2.147   0.677 -0.0358 -0.2738  1.8837
 9117SOL    HW238988   3.684   2.176   0.695 -0.6358 -0.6558 -1.0753
 9118SOL     OW38989   1.076   3.669  14.862 -0.1381  0.3456 -0.2013
 9118SOL    HW138990   1.106   3.709  14.943 -2.6189 -1.5203  1.6511
 9118SOL    HW238991   0.981   3.676  14.873 -0.0042 -1.3051  1.9355
 9119SOL     OW38992   3.097   0.781   4.373 -0.2532  0.1774 -0.1038
 9119SOL    HW138993   3.005   0.808   4.378 -0.5712 -1.1574  1.2895
 9119SOL    HW238994   3.094   0.719   4.445  1.8979 -1.6374 -1.5781
 9120SOL     OW38995   0.732   1.994  15.244 -0.4637 -0.0324 -0.1779
 9120SOL    HW138996   0.659   1.968  15.300  0.0930 -1.8803 -0.3175
 9120SOL    HW238997   0.695   2.058  15.183  0.3797  1.9270  1.3738
 9121SOL     OW38998   2.874   3.257   6.069 -0.9980  0.7307 -0.1966
 9121SOL    HW138999   2.959   3.216   6.086 -1.1530  1.1078  1.4546
 9121SOL    HW239000   2.875   3.265   5.973 -0.0454  1.5533 -0.1202
 9122SOL     OW39001   2.467   1.209  15.778 -0.5818  0.3802  0.1476
 9122SOL    HW139002   2.496   1.157  15.703  1.3283 -0.3760  1.4153
 9122SOL    HW239003   2.388   1.244  15.737 -0.3082  2.0042  1.0038
 9123SOL     OW39004   3.227   1.036   2.926  1.1139 -0.1643 -0.2213
 9123SOL    HW139005   3.233   1.130   2.943 -1.1518 -0.1163  0.2849
 9123SOL    HW239006   3.211   1.011   3.017  0.0064 -0.8110 -0.5862
 9124SOL     OW39007   1.412   4.709   8.575 -0.4534  0.1411  0.0096
 9124SOL    HW139008   1.472   0.010   8.508  2.1890 -1.4346  1.6498
 9124SOL    HW239009   1.401   0.060   8.627 -2.1721 -0.7133  0.9815
 9125SOL     OW39010   2.941   0.906   6.438 -0.2771 -0.0377 -0.5937
 9125SOL    HW139011   2.954   0.975   6.503  1.5554  1.9047 -3.0535
 9125SOL    HW239012   2.992   0.943   6.367 -0.2393 -0.3627 -0.7371
 9126SOL     OW39013   2.810   4.464   4.434  0.3338 -0.1524  1.0167
 9126SOL    HW139014   2.817   4.387   4.491  0.2936 -1.9103 -1.3366
 9126SOL    HW239015   2.802   4.418   4.350  2.4428  0.3374  0.5454
 9127SOL     OW39016   2.787   1.401   9.728  0.2176  0.8704 -0.6580
 9127SOL    HW139017   2.719   1.392   9.794  0.3046 -1.4445 -0.8686
 9127SOL    HW239018   2.848   1.329   9.744 -3.0040 -1.7631 -0.2780
 9128SOL     OW39019   0.564   1.097   3.662 -0.6819  0.1470 -0.0563
 9128SOL    HW139020   0.589   1.169   3.719 -0.1925 -0.6209  0.7011
 9128SOL    HW239021   0.540   1.158   3.592  1.6674  0.6392 -0.4227
 9129SOL     OW39022   3.756   0.623  15.479  0.3204 -0.1059 -0.4110
 9129SOL    HW139023   3.743   0.559  15.550 -1.2187 -1.2516 -1.7216
 9129SOL    HW239024   3.846   0.610  15.450 -0.0278  3.3200 -2.9602
 9130SOL     OW39025   4.687   3.693   0.218  1.0613  0.2531  0.3078
 9130SOL    HW139026   0.021   3.743   0.166  0.7737  0.5915  0.2830
 9130SOL    HW239027   4.684   3.748   0.297 -1.2494 -0.1764  0.5118
 9131SOL     OW39028   3.525   3.700   1.814 -0.4366 -0.1410  0.6623
 9131SOL    HW139029   3.508   3.632   1.749  0.4816 -0.8018  1.1112
 9131SOL    HW239030   3.592   3.754   1.772 -0.9234 -1.6888 -2.0829
 9132SOL     OW39031   3.017   2.379   7.325 -0.3398  0.3414  0.5630
 9132SOL    HW139032   2.951   2.330   7.277 -0.3268 -0.3771  1.2725
 9132SOL    HW239033   2.980   2.467   7.320 -0.5825  0.1846 -0.2883
 9133SOL     OW39034   0.981   4.608   4.952  0.6799 -0.7704  0.1232
 9133SOL    HW139035   0.934   4.558   4.886 -1.8451  2.0139 -0.1643
 9133SOL    HW239036   0.933   4.691   4.949  2.6163  0.3421 -0.0984
 9134SOL     OW39037   1.757   4.671   4.877  0.1644  0.0170 -0.5071
 9134SOL    HW139038   1.697   0.004   4.918 -2.0941 -0.1085 -3.6112
 9134SOL    HW239039   1.712   4.590   4.899  0.6165  0.4630  2.0514
 9135SOL     OW39040   0.063   1.893  14.168  0.1571 -0.1021 -0.3843
 9135SOL    HW139041   4.723   1.957  14.151  0.6655  0.4390 -0.4020
 9135SOL    HW239042   0.030   1.814  14.124  2.0063 -0.0372 -1.9004
 9136SOL     OW39043   0.914   0.376   6.458 -0.2263  0.2757 -0.2648
 9136SOL    HW139044   0.831   0.416   6.433 -1.2935 -3.0071 -1.9141
 9136SOL    HW239045   0.925   0.424   6.541 -0.0918 -0.6246  0.2432
 9137SOL     OW39046   1.724   3.544  11.500 -0.1989  0.2254  0.2056
 9137SOL    HW139047   1.787   3.473  11.489  1.5563  1.7669  0.1946
 9137SOL    HW239048   1.652   3.496  11.541  0.1081 -0.2370  0.1951
 9138SOL     OW39049   4.038   3.674   6.583  0.0580 -0.1227 -0.0734
 9138SOL    HW139050   4.021   3.760   6.545 -0.1864 -0.2618 -0.2768
 9138SOL    HW239051   3.984   3.626   6.520 -0.3765 -0.2573  0.3894
 9139SOL     OW39052   0.073   3.921   5.554 -0.2136 -0.0879  0.2241
 9139SOL    HW139053   0.124   3.911   5.474 -0.7291  0.3087 -0.1580
 9139SOL    HW239054   0.123   3.861   5.609 -0.2055 -1.8210 -1.6844
 9140SOL     OW39055   4.656   4.202   0.478 -0.1319  0.1273  0.6711
 9140SOL    HW139056   4.697   4.276   0.522 -1.3063  1.2654 -0.1716
 9140SOL    HW239057   4.659   4.227   0.386 -1.7575 -2.7344 -0.1645
 9141SOL     OW39058   4.480   2.630   7.812 -0.4602 -0.1661  0.2154
 9141SOL    HW139059   4.441   2.592   7.733  0.6187  0.0343 -0.4085
 9141SOL    HW239060   4.498   2.546   7.853  1.1068  0.2709  0.4410
 9142SOL     OW39061   0.024   1.232   8.461  0.3554 -0.2380 -0.0410
 9142SOL    HW139062   0.076   1.291   8.516  2.5943 -1.7134 -0.5821
 9142SOL    HW239063   0.080   1.202   8.389 -0.5989 -0.4241 -0.7100
 9143SOL     OW39064   0.285   0.990   3.768 -0.1309 -0.5117 -0.1777
 9143SOL    HW139065   0.379   0.995   3.786 -0.1628 -1.9734  0.3567
 9143SOL    HW239066   0.278   1.044   3.689  1.6381  0.3797  0.2671
 9144SOL     OW39067   4.518   3.273   7.200 -0.2406 -0.3461  0.5823
 9144SOL    HW139068   4.488   3.222   7.125  1.5582  0.0219 -0.3904
 9144SOL    HW239069   4.586   3.213   7.231  0.7179  0.8271  0.7794
 9145SOL     OW39070   3.639   0.770   7.841  0.3427 -0.3655 -0.7415
 9145SOL    HW139071   3.558   0.807   7.875  1.5362  1.1114  0.5160
 9145SOL    HW239072   3.698   0.845   7.842  0.7730 -0.7002 -0.8468
 9146SOL     OW39073   1.264   4.713   2.150  0.4116  0.0057 -0.0020
 9146SOL    HW139074   1.321   4.636   2.149  0.8567  0.3377 -0.2350
 9146SOL    HW239075   1.323   0.050   2.116 -0.5646  0.1256 -1.4397
 9147SOL     OW39076   1.859   3.119  14.293 -0.0725  0.5808 -0.0692
 9147SOL    HW139077   1.861   3.197  14.350  0.4488  0.6459 -0.1794
 9147SOL    HW239078   1.773   3.081  14.310  0.5878 -0.3540  1.1072
 9148SOL     OW39079   0.257   4.290   2.937 -0.2801 -0.5268 -0.3633
 9148SOL    HW139080   0.260   4.330   2.850 -1.8959 -1.1325 -0.6933
 9148SOL    HW239081   0.328   4.337   2.981  0.9949 -1.9094 -0.9275
 9149SOL     OW39082   2.910   1.909   1.737 -0.3746  0.3113  0.6157
 9149SOL    HW139083   2.818   1.885   1.744 -0.3979  0.4217  0.6957
 9149SOL    HW239084   2.908   2.003   1.756  0.7138  0.5400 -0.4272
 9150SOL     OW39085   1.387   0.079   2.448  0.0677 -0.9618  0.4111
 9150SOL    HW139086   1.293   0.071   2.463  0.2805 -0.3965  2.1009
 9150SOL    HW239087   1.406   4.720   2.418 -0.8916 -0.8263 -0.6145
 9151SOL     OW39088   1.278   4.655   2.964  0.3731  0.0654  0.0987
 9151SOL    HW139089   1.243   4.603   3.037 -0.5535 -0.5569 -0.7834
 9151SOL    HW239090   1.205   4.714   2.944  0.9251  0.6269 -0.2457
 9152SOL     OW39091   1.393   1.705   6.058 -0.0523  0.1843  0.5247
 9152SOL    HW139092   1.365   1.708   5.966  0.8566  1.2090  0.2842
 9152SOL    HW239093   1.312   1.709   6.109 -0.7359  1.8627 -0.6976
 9153SOL     OW39094   3.848   1.422  16.281 -0.2702 -0.2124  0.3342
 9153SOL    HW139095   3.769   1.401  16.329 -0.9553  1.8524  0.1160
 9153SOL    HW239096   3.814   1.479  16.212  0.4450 -1.5147 -1.1030
 9154SOL     OW39097   1.008   4.640   4.082 -0.0165  0.1978 -0.3824
 9154SOL    HW139098   0.931   4.583   4.080 -0.1709  0.4679 -1.7855
 9154SOL    HW239099   0.964   4.723   4.103  1.1447  0.3680  1.4583
 9155SOL     OW39100   2.694   1.223   5.396 -0.2866 -0.0638 -0.1594
 9155SOL    HW139101   2.607   1.256   5.420 -0.9831 -2.4523  0.5680
 9155SOL    HW239102   2.755   1.262   5.458  1.4192 -1.2458 -1.0736
 9156SOL     OW39103   1.014   1.670   5.329 -0.1568  0.3433 -0.4027
 9156SOL    HW139104   0.972   1.604   5.384 -2.2483 -0.4502 -2.9475
 9156SOL    HW239105   1.021   1.739   5.394 -1.9400 -0.3305  0.5218
 9157SOL     OW39106   0.638   4.728  16.142  0.6469 -0.0110 -0.1016
 9157SOL    HW139107   0.612   4.641  16.172  1.1912 -0.4318 -0.8508
 9157SOL    HW239108   0.657   0.045  16.224  1.1303 -1.9168  0.8455
 9158SOL     OW39109   3.070   1.506  17.345 -0.4040  0.6493  0.3144
 9158SOL    HW139110   3.106   1.471  17.427  1.4490 -3.0219 -2.0882
 9158SOL    HW239111   3.154   1.490  17.302 -1.6907 -0.8038 -1.6656
 9159SOL     OW39112   4.301   3.998   8.383  0.3379  0.0946 -0.6575
 9159SOL    HW139113   4.229   3.941   8.410  0.0941  0.4324 -0.5926
 9159SOL    HW239114   4.303   4.057   8.458  1.7021 -1.9442  0.8927
 9160SOL     OW39115   1.215   0.902   5.084 -0.7112  0.5012  0.0353
 9160SOL    HW139116   1.289   0.851   5.049 -1.1110 -0.5378  0.6905
 9160SOL    HW239117   1.183   0.851   5.159  0.5273 -0.7958 -0.3102
 9161SOL     OW39118   1.783   2.515   6.871  0.3758  0.4353 -0.2618
 9161SOL    HW139119   1.837   2.438   6.855 -3.0690 -1.5414 -2.5021
 9161SOL    HW239120   1.829   2.559   6.942  0.2351  2.4189 -1.4133
 9162SOL     OW39121   1.825   1.247   3.004  0.2971 -0.0383 -0.0994
 9162SOL    HW139122   1.901   1.222   2.952 -1.8883 -1.5137 -2.5915
 9162SOL    HW239123   1.810   1.174   3.064 -1.1689  0.1238 -0.2638
 9163SOL     OW39124   1.498   2.490   1.851  0.1031  0.1250  0.5140
 9163SOL    HW139125   1.458   2.529   1.773 -1.7151 -2.1698  0.3047
 9163SOL    HW239126   1.426   2.448   1.898 -1.4941 -0.3880 -2.4204
 9164SOL     OW39127   2.336   0.942   2.203  0.0723  0.3902 -0.0011
 9164SOL    HW139128   2.402   0.886   2.163  0.6245  0.2049  1.1595
 9164SOL    HW239129   2.271   0.880   2.237  2.7792 -1.6085  1.4195
 9165SOL     OW39130   2.717   3.629   4.407  0.0670 -0.7033 -0.2810
 9165SOL    HW139131   2.653   3.684   4.362 -0.7090 -1.5833 -0.2502
 9165SOL    HW239132   2.701   3.545   4.365  0.5463  0.0766 -2.0259
 9166SOL     OW39133   4.157   2.496   2.586  0.0578  0.0101  0.0227
 9166SOL    HW139134   4.178   2.586   2.560  1.9926 -0.6361 -0.7046
 9166SOL    HW239135   4.117   2.510   2.671 -0.2543  1.1717 -0.3153
 9167SOL     OW39136   2.340   0.121   3.892  0.0922 -0.4795  0.3940
 9167SOL    HW139137   2.297   0.072   3.962 -0.0774 -0.9947 -0.0738
 9167SOL    HW239138   2.429   0.122   3.927  1.2145  0.0547 -2.5205
 9168SOL     OW39139   0.964   0.250   3.555  0.0973  0.0970  0.4413
 9168SOL    HW139140   0.962   0.298   3.472  1.4573  0.3463  0.5560
 9168SOL    HW239141   1.015   0.176   3.522 -0.2115 -0.1827  0.5965
 9169SOL     OW39142   2.469   1.515   3.164  0.2959 -0.6339  0.3252
 9169SOL    HW139143   2.529   1.509   3.238  1.3816  0.3948 -0.4743
 9169SOL    HW239144   2.525   1.492   3.090 -0.9805  1.2861 -1.2436
 9170SOL     OW39145   3.025   2.726   4.423 -0.2478 -0.4143  0.6150
 9170SOL    HW139146   3.075   2.718   4.504  0.2955  2.4789  0.5438
 9170SOL    HW239147   3.074   2.669   4.364 -0.9856 -0.5152  0.0833
 9171SOL     OW39148   0.499   4.645   3.999 -0.4626 -0.8387  0.1289
 9171SOL    HW139149   0.453   4.728   3.999  0.8118 -0.1344  0.9837
 9171SOL    HW239150   0.561   4.657   3.927  0.3974 -1.6253  0.7384
 9172SOL     OW39151   0.446   3.799  10.784  0.2444 -0.2764  0.6732
 9172SOL    HW139152   0.515   3.842  10.733  0.0101 -0.4121  0.2444
 9172SOL    HW239153   0.391   3.873  10.808  0.0018 -0.4946  0.7815
 9173SOL     OW39154   3.184   1.935   1.711  0.2470  0.0883  0.3493
 9173SOL    HW139155   3.095   1.900   1.721 -1.0789  3.6856  1.0410
 9173SOL    HW239156   3.193   1.990   1.789  0.6135  0.3988  0.0885
 9174SOL     OW39157   3.556   2.527   3.311  0.0317 -0.6464  0.0823
 9174SOL    HW139158   3.474   2.498   3.272  0.3139 -0.0939 -0.9215
 9174SOL    HW239159   3.591   2.569   3.233  0.6964  1.3659  1.4549
 9175SOL     OW39160   2.970   0.075   8.755  0.2404  0.8874  0.2296
 9175SOL    HW139161   2.932   0.128   8.824 -3.0552 -1.0468 -0.0786
 9175SOL    HW239162   3.056   0.117   8.759  0.8124 -0.3473  0.9589
 9176SOL     OW39163   3.344   0.668  14.723  0.1897  0.0560  0.5280
 9176SOL    HW139164   3.339   0.591  14.780 -0.3021  1.2196  2.0691
 9176SOL    HW239165   3.270   0.670  14.662  0.1368  1.1084  0.6244
 9177SOL     OW39166   3.075   1.470   5.468 -0.2416  0.1696 -0.5466
 9177SOL    HW139167   2.996   1.421   5.492  0.4168 -1.1010 -0.9467
 9177SOL    HW239168   3.140   1.400   5.471  0.4959  0.9211  0.5690
 9178SOL     OW39169   3.392   0.656   3.956  0.4589 -0.3393  0.3735
 9178SOL    HW139170   3.400   0.565   3.929 -1.3292 -0.5280  0.4626
 9178SOL    HW239171   3.381   0.646   4.051 -1.7571 -0.2400  0.1254
 9179SOL     OW39172   0.674   3.123   5.200  0.0630 -0.6038 -0.3476
 9179SOL    HW139173   0.597   3.155   5.247  1.2937  1.1817  0.4700
 9179SOL    HW239174   0.723   3.059   5.251 -2.0781 -2.0026 -0.0585
 9180SOL     OW39175   0.529   0.304   4.881 -0.4605  0.1740 -0.4569
 9180SOL    HW139176   0.435   0.290   4.895 -0.5560 -0.0268 -1.2985
 9180SOL    HW239177   0.543   0.365   4.953  1.5748  1.4048 -1.9137
 9181SOL     OW39178   1.335   2.364   5.826 -0.4011 -0.0451  0.3802
 9181SOL    HW139179   1.417   2.371   5.777 -1.1017  1.3175 -0.6107
 9181SOL    HW239180   1.355   2.280   5.867 -0.0841  1.3233  2.9915
 9182SOL     OW39181   1.757   4.540   0.649 -0.3144 -0.0641  0.0674
 9182SOL    HW139182   1.800   4.560   0.565 -1.1514  1.7905  0.0734
 9182SOL    HW239183   1.752   4.448   0.623  1.2550 -0.3482  0.7421
 9183SOL     OW39184   3.009   1.815  15.911  0.0365 -0.3531 -0.2903
 9183SOL    HW139185   2.914   1.801  15.905  0.1764 -0.5274 -2.0445
 9183SOL    HW239186   3.050   1.729  15.900 -1.8040 -0.9062 -2.8633
 9184SOL     OW39187   2.232   4.220   9.211  0.1849 -0.2344 -0.1342
 9184SOL    HW139188   2.264   4.164   9.141  0.7779 -0.0850  0.0109
 9184SOL    HW239189   2.308   4.224   9.270  0.6023 -1.0387 -0.6177
 9185SOL     OW39190   4.304   4.724  11.829  0.3999 -0.2777 -0.4897
 9185SOL    HW139191   4.293   4.689  11.918 -0.3348  1.1890 -0.0064
 9185SOL    HW239192   4.398   4.713  11.815  0.8529 -0.0825  2.3424
 9186SOL     OW39193   0.178   0.500   1.490 -0.0463 -0.3913 -0.0658
 9186SOL    HW139194   0.134   0.416   1.477  2.9640 -2.0218  0.2408
 9186SOL    HW239195   0.270   0.477   1.477  0.1913  1.0851 -0.9324
 9187SOL     OW39196   0.481   2.686   9.876 -0.1815  0.6791  0.2018
 9187SOL    HW139197   0.530   2.605   9.872  3.4287  2.8203  0.9288
 9187SOL    HW239198   0.462   2.704   9.784  0.6437 -0.6975 -0.2252
 9188SOL     OW39199   3.064   2.063   4.430  0.1306 -0.6340 -0.1896
 9188SOL    HW139200   3.143   2.116   4.437 -0.5059  0.4145 -0.9180
 9188SOL    HW239201   3.116   1.991   4.393  1.3885 -0.1738  0.7074
 9189SOL     OW39202   4.515   4.109   5.338 -0.1137 -0.0935 -0.0528
 9189SOL    HW139203   4.585   4.170   5.360 -0.0402 -0.2603  0.1759
 9189SOL    HW239204   4.485   4.081   5.425 -0.1006 -2.4706 -0.8206
 9190SOL     OW39205   4.609   0.414   6.849 -0.1056  0.3251 -0.0201
 9190SOL    HW139206   4.666   0.456   6.785 -0.0221  1.4129  0.7736
 9190SOL    HW239207   4.660   0.426   6.929 -0.3669 -0.0315  0.1983
 9191SOL     OW39208   3.344   1.137   1.550  0.6799  0.5921 -0.6882
 9191SOL    HW139209   3.371   1.084   1.625 -1.8417 -1.5710 -1.3184
 9191SOL    HW239210   3.403   1.212   1.564  0.6058  0.6877 -0.8902
 9192SOL     OW39211   3.138   3.140   1.708 -0.1769  0.1445  0.6093
 9192SOL    HW139212   3.209   3.185   1.753  0.9393 -0.1616 -0.8635
 9192SOL    HW239213   3.183   3.087   1.642  0.3370 -0.9977  1.8712
 9193SOL     OW39214   3.050   4.454   3.366 -0.3241  0.5698  0.0529
 9193SOL    HW139215   3.051   4.388   3.297  0.6556 -0.1491  0.7398
 9193SOL    HW239216   3.145   4.456   3.380 -0.3224  0.6450  0.0288
 9194SOL     OW39217   2.827   2.950  14.189 -0.0948  0.0950  0.1969
 9194SOL    HW139218   2.819   3.044  14.172 -0.9339  0.0164  0.1811
 9194SOL    HW239219   2.804   2.928  14.099 -0.1357 -0.1102  0.2595
 9195SOL     OW39220   3.423   0.487  13.136 -0.0992  0.3576 -0.3029
 9195SOL    HW139221   3.375   0.497  13.218 -0.2727  0.8520 -0.4651
 9195SOL    HW239222   3.366   0.533  13.074 -0.8789 -0.7545 -0.4160
 9196SOL     OW39223   2.125   2.950   7.234 -0.0716 -0.2156  0.1529
 9196SOL    HW139224   2.120   2.997   7.318  2.1094 -1.0327  0.7422
 9196SOL    HW239225   2.214   2.982   7.215  0.2411 -1.2710 -0.1366
 9197SOL     OW39226   4.590   3.706  11.475  0.2864  0.9302 -0.1145
 9197SOL    HW139227   4.515   3.729  11.530 -0.6933  1.2553 -1.6069
 9197SOL    HW239228   4.613   3.794  11.444  1.8124  1.2451  1.8893
 9198SOL     OW39229   2.154   1.161   1.069 -0.2227  0.1720  0.4647
 9198SOL    HW139230   2.114   1.231   1.017  1.2562  0.5147 -0.2032
 9198SOL    HW239231   2.089   1.159   1.139  0.0339 -1.1912  0.6563
 9199SOL     OW39232   3.021   2.715   7.606  0.6085  0.8656  0.2659
 9199SOL    HW139233   2.964   2.754   7.539  0.1611  0.2156  0.2612
 9199SOL    HW239234   2.957   2.661   7.652  0.6643  0.7586  0.2184
 9200SOL     OW39235   0.267   3.275   7.904 -0.4423 -0.5253 -0.0090
 9200SOL    HW139236   0.221   3.335   7.845  0.7945  0.1618 -0.2678
 9200SOL    HW239237   0.242   3.310   7.989  0.9633 -0.3593  0.3344
 9201SOL     OW39238   2.243   1.186  12.292 -0.0204 -0.0005 -0.1210
 9201SOL    HW139239   2.227   1.127  12.366  1.6443 -0.8904 -0.4660
 9201SOL    HW239240   2.185   1.149  12.225  0.3834  2.5648 -1.9006
 9202SOL     OW39241   1.619   0.587  11.533  0.2124 -0.5059  0.0623
 9202SOL    HW139242   1.707   0.617  11.556 -0.3747  0.2856  1.3093
 9202SOL    HW239243   1.566   0.581  11.613 -0.3484 -0.0762 -0.2834
 9203SOL     OW39244   4.056   2.455   0.174  0.4211  0.0787  0.5510
 9203SOL    HW139245   4.062   2.450   0.078 -0.9261  1.9343  0.3663
 9203SOL    HW239246   4.008   2.536   0.192  0.6341 -0.1267  2.0640
 9204SOL     OW39247   3.063   1.232   3.775 -0.4397 -0.1703 -0.4338
 9204SOL    HW139248   2.983   1.278   3.749 -0.1877 -0.2019 -1.2593
 9204SOL    HW239249   3.122   1.252   3.702  0.9049  1.0706  0.9950
 9205SOL     OW39250   0.789   0.682   5.827  0.8337 -0.2325  0.0832
 9205SOL    HW139251   0.884   0.684   5.838  1.1701 -3.7361 -2.4346
 9205SOL    HW239252   0.774   0.771   5.793  0.4953 -0.3184  0.0032
 9206SOL     OW39253   3.526   1.240   5.278  0.0407  0.8859  0.7595
 9206SOL    HW139254   3.507   1.322   5.231 -0.4025  0.7568  0.7189
 9206SOL    HW239255   3.616   1.254   5.248 -0.7105 -0.5633 -2.1358
 9207SOL     OW39256   3.291   1.483  17.187  0.2475  0.0992  0.6629
 9207SOL    HW139257   3.381   1.503  17.212 -0.8289  3.1045  2.1781
 9207SOL    HW239258   3.272   1.549  17.120 -1.8932  0.9405  2.0845
 9208SOL     OW39259   4.721   1.369   7.129 -0.1338  1.1046  0.5788
 9208SOL    HW139260   4.712   1.370   7.224  1.0852  2.1298  0.6789
 9208SOL    HW239261   4.702   1.459   7.103 -0.6597  0.9684  0.4957
 9209SOL     OW39262   2.551   1.511   9.051 -0.4547 -0.6173 -0.2999
 9209SOL    HW139263   2.518   1.563   9.124  1.7790 -2.6623  2.1410
 9209SOL    HW239264   2.477   1.510   8.989 -0.4773 -0.9186 -0.2651
 9210SOL     OW39265   2.338   2.402   7.618 -0.6729  0.5421  0.3581
 9210SOL    HW139266   2.278   2.469   7.585  1.4028  1.6577 -1.1687
 9210SOL    HW239267   2.343   2.429   7.710 -0.9960  0.7336  0.3182
 9211SOL     OW39268   3.870   3.130  14.539  0.4551 -0.4129  0.0847
 9211SOL    HW139269   3.874   3.041  14.505  0.3211  0.0831 -1.2067
 9211SOL    HW239270   3.960   3.145  14.567 -0.5407  0.6134  2.8137
 9212SOL     OW39271   0.152   2.598   2.655  0.9412  0.8514 -0.2336
 9212SOL    HW139272   0.091   2.671   2.666  0.1242  0.3791 -1.6220
 9212SOL    HW239273   0.098   2.535   2.702  2.6600 -0.5023 -0.0881
 9213SOL     OW39274   0.904   4.240   2.683 -0.4847  0.3275  0.0654
 9213SOL    HW139275   0.831   4.296   2.708  1.2805  3.0453 -0.8365
 9213SOL    HW239276   0.918   4.282   2.598  1.2833  0.5704  0.4635
 9214SOL     OW39277   4.351   1.053  17.093  0.5617  0.0982 -0.1347
 9214SOL    HW139278   4.295   1.125  17.063 -0.3418  0.8423  3.2810
 9214SOL    HW239279   4.434   1.067  17.048  0.4702  0.2460 -0.2568
 9215SOL     OW39280   1.139   2.388   8.008  0.2113 -0.2825 -0.1628
 9215SOL    HW139281   1.231   2.369   7.993  0.1409 -1.8590  1.4110
 9215SOL    HW239282   1.152   2.448   8.081  2.4432 -1.8981  0.7500
 9216SOL     OW39283   2.074   1.171   2.881 -0.0384 -0.4581 -0.6986
 9216SOL    HW139284   2.046   1.084   2.851  1.8790 -1.5856  0.7746
 9216SOL    HW239285   2.164   1.149   2.901  0.0980 -0.0973 -0.9125
 9217SOL     OW39286   3.838   3.757  14.518 -0.4478 -0.0074 -0.1314
 9217SOL    HW139287   3.911   3.724  14.466 -0.5898 -0.9485  0.2709
 9217SOL    HW239288   3.782   3.800  14.453 -0.4364  0.2773  0.0455
 9218SOL     OW39289   0.723   3.964   6.174  0.1030 -0.1736  0.0205
 9218SOL    HW139290   0.723   3.936   6.083  1.8947  1.6256 -0.5219
 9218SOL    HW239291   0.635   4.000   6.189  0.5646  0.1324  2.0829
 9219SOL     OW39292   0.555   0.831   7.135  0.1232  0.3413  0.3134
 9219SOL    HW139293   0.650   0.839   7.139  0.2516 -0.3602 -1.2842
 9219SOL    HW239294   0.534   0.888   7.209  1.5764 -0.1461  1.1142
 9220SOL     OW39295   0.890   2.692   0.693 -0.1187 -0.1141 -0.0635
 9220SOL    HW139296   0.895   2.788   0.687  2.5044 -0.1616  1.3735
 9220SOL    HW239297   0.943   2.658   0.621  2.0274 -0.0123  1.4484
 9221SOL     OW39298   1.248   3.765  16.677 -0.0705 -0.2383  0.5709
 9221SOL    HW139299   1.285   3.690  16.630 -0.2122  1.0518 -1.5802
 9221SOL    HW239300   1.173   3.787  16.622  1.4215  1.7278 -0.6689
 9222SOL     OW39301   2.381   3.828  12.587  0.9827 -0.4267 -0.1914
 9222SOL    HW139302   2.400   3.773  12.511  1.7306 -1.3602  0.6647
 9222SOL    HW239303   2.450   3.804  12.650 -0.7520 -1.0740  1.4750
 9223SOL     OW39304   3.931   2.179   7.653  0.5057 -0.2569 -0.6526
 9223SOL    HW139305   3.842   2.144   7.649 -0.3385  1.6173  1.6751
 9223SOL    HW239306   3.981   2.118   7.599 -0.7816 -1.4472 -0.4985
 9224SOL     OW39307   3.858   2.183  15.368  0.2244  0.0354 -0.0551
 9224SOL    HW139308   3.912   2.151  15.440  1.9736  0.0880 -1.3619
 9224SOL    HW239309   3.833   2.103  15.320  1.2907 -1.3179  1.6470
 9225SOL     OW39310   2.217   2.114   3.346 -0.2896  0.1595 -0.0574
 9225SOL    HW139311   2.205   2.118   3.251 -2.2611 -4.0387  0.0246
 9225SOL    HW239312   2.218   2.204   3.379  0.4419 -0.0213  0.3934
 9226SOL     OW39313   2.120   4.386   8.861  0.4032 -0.0207  0.2263
 9226SOL    HW139314   2.188   4.323   8.836 -1.2841 -1.2481 -1.2528
 9226SOL    HW239315   2.158   4.446   8.925 -0.2009 -0.9015  1.4267
 9227SOL     OW39316   2.042   1.602  12.008  0.0890  0.0706 -0.3344
 9227SOL    HW139317   1.963   1.548  12.016  0.6638 -0.4730  1.9605
 9227SOL    HW239318   2.099   1.554  11.948  0.5688  0.1146  0.0795
 9228SOL     OW39319   0.796   0.934   7.169  0.6152  0.5196 -1.0859
 9228SOL    HW139320   0.808   1.027   7.188 -1.1590  0.4320  0.4416
 9228SOL    HW239321   0.862   0.887   7.220 -1.0772 -1.3492 -0.6233
 9229SOL     OW39322   2.174   3.076   7.462  0.5514 -0.3962  0.7562
 9229SOL    HW139323   2.144   3.096   7.550 -0.2079  0.3545  0.3298
 9229SOL    HW239324   2.218   3.159   7.442  0.1659 -0.0880  1.2036
 9230SOL     OW39325   1.829   3.366   1.612  0.9616  0.0066 -0.5794
 9230SOL    HW139326   1.895   3.357   1.544  0.3947  1.1013 -1.2800
 9230SOL    HW239327   1.778   3.444   1.591 -1.0331 -1.3152 -0.6470
 9231SOL     OW39328   2.953   0.793   7.017 -0.6001 -0.1050 -0.3594
 9231SOL    HW139329   2.924   0.884   7.031  2.2252  0.5586  1.2080
 9231SOL    HW239330   2.918   0.782   6.928 -0.4918 -0.4751 -0.3545
 9232SOL     OW39331   3.143   2.974  17.512  0.1553 -0.0567 -0.0807
 9232SOL    HW139332   3.065   3.002  17.463  1.6357  0.2108 -2.2547
 9232SOL    HW239333   3.206   3.037  17.479 -1.3458  0.5102 -1.8839
 9233SOL     OW39334   2.877   0.017   1.694 -0.1441  0.5760 -0.8213
 9233SOL    HW139335   2.970   4.727   1.700 -0.0794  0.6900 -1.4902
 9233SOL    HW239336   2.863   0.072   1.772  0.0129 -1.0850  0.3849
 9234SOL     OW39337   3.457   0.826  16.163 -0.5076 -0.1376 -0.3114
 9234SOL    HW139338   3.393   0.776  16.213  0.6364 -0.4220  0.8680
 9234SOL    HW239339   3.488   0.889  16.229 -0.4872 -1.6764  1.1425
 9235SOL     OW39340   4.573   1.878   6.667  0.0781 -0.9904  0.3636
 9235SOL    HW139341   4.586   1.962   6.711 -0.7225 -1.6850  1.9199
 9235SOL    HW239342   4.538   1.833   6.744  0.0616  0.9241  1.4784
 9236SOL     OW39343   0.004   3.141   5.683 -0.1298 -0.2564 -0.5909
 9236SOL    HW139344   0.095   3.115   5.671 -0.8107 -2.2604 -1.5034
 9236SOL    HW239345   4.689   3.113   5.602 -0.1781 -2.2206  0.1157
 9237SOL     OW39346   2.206   0.552   4.514  0.0436 -0.0613  0.5800
 9237SOL    HW139347   2.203   0.514   4.602  1.0130 -2.0112 -0.2186
 9237SOL    HW239348   2.138   0.619   4.526  2.0071  2.5695 -2.8931
 9238SOL     OW39349   4.297   0.793   7.061  0.2236  0.1236  0.3736
 9238SOL    HW139350   4.352   0.789   7.139  0.8320  0.0680 -0.0531
 9238SOL    HW239351   4.367   0.797   6.995 -0.3122 -0.8149 -0.2396
 9239SOL     OW39352   0.712   0.074  15.397  0.1759  0.4947  0.0004
 9239SOL    HW139353   0.791   0.129  15.398  0.1891  0.4868 -0.6399
 9239SOL    HW239354   0.669   0.079  15.312 -0.9509 -2.4139  0.4031
 9240SOL     OW39355   2.832   2.821   6.901 -0.1726  0.1389 -0.3750
 9240SOL    HW139356   2.894   2.818   6.974  0.3700  1.0904 -0.8043
 9240SOL    HW239357   2.845   2.906   6.858  0.3939  1.5670  2.6089
 9241SOL     OW39358   0.337   0.161   4.273  0.0489 -0.0430 -0.4799
 9241SOL    HW139359   0.385   0.148   4.191  0.1693  0.4956 -0.4906
 9241SOL    HW239360   0.399   0.121   4.335 -0.2933 -1.6526 -1.1692
 9242SOL     OW39361   1.137   2.443  12.953 -0.0824  0.0025 -0.4760
 9242SOL    HW139362   1.094   2.487  12.880 -0.8562 -1.2000 -0.7479
 9242SOL    HW239363   1.067   2.415  13.012  1.5969 -2.5582  0.3134
 9243SOL     OW39364   2.775   2.211   4.157 -0.3843  0.6735  0.4276
 9243SOL    HW139365   2.868   2.231   4.165  0.1309 -1.1518 -0.9895
 9243SOL    HW239366   2.774   2.130   4.105  0.5580  0.8454  0.1496
 9244SOL     OW39367   2.238   0.498   2.101 -0.0656 -0.0984  0.1032
 9244SOL    HW139368   2.235   0.593   2.096 -2.3723 -0.1110  1.4894
 9244SOL    HW239369   2.318   0.489   2.048 -0.9866 -0.8833 -1.1577
 9245SOL     OW39370   0.363   3.793   3.803 -0.4028 -0.2421 -0.0957
 9245SOL    HW139371   0.449   3.787   3.845 -0.1140 -0.9370 -0.7844
 9245SOL    HW239372   0.375   3.738   3.726 -0.2873 -0.1551 -0.1409
 9246SOL     OW39373   0.034   4.654   4.830 -0.0244  0.7374  0.3804
 9246SOL    HW139374   0.079   4.699   4.902  2.8843 -1.2640 -0.1549
 9246SOL    HW239375   0.070   4.691   4.749 -1.7920  1.8512  0.1156
 9247SOL     OW39376   3.222   0.950   3.198  0.3566 -0.0274 -0.0287
 9247SOL    HW139377   3.183   0.870   3.236  2.1553 -1.8858 -2.0947
 9247SOL    HW239378   3.307   0.960   3.241  0.2080 -2.3771  0.8365
 9248SOL     OW39379   2.712   3.492  10.472  0.4000  0.1573 -1.0289
 9248SOL    HW139380   2.696   3.444  10.553 -0.0282  0.3097 -1.0200
 9248SOL    HW239381   2.632   3.480  10.420  0.3803  0.7500 -1.1322
 9249SOL     OW39382   1.231   1.638   8.493 -0.8028  0.0727  0.3618
 9249SOL    HW139383   1.241   1.594   8.577  1.2678  1.1318  0.6691
 9249SOL    HW239384   1.206   1.565   8.437  0.8885  0.0645 -0.3777
 9250SOL     OW39385   4.137   0.744  15.144  0.1087 -0.2876  0.1283
 9250SOL    HW139386   4.047   0.711  15.152  0.0168  0.2144  1.1932
 9250SOL    HW239387   4.114   0.836  15.132 -0.8691 -0.2185  2.4341
 9251SOL     OW39388   4.622   1.253   6.806  0.3765 -0.3455  0.2736
 9251SOL    HW139389   4.631   1.219   6.717  1.6400 -0.9563  0.6414
 9251SOL    HW239390   4.592   1.341   6.781 -0.8410 -0.1105  2.4820
 9252SOL     OW39391   3.773   3.454   5.607  0.1998 -0.0929  0.6396
 9252SOL    HW139392   3.785   3.412   5.692 -0.0777 -0.2768  0.5880
 9252SOL    HW239393   3.737   3.536   5.640  0.7956  1.0396 -1.4728
 9253SOL     OW39394   0.943   1.776  11.368 -0.5824 -0.1576  0.5521
 9253SOL    HW139395   0.916   1.773  11.459 -0.1955  0.3558  0.6837
 9253SOL    HW239396   0.881   1.847  11.347  0.6622  0.6687 -0.3468
 9254SOL     OW39397   1.854   2.863   7.190 -0.0853  0.1216 -0.1293
 9254SOL    HW139398   1.866   2.786   7.135  1.9366  0.4215 -0.0877
 9254SOL    HW239399   1.937   2.906   7.171 -0.6892  1.1497 -0.4613
 9255SOL     OW39400   2.954   4.722  13.911  0.0435  0.2223 -0.1779
 9255SOL    HW139401   2.904   0.058  13.960 -0.2884  0.1773 -0.4614
 9255SOL    HW239402   2.927   4.651  13.969  2.1121 -0.0016  0.5390
 9256SOL     OW39403   1.690   3.994   7.772 -0.4393  0.0530  0.5942
 9256SOL    HW139404   1.695   3.931   7.844 -2.1309 -1.9465 -1.0484
 9256SOL    HW239405   1.599   4.019   7.784  0.4067  3.7343 -0.7166
 9257SOL     OW39406   4.265   2.187   4.449 -0.1965 -0.0599  0.4096
 9257SOL    HW139407   4.308   2.176   4.534 -0.7391 -1.2650  0.5358
 9257SOL    HW239408   4.342   2.160   4.399 -0.2110  3.5118 -1.5252
 9258SOL     OW39409   3.121   2.531   1.501 -0.0242 -0.7802 -0.1068
 9258SOL    HW139410   3.155   2.579   1.577  0.5141 -2.5091  0.7349
 9258SOL    HW239411   3.068   2.604   1.467 -0.2408 -0.8254  0.1367
 9259SOL     OW39412   0.644   0.777   5.044  0.5839  0.7599 -0.3585
 9259SOL    HW139413   0.712   0.782   5.111 -0.5672  0.3115  0.8317
 9259SOL    HW239414   0.698   0.753   4.969 -0.3331  0.1236 -0.8167
 9260SOL     OW39415   4.049   0.902   5.881 -0.6738  0.5137 -0.6116
 9260SOL    HW139416   4.122   0.913   5.942  1.1764 -1.2474 -2.5078
 9260SOL    HW239417   4.013   0.990   5.877  3.2242  2.2112  1.2299
 9261SOL     OW39418   1.562   4.220   3.771 -0.1791  0.0058 -0.7836
 9261SOL    HW139419   1.524   4.215   3.684  3.7275  0.6349 -2.5287
 9261SOL    HW239420   1.484   4.187   3.816 -0.8328  2.6246 -0.0148
 9262SOL     OW39421   2.366   3.240   2.648 -0.1854 -1.0187  0.6457
 9262SOL    HW139422   2.357   3.206   2.559 -0.5374 -1.1896  0.7472
 9262SOL    HW239423   2.408   3.324   2.628  1.1633 -1.2668  2.4493
 9263SOL     OW39424   4.722   4.515   7.198  0.5175 -0.3118  0.1851
 9263SOL    HW139425   0.006   4.515   7.293  0.4141 -0.3231  0.1986
 9263SOL    HW239426   4.698   4.607   7.183  3.5827  0.4652 -0.0496
 9264SOL     OW39427   4.432   1.616  15.800 -0.0454  0.0708  0.2068
 9264SOL    HW139428   4.361   1.576  15.850 -0.5682 -0.2625 -0.7929
 9264SOL    HW239429   4.440   1.552  15.729 -0.4459  2.1115 -1.6648
 9265SOL     OW39430   1.128   3.950   0.740 -0.0922  0.2240 -0.1985
 9265SOL    HW139431   1.065   3.966   0.811 -0.5861 -0.3187 -0.5126
 9265SOL    HW239432   1.205   3.936   0.795 -1.7680 -0.4516  2.0108
 9266SOL     OW39433   2.275   1.082  14.822  0.8872  0.3192 -0.4106
 9266SOL    HW139434   2.273   1.014  14.755  0.6867 -2.5650  2.5464
 9266SOL    HW239435   2.209   1.146  14.795  1.1466 -0.1658 -2.1865
 9267SOL     OW39436   2.669   1.258   8.978  0.2054 -0.4498  0.2735
 9267SOL    HW139437   2.663   1.352   8.996  0.9058 -0.2824 -0.4099
 9267SOL    HW239438   2.586   1.238   9.022  0.4403 -1.0996  0.4188
 9268SOL     OW39439   1.202   1.849  12.462  0.2867 -0.5001 -0.3011
 9268SOL    HW139440   1.222   1.763  12.499 -2.5763 -0.2154  1.8676
 9268SOL    HW239441   1.283   1.877  12.418  1.0161  1.0770  2.0900
 9269SOL     OW39442   3.620   2.475   8.113 -0.0308 -0.0417  0.0141
 9269SOL    HW139443   3.551   2.529   8.153  0.2158 -0.2752  0.7563
 9269SOL    HW239444   3.690   2.490   8.175 -1.1634 -0.2762  1.3553
 9270SOL     OW39445   4.482   0.901   5.358  0.6676 -0.2535  0.4300
 9270SOL    HW139446   4.435   0.868   5.434  1.9527  1.6939  2.0819
 9270SOL    HW239447   4.464   0.994   5.376  0.5173 -0.2976  0.4989
 9271SOL     OW39448   1.681   1.664  12.591 -0.0844  0.2520  0.3031
 9271SOL    HW139449   1.726   1.581  12.603  0.5847  0.2448 -2.1786
 9271SOL    HW239450   1.712   1.708  12.669  1.0741 -0.6002  0.3177
 9272SOL     OW39451   1.031   4.003   6.880  0.1040  0.1606 -0.0908
 9272SOL    HW139452   1.057   3.989   6.789  0.9457  3.2273 -0.3180
 9272SOL    HW239453   1.088   4.076   6.904 -0.2051  0.0929  0.8365
 9273SOL     OW39454   3.464   2.854   1.293  0.1529 -0.3393 -0.1881
 9273SOL    HW139455   3.427   2.941   1.275  0.4898  0.1792  1.6243
 9273SOL    HW239456   3.423   2.817   1.215  0.4180  0.3972 -0.6779
 9274SOL     OW39457   2.531   1.082   3.971 -0.0118 -0.6954  0.3312
 9274SOL    HW139458   2.503   1.116   3.886 -4.5907 -0.4528  1.9548
 9274SOL    HW239459   2.575   1.155   4.015  0.1848  0.1530 -1.2570
 9275SOL     OW39460   2.563   3.149   7.344  0.5187 -0.0222  0.3969
 9275SOL    HW139461   2.585   3.237   7.313 -1.5147 -0.1120 -1.3431
 9275SOL    HW239462   2.575   3.162   7.439 -1.7967 -1.3678  0.8880
 9276SOL     OW39463   1.854   1.282   2.059 -0.7582  0.1633  0.3301
 9276SOL    HW139464   1.909   1.360   2.048 -0.8967  0.1349 -0.5271
 9276SOL    HW239465   1.843   1.289   2.154 -0.7879 -1.4491  0.4405
 9277SOL     OW39466   1.177   1.990   1.983  0.1849  0.3162 -0.6578
 9277SOL    HW139467   1.151   1.972   2.073  0.1882 -1.1441 -0.9545
 9277SOL    HW239468   1.217   2.075   2.003  1.7330 -0.7537  0.7516
 9278SOL     OW39469   2.995   3.333   1.300  0.8981 -0.6557 -0.5313
 9278SOL    HW139470   3.079   3.308   1.262  1.4224  2.1519 -1.2021
 9278SOL    HW239471   2.977   3.422   1.268 -0.6224 -0.9880 -0.5939
 9279SOL     OW39472   1.135   0.001   3.493  0.1765 -0.3310 -0.0266
 9279SOL    HW139473   1.178   0.027   3.412  0.1861 -0.6604 -0.1275
 9279SOL    HW239474   1.124   4.635   3.483  1.2197 -0.5936  1.3661
 9280SOL     OW39475   0.172   3.972   8.011  0.2288  0.2924  0.3538
 9280SOL    HW139476   0.078   3.990   7.999 -0.0995 -1.6030  0.0937
 9280SOL    HW239477   0.200   3.932   7.929  0.4668 -0.4265  0.7916
 9281SOL     OW39478   3.676   2.931  15.092 -0.4062  0.0776  0.5105
 9281SOL    HW139479   3.677   2.952  14.999  1.7134  0.6097  0.6397
 9281SOL    HW239480   3.692   3.016  15.133  0.7846 -0.4864  1.2169
 9282SOL     OW39481   0.443   1.400   7.727  0.2842 -0.3046 -0.5176
 9282SOL    HW139482   0.389   1.446   7.791 -0.1482 -0.3248 -0.8733
 9282SOL    HW239483   0.464   1.318   7.772 -0.3589 -0.2726 -0.1576
 9283SOL     OW39484   4.172   0.947   2.547  0.1837 -0.6112  0.3113
 9283SOL    HW139485   4.123   0.923   2.468  0.3526 -0.9146  0.2993
 9283SOL    HW239486   4.251   0.895   2.536  0.2271 -0.3430 -0.6450
 9284SOL     OW39487   3.300   0.672   5.272 -0.9608 -0.0401 -0.0779
 9284SOL    HW139488   3.345   0.722   5.340 -0.4773 -1.4283  0.6478
 9284SOL    HW239489   3.248   0.618   5.331  1.5065 -0.5122  1.6678
 9285SOL     OW39490   2.201   3.685  11.731  0.6264  0.5441  0.0791
 9285SOL    HW139491   2.222   3.606  11.780  0.8833  0.0843 -0.7717
 9285SOL    HW239492   2.106   3.685  11.719  0.8155  0.2960 -1.4490
 9286SOL     OW39493   2.887   4.121   5.153 -0.0373  0.4971  0.0227
 9286SOL    HW139494   2.794   4.098   5.152  0.4118 -1.4527  1.2940
 9286SOL    HW239495   2.910   4.102   5.062 -1.7022 -0.9276 -0.0836
 9287SOL     OW39496   0.320   3.639   7.711 -0.1900 -0.6723 -0.3481
 9287SOL    HW139497   0.239   3.690   7.722 -0.4047 -0.9573 -0.6414
 9287SOL    HW239498   0.349   3.631   7.802  0.0191  1.4257 -0.2136
 9288SOL     OW39499   2.057   0.799  10.206  0.0839 -0.2228  0.0185
 9288SOL    HW139500   2.072   0.879  10.257  1.4030 -0.9496  0.7605
 9288SOL    HW239501   2.108   0.800  10.126 -1.8389  0.9282 -1.1890
 9289SOL     OW39502   0.577   1.605   1.985 -0.6687 -0.4602  0.3000
 9289SOL    HW139503   0.485   1.578   1.983 -0.6511 -0.5410  0.5269
 9289SOL    HW239504   0.570   1.673   2.053 -0.1747  1.2374 -1.3700
 9290SOL     OW39505   4.727   3.355   6.863 -0.1025 -0.2858  0.5767
 9290SOL    HW139506   0.080   3.367   6.816 -1.4195  1.8483 -1.2445
 9290SOL    HW239507   4.714   3.432   6.919  0.3912 -0.1252  0.4712
 9291SOL     OW39508   0.331   1.385   5.923  0.2640  0.0388 -0.2307
 9291SOL    HW139509   0.315   1.432   6.005  3.9546  0.7238  0.0640
 9291SOL    HW239510   0.242   1.358   5.899  0.0382 -1.1090  1.9277
 9292SOL     OW39511   0.356   2.753   3.366 -0.4195  0.2106 -0.0025
 9292SOL    HW139512   0.328   2.709   3.286 -0.1257  0.9364 -0.5129
 9292SOL    HW239513   0.367   2.846   3.344 -0.7154  0.3203  0.3200
 9293SOL     OW39514   3.064   2.813   4.704  0.2576 -0.1999  0.0742
 9293SOL    HW139515   3.036   2.782   4.790 -0.3653 -3.0862 -1.1638
 9293SOL    HW239516   3.032   2.903   4.708  0.7439  0.0062 -0.6583
 9294SOL     OW39517   2.433   0.936   4.645 -0.0841  0.3321 -0.3769
 9294SOL    HW139518   2.462   0.852   4.608 -0.3091 -0.0608  0.3223
 9294SOL    HW239519   2.478   0.918   4.728 -0.7041 -2.4465 -0.6328
 9295SOL     OW39520   4.697   4.287   5.390  0.5568 -0.0227  0.1972
 9295SOL    HW139521   0.062   4.278   5.407  0.4181  0.4921  1.2244
 9295SOL    HW239522   4.707   4.316   5.299 -0.3427 -0.1835  0.0487
 9296SOL     OW39523   0.927   2.060  12.324  0.1178 -0.3667 -0.3824
 9296SOL    HW139524   0.849   2.010  12.302 -0.6724  0.5185  0.3683
 9296SOL    HW239525   0.904   2.112  12.401 -2.6480  1.5173 -2.4615
 9297SOL     OW39526   4.523   3.574   9.261  0.2952 -0.2979 -0.5319
 9297SOL    HW139527   4.462   3.632   9.307  1.1240  0.6363 -0.6121
 9297SOL    HW239528   4.596   3.635   9.247  1.6259 -1.7879 -0.0599
 9298SOL     OW39529   0.971   4.499   6.137 -0.2599 -0.4906  0.3279
 9298SOL    HW139530   1.036   4.429   6.130  1.0491  0.4085  3.6251
 9298SOL    HW239531   0.937   4.488   6.226 -1.4818  0.9649  0.0536
 9299SOL     OW39532   1.665   3.437   8.232 -0.1855 -0.2524 -0.6209
 9299SOL    HW139533   1.579   3.466   8.200 -1.0238 -0.1609  1.7517
 9299SOL    HW239534   1.677   3.490   8.311  1.0605  1.1242 -1.7184
 9300SOL     OW39535   3.923   2.003   1.318 -0.5920  0.0200  0.0028
 9300SOL    HW139536   3.866   1.946   1.369 -1.2395 -1.2995 -2.1867
 9300SOL    HW239537   3.864   2.010   1.242 -1.0421 -1.4797  0.2308
 9301SOL     OW39538   1.374   1.497   5.370 -1.0073 -0.0687 -0.2875
 9301SOL    HW139539   1.317   1.457   5.436  1.3399 -0.1750  1.6514
 9301SOL    HW239540   1.324   1.570   5.335  0.5885  0.9785 -0.3715
 9302SOL     OW39541   0.149   1.532   6.426 -0.3663  0.3133 -0.1562
 9302SOL    HW139542   0.139   1.503   6.516  1.8698 -0.3466 -0.1143
 9302SOL    HW239543   0.061   1.558   6.399 -1.4858 -1.8702  1.3878
 9303SOL     OW39544   3.191   2.167   8.960  0.5639 -0.5467 -0.2864
 9303SOL    HW139545   3.159   2.254   8.985  1.4777 -0.3541  0.2070
 9303SOL    HW239546   3.279   2.199   8.939  1.9537 -3.7603  0.6611
 9304SOL     OW39547   4.139   1.118   4.929  0.6922  0.5262 -0.1862
 9304SOL    HW139548   4.188   1.127   4.847  0.8579  3.5463  0.2581
 9304SOL    HW239549   4.048   1.136   4.903 -0.0201  0.1822  2.0707
 9305SOL     OW39550   3.398   0.444   1.660 -0.0061 -0.1877  0.3528
 9305SOL    HW139551   3.488   0.453   1.628 -0.7818 -0.2933 -1.8553
 9305SOL    HW239552   3.339   0.471   1.589  1.0268 -0.5563 -0.6393
 9306SOL     OW39553   3.476   3.871  12.505 -0.3026  0.0899  0.1616
 9306SOL    HW139554   3.389   3.838  12.483 -0.8329  0.3879  1.7776
 9306SOL    HW239555   3.509   3.818  12.577  0.5178  1.4347  0.7861
 9307SOL     OW39556   4.246   1.907   6.885  0.3996 -0.0689 -0.3333
 9307SOL    HW139557   4.152   1.898   6.874  0.3821  0.9254 -1.1413
 9307SOL    HW239558   4.246   1.941   6.974 -0.5708 -1.6676  0.2645
 9308SOL     OW39559   1.713   4.356   2.263  0.0945  0.5925  0.3024
 9308SOL    HW139560   1.755   4.271   2.273  0.6245  0.8344  0.1447
 9308SOL    HW239561   1.767   4.387   2.191 -0.4738 -0.6383 -0.6508
 9309SOL     OW39562   3.701   0.731   5.955 -0.0720 -0.7733  0.1119
 9309SOL    HW139563   3.758   0.690   5.890  1.0137 -0.8085  1.0842
 9309SOL    HW239564   3.762   0.771   6.016 -0.6009  0.6693 -0.3069
 9310SOL     OW39565   3.446   3.973  16.732 -0.0592  0.3866 -0.7234
 9310SOL    HW139566   3.430   4.028  16.809 -2.4587 -1.8563  0.3734
 9310SOL    HW239567   3.530   4.014  16.711 -0.4685  1.2493 -0.6987
 9311SOL     OW39568   0.539   3.283  16.226  0.0808  0.3745  0.1798
 9311SOL    HW139569   0.538   3.196  16.265  0.6175  0.0903 -0.4383
 9311SOL    HW239570   0.532   3.261  16.133 -0.6085  1.4206 -0.0224
 9312SOL     OW39571   2.608   4.038   5.048  0.0663  0.2516 -0.5475
 9312SOL    HW139572   2.624   3.960   4.995 -2.0860  0.3040 -1.2595
 9312SOL    HW239573   2.515   4.037   5.070 -0.1033 -3.1302 -1.3929
 9313SOL     OW39574   0.486   3.920  12.342 -0.6473  0.2230  0.5624
 9313SOL    HW139575   0.434   3.843  12.364 -1.1837  0.7862  1.2630
 9313SOL    HW239576   0.517   3.895  12.255  0.1262  0.6021  0.7361
 9314SOL     OW39577   2.489   4.332  12.225  0.3481 -0.1509 -0.3307
 9314SOL    HW139578   2.460   4.377  12.304  2.4938  0.4341  0.1212
 9314SOL    HW239579   2.582   4.350  12.221  0.3928  0.0286  1.4225
 9315SOL     OW39580   0.447   4.601  14.894 -0.2143  0.0115 -0.2876
 9315SOL    HW139581   0.487   4.518  14.921  0.2642  0.3150 -0.0713
 9315SOL    HW239582   0.427   4.585  14.801  0.3776 -1.6747 -0.1301
 9316SOL     OW39583   0.500   3.817   6.818 -0.1133 -0.1734 -0.0241
 9316SOL    HW139584   0.408   3.819   6.790 -0.1416  0.1394  0.0899
 9316SOL    HW239585   0.532   3.752   6.756  0.0293  0.4704 -0.6251
 9317SOL     OW39586   3.909   0.164  16.080  0.5619  0.1540 -0.1666
 9317SOL    HW139587   3.903   0.197  15.990  0.9015  0.9878  0.1126
 9317SOL    HW239588   3.838   0.213  16.123  1.1132  0.1929  0.6975
 9318SOL     OW39589   4.507   1.470   2.230 -0.3809 -0.1400 -0.1652
 9318SOL    HW139590   4.457   1.435   2.156 -1.0252 -1.4174  0.8797
 9318SOL    HW239591   4.517   1.560   2.197 -0.1984  0.7610  2.3652
 9319SOL     OW39592   1.987   0.867  16.535  0.4348 -0.1962  0.3239
 9319SOL    HW139593   2.012   0.957  16.556 -0.7524  0.1496  0.2326
 9319SOL    HW239594   2.048   0.825  16.596 -0.3577  1.2075  2.0830
 9320SOL     OW39595   1.751   2.884   3.440 -0.5308  0.8357 -0.3843
 9320SOL    HW139596   1.726   2.842   3.358  0.1357  0.2053 -0.2770
 9320SOL    HW239597   1.716   2.972   3.431 -1.5443  0.2801 -1.7895
 9321SOL     OW39598   3.798   4.691   7.370  0.3970 -0.2678 -0.2626
 9321SOL    HW139599   3.772   0.054   7.363  0.7449 -0.1021  0.5826
 9321SOL    HW239600   3.762   4.667   7.284 -2.0528 -1.2015  1.0277
 9322SOL     OW39601   2.549   3.205  13.522 -0.1634  0.7861 -0.2311
 9322SOL    HW139602   2.462   3.166  13.526  1.6999 -3.2806  0.4728
 9322SOL    HW239603   2.612   3.134  13.529 -0.7931  0.3816  1.3280
 9323SOL     OW39604   3.398   1.977   1.073  0.2624  0.2514 -0.4657
 9323SOL    HW139605   3.408   2.069   1.047  0.0824  0.1117 -1.0306
 9323SOL    HW239606   3.369   1.933   0.993 -0.4582 -1.4812  0.7441
 9324SOL     OW39607   2.847   0.606   2.474  0.0450  0.1901  0.7518
 9324SOL    HW139608   2.827   0.644   2.559 -3.6862 -0.0351 -0.0486
 9324SOL    HW239609   2.941   0.592   2.488  0.2133  1.7316  1.1214
 9325SOL     OW39610   1.781   2.621  10.317  0.2345 -0.3047  0.6919
 9325SOL    HW139611   1.778   2.637  10.411  0.4511  1.0774  0.4574
 9325SOL    HW239612   1.822   2.704  10.295  0.9812 -0.8225  0.1060
 9326SOL     OW39613   4.543   0.963   6.860  0.0237 -0.1177  0.0821
 9326SOL    HW139614   4.607   0.958   6.789  1.4037 -0.9994  1.3849
 9326SOL    HW239615   4.571   0.884   6.906  0.3830  1.6916  3.0499
 9327SOL     OW39616   0.901   1.345   5.895  0.1211  0.1991 -0.6455
 9327SOL    HW139617   0.880   1.323   5.985 -1.5536  0.4259 -0.9829
 9327SOL    HW239618   0.816   1.334   5.852 -1.1488 -0.5289  2.0389
 9328SOL     OW39619   4.400   3.373   8.365 -0.4082 -0.4543  0.3168
 9328SOL    HW139620   4.380   3.385   8.458 -0.3037  0.2062  0.2525
 9328SOL    HW239621   4.493   3.350   8.369 -0.6689 -1.5360 -0.0201
 9329SOL     OW39622   3.238   0.256   3.216 -0.3134 -0.0082  0.6973
 9329SOL    HW139623   3.332   0.242   3.207 -0.2914  0.7747 -0.2786
 9329SOL    HW239624   3.241   0.318   3.289 -2.1811 -0.3674  1.0986
 9330SOL     OW39625   1.388   0.556   6.810 -0.5420 -0.1199  0.8507
 9330SOL    HW139626   1.396   0.612   6.733  0.1762 -0.6958  0.5040
 9330SOL    HW239627   1.433   0.474   6.792  0.2108  0.2842  0.9105
 9331SOL     OW39628   2.049   4.662   7.337  0.1310  0.2177 -0.3577
 9331SOL    HW139629   2.096   0.013   7.314  0.5407  0.4767  1.3568
 9331SOL    HW239630   2.093   4.649   7.421 -2.3497 -0.1593  0.8692
 9332SOL     OW39631   4.153   0.386   0.118  0.3366  0.0226  0.6285
 9332SOL    HW139632   4.169   0.386   0.212  0.2042  1.5636  0.6511
 9332SOL    HW239633   4.230   0.341   0.082 -0.2583  1.3684 -2.3072
 9333SOL     OW39634   4.625   3.977   0.651  0.7351  0.1040 -0.1333
 9333SOL    HW139635   4.606   4.042   0.583 -0.5043 -0.0545  0.0535
 9333SOL    HW239636   4.716   3.995   0.675  0.3678  2.4118 -0.4478
 9334SOL     OW39637   4.193   2.799   1.140 -0.0981  0.0587  0.5195
 9334SOL    HW139638   4.228   2.719   1.180  0.0040  0.1738  0.6635
 9334SOL    HW239639   4.100   2.775   1.137 -0.4227  1.3727  0.3483
 9335SOL     OW39640   4.477   2.614   1.537 -0.0164 -0.5807  0.8280
 9335SOL    HW139641   4.385   2.611   1.512  0.3880 -1.0107 -0.5681
 9335SOL    HW239642   4.489   2.707   1.554  1.5126 -0.5893 -0.2213
 9336SOL     OW39643   4.393   1.077   5.002 -0.1176 -0.1806  0.2509
 9336SOL    HW139644   4.380   0.988   5.036  1.3771 -0.8070 -0.8060
 9336SOL    HW239645   4.302   1.098   4.985  0.6472  2.3594 -0.6833
 9337SOL     OW39646   2.274   1.480  12.248 -0.0093 -0.1673 -0.3158
 9337SOL    HW139647   2.182   1.462  12.233 -0.1644 -0.7257  1.2552
 9337SOL    HW239648   2.304   1.391  12.268  0.5513 -0.2890 -1.6940
 9338SOL     OW39649   4.335   4.079   2.725  0.4442  0.5764  0.2125
 9338SOL    HW139650   4.311   4.110   2.812  2.2585  2.8860 -0.0838
 9338SOL    HW239651   4.284   4.144   2.677  1.4515 -0.2551 -2.0299
 9339SOL     OW39652   2.202   0.310   1.477  0.0464  0.3501  0.6815
 9339SOL    HW139653   2.264   0.249   1.438 -2.0241 -0.8450 -0.7972
 9339SOL    HW239654   2.147   0.254   1.531  2.4843 -0.7343  1.9935
 9340SOL     OW39655   1.926   0.612   8.816  0.5067  0.2103  0.0655
 9340SOL    HW139656   2.016   0.634   8.838 -0.4046  2.6256  1.3593
 9340SOL    HW239657   1.893   0.591   8.903 -1.1725  3.6684  0.2643
 9341SOL     OW39658   2.781   1.649   4.228  0.0062 -0.2488 -0.1854
 9341SOL    HW139659   2.839   1.725   4.238  0.8954 -0.9021 -0.3309
 9341SOL    HW239660   2.832   1.578   4.268 -0.5824 -0.6393 -0.1237
 9342SOL     OW39661   3.242   3.121   8.646 -0.9034 -0.4565 -0.4782
 9342SOL    HW139662   3.246   3.211   8.680 -1.9723 -1.1566  1.5104
 9342SOL    HW239663   3.152   3.111   8.616 -0.3010  0.7966 -2.6587
 9343SOL     OW39664   0.239   3.414   2.519  0.8499 -0.0326 -0.0390
 9343SOL    HW139665   0.309   3.445   2.460 -1.0034  2.1713 -1.0946
 9343SOL    HW239666   0.278   3.371   2.595 -2.7975 -0.7065  1.4439
 9344SOL     OW39667   1.668   1.244   5.029  0.2065 -0.1937 -0.2986
 9344SOL    HW139668   1.587   1.249   4.978 -0.0180 -1.7056 -0.0965
 9344SOL    HW239669   1.689   1.154   5.004  1.6875  0.1250 -0.2176
 9345SOL     OW39670   0.694   1.363   9.163 -0.6764  0.6367  0.1968
 9345SOL    HW139671   0.666   1.287   9.215 -0.4030 -0.1488 -0.8049
 9345SOL    HW239672   0.664   1.335   9.077  1.5319 -0.7445 -0.1370
 9346SOL     OW39673   2.386   2.331   2.248  0.0093  0.4558 -0.2187
 9346SOL    HW139674   2.315   2.351   2.188  1.0192  0.1975 -1.5016
 9346SOL    HW239675   2.471   2.368   2.222  1.0780 -4.2581 -3.3685
 9347SOL     OW39676   2.965   3.833   1.715 -0.4585  0.2797 -0.3385
 9347SOL    HW139677   2.959   3.767   1.646  1.7735 -1.9306  1.6141
 9347SOL    HW239678   2.881   3.877   1.704 -0.0439  1.1603  0.0437
 9348SOL     OW39679   2.052   2.436  12.424 -0.0734 -0.0535 -0.3026
 9348SOL    HW139680   1.966   2.477  12.431 -0.4646 -1.0239  0.5938
 9348SOL    HW239681   2.099   2.519  12.433  1.4032 -1.0071  0.7799
 9349SOL     OW39682   0.150   2.094   3.009 -0.5039 -0.1878  0.3521
 9349SOL    HW139683   0.155   2.084   2.914  0.8802 -1.1888  0.5253
 9349SOL    HW239684   0.079   2.157   3.024 -1.0324 -0.6550 -0.1871
 9350SOL     OW39685   0.244   1.075   7.915 -0.2697  0.0426  0.2290
 9350SOL    HW139686   0.269   1.034   7.832 -1.0868  0.3772 -0.1945
 9350SOL    HW239687   0.180   1.139   7.883 -0.3438  1.1748  2.6610
 9351SOL     OW39688   0.283   2.336   3.496  0.2816  0.6554  0.1992
 9351SOL    HW139689   0.350   2.393   3.457  1.5853 -1.8692 -1.2536
 9351SOL    HW239690   0.244   2.304   3.415 -0.1933  0.0550  0.6704
 9352SOL     OW39691   4.318   0.104   6.712 -0.1049  0.6303  0.1950
 9352SOL    HW139692   4.340   0.016   6.682  3.4209  1.7063 -0.3021
 9352SOL    HW239693   4.262   0.138   6.642 -0.8981  0.2360  0.6302
 9353SOL     OW39694   3.044   3.130   4.849 -0.1833 -0.3309  0.1373
 9353SOL    HW139695   3.013   3.173   4.769 -1.1969  0.6426  1.0518
 9353SOL    HW239696   3.139   3.121   4.839 -0.4413 -4.2897  1.5859
 9354SOL     OW39697   1.759   4.274   0.309 -0.3150 -0.0442  0.2326
 9354SOL    HW139698   1.752   4.196   0.365  1.9085  0.4927  1.2593
 9354SOL    HW239699   1.838   4.294   0.359  1.3654 -2.6726 -1.3557
 9355SOL     OW39700   3.314   3.019   3.130  0.0029 -0.6957 -0.0475
 9355SOL    HW139701   3.249   3.031   3.061  1.0350  0.1932 -0.8574
 9355SOL    HW239702   3.355   2.937   3.103  2.1220  0.3190  0.1165
 9356SOL     OW39703   1.793   3.875   2.225 -0.2590 -0.1757 -0.3308
 9356SOL    HW139704   1.865   3.822   2.192 -1.6017 -2.4202  0.2915
 9356SOL    HW239705   1.728   3.885   2.155 -2.0272  1.5807  1.5503
 9357SOL     OW39706   2.748   0.313   5.077 -0.2835 -0.0967  0.5948
 9357SOL    HW139707   2.814   0.367   5.122  2.3842 -1.5845 -1.5541
 9357SOL    HW239708   2.787   0.329   4.992 -1.5003  1.2479  0.2885
 9358SOL     OW39709   1.643   2.188   3.527 -0.0335 -0.1408  0.8768
 9358SOL    HW139710   1.644   2.161   3.619  0.3793 -3.5547 -0.1161
 9358SOL    HW239711   1.730   2.218   3.501  0.7498 -1.5351  1.8822
 9359SOL     OW39712   3.213   3.757  14.873  0.4819 -0.0763 -0.0422
 9359SOL    HW139713   3.243   3.675  14.911  2.2933  0.9871  0.8190
 9359SOL    HW239714   3.121   3.736  14.891 -0.0873  0.3957 -2.4426
 9360SOL     OW39715   0.957   2.340   2.426  0.1067 -0.2635 -0.2459
 9360SOL    HW139716   1.024   2.317   2.362 -0.2278  1.5774 -1.2617
 9360SOL    HW239717   0.957   2.264   2.484  1.9584 -1.6113 -1.9777
 9361SOL     OW39718   2.155   1.775   2.730  0.3286  0.0979  0.2185
 9361SOL    HW139719   2.179   1.706   2.792 -3.3772 -1.1153  0.3089
 9361SOL    HW239720   2.245   1.786   2.701 -0.0045  1.9386 -0.0953
 9362SOL     OW39721   3.913   3.251   4.118  0.1736  0.0975  0.4512
 9362SOL    HW139722   3.864   3.276   4.040 -1.7234 -1.4307  1.1657
 9362SOL    HW239723   3.863   3.177   4.151  0.1129 -0.0350  0.0556
 9363SOL     OW39724   4.198   3.667  14.629 -0.1614 -0.5128  0.0982
 9363SOL    HW139725   4.183   3.756  14.661  0.3790 -1.2482  2.4268
 9363SOL    HW239726   4.281   3.678  14.583 -1.3570  1.8761 -1.4800
 9364SOL     OW39727   1.662   4.107   1.003 -0.0032 -0.3376  0.0472
 9364SOL    HW139728   1.621   4.183   1.045  2.0947  0.8399 -0.0734
 9364SOL    HW239729   1.620   4.044   1.062  0.1177 -0.6639 -0.2115
 9365SOL     OW39730   4.699   2.455   3.505 -0.0677 -0.6672 -0.0938
 9365SOL    HW139731   0.012   2.415   3.429  0.7228  4.2701 -2.2903
 9365SOL    HW239732   0.007   2.541   3.486  1.1727 -0.8697  1.3678
 9366SOL     OW39733   3.538   1.806   7.326 -0.2254 -0.4364  0.4826
 9366SOL    HW139734   3.494   1.724   7.303 -2.0209  1.0855 -1.5449
 9366SOL    HW239735   3.459   1.857   7.340  0.8241  1.2661  0.1802
 9367SOL     OW39736   4.167   1.443   1.960 -0.1709 -0.2961  0.1862
 9367SOL    HW139737   4.133   1.497   2.030 -0.9784  0.1510 -0.5491
 9367SOL    HW239738   4.089   1.424   1.908 -0.1377  0.6860 -0.2319
 9368SOL     OW39739   0.641   0.680   8.454 -0.6230 -0.1250 -0.1433
 9368SOL    HW139740   0.565   0.623   8.462 -1.0349  0.3662 -0.5199
 9368SOL    HW239741   0.697   0.643   8.522  1.3205 -1.2692 -2.3635
 9369SOL     OW39742   4.626   0.651   2.632 -0.0574 -0.7116  0.0022
 9369SOL    HW139743   4.713   0.618   2.654  0.7570  2.1240  1.1174
 9369SOL    HW239744   4.618   0.608   2.547 -0.6037 -1.6071  0.5144
 9370SOL     OW39745   3.598   3.217   5.255 -0.0681 -0.3102  0.0054
 9370SOL    HW139746   3.594   3.143   5.194 -2.1516  1.2061 -1.7206
 9370SOL    HW239747   3.668   3.202   5.318 -0.8494  0.5270  1.0686
 9371SOL     OW39748   1.246   3.254   3.781 -0.6593 -0.4500  0.7120
 9371SOL    HW139749   1.338   3.282   3.783 -1.0976  1.1326 -1.2384
 9371SOL    HW239750   1.257   3.163   3.807  1.6211  0.0540  1.5490
 9372SOL     OW39751   0.341   1.556   4.913  0.2468  0.4985  0.2006
 9372SOL    HW139752   0.270   1.620   4.916  0.4841  0.5964  3.3715
 9372SOL    HW239753   0.337   1.530   4.821 -1.1813  2.9577 -0.4330
 9373SOL     OW39754   0.701   2.089   2.333  0.2102  0.2922  0.1497
 9373SOL    HW139755   0.620   2.137   2.352  0.8831  1.4874  0.0353
 9373SOL    HW239756   0.728   2.073   2.423  0.3694  0.4962  0.1376
 9374SOL     OW39757   2.614   1.898  14.211 -0.1019  0.2101 -0.0596
 9374SOL    HW139758   2.585   1.807  14.210  1.0552 -0.1516 -0.1574
 9374SOL    HW239759   2.530   1.941  14.227  0.2294  0.6765  0.4098
 9375SOL     OW39760   0.566   3.443   6.063 -0.3521 -0.5253 -0.0999
 9375SOL    HW139761   0.563   3.452   6.158  0.0662  0.9111 -0.2222
 9375SOL    HW239762   0.497   3.508   6.048 -0.4569 -0.1359  2.0181
 9376SOL     OW39763   1.399   0.190   8.753 -0.2946  0.3977  0.3081
 9376SOL    HW139764   1.364   0.125   8.813 -0.7899 -1.5000 -2.0476
 9376SOL    HW239765   1.477   0.226   8.796  2.4615 -1.0470 -3.4765
 9377SOL     OW39766   3.842   1.831  17.260  0.1930 -1.0316  0.1751
 9377SOL    HW139767   3.788   1.758  17.228 -1.4557  1.8739 -3.6588
 9377SOL    HW239768   3.845   1.823  17.355 -1.3299 -2.0955  0.1419
 9378SOL     OW39769   4.225   1.913  13.877 -0.2272 -0.0715  0.2713
 9378SOL    HW139770   4.182   1.887  13.795 -2.0955  1.6353  0.6912
 9378SOL    HW239771   4.270   1.992  13.848 -0.9118  1.0553  2.3255
 9379SOL     OW39772   1.552   4.337  16.939  0.5730  0.0006 -0.0581
 9379SOL    HW139773   1.533   4.369  16.851  0.7799  1.9812  0.6309
 9379SOL    HW239774   1.633   4.289  16.921  0.2257  0.0458 -1.7194
 9380SOL     OW39775   4.050   0.249  10.258 -0.4520  0.3607  0.4785
 9380SOL    HW139776   4.080   0.329  10.302  1.7167  0.1941 -0.7051
 9380SOL    HW239777   4.076   0.283  10.173  0.4458 -0.1307  0.5622
 9381SOL     OW39778   2.890   1.299   5.587  0.6466  0.3240 -1.0222
 9381SOL    HW139779   2.964   1.239   5.595  0.2960 -0.1221 -1.0785
 9381SOL    HW239780   2.850   1.287   5.673  1.4021 -1.4856 -0.9235
 9382SOL     OW39781   2.311   0.516  16.507  0.5929 -0.4753  0.0984
 9382SOL    HW139782   2.224   0.479  16.527  0.4799  0.3421  1.1356
 9382SOL    HW239783   2.297   0.602  16.466  0.4197 -0.8627 -0.6637
 9383SOL     OW39784   0.190   0.724  12.127  0.0447 -0.0505  0.5055
 9383SOL    HW139785   0.103   0.704  12.162 -0.9870  0.7534 -1.6162
 9383SOL    HW239786   0.242   0.645  12.142 -1.8465 -1.1232  1.4732
 9384SOL     OW39787   2.932   4.326   3.915  0.0521  0.3072  0.1887
 9384SOL    HW139788   2.889   4.303   3.833  1.0069  0.0571 -0.2416
 9384SOL    HW239789   2.871   4.307   3.987  1.4878 -1.7793  0.8564
 9385SOL     OW39790   4.397   4.030   8.838 -0.2191  0.7655 -0.4902
 9385SOL    HW139791   4.387   3.949   8.889 -2.5150  1.2096 -0.2240
 9385SOL    HW239792   4.473   4.070   8.880 -0.4949  1.4320 -0.6374
 9386SOL     OW39793   2.831   3.219  14.161 -0.2583  0.8132 -0.0428
 9386SOL    HW139794   2.916   3.258  14.138  1.9632 -2.8429  1.9192
 9386SOL    HW239795   2.770   3.274  14.113 -1.2076  2.7291  3.4335
 9387SOL     OW39796   3.079   2.585   2.340 -0.2875 -0.2405 -0.4736
 9387SOL    HW139797   3.029   2.570   2.260 -1.8539 -3.1925  1.0623
 9387SOL    HW239798   3.042   2.667   2.371 -1.2248 -1.7614  2.4128
 9388SOL     OW39799   4.670   3.170   3.696 -0.7350 -0.1940 -0.1737
 9388SOL    HW139800   4.717   3.246   3.663 -2.1014  0.4123 -0.7475
 9388SOL    HW239801   0.015   3.111   3.693  0.3964  1.2259  0.0659
 9389SOL     OW39802   4.118   1.769   9.476 -0.5410 -0.0490  0.9225
 9389SOL    HW139803   4.155   1.687   9.509  1.3233  0.9706  1.3453
 9389SOL    HW239804   4.129   1.750   9.383 -1.2858  0.0561  0.8081
 9390SOL     OW39805   3.842   3.051  17.109  0.7740  0.1104 -0.8506
 9390SOL    HW139806   3.815   3.137  17.141 -0.7626 -0.6079 -0.2137
 9390SOL    HW239807   3.777   3.000  17.158  0.2359  0.1067 -1.5490
 9391SOL     OW39808   4.503   0.643   4.401  0.1554 -0.3766  0.4870
 9391SOL    HW139809   4.507   0.550   4.420  1.5054 -0.5245 -0.5856
 9391SOL    HW239810   4.552   0.647   4.319 -1.0518  1.7250 -0.1413
 9392SOL     OW39811   0.667   0.077   6.652  0.3305  0.1612 -0.2615
 9392SOL    HW139812   0.615   0.048   6.577  0.7698 -0.5205 -0.3037
 9392SOL    HW239813   0.753   0.040   6.632 -0.0199  0.4433 -2.3821
 9393SOL     OW39814   4.643   4.455   0.623 -0.0935  0.3308 -0.0897
 9393SOL    HW139815   4.613   4.545   0.633  1.2752  0.9595 -1.7673
 9393SOL    HW239816   4.593   4.407   0.689 -0.0466 -1.5520 -1.4413
 9394SOL     OW39817   2.054   3.342  13.368 -0.4831  0.1327  0.1529
 9394SOL    HW139818   2.044   3.263  13.420 -4.4026 -0.3602 -1.3374
 9394SOL    HW239819   1.974   3.389  13.389  0.5179  3.0381 -2.5219
 9395SOL     OW39820   0.694   0.241   6.185  0.5284 -0.4926  0.5984
 9395SOL    HW139821   0.663   0.331   6.201  1.3783  0.1172 -1.1788
 9395SOL    HW239822   0.756   0.238   6.113 -0.3321 -1.4357 -0.0978
 9396SOL     OW39823   3.256   0.868  15.838 -0.5829  0.5718  0.7031
 9396SOL    HW139824   3.201   0.866  15.917  0.3482 -0.2457  1.3254
 9396SOL    HW239825   3.201   0.919  15.779 -0.0831 -1.5880 -1.6065
 9397SOL     OW39826   1.739   1.796   3.613 -0.1485 -0.3734 -0.1786
 9397SOL    HW139827   1.834   1.784   3.606  0.2065  2.1499  0.3022
 9397SOL    HW239828   1.724   1.752   3.697 -0.8962  2.1598  1.0284
 9398SOL     OW39829   0.498   4.193  10.112  0.0002 -0.7972 -0.2410
 9398SOL    HW139830   0.440   4.125  10.147  0.1745  0.6602  2.8366
 9398SOL    HW239831   0.479   4.186  10.018 -0.3567  1.3805 -0.3217
 9399SOL     OW39832   2.740   4.612  15.380 -0.4852 -0.6146 -0.6032
 9399SOL    HW139833   2.649   4.589  15.396 -0.6058  0.9340  1.0242
 9399SOL    HW239834   2.746   4.622  15.285 -2.9256  0.9098 -0.6053
 9400SOL     OW39835   2.986   1.468   7.012  0.4502 -0.5795 -0.3614
 9400SOL    HW139836   2.944   1.548   6.978  0.6617 -0.8896 -1.3405
 9400SOL    HW239837   3.069   1.476   6.966  2.1139  0.3593  2.7901
 9401SOL     OW39838   4.251   2.422   8.706 -0.3478 -0.0613 -0.0885
 9401SOL    HW139839   4.204   2.448   8.627  0.2762  0.5895 -0.2548
 9401SOL    HW239840   4.192   2.442   8.778 -0.1432  1.2670 -0.2786
 9402SOL     OW39841   3.964   0.625   8.480  0.5193 -0.2980  0.3028
 9402SOL    HW139842   4.011   0.709   8.477 -0.3996  0.1655 -0.7316
 9402SOL    HW239843   4.007   0.578   8.409  2.0437  0.6148  0.6078
 9403SOL     OW39844   4.095   3.388   0.447  0.0080 -0.4435  0.2064
 9403SOL    HW139845   4.191   3.392   0.453  0.0667 -0.3586 -0.7797
 9403SOL    HW239846   4.088   3.481   0.424  1.0174 -0.0916  1.3178
 9404SOL     OW39847   4.316   0.897   3.402  0.3471 -0.7221  0.5210
 9404SOL    HW139848   4.408   0.904   3.376 -0.8086 -1.0097 -3.6269
 9404SOL    HW239849   4.288   0.817   3.356  0.6420  0.5368 -1.8323
 9405SOL     OW39850   3.764   2.413  16.780 -0.0499  1.1972 -0.3509
 9405SOL    HW139851   3.853   2.407  16.743  0.2240 -0.7425  0.5935
 9405SOL    HW239852   3.710   2.394  16.704  0.7089 -1.0389 -0.3418
 9406SOL     OW39853   4.530   1.153   7.064 -0.2007  0.8341 -0.0282
 9406SOL    HW139854   4.563   1.235   7.027 -1.6165  1.2606 -0.3690
 9406SOL    HW239855   4.555   1.091   6.996  1.3014  0.4248  0.8879
 9407SOL     OW39856   3.150   1.262  13.449  0.7364  0.6213 -0.2545
 9407SOL    HW139857   3.159   1.180  13.401  2.1289  0.2965  0.5758
 9407SOL    HW239858   3.119   1.320  13.379  1.5803  1.3552 -0.0205
 9408SOL     OW39859   1.095   3.688   4.963  0.0507 -0.1547  0.1368
 9408SOL    HW139860   1.078   3.755   5.030  0.0938 -0.4310  0.4282
 9408SOL    HW239861   1.041   3.613   4.990 -0.2508 -0.6394 -1.8649
 9409SOL     OW39862   1.908   1.531  16.301 -0.0430 -0.1046 -0.5920
 9409SOL    HW139863   1.860   1.576  16.232  1.1140 -0.7216 -1.8052
 9409SOL    HW239864   1.990   1.507  16.257  0.6379 -1.8597  1.6154
 9410SOL     OW39865   1.798   3.271   7.574  0.3802  0.5868  0.2940
 9410SOL    HW139866   1.814   3.350   7.625  0.4445  0.8042 -0.0558
 9410SOL    HW239867   1.845   3.292   7.493 -0.4900  0.4597 -0.2421
 9411SOL     OW39868   4.466   1.357   0.418  0.3261  0.1067  0.0472
 9411SOL    HW139869   4.491   1.293   0.352 -1.0374 -0.8324  0.4383
 9411SOL    HW239870   4.492   1.434   0.368 -0.7368 -0.4829 -1.4301
 9412SOL     OW39871   1.485   0.866   8.890 -0.2338  0.3964 -0.2037
 9412SOL    HW139872   1.540   0.886   8.965 -0.9231  0.7765  0.1922
 9412SOL    HW239873   1.470   0.954   8.855 -0.3414  1.4875  2.5854
 9413SOL     OW39874   1.599   0.046   8.051 -0.2177  0.2440  0.4192
 9413SOL    HW139875   1.675   0.006   8.094  1.5168 -0.8266 -3.5749
 9413SOL    HW239876   1.537   4.711   8.087 -1.2548  0.7880 -0.3812
 9414SOL     OW39877   4.673   1.918   8.678  0.6570 -0.0916  0.1950
 9414SOL    HW139878   4.600   1.856   8.673 -0.9933  1.7913  0.9864
 9414SOL    HW239879   4.619   1.990   8.646 -0.0972  0.0590  1.8250
 9415SOL     OW39880   3.175   3.394   9.114  0.1987  0.1724 -0.0638
 9415SOL    HW139881   3.160   3.303   9.142  2.4674  0.3309  1.7558
 9415SOL    HW239882   3.269   3.395   9.097 -0.0211 -0.6129 -1.3162
 9416SOL     OW39883   2.988   1.830  12.254 -0.3768 -0.6367 -0.4510
 9416SOL    HW139884   3.078   1.806  12.277  0.2386  1.8319 -0.2735
 9416SOL    HW239885   2.961   1.868  12.338  4.3386  1.7983 -0.0392
 9417SOL     OW39886   2.499   0.730   7.543  0.3571  0.5773  0.2918
 9417SOL    HW139887   2.492   0.635   7.554 -0.5372  1.1206  4.3050
 9417SOL    HW239888   2.513   0.728   7.449 -0.0434 -1.0044  0.2613
 9418SOL     OW39889   1.625   2.661  10.109 -0.4310  0.2388 -0.1053
 9418SOL    HW139890   1.592   2.727  10.170  0.0617 -0.5889  1.0536
 9418SOL    HW239891   1.677   2.617  10.176 -1.0061  1.0467  0.8642
 9419SOL     OW39892   0.731   2.492   3.460  0.1022  0.0764 -0.4326
 9419SOL    HW139893   0.710   2.579   3.493 -2.6030 -0.7908  0.1040
 9419SOL    HW239894   0.642   2.471   3.432 -0.0994 -0.3550  0.5266
 9420SOL     OW39895   3.992   3.132   5.864  0.1762 -0.1123  0.4080
 9420SOL    HW139896   4.031   3.047   5.885  0.9545 -0.1304 -1.1317
 9420SOL    HW239897   3.996   3.117   5.770 -0.9149 -0.5753  0.4351
 9421SOL     OW39898   0.951   1.312   4.319  0.1051 -0.1463 -0.0699
 9421SOL    HW139899   0.903   1.390   4.345 -0.5498 -0.6829  0.3260
 9421SOL    HW239900   0.878   1.250   4.312  0.1810 -0.5470  2.8309
 9422SOL     OW39901   1.515   4.504   3.017 -0.6103  0.1151  0.7386
 9422SOL    HW139902   1.506   4.524   3.110 -1.4564  3.7194 -0.1385
 9422SOL    HW239903   1.424   4.520   2.990 -0.4212 -0.1321 -0.0423
 9423SOL     OW39904   3.040   0.792   0.162 -0.1708  0.9406 -0.0898
 9423SOL    HW139905   3.019   0.761   0.074  1.2777  1.6547 -0.6800
 9423SOL    HW239906   3.074   0.709   0.196 -0.8634 -0.0034 -1.7034
 9424SOL     OW39907   1.430   2.680   7.960 -0.5721  0.0071 -0.2193
 9424SOL    HW139908   1.340   2.657   7.935 -1.1935 -0.2929  2.3181
 9424SOL    HW239909   1.462   2.692   7.871 -0.2333 -3.1715 -0.5462
 9425SOL     OW39910   2.233   3.471   2.384  0.0588 -0.5854 -0.0318
 9425SOL    HW139911   2.284   3.403   2.341 -0.3705 -0.4971 -0.6674
 9425SOL    HW239912   2.295   3.539   2.359 -1.9830  1.5471  0.6582
 9426SOL     OW39913   1.528   0.213   7.716 -0.3233 -0.1232 -0.4759
 9426SOL    HW139914   1.521   0.270   7.640 -0.6868 -0.2952 -0.5689
 9426SOL    HW239915   1.440   0.176   7.718 -0.3730  0.0403  0.4313
 9427SOL     OW39916   1.998   4.076   2.000 -0.6030  0.1436  0.4762
 9427SOL    HW139917   1.982   4.169   2.014 -0.5427 -0.0417  1.7125
 9427SOL    HW239918   1.936   4.061   1.928  1.9196 -2.5419 -1.1426
 9428SOL     OW39919   2.577   4.718   6.865 -0.3229  0.1759  0.6971
 9428SOL    HW139920   2.523   0.038   6.926 -2.1121  0.5585 -1.1984
 9428SOL    HW239921   2.516   4.683   6.800  0.5754 -0.4341  0.1714
 9429SOL     OW39922   3.892   3.781   4.173 -0.4574  0.2261  0.2697
 9429SOL    HW139923   3.853   3.707   4.127 -1.3284  0.3229  0.8442
 9429SOL    HW239924   3.960   3.727   4.214 -0.5556 -1.3976 -1.7342
 9430SOL     OW39925   2.235   4.675   9.232  0.8795  0.3398 -0.1963
 9430SOL    HW139926   2.156   4.706   9.189  0.4848 -0.9810 -0.4165
 9430SOL    HW239927   2.298   0.016   9.215  3.0417 -1.7120 -0.6039
 9431SOL     OW39928   3.217   1.810   8.641  0.3109  0.2183  0.0244
 9431SOL    HW139929   3.300   1.770   8.667  2.0384  3.6466 -0.2139
 9431SOL    HW239930   3.182   1.841   8.724 -0.8925  1.0717 -0.8186
 9432SOL     OW39931   1.848   4.031  16.209 -0.0545  0.2806  0.2197
 9432SOL    HW139932   1.851   4.077  16.293 -1.3787  0.7464  0.0192
 9432SOL    HW239933   1.850   3.939  16.233  0.1684  0.2470  0.0745
 9433SOL     OW39934   1.857   3.181   6.820 -0.2886 -0.8994  0.0160
 9433SOL    HW139935   1.929   3.145   6.872 -0.0773 -0.7475 -0.1696
 9433SOL    HW239936   1.824   3.097   6.787 -0.5077 -0.4281 -0.9834
 9434SOL     OW39937   4.431   2.885   4.533  0.0722 -0.6957  0.0111
 9434SOL    HW139938   4.358   2.876   4.594 -1.0904 -0.2949 -1.3221
 9434SOL    HW239939   4.401   2.822   4.468 -0.9165 -1.0139  0.7846
 9435SOL     OW39940   1.008   4.253   1.660 -0.5792  0.8435 -0.1554
 9435SOL    HW139941   0.999   4.260   1.565  2.9506 -2.2270 -0.7082
 9435SOL    HW239942   1.068   4.178   1.662 -0.5956  0.8091 -0.9595
 9436SOL     OW39943   4.273   1.011   6.790 -0.3512  0.2275 -0.0781
 9436SOL    HW139944   4.250   1.082   6.851 -0.2548  1.0058 -0.9373
 9436SOL    HW239945   4.368   1.012   6.782 -0.5008 -1.0277 -2.0570
 9437SOL     OW39946   0.645   2.627   6.911 -0.1751 -0.4315 -0.3916
 9437SOL    HW139947   0.637   2.574   6.991  0.5618 -0.7479 -0.5233
 9437SOL    HW239948   0.740   2.626   6.895 -0.2641  1.7340 -1.0342
 9438SOL     OW39949   3.984   2.061   5.896 -0.0481 -0.1481 -0.0589
 9438SOL    HW139950   3.982   2.023   5.808 -0.2639 -0.1275 -0.0634
 9438SOL    HW239951   3.898   2.031   5.923  0.5327 -0.8780  0.9686
 9439SOL     OW39952   4.004   1.968  17.107 -0.6261  0.1368  0.2386
 9439SOL    HW139953   4.069   1.961  17.176 -0.7316 -0.3626  0.2839
 9439SOL    HW239954   3.937   1.918  17.152 -0.1389  0.0265  0.8368
 9440SOL     OW39955   3.993   1.715   0.250 -0.4326 -0.8689 -0.1453
 9440SOL    HW139956   3.970   1.638   0.302 -1.2926  1.2082  2.4908
 9440SOL    HW239957   4.054   1.748   0.316 -0.2245 -0.7763 -0.3795
 9441SOL     OW39958   2.311   1.719   8.657  1.0625 -0.0758  0.1968
 9441SOL    HW139959   2.261   1.675   8.588 -0.0202 -0.1610  1.0319
 9441SOL    HW239960   2.388   1.661   8.657  0.3644 -1.0164  0.5167
 9442SOL     OW39961   1.054   0.707   5.546 -0.2679  0.4871  0.2302
 9442SOL    HW139962   1.012   0.632   5.503  1.0977 -0.0662 -0.1289
 9442SOL    HW239963   0.974   0.755   5.565 -1.5543 -1.1936 -0.9116
 9443SOL     OW39964   2.476   3.475   3.698 -0.6311  0.0270 -0.2744
 9443SOL    HW139965   2.542   3.541   3.720 -1.4160  0.6115  0.3504
 9443SOL    HW239966   2.401   3.505   3.751 -1.3776 -1.3133 -0.5805
 9444SOL     OW39967   4.539   2.079  17.594  0.4845 -0.0082  0.7009
 9444SOL    HW139968   4.496   2.134  17.529 -0.1012 -2.6681 -1.1428
 9444SOL    HW239969   4.608   2.139  17.624 -0.2906  0.0961  2.2583
 9445SOL     OW39970   3.793   3.055   7.195 -0.2335 -0.0827  0.4560
 9445SOL    HW139971   3.711   3.093   7.164  0.4085  0.7197 -0.2853
 9445SOL    HW239972   3.753   2.995   7.258 -0.3184 -0.3957  0.1012
 9446SOL     OW39973   0.416   0.307   3.201  0.2181  0.6148 -0.0116
 9446SOL    HW139974   0.358   0.278   3.272  0.4118  0.7250  0.1916
 9446SOL    HW239975   0.453   0.224   3.171 -0.9535  0.1965 -0.2995
 9447SOL     OW39976   0.585   3.942   8.166  0.3456 -0.1258  0.1732
 9447SOL    HW139977   0.584   3.890   8.085 -0.2335 -0.8220  0.6293
 9447SOL    HW239978   0.534   4.015   8.132  0.9644  0.6352  0.8605
 9448SOL     OW39979   1.218   0.545   7.492  0.3637  0.2767 -0.5315
 9448SOL    HW139980   1.222   0.605   7.566  2.3868 -1.2768  0.5992
 9448SOL    HW239981   1.191   0.468   7.542  0.4295  0.2309 -0.5664
 9449SOL     OW39982   0.430   3.992  17.249  0.2599  0.5466  0.2550
 9449SOL    HW139983   0.426   4.062  17.314 -0.1514 -0.0145  0.8390
 9449SOL    HW239984   0.514   3.947  17.256  0.7501  1.6242  1.2421
 9450SOL     OW39985   3.090   0.857   8.910  0.1580 -0.1889 -0.3614
 9450SOL    HW139986   3.117   0.815   8.829 -0.0567 -1.0526  0.0134
 9450SOL    HW239987   3.017   0.806   8.946 -1.1236 -0.2112 -3.0095
 9451SOL     OW39988   2.481   0.869   6.019 -0.0705 -0.1978 -0.0171
 9451SOL    HW139989   2.480   0.819   5.938  0.7855 -0.4318  0.1137
 9451SOL    HW239990   2.518   0.815   6.089 -1.9933  2.1172  2.7869
 9452SOL     OW39991   1.895   3.162   5.818 -0.0473 -0.2636  0.2702
 9452SOL    HW139992   1.964   3.228   5.813 -0.4052 -0.0218 -1.3930
 9452SOL    HW239993   1.837   3.184   5.746 -0.6614  2.3518  1.5499
 9453SOL     OW39994   4.462   0.418   3.196  0.2742  0.3301 -1.0549
 9453SOL    HW139995   4.527   0.412   3.126  1.8413 -0.6595  0.4804
 9453SOL    HW239996   4.455   0.329   3.231 -2.9235  1.2470  0.6040
 9454SOL     OW39997   1.728   2.418   1.929  0.1052 -0.2022 -0.4064
 9454SOL    HW139998   1.660   2.471   1.887  0.8572 -0.2303 -1.6799
 9454SOL    HW239999   1.712   2.332   1.889 -2.6688  0.6070 -1.0402
 9455SOL     OW40000   0.332   2.303   6.030  0.1743  0.3388 -0.5730
 9455SOL    HW140001   0.303   2.331   6.117 -1.6350  0.5932 -1.2590
 9455SOL    HW240002   0.258   2.336   5.980  0.6898  2.7742  0.2690
 9456SOL     OW40003   2.891   0.232   9.525 -0.2378 -0.3967 -0.1245
 9456SOL    HW140004   2.828   0.278   9.581 -1.3932 -0.8444 -1.0456
 9456SOL    HW240005   2.885   0.279   9.441  4.9070  0.1532 -0.1595
 9457SOL     OW40006   0.409   0.481   2.243 -0.1628  0.3113 -0.1703
 9457SOL    HW140007   0.479   0.527   2.197  0.1567 -0.1411 -0.1358
 9457SOL    HW240008   0.342   0.546   2.263  1.0729  1.5045  0.0480
 9458SOL     OW40009   1.590   4.239   4.310  0.1285  0.3075 -0.8293
 9458SOL    HW140010   1.672   4.209   4.270  0.5791  1.1559 -0.5471
 9458SOL    HW240011   1.594   4.178   4.384 -0.9632  0.8039 -0.3515
 9459SOL     OW40012   1.635   2.760   4.408 -0.0435  0.2998  0.0535
 9459SOL    HW140013   1.705   2.702   4.437 -0.8040 -0.5381  0.2146
 9459SOL    HW240014   1.571   2.741   4.477 -0.9755 -3.4058 -1.8041
 9460SOL     OW40015   0.592   2.980  17.668 -0.3798  0.5324  0.0714
 9460SOL    HW140016   0.503   2.974  17.634 -0.6536  0.4205  0.8189
 9460SOL    HW240017   0.617   3.069  17.641 -1.6940  1.5634  2.2055
 9461SOL     OW40018   2.004   1.746   9.919 -0.3483  0.0406 -0.0865
 9461SOL    HW140019   1.999   1.729  10.013 -0.7630 -0.4817 -0.2034
 9461SOL    HW240020   1.913   1.728   9.898  0.0180 -1.0463 -0.7510
 9462SOL     OW40021   1.631   0.621   7.498 -0.1005  0.3466 -0.2157
 9462SOL    HW140022   1.633   0.693   7.435 -1.8062  2.0731  1.7032
 9462SOL    HW240023   1.673   0.667   7.570  0.4772 -0.5950  0.0536
 9463SOL     OW40024   0.842   1.964   9.157  0.6174 -0.1515 -0.2325
 9463SOL    HW140025   0.894   1.886   9.173  2.3426  0.7521 -1.4466
 9463SOL    HW240026   0.757   1.933   9.190  0.3902  0.6207 -0.0989
 9464SOL     OW40027   1.480   4.485  17.167 -0.2298  0.0895  0.0501
 9464SOL    HW140028   1.568   4.516  17.190 -1.0411  2.4964 -0.0864
 9464SOL    HW240029   1.515   4.425  17.102  1.1733  2.4079 -1.3457
 9465SOL     OW40030   3.247   3.335   5.089 -0.0297  0.3001  0.2076
 9465SOL    HW140031   3.304   3.300   5.158  2.6212  2.1771 -1.0190
 9465SOL    HW240032   3.264   3.264   5.026  1.8407 -0.1040  1.1778
 9466SOL     OW40033   1.280   2.079   6.923  0.3885  0.0297 -0.1782
 9466SOL    HW140034   1.340   2.120   6.985 -0.7115  0.2504  0.7508
 9466SOL    HW240035   1.325   2.090   6.839  1.2419  0.1407  0.2956
 9467SOL     OW40036   3.853   4.475   8.313 -0.1857 -0.1029 -0.6653
 9467SOL    HW140037   3.819   4.564   8.313  1.8414  0.6786 -2.2801
 9467SOL    HW240038   3.871   4.471   8.407  0.8901  0.3554 -0.8543
 9468SOL     OW40039   2.617   1.612  16.156 -0.4327  0.0263 -0.4844
 9468SOL    HW140040   2.537   1.617  16.208 -1.7280 -1.0323 -2.3464
 9468SOL    HW240041   2.588   1.591  16.067 -1.7188 -1.5144  0.2946
 9469SOL     OW40042   2.426   1.489  13.072  0.2721 -0.1557 -0.1366
 9469SOL    HW140043   2.400   1.532  12.990 -0.5368 -1.5228 -0.6001
 9469SOL    HW240044   2.494   1.551  13.099 -0.4458  0.5354  0.0723
 9470SOL     OW40045   4.509   2.344  17.152 -0.1244 -0.1020  0.0255
 9470SOL    HW140046   4.504   2.425  17.103 -1.2016 -0.1275  0.0927
 9470SOL    HW240047   4.495   2.287  17.076 -0.6792  0.5192 -0.3311
 9471SOL     OW40048   4.520   3.131  13.093 -1.0275  0.7000  0.0874
 9471SOL    HW140049   4.455   3.174  13.148  0.2387  1.5661  0.9214
 9471SOL    HW240050   4.482   3.044  13.080  1.9779 -0.4901 -0.7508
 9472SOL     OW40051   3.848   0.875   3.378  0.0913 -0.2061  0.0985
 9472SOL    HW140052   3.776   0.881   3.315  0.2201 -1.7842 -0.2016
 9472SOL    HW240053   3.923   0.883   3.319  0.3434 -3.3026 -0.0163
 9473SOL     OW40054   4.504   0.352   3.561  0.3189 -0.2269  0.1655
 9473SOL    HW140055   4.460   0.284   3.611 -0.5670  0.3256  0.1424
 9473SOL    HW240056   4.587   0.357   3.607 -0.8003  0.2379  2.1149
 9474SOL     OW40057   4.529   2.601   4.068  0.2232  0.1167  0.0202
 9474SOL    HW140058   4.514   2.508   4.085 -0.8867  0.2746 -0.0732
 9474SOL    HW240059   4.624   2.606   4.072  0.2967 -1.2106  0.0820
 9475SOL     OW40060   1.718   1.863   5.400  0.1082 -0.4948 -0.1226
 9475SOL    HW140061   1.660   1.800   5.443 -0.3084 -0.8474 -1.1778
 9475SOL    HW240062   1.803   1.854   5.442  0.1792 -1.3611 -0.4514
 9476SOL     OW40063   3.907   4.675   4.969 -0.6898 -0.0585 -0.2972
 9476SOL    HW140064   3.979   4.647   5.025 -0.6329  0.3233 -0.1803
 9476SOL    HW240065   3.845   4.605   4.990 -1.4786  0.2078 -1.7406
 9477SOL     OW40066   3.064   1.269  11.851  0.2292  0.3424 -0.1426
 9477SOL    HW140067   2.990   1.212  11.834  0.2927  0.4811 -0.8982
 9477SOL    HW240068   3.115   1.228  11.921  0.3570 -0.0796 -0.4823
 9478SOL     OW40069   3.337   4.209  16.191 -0.3198  0.3617 -0.0023
 9478SOL    HW140070   3.332   4.275  16.260 -1.5660  1.6906 -1.3636
 9478SOL    HW240071   3.277   4.146  16.229  0.7970 -0.9199 -0.3442
 9479SOL     OW40072   3.602   1.414  16.456  0.5802  0.0397 -0.2755
 9479SOL    HW140073   3.537   1.396  16.389 -1.9418 -0.7192  2.3713
 9479SOL    HW240074   3.562   1.493  16.493  0.8694 -0.4757  1.1349
 9480SOL     OW40075   2.956   3.395   4.074  0.3745  0.1129  0.8117
 9480SOL    HW140076   3.042   3.407   4.035  1.0341  0.2423  2.3294
 9480SOL    HW240077   2.930   3.485   4.096  0.4464  1.1364 -3.3019
 9481SOL     OW40078   2.533   3.978   1.281  0.3980 -0.2446  0.3170
 9481SOL    HW140079   2.578   4.037   1.343  2.0162 -1.7056  0.5110
 9481SOL    HW240080   2.567   3.990   1.193  1.2655 -3.9020  0.1624
 9482SOL     OW40081   1.642   0.874   9.375  0.1174 -0.2242  0.3198
 9482SOL    HW140082   1.674   0.790   9.408  1.3964  0.0553 -0.2080
 9482SOL    HW240083   1.670   0.878   9.283 -1.8547  1.1426 -0.2393
 9483SOL     OW40084   1.568   3.846   5.974 -0.1508  0.4695  0.1319
 9483SOL    HW140085   1.497   3.910   5.968 -0.7107 -0.1516  0.1769
 9483SOL    HW240086   1.599   3.869   6.061 -0.5501 -1.1557  0.6891
 9484SOL     OW40087   1.343   3.731   5.588 -0.0899  0.2986 -0.0257
 9484SOL    HW140088   1.254   3.716   5.558  0.0276  0.7514 -0.5887
 9484SOL    HW240089   1.350   3.652   5.642  0.7419  0.6765  0.4279
 9485SOL     OW40090   0.735   2.748   7.668  0.2336  0.2933  0.0206
 9485SOL    HW140091   0.746   2.786   7.580 -0.0767  1.0011  0.2866
 9485SOL    HW240092   0.649   2.783   7.690 -0.1884 -0.2745 -0.7051
 9486SOL     OW40093   4.629   1.050   4.603  0.1224  0.8191 -0.2207
 9486SOL    HW140094   4.647   1.002   4.683 -0.3951 -0.9071 -1.1409
 9486SOL    HW240095   4.580   1.122   4.642  1.4538  2.0497 -0.7894
 9487SOL     OW40096   3.806   2.608  14.902  0.2327 -0.4642  0.1004
 9487SOL    HW140097   3.813   2.653  14.986  3.2228  0.3963 -0.5955
 9487SOL    HW240098   3.804   2.682  14.840  0.0084  0.5271  1.3022
 9488SOL     OW40099   2.725   3.342   3.851  0.2281  0.1809 -1.0028
 9488SOL    HW140100   2.776   3.313   3.928  0.7605 -0.8131 -1.7207
 9488SOL    HW240101   2.685   3.420   3.888  0.2799 -0.7436  1.0009
 9489SOL     OW40102   2.240   4.665  13.793 -0.4703 -0.2102 -0.1630
 9489SOL    HW140103   2.240   0.004  13.726 -0.7248  0.5005  0.5646
 9489SOL    HW240104   2.284   4.696  13.872  0.5828 -0.3841 -0.6854
 9490SOL     OW40105   1.827   2.998   6.046 -0.6351  0.3700 -0.0543
 9490SOL    HW140106   1.735   2.980   6.064 -0.5883  1.0452  0.8780
 9490SOL    HW240107   1.825   3.058   5.972  1.5994  0.2508 -0.2176
 9491SOL     OW40108   3.327   4.495   2.345 -0.6857 -0.2937 -0.4646
 9491SOL    HW140109   3.370   4.519   2.263  1.9700  1.7781  1.5269
 9491SOL    HW240110   3.400   4.461   2.397 -1.0937 -0.3950  0.0507
 9492SOL     OW40111   3.043   1.605   8.607 -0.1759 -0.0444 -0.2448
 9492SOL    HW140112   3.113   1.668   8.593  0.6281 -1.0002 -0.5230
 9492SOL    HW240113   2.967   1.657   8.584 -0.5371  0.0408  1.1489
 9493SOL     OW40114   2.267   4.465   0.379 -0.6022 -0.1431 -0.0336
 9493SOL    HW140115   2.321   4.509   0.313  0.0428 -2.2237 -0.8990
 9493SOL    HW240116   2.242   4.384   0.335  1.1827 -0.6718 -0.0928
 9494SOL     OW40117   3.548   0.591   3.579  0.0581  0.1920  0.3688
 9494SOL    HW140118   3.556   0.558   3.490  0.9027  1.8952 -0.1881
 9494SOL    HW240119   3.553   0.509   3.629 -0.1291 -0.0122  0.0530
 9495SOL     OW40120   3.868   0.313  11.120  0.3379  0.4410  0.2963
 9495SOL    HW140121   3.870   0.381  11.052 -1.2518  1.2246  1.0365
 9495SOL    HW240122   3.840   0.245  11.060  0.9100  0.4804 -0.0222
 9496SOL     OW40123   0.588   4.409   2.256  0.2625  0.0191  0.1291
 9496SOL    HW140124   0.531   4.333   2.269 -0.4627  0.4021 -0.7904
 9496SOL    HW240125   0.530   4.481   2.229  1.6400  1.7478  1.7813
 9497SOL     OW40126   0.813   3.063   8.824  0.1682  0.3177  0.2750
 9497SOL    HW140127   0.894   3.079   8.872  0.0003 -2.3259  1.4409
 9497SOL    HW240128   0.838   3.041   8.734  1.7732 -3.7826  1.7578
 9498SOL     OW40129   2.329   3.911  11.162  0.0773  0.1435  0.8375
 9498SOL    HW140130   2.245   3.904  11.119  1.1743 -1.0634 -1.0955
 9498SOL    HW240131   2.387   3.857  11.109  0.3568  1.3331 -0.0673
 9499SOL     OW40132   0.929   1.354   4.675 -0.4000 -0.0239  0.1852
 9499SOL    HW140133   0.852   1.411   4.677  0.5498  1.2117  1.7363
 9499SOL    HW240134   0.898   1.264   4.683  1.6917 -0.8599 -1.2573
 9500SOL     OW40135   1.175   4.032   5.194 -0.0266  0.1658  0.3959
 9500SOL    HW140136   1.244   4.079   5.242  1.4815 -2.1377  0.4889
 9500SOL    HW240137   1.189   4.073   5.109 -1.5628 -0.9165 -0.3865
 9501SOL     OW40138   0.030   4.363   4.818 -0.1975  0.4696 -0.0799
 9501SOL    HW140139   0.067   4.361   4.729  0.4652 -1.3151  0.2445
 9501SOL    HW240140   0.016   4.457   4.832  1.1576  0.9598 -1.9552
 9502SOL     OW40141   1.881   3.761  16.254  0.4051 -0.5443 -0.7320
 9502SOL    HW140142   1.815   3.702  16.217  0.4697  0.4003 -2.3738
 9502SOL    HW240143   1.953   3.763  16.191  1.5798 -0.2166  0.6485
 9503SOL     OW40144   0.706   1.986   1.290  0.7560 -0.1171  0.3706
 9503SOL    HW140145   0.645   1.940   1.349 -0.5746  0.2757 -0.7200
 9503SOL    HW240146   0.778   1.924   1.295  0.4330 -0.5521 -0.3650
 9504SOL     OW40147   1.018   4.628   7.460  0.3537  0.7120  0.1857
 9504SOL    HW140148   0.961   4.704   7.459  0.5118  0.8037 -1.4958
 9504SOL    HW240149   0.960   4.553   7.469  0.4327  0.7057  0.6686
 9505SOL     OW40150   2.157   0.338   8.863 -0.4148 -0.4660 -0.2231
 9505SOL    HW140151   2.203   0.366   8.942  0.6352 -0.3356 -0.8900
 9505SOL    HW240152   2.100   0.413   8.846  0.2123 -0.4193 -2.0758
 9506SOL     OW40153   0.526   2.914   8.278 -0.4863 -0.0582  0.1960
 9506SOL    HW140154   0.528   2.981   8.210 -1.3452  0.1554  0.3751
 9506SOL    HW240155   0.502   2.963   8.357  2.1655  0.3484  0.7429
 9507SOL     OW40156   4.096   0.146  14.192  0.0708  0.1585  0.0293
 9507SOL    HW140157   4.120   0.238  14.197 -1.3926  0.3808  2.8974
 9507SOL    HW240158   4.147   0.107  14.122 -0.4483 -0.3477 -0.0709
 9508SOL     OW40159   2.481   0.993   1.250 -1.0553 -0.6249 -0.4389
 9508SOL    HW140160   2.476   1.050   1.326 -0.3256 -1.7492  0.4453
 9508SOL    HW240161   2.516   0.912   1.287  2.1197  1.1856  0.5569
 9509SOL     OW40162   2.268   3.630  10.049 -0.1214 -0.2223 -0.1014
 9509SOL    HW140163   2.188   3.664  10.090  0.5313  2.5461 -1.1194
 9509SOL    HW240164   2.337   3.690  10.076 -0.4880  0.3408 -0.4062
 9510SOL     OW40165   0.535   1.552   5.472  0.0596  0.0758  0.4968
 9510SOL    HW140166   0.523   1.460   5.496  0.8915 -0.2738 -0.4384
 9510SOL    HW240167   0.462   1.557   5.411 -2.1728 -0.5513  3.1341
 9511SOL     OW40168   0.128   3.876  14.799  0.0849  0.2390 -0.4765
 9511SOL    HW140169   0.053   3.817  14.789  1.8626 -1.9945 -0.5934
 9511SOL    HW240170   0.083   3.954  14.833 -0.9059 -1.7183  2.7085
 9512SOL     OW40171   1.418   0.025   1.634  0.9120 -0.0620  0.1480
 9512SOL    HW140172   1.506   0.056   1.654  0.2415  1.9619 -0.0240
 9512SOL    HW240173   1.362   0.067   1.699  1.2558  0.8087 -0.1303
 9513SOL     OW40174   2.343   2.999   2.757 -0.3227 -0.4494  0.4067
 9513SOL    HW140175   2.363   3.091   2.743  0.6776 -0.1374  3.8886
 9513SOL    HW240176   2.427   2.964   2.728 -0.0317  1.1550 -0.6718
 9514SOL     OW40177   2.757   4.660  16.149  0.1617 -0.5503  0.2861
 9514SOL    HW140178   2.800   4.723  16.091  0.1800 -1.5420 -0.7729
 9514SOL    HW240179   2.737   4.713  16.226  2.5922 -2.4030  2.2255
 9515SOL     OW40180   1.078   0.577   1.712  0.1868 -0.5779 -0.2413
 9515SOL    HW140181   1.090   0.482   1.710  1.2766 -0.4423  0.1561
 9515SOL    HW240182   1.163   0.607   1.678 -0.5774  1.4018 -0.4401
 9516SOL     OW40183   1.535   1.460  16.339 -0.0575 -0.4257 -0.2069
 9516SOL    HW140184   1.608   1.522  16.345 -0.0644 -0.2154 -2.3912
 9516SOL    HW240185   1.530   1.441  16.433 -2.4184  0.1149 -0.2102
 9517SOL     OW40186   1.310   3.802   7.956  0.5076  0.5504 -0.5069
 9517SOL    HW140187   1.225   3.845   7.964 -0.5470 -2.4087  4.2249
 9517SOL    HW240188   1.360   3.874   7.919  0.5575 -0.6810 -2.8380
 9518SOL     OW40189   3.610   4.460   9.140  0.4203 -0.1528 -0.4718
 9518SOL    HW140190   3.549   4.417   9.200 -0.4164 -2.4080 -2.9249
 9518SOL    HW240191   3.693   4.416   9.154  0.6073  0.2071 -0.4476
 9519SOL     OW40192   4.071   0.802  13.786 -0.3774  0.3273 -0.5386
 9519SOL    HW140193   4.118   0.843  13.859  1.9453 -1.5219 -1.0246
 9519SOL    HW240194   4.148   0.766  13.743 -2.4521 -1.8717 -2.3684
 9520SOL     OW40195   2.938   3.887   2.650 -0.0806 -0.4911  0.1140
 9520SOL    HW140196   2.987   3.812   2.682  1.8482  0.0731 -1.5403
 9520SOL    HW240197   2.857   3.893   2.701 -0.5640 -0.9240 -0.5976
 9521SOL     OW40198   1.580   3.281  10.141  0.0386  0.2219  0.2720
 9521SOL    HW140199   1.667   3.241  10.132  0.5201  1.0879  1.0453
 9521SOL    HW240200   1.576   3.311  10.232 -1.2531 -0.2947  0.3891
 9522SOL     OW40201   4.004   2.946   4.029  0.5996  0.3457  0.1577
 9522SOL    HW140202   3.919   2.974   3.997  1.0495  1.8029  0.2426
 9522SOL    HW240203   3.979   2.893   4.105  0.4534  0.0506 -0.0944
 9523SOL     OW40204   1.610   4.316  15.792  0.2136  0.4653 -0.1953
 9523SOL    HW140205   1.614   4.333  15.886  1.7929 -0.4240 -0.1069
 9523SOL    HW240206   1.542   4.249  15.789  2.7404 -2.0525 -0.6878
 9524SOL     OW40207   1.360   3.020   7.606 -0.0243  0.1138 -0.1927
 9524SOL    HW140208   1.428   3.069   7.560 -1.8303  1.7364 -1.1300
 9524SOL    HW240209   1.328   2.970   7.532 -0.1685 -0.2695  0.1262
 9525SOL     OW40210   2.475   0.044  11.163 -0.0914  0.1510 -0.2734
 9525SOL    HW140211   2.553   4.727  11.196  0.5426 -0.2131 -2.2711
 9525SOL    HW240212   2.408   4.707  11.181 -0.9210  1.2077  0.4451
 9526SOL     OW40213   1.135   2.626  17.593  0.1989  0.0977  0.1584
 9526SOL    HW140214   1.059   2.612  17.650  0.2247 -0.9903 -0.0813
 9526SOL    HW240215   1.158   2.538  17.563 -0.9338 -0.1757  0.0780
 9527SOL     OW40216   0.748   1.699   9.028  0.6639  0.0793  0.4380
 9527SOL    HW140217   0.733   1.738   8.942 -1.0140 -2.5156 -0.4358
 9527SOL    HW240218   0.658   1.680   9.056  0.9068 -0.7982  0.6126
 9528SOL     OW40219   4.388   1.800  10.105 -0.0022  0.8149  0.4684
 9528SOL    HW140220   4.299   1.767  10.113  0.5743 -0.8581  0.0241
 9528SOL    HW240221   4.387   1.857  10.029  1.7299 -1.2099 -1.0783
 9529SOL     OW40222   1.544   1.598   9.685  0.1217  0.6270  0.2385
 9529SOL    HW140223   1.477   1.665   9.673  0.0832  0.9248  2.2251
 9529SOL    HW240224   1.607   1.626   9.751  0.1224 -0.7529  0.8407
 9530SOL     OW40225   4.636   2.847   2.362 -0.2436 -0.5132 -0.4451
 9530SOL    HW140226   4.593   2.885   2.285 -1.1841 -1.6779 -0.4895
 9530SOL    HW240227   4.677   2.767   2.328 -1.8456 -1.7414  0.5874
 9531SOL     OW40228   3.189   3.564  12.507 -0.0370 -0.1100 -0.1869
 9531SOL    HW140229   3.129   3.627  12.546  0.5172  0.6707 -0.5811
 9531SOL    HW240230   3.156   3.566  12.418  0.7859 -0.5305 -0.5100
 9532SOL     OW40231   1.995   0.582   1.714  0.0167  0.4037  0.2294
 9532SOL    HW140232   2.080   0.623   1.729 -0.5198  2.6540 -2.9622
 9532SOL    HW240233   1.978   0.559   1.805  0.3646 -0.0492  0.1857
 9533SOL     OW40234   3.349   4.722  15.449  0.7982  0.4317  0.3718
 9533SOL    HW140235   3.344   0.033  15.536  0.6034  1.3792 -0.0660
 9533SOL    HW240236   3.299   0.060  15.401  0.2974 -1.0861 -1.2162
 9534SOL     OW40237   2.694   1.187   8.725 -0.0857 -0.5318 -0.1676
 9534SOL    HW140238   2.612   1.166   8.770 -1.9227  1.0164 -2.7676
 9534SOL    HW240239   2.747   1.218   8.798 -0.5073  3.0658 -1.4067
 9535SOL     OW40240   0.809   1.524   7.101 -0.2635  0.4055 -0.4463
 9535SOL    HW140241   0.898   1.540   7.068 -0.3443  0.9196 -0.4097
 9535SOL    HW240242   0.831   1.484   7.185 -3.5682  1.1258  0.7509
 9536SOL     OW40243   1.425   3.304   2.841 -0.3945 -0.3902 -0.3304
 9536SOL    HW140244   1.357   3.353   2.795  0.3587  1.4276  0.5291
 9536SOL    HW240245   1.377   3.222   2.858 -1.4565  0.5416  1.1330
 9537SOL     OW40246   4.272   1.028   2.013  0.1486 -0.0006 -0.0461
 9537SOL    HW140247   4.201   1.046   1.951 -0.6367  1.3940  1.2531
 9537SOL    HW240248   4.338   1.075   1.962 -1.0870 -0.8517 -2.4069
 9538SOL     OW40249   2.709   2.397   2.170  0.1316  0.6882 -0.2344
 9538SOL    HW140250   2.672   2.311   2.148 -0.0200  1.4633 -3.0399
 9538SOL    HW240251   2.752   2.422   2.088  2.9594  0.4544  1.1864
 9539SOL     OW40252   4.260   3.610  13.692  0.4407  0.1001  0.2288
 9539SOL    HW140253   4.342   3.572  13.663  0.7275 -0.2211  1.4670
 9539SOL    HW240254   4.285   3.703  13.688 -1.1651  0.5339  0.0686
 9540SOL     OW40255   1.587   2.727   5.927 -0.0082  0.1968  0.4531
 9540SOL    HW140256   1.564   2.820   5.936 -0.1685  0.2588 -0.5832
 9540SOL    HW240257   1.665   2.731   5.873 -0.8374  1.0496 -0.6953
 9541SOL     OW40258   1.172   3.882  11.468  0.0656 -0.4595 -0.6019
 9541SOL    HW140259   1.219   3.898  11.549  1.0226  0.9742 -1.4437
 9541SOL    HW240260   1.118   3.961  11.465  3.0865  1.6139  0.6804
 9542SOL     OW40261   0.253   2.338   5.710  0.1251  0.4525  0.3205
 9542SOL    HW140262   0.237   2.316   5.618  0.3682  1.4897  0.0354
 9542SOL    HW240263   0.194   2.279   5.756  0.7132 -0.3900  0.0194
 9543SOL     OW40264   1.113   0.290   7.304  0.4302 -0.0958 -0.1668
 9543SOL    HW140265   1.159   0.240   7.371  0.3454 -2.9350 -2.2027
 9543SOL    HW240266   1.024   0.267   7.328 -0.4358  0.1528 -3.1159
 9544SOL     OW40267   3.326   2.926   4.324 -0.0933  0.2350  0.4380
 9544SOL    HW140268   3.349   2.844   4.369 -1.1522  0.2241  0.9554
 9544SOL    HW240269   3.314   2.990   4.394 -1.0019  1.0601 -0.4709
 9545SOL     OW40270   0.219   2.263  16.401  0.1380 -0.8803 -0.8060
 9545SOL    HW140271   0.291   2.242  16.342 -0.1955  0.6519 -1.7653
 9545SOL    HW240272   0.219   2.358  16.409  1.7827 -0.7634 -2.2032
 9546SOL     OW40273   2.988   2.278  10.770 -0.4372  0.3618 -0.4583
 9546SOL    HW140274   3.077   2.293  10.736 -0.1938 -0.2614 -0.0994
 9546SOL    HW240275   2.956   2.357  10.814 -2.2843 -0.4692 -0.3259
 9547SOL     OW40276   3.931   4.156  10.141 -0.0211  0.1919  0.1889
 9547SOL    HW140277   3.892   4.234  10.100  2.3085  0.5465 -1.3737
 9547SOL    HW240278   3.991   4.140  10.069 -1.5447  1.3281 -1.3617
 9548SOL     OW40279   4.557   3.680  13.326 -0.2196  0.2316  0.1011
 9548SOL    HW140280   4.511   3.715  13.249 -0.5622 -0.9485 -0.2356
 9548SOL    HW240281   4.485   3.632  13.367 -0.4654 -0.9607 -1.7336
 9549SOL     OW40282   0.912   3.530  10.838  0.2490  0.4396  0.0548
 9549SOL    HW140283   0.834   3.568  10.797 -0.0730 -0.5453 -0.2329
 9549SOL    HW240284   0.880   3.442  10.854 -0.5631  0.7131 -0.0719
 9550SOL     OW40285   3.915   1.825   2.257  0.0359  0.2393 -0.0027
 9550SOL    HW140286   3.847   1.760   2.272  0.3876 -0.0744  0.2390
 9550SOL    HW240287   3.922   1.873   2.340  1.4861 -0.0957  0.0826
 9551SOL     OW40288   0.240   1.180   5.661 -0.3022  0.1747  0.3356
 9551SOL    HW140289   0.212   1.106   5.715 -3.2608  1.2742  0.2660
 9551SOL    HW240290   0.206   1.248   5.719 -3.9389 -0.1911 -1.3772
 9552SOL     OW40291   3.991   2.579  15.545  0.3653  0.3061  0.3605
 9552SOL    HW140292   3.903   2.583  15.506  0.5197  0.7186  0.0514
 9552SOL    HW240293   4.043   2.587  15.465 -1.0276 -1.6375 -0.7463
 9553SOL     OW40294   0.057   2.663  13.168  0.7532  0.2436  0.1438
 9553SOL    HW140295   0.121   2.639  13.235 -2.2535 -1.4642  2.4068
 9553SOL    HW240296   4.701   2.643  13.207 -0.0629  0.1001 -1.7175
 9554SOL     OW40297   1.451   4.465   4.301 -0.4711 -0.3160 -0.0482
 9554SOL    HW140298   1.469   4.482   4.209  3.1458  2.4533  1.1820
 9554SOL    HW240299   1.517   4.398   4.314 -1.8953 -1.9677 -1.3266
 9555SOL     OW40300   4.449   0.377   9.251 -0.6860  0.8549  0.2506
 9555SOL    HW140301   4.472   0.457   9.204  1.6640 -0.0283 -0.0688
 9555SOL    HW240302   4.440   0.409   9.341 -2.6859  0.0721  0.3460
 9556SOL     OW40303   2.173   0.910   4.259  0.3279  0.1543  0.1256
 9556SOL    HW140304   2.183   0.925   4.353  0.9111  1.9150 -0.2071
 9556SOL    HW240305   2.097   0.855   4.280  0.8011 -0.9117 -0.9938
 9557SOL     OW40306   1.380   1.158   4.614 -0.3098  0.5002 -0.1589
 9557SOL    HW140307   1.442   1.201   4.556  0.8847  1.9166  2.1604
 9557SOL    HW240308   1.301   1.165   4.561 -0.2110  0.3065 -0.3324
 9558SOL     OW40309   0.912   2.464   3.949  0.1499 -0.5093  0.2669
 9558SOL    HW140310   0.905   2.379   3.992 -1.3203 -1.4323 -1.7815
 9558SOL    HW240311   0.829   2.510   3.960 -0.3026 -1.0404 -0.9547
 9559SOL     OW40312   4.118   4.388   8.260 -0.1954 -0.3712  0.0709
 9559SOL    HW140313   4.027   4.403   8.285 -0.6332 -1.8000 -0.6314
 9559SOL    HW240314   4.122   4.459   8.196 -2.3077 -1.2858 -1.0854
 9560SOL     OW40315   3.846   0.583   6.852 -0.1638  0.1427  0.0308
 9560SOL    HW140316   3.807   0.512   6.903 -1.1887  0.2410 -0.6155
 9560SOL    HW240317   3.938   0.563   6.865 -0.0593 -0.0373 -1.0291
 9561SOL     OW40318   1.036   3.087  16.731 -0.1043 -0.8203  0.4109
 9561SOL    HW140319   0.987   3.105  16.811 -0.5053  2.4196 -0.5795
 9561SOL    HW240320   1.026   2.993  16.713  0.8055 -1.0553  1.1166
 9562SOL     OW40321   1.375   3.720   4.804  0.3827  0.1607  0.3108
 9562SOL    HW140322   1.339   3.750   4.887 -1.8838 -0.2071 -0.5454
 9562SOL    HW240323   1.304   3.668   4.765  0.2835 -0.3892  1.2360
 9563SOL     OW40324   4.684   2.795   2.625 -0.1989  0.0972  0.2655
 9563SOL    HW140325   4.595   2.792   2.661  0.2423  1.4477  1.5090
 9563SOL    HW240326   4.657   2.831   2.541  0.5710  0.7751  0.3086
 9564SOL     OW40327   1.635   3.449   3.009  0.2943 -0.1032 -0.2418
 9564SOL    HW140328   1.689   3.445   2.929  0.7559 -1.4480  0.1249
 9564SOL    HW240329   1.547   3.429   2.978  0.0747  0.6297 -0.0832
 9565SOL     OW40330   2.612   0.965   7.598  0.0925  0.3137  0.2072
 9565SOL    HW140331   2.699   0.933   7.625 -0.2890 -0.2791  0.7417
 9565SOL    HW240332   2.565   0.883   7.582  1.1907  0.2553 -2.7002
 9566SOL     OW40333   2.941   3.580   9.905 -0.1407  0.6275  0.4795
 9566SOL    HW140334   2.937   3.587  10.000  0.8888 -1.8695  0.7193
 9566SOL    HW240335   2.921   3.487   9.900  0.5509  0.4835  0.3956
 9567SOL     OW40336   1.700   0.474   1.643  0.2424  0.1012  0.0736
 9567SOL    HW140337   1.778   0.509   1.685 -0.1640  0.5876  0.4262
 9567SOL    HW240338   1.649   0.549   1.612 -0.8372 -0.4177  0.5505
 9568SOL     OW40339   0.798   2.345   4.902 -0.2006 -0.0308 -0.0900
 9568SOL    HW140340   0.819   2.320   4.812  2.2539  0.9858  0.1762
 9568SOL    HW240341   0.853   2.284   4.951 -0.7917 -1.8217 -1.6707
 9569SOL     OW40342   1.945   3.852   1.736  0.8091 -0.1302 -0.0554
 9569SOL    HW140343   1.960   3.919   1.668 -0.2746  1.3993  1.2171
 9569SOL    HW240344   1.981   3.773   1.696 -0.6087 -1.1513  0.7379
   4.72914   4.72914  17.71693
